<event>
 4    0  0.2193754E-002  0.1859382E+03  0.7546771E-02  0.1162177E+00
         21   -1    0    0  502  501  0.00000000000E+00  0.00000000000E+00  0.16922751848E+04  0.16922751848E+04  0.00000000000E+00 0.  1.
         21   -1    0    0  501  502 -0.00000000000E+00 -0.00000000000E+00 -0.20429902200E+02  0.20429902200E+02  0.00000000000E+00 0.  1.
         25    1    1    2    0    0 -0.10011949787E+03 -0.56564614357E+02  0.48746136699E+03  0.51620446895E+03  0.12500000000E+03 0.  0.
         25    1    1    2    0    0  0.10011949787E+03  0.56564614357E+02  0.11843839156E+04  0.11965006180E+04  0.12500000000E+03 0.  0.
</event>
<event>
 4    0  0.2193754E-002  0.1644862E+03  0.7546771E-02  0.1183723E+00
         21   -1    0    0  502  501  0.00000000000E+00  0.00000000000E+00  0.55838469929E+02  0.55838469929E+02  0.00000000000E+00 0.  1.
         21   -1    0    0  501  502 -0.00000000000E+00 -0.00000000000E+00 -0.48453510439E+03  0.48453510439E+03  0.00000000000E+00 0.  1.
         25    1    1    2    0    0  0.31381210802E+02 -0.47148728263E+02 -0.65395866594E+02  0.15201776980E+03  0.12500000000E+03 0.  0.
         25    1    1    2    0    0 -0.31381210802E+02  0.47148728263E+02 -0.36330076787E+03  0.38835580451E+03  0.12500000000E+03 0.  0.
</event>
<event>
 4    0  0.2193754E-002  0.1897519E+03  0.7546771E-02  0.1158685E+00
         21   -1    0    0  502  501  0.00000000000E+00  0.00000000000E+00  0.32688416613E+03  0.32688416613E+03  0.00000000000E+00 0. -1.
         21   -1    0    0  501  502 -0.00000000000E+00 -0.00000000000E+00 -0.11014843122E+03  0.11014843122E+03  0.00000000000E+00 0. -1.
         25    1    1    2    0    0  0.50487454891E+02  0.13169214401E+03  0.13383269300E+03  0.23114496233E+03  0.12500000000E+03 0.  0.
         25    1    1    2    0    0 -0.50487454891E+02 -0.13169214401E+03  0.82903041920E+02  0.20588763502E+03  0.12500000000E+03 0.  0.
</event>
<event>
 4    0  0.2193754E-002  0.2855879E+03  0.7546771E-02  0.1092676E+00
         21   -1    0    0  502  501  0.00000000000E+00  0.00000000000E+00  0.28620915531E+03  0.28620915531E+03  0.00000000000E+00 0.  1.
         21   -1    0    0  501  502 -0.00000000000E+00 -0.00000000000E+00 -0.28496795175E+03  0.28496795175E+03  0.00000000000E+00 0.  1.
         25    1    1    2    0    0 -0.83961708939E+02 -0.10711510571E+03  0.21836459415E+03  0.28606172484E+03  0.12500000000E+03 0.  0.
         25    1    1    2    0    0  0.83961708939E+02  0.10711510571E+03 -0.21712339058E+03  0.28511538222E+03  0.12500000000E+03 0.  0.
</event>
<event>
 4    0  0.2193754E-002  0.2184966E+03  0.7546771E-02  0.1135009E+00
         21   -1    0    0  502  501  0.00000000000E+00  0.00000000000E+00  0.11848305447E+03  0.11848305447E+03  0.00000000000E+00 0.  1.
         21   -1    0    0  501  502 -0.00000000000E+00 -0.00000000000E+00 -0.40293337874E+03  0.40293337874E+03  0.00000000000E+00 0.  1.
         25    1    1    2    0    0  0.66211476375E+01 -0.17408005801E+03 -0.19239698246E+03  0.28807864387E+03  0.12500000000E+03 0.  0.
         25    1    1    2    0    0 -0.66211476375E+01  0.17408005801E+03 -0.92053341816E+02  0.23333778934E+03  0.12500000000E+03 0.  0.
</event>
<event>
 4    0  0.2193754E-002  0.4450515E+03  0.7546771E-02  0.1029208E+00
         21   -1    0    0  502  501  0.00000000000E+00  0.00000000000E+00  0.73884214971E+03  0.73884214971E+03  0.00000000000E+00 0. -1.
         21   -1    0    0  501  502 -0.00000000000E+00 -0.00000000000E+00 -0.26808271694E+03  0.26808271694E+03  0.00000000000E+00 0. -1.
         25    1    1    2    0    0 -0.31674893609E+03  0.75746401897E+02  0.54801797501E+03  0.64962766786E+03  0.12500000000E+03 0.  0.
         25    1    1    2    0    0  0.31674893609E+03 -0.75746401897E+02 -0.77258542244E+02  0.35729719879E+03  0.12500000000E+03 0.  0.
</event>
<event>
 4    0  0.2193754E-002  0.1564400E+03  0.7546771E-02  0.1192776E+00
         21   -1    0    0  502  501  0.00000000000E+00  0.00000000000E+00  0.33351702334E+03  0.33351702334E+03  0.00000000000E+00 0. -1.
         21   -1    0    0  501  502 -0.00000000000E+00 -0.00000000000E+00 -0.73379943774E+02  0.73379943774E+02  0.00000000000E+00 0. -1.
         25    1    1    2    0    0 -0.78908884127E+02 -0.86575618686E+01  0.19570003393E+03  0.24540796371E+03  0.12500000000E+03 0.  0.
         25    1    1    2    0    0  0.78908884127E+02  0.86575618686E+01  0.64437045641E+02  0.16148900341E+03  0.12500000000E+03 0.  0.
</event>
<event>
 4    0  0.2193754E-002  0.2452577E+03  0.7546771E-02  0.1116339E+00
         21   -1    0    0  502  501  0.00000000000E+00  0.00000000000E+00  0.12744149430E+03  0.12744149430E+03  0.00000000000E+00 0. -1.
         21   -1    0    0  501  502 -0.00000000000E+00 -0.00000000000E+00 -0.47199176132E+03  0.47199176132E+03  0.00000000000E+00 0. -1.
         25    1    1    2    0    0 -0.76716079298E+02 -0.10634418300E+03  0.29758213718E+02  0.18358919730E+03  0.12500000000E+03 0.  0.
         25    1    1    2    0    0  0.76716079298E+02  0.10634418300E+03 -0.37430848074E+03  0.41584405831E+03  0.12500000000E+03 0.  0.
</event>
<event>
 4    0  0.2193754E-002  0.2053844E+03  0.7546771E-02  0.1145274E+00
         21   -1    0    0  502  501  0.00000000000E+00  0.00000000000E+00  0.20560072502E+03  0.20560072502E+03  0.00000000000E+00 0.  1.
         21   -1    0    0  501  502 -0.00000000000E+00 -0.00000000000E+00 -0.20516833317E+03  0.20516833317E+03  0.00000000000E+00 0.  1.
         25    1    1    2    0    0  0.10452858741E+03  0.29560502243E+02  0.12169757526E+03  0.20551240523E+03  0.12500000000E+03 0.  0.
         25    1    1    2    0    0 -0.10452858741E+03 -0.29560502243E+02 -0.12126518340E+03  0.20525665296E+03  0.12500000000E+03 0.  0.
</event>
<event>
 4    0  0.2193754E-002  0.3247629E+03  0.7546771E-02  0.1073478E+00
         21   -1    0    0  502  501  0.00000000000E+00  0.00000000000E+00  0.57884483062E+03  0.57884483062E+03  0.00000000000E+00 0. -1.
         21   -1    0    0  501  502 -0.00000000000E+00 -0.00000000000E+00 -0.18220936715E+03  0.18220936715E+03  0.00000000000E+00 0. -1.
         25    1    1    2    0    0 -0.57922860024E+01  0.11326234471E+03  0.52341963540E+03  0.54995911123E+03  0.12500000000E+03 0.  0.
         25    1    1    2    0    0  0.57922860024E+01 -0.11326234471E+03 -0.12678417193E+03  0.21109508653E+03  0.12500000000E+03 0.  0.
</event>
<event>
 4    0  0.2193754E-002  0.4010173E+03  0.7546771E-02  0.1043428E+00
         21   -1    0    0  502  501  0.00000000000E+00  0.00000000000E+00  0.41380276454E+03  0.41380276454E+03  0.00000000000E+00 0. -1.
         21   -1    0    0  501  502 -0.00000000000E+00 -0.00000000000E+00 -0.38862677858E+03  0.38862677858E+03  0.00000000000E+00 0. -1.
         25    1    1    2    0    0  0.14291070059E+03  0.35200968980E+03 -0.16676119889E+02  0.40029661881E+03  0.12500000000E+03 0.  0.
         25    1    1    2    0    0 -0.14291070059E+03 -0.35200968980E+03  0.41852105846E+02  0.40213292431E+03  0.12500000000E+03 0.  0.
</event>
<event>
 4    0  0.2193754E-002  0.1940641E+03  0.7546771E-02  0.1154846E+00
         21   -1    0    0  502  501  0.00000000000E+00  0.00000000000E+00  0.32072761957E+03  0.32072761957E+03  0.00000000000E+00 0. -1.
         21   -1    0    0  501  502 -0.00000000000E+00 -0.00000000000E+00 -0.11742327117E+03  0.11742327117E+03  0.00000000000E+00 0. -1.
         25    1    1    2    0    0  0.93322081116E+02 -0.34945601790E+02 -0.22553957509E+02  0.16144313831E+03  0.12500000000E+03 0.  0.
         25    1    1    2    0    0 -0.93322081116E+02  0.34945601790E+02  0.22585830591E+03  0.27670775243E+03  0.12500000000E+03 0.  0.
</event>
<event>
 4    0  0.2193754E-002  0.1888665E+03  0.7546771E-02  0.1159488E+00
         21   -1    0    0  502  501  0.00000000000E+00  0.00000000000E+00  0.87887942539E+02  0.87887942539E+02  0.00000000000E+00 0. -1.
         21   -1    0    0  501  502 -0.00000000000E+00 -0.00000000000E+00 -0.40586421176E+03  0.40586421176E+03  0.00000000000E+00 0. -1.
         25    1    1    2    0    0  0.90760758115E+02 -0.87764339465E+02 -0.75234099385E+02  0.19293849851E+03  0.12500000000E+03 0.  0.
         25    1    1    2    0    0 -0.90760758115E+02  0.87764339465E+02 -0.24274216984E+03  0.30081365580E+03  0.12500000000E+03 0.  0.
</event>
<event>
 4    0  0.2193754E-002  0.3964886E+03  0.7546771E-02  0.1045002E+00
         21   -1    0    0  502  501  0.00000000000E+00  0.00000000000E+00  0.19811789396E+03  0.19811789396E+03  0.00000000000E+00 0.  1.
         21   -1    0    0  501  502 -0.00000000000E+00 -0.00000000000E+00 -0.79348329610E+03  0.79348329610E+03  0.00000000000E+00 0.  1.
         25    1    1    2    0    0 -0.13386127707E+03  0.20697696948E+02  0.14128876398E+03  0.23223856481E+03  0.12500000000E+03 0.  0.
         25    1    1    2    0    0  0.13386127707E+03 -0.20697696948E+02 -0.73665416612E+03  0.75936262525E+03  0.12500000000E+03 0.  0.
</event>
<event>
 4    0  0.2193754E-002  0.2149021E+03  0.7546771E-02  0.1137742E+00
         21   -1    0    0  502  501  0.00000000000E+00  0.00000000000E+00  0.17213849873E+03  0.17213849873E+03  0.00000000000E+00 0. -1.
         21   -1    0    0  501  502 -0.00000000000E+00 -0.00000000000E+00 -0.26828916018E+03  0.26828916018E+03  0.00000000000E+00 0. -1.
         25    1    1    2    0    0 -0.61804722668E+02 -0.10026042775E+03 -0.18044212439E+03  0.24911109443E+03  0.12500000000E+03 0.  0.
         25    1    1    2    0    0  0.61804722668E+02  0.10026042775E+03  0.84291462937E+02  0.19131656447E+03  0.12500000000E+03 0.  0.
</event>
<event>
 4    0  0.2193754E-002  0.1897682E+03  0.7546771E-02  0.1158671E+00
         21   -1    0    0  502  501  0.00000000000E+00  0.00000000000E+00  0.11213692007E+03  0.11213692007E+03  0.00000000000E+00 0.  1.
         21   -1    0    0  501  502 -0.00000000000E+00 -0.00000000000E+00 -0.32114269377E+03  0.32114269377E+03  0.00000000000E+00 0.  1.
         25    1    1    2    0    0  0.23190729196E+02 -0.25939435799E+02 -0.26259026640E+03  0.29289812608E+03  0.12500000000E+03 0.  0.
         25    1    1    2    0    0 -0.23190729196E+02  0.25939435799E+02  0.53584492703E+02  0.14038148777E+03  0.12500000000E+03 0.  0.
</event>
<event>
 4    0  0.2193754E-002  0.2474891E+03  0.7546771E-02  0.1114902E+00
         21   -1    0    0  502  501  0.00000000000E+00  0.00000000000E+00  0.88521422499E+02  0.88521422499E+02  0.00000000000E+00 0.  1.
         21   -1    0    0  501  502 -0.00000000000E+00 -0.00000000000E+00 -0.69193245732E+03  0.69193245732E+03  0.00000000000E+00 0.  1.
         25    1    1    2    0    0  0.98650946985E+02 -0.24460169918E+02 -0.54809347741E+01  0.16119972053E+03  0.12500000000E+03 0.  0.
         25    1    1    2    0    0 -0.98650946985E+02  0.24460169918E+02 -0.59793010005E+03  0.61925415929E+03  0.12500000000E+03 0.  0.
</event>
<event>
 4    0  0.2193754E-002  0.2541625E+03  0.7546771E-02  0.1110702E+00
         21   -1    0    0  502  501  0.00000000000E+00  0.00000000000E+00  0.56285367167E+02  0.56285367167E+02  0.00000000000E+00 0. -1.
         21   -1    0    0  501  502 -0.00000000000E+00 -0.00000000000E+00 -0.11476971174E+04  0.11476971174E+04  0.00000000000E+00 0. -1.
         25    1    1    2    0    0 -0.64281740117E+02 -0.76754746953E+02 -0.78258012788E+02  0.17824912302E+03  0.12500000000E+03 0.  0.
         25    1    1    2    0    0  0.64281740117E+02  0.76754746953E+02 -0.10131537375E+04  0.10257333616E+04  0.12500000000E+03 0.  0.
</event>
<event>
 4    0  0.2193754E-002  0.1670345E+03  0.7546771E-02  0.1180976E+00
         21   -1    0    0  502  501  0.00000000000E+00  0.00000000000E+00  0.56555335633E+02  0.56555335633E+02  0.00000000000E+00 0.  1.
         21   -1    0    0  501  502 -0.00000000000E+00 -0.00000000000E+00 -0.49333145126E+03  0.49333145126E+03  0.00000000000E+00 0.  1.
         25    1    1    2    0    0 -0.60973607401E+02 -0.40434101179E+02 -0.35534336930E+03  0.38372725659E+03  0.12500000000E+03 0.  0.
         25    1    1    2    0    0  0.60973607401E+02  0.40434101179E+02 -0.81432746318E+02  0.16615953030E+03  0.12500000000E+03 0.  0.
</event>
<event>
 4    0  0.2193754E-002  0.2799401E+03  0.7546771E-02  0.1095722E+00
         21   -1    0    0  502  501  0.00000000000E+00  0.00000000000E+00  0.16983681764E+03  0.16983681764E+03  0.00000000000E+00 0.  1.
         21   -1    0    0  501  502 -0.00000000000E+00 -0.00000000000E+00 -0.46142201912E+03  0.46142201912E+03  0.00000000000E+00 0. -1.
         25    1    1    2    0    0 -0.10272052484E+03  0.15804933353E+03  0.40193056499E+02  0.22972065611E+03  0.12500000000E+03 0.  0.
         25    1    1    2    0    0  0.10272052484E+03 -0.15804933353E+03 -0.33177825798E+03  0.40153818065E+03  0.12500000000E+03 0.  0.
</event>
<event>
 4    0  0.2193754E-002  0.1718714E+03  0.7546771E-02  0.1175910E+00
         21   -1    0    0  502  501  0.00000000000E+00  0.00000000000E+00  0.90204874102E+03  0.90204874102E+03  0.00000000000E+00 0. -1.
         21   -1    0    0  501  502 -0.00000000000E+00 -0.00000000000E+00 -0.32747439238E+02  0.32747439238E+02  0.00000000000E+00 0. -1.
         25    1    1    2    0    0 -0.63892711821E+02  0.69815906742E+02  0.24316010722E+03  0.28932400039E+03  0.12500000000E+03 0.  0.
         25    1    1    2    0    0  0.63892711821E+02 -0.69815906742E+02  0.62614119456E+03  0.64547217987E+03  0.12500000000E+03 0.  0.
</event>
<event>
 4    0  0.2193754E-002  0.4362061E+03  0.7546771E-02  0.1031917E+00
         21   -1    0    0  502  501  0.00000000000E+00  0.00000000000E+00  0.11062846251E+04  0.11062846251E+04  0.00000000000E+00 0. -1.
         21   -1    0    0  501  502 -0.00000000000E+00 -0.00000000000E+00 -0.17199533401E+03  0.17199533401E+03  0.00000000000E+00 0. -1.
         25    1    1    2    0    0  0.36175994639E+03  0.17432519835E+03  0.63670133752E+03  0.76306823207E+03  0.12500000000E+03 0.  0.
         25    1    1    2    0    0 -0.36175994639E+03 -0.17432519835E+03  0.29758795362E+03  0.51521172709E+03  0.12500000000E+03 0.  0.
</event>
<event>
 4    0  0.2193754E-002  0.2703070E+03  0.7546771E-02  0.1101104E+00
         21   -1    0    0  502  501  0.00000000000E+00  0.00000000000E+00  0.16730647277E+03  0.16730647277E+03  0.00000000000E+00 0.  1.
         21   -1    0    0  501  502 -0.00000000000E+00 -0.00000000000E+00 -0.43671885184E+03  0.43671885184E+03  0.00000000000E+00 0.  1.
         25    1    1    2    0    0  0.13290291917E+03 -0.18292837248E+03 -0.22349363803E+03  0.34161437560E+03  0.12500000000E+03 0.  0.
         25    1    1    2    0    0 -0.13290291917E+03  0.18292837248E+03 -0.45918741050E+02  0.26241094901E+03  0.12500000000E+03 0.  0.
</event>
<event>
 4    0  0.2193754E-002  0.2219597E+03  0.7546771E-02  0.1132430E+00
         21   -1    0    0  502  501  0.00000000000E+00  0.00000000000E+00  0.19465353289E+04  0.19465353289E+04  0.00000000000E+00 0. -1.
         21   -1    0    0  501  502 -0.00000000000E+00 -0.00000000000E+00 -0.25309639116E+02  0.25309639116E+02  0.00000000000E+00 0. -1.
         25    1    1    2    0    0  0.39074043701E+02  0.87218990930E+01  0.16554704719E+03  0.21126683897E+03  0.12500000000E+03 0.  0.
         25    1    1    2    0    0 -0.39074043701E+02 -0.87218990930E+01  0.17556786426E+04  0.17605781291E+04  0.12500000000E+03 0.  0.
</event>
<event>
 4    0  0.2193754E-002  0.2134349E+03  0.7546771E-02  0.1138874E+00
         21   -1    0    0  502  501  0.00000000000E+00  0.00000000000E+00  0.30551157245E+03  0.30551157245E+03  0.00000000000E+00 0. -1.
         21   -1    0    0  501  502 -0.00000000000E+00 -0.00000000000E+00 -0.14910880589E+03  0.14910880589E+03  0.00000000000E+00 0. -1.
         25    1    1    2    0    0 -0.90281096727E+02  0.58495427871E+02 -0.66094903940E+02  0.17766802705E+03  0.12500000000E+03 0.  0.
         25    1    1    2    0    0  0.90281096727E+02 -0.58495427871E+02  0.22249767050E+03  0.27695235129E+03  0.12500000000E+03 0.  0.
</event>
<event>
 4    0  0.2193754E-002  0.1869439E+03  0.7546771E-02  0.1161247E+00
         21   -1    0    0  502  501  0.00000000000E+00  0.00000000000E+00  0.35439687362E+02  0.35439687362E+02  0.00000000000E+00 0.  1.
         21   -1    0    0  501  502 -0.00000000000E+00 -0.00000000000E+00 -0.98612693640E+03  0.98612693640E+03  0.00000000000E+00 0.  1.
         25    1    1    2    0    0  0.12147495861E+03 -0.62987607874E+02 -0.40844870427E+03  0.44852976304E+03  0.12500000000E+03 0.  0.
         25    1    1    2    0    0 -0.12147495861E+03  0.62987607874E+02 -0.54223854477E+03  0.57303686072E+03  0.12500000000E+03 0.  0.
</event>
<event>
 4    0  0.2193754E-002  0.2130286E+03  0.7546771E-02  0.1139190E+00
         21   -1    0    0  502  501  0.00000000000E+00  0.00000000000E+00  0.83677866139E+03  0.83677866139E+03  0.00000000000E+00 0.  1.
         21   -1    0    0  501  502 -0.00000000000E+00 -0.00000000000E+00 -0.54233192556E+02  0.54233192556E+02  0.00000000000E+00 0.  1.
         25    1    1    2    0    0  0.13115164415E+03 -0.92846610122E+02  0.52245773769E+03  0.56072126270E+03  0.12500000000E+03 0.  0.
         25    1    1    2    0    0 -0.13115164415E+03  0.92846610122E+02  0.26008773115E+03  0.33029059125E+03  0.12500000000E+03 0.  0.
</event>
<event>
 4    0  0.2193754E-002  0.2183203E+03  0.7546771E-02  0.1135142E+00
         21   -1    0    0  502  501  0.00000000000E+00  0.00000000000E+00  0.99735551170E+02  0.99735551170E+02  0.00000000000E+00 0. -1.
         21   -1    0    0  501  502 -0.00000000000E+00 -0.00000000000E+00 -0.47790141762E+03  0.47790141762E+03  0.00000000000E+00 0. -1.
         25    1    1    2    0    0 -0.49211319542E+02 -0.15276105636E+03 -0.29392788917E+03  0.35745810711E+03  0.12500000000E+03 0.  0.
         25    1    1    2    0    0  0.49211319542E+02  0.15276105636E+03 -0.84237977278E+02  0.22017886167E+03  0.12500000000E+03 0.  0.
</event>
<event>
 4    0  0.2193754E-002  0.3113343E+03  0.7546771E-02  0.1079708E+00
         21   -1    0    0  502  501  0.00000000000E+00  0.00000000000E+00  0.32527799630E+03  0.32527799630E+03  0.00000000000E+00 0. -1.
         21   -1    0    0  501  502 -0.00000000000E+00 -0.00000000000E+00 -0.29798829797E+03  0.29798829797E+03  0.00000000000E+00 0. -1.
         25    1    1    2    0    0  0.14367739912E+03 -0.43872261467E+01  0.26013637939E+03  0.32242577232E+03  0.12500000000E+03 0.  0.
         25    1    1    2    0    0 -0.14367739912E+03  0.43872261467E+01 -0.23284668106E+03  0.30084052196E+03  0.12500000000E+03 0.  0.
</event>
<event>
 4    0  0.2193754E-002  0.2603974E+03  0.7546771E-02  0.1106905E+00
         21   -1    0    0  502  501  0.00000000000E+00  0.00000000000E+00  0.90642795639E+03  0.90642795639E+03  0.00000000000E+00 0. -1.
         21   -1    0    0  501  502 -0.00000000000E+00 -0.00000000000E+00 -0.74806631631E+02  0.74806631631E+02  0.00000000000E+00 0. -1.
         25    1    1    2    0    0 -0.26002704893E+02  0.22386406491E+03  0.34555176369E+03  0.43107108649E+03  0.12500000000E+03 0.  0.
         25    1    1    2    0    0  0.26002704893E+02 -0.22386406491E+03  0.48606956108E+03  0.55016350154E+03  0.12500000000E+03 0.  0.
</event>
<event>
 4    0  0.2193754E-002  0.2166587E+03  0.7546771E-02  0.1136399E+00
         21   -1    0    0  502  501  0.00000000000E+00  0.00000000000E+00  0.69623310931E+03  0.69623310931E+03  0.00000000000E+00 0.  1.
         21   -1    0    0  501  502 -0.00000000000E+00 -0.00000000000E+00 -0.67421371221E+02  0.67421371221E+02  0.00000000000E+00 0.  1.
         25    1    1    2    0    0  0.58300582892E+02 -0.14303526500E+03  0.46660087320E+03  0.50714832137E+03  0.12500000000E+03 0.  0.
         25    1    1    2    0    0 -0.58300582892E+02  0.14303526500E+03  0.16221086489E+03  0.25650615916E+03  0.12500000000E+03 0.  0.
</event>
<event>
 4    0  0.2193754E-002  0.2239092E+03  0.7546771E-02  0.1131002E+00
         21   -1    0    0  502  501  0.00000000000E+00  0.00000000000E+00  0.41736679926E+03  0.41736679926E+03  0.00000000000E+00 0.  1.
         21   -1    0    0  501  502 -0.00000000000E+00 -0.00000000000E+00 -0.12012291781E+03  0.12012291781E+03  0.00000000000E+00 0.  1.
         25    1    1    2    0    0  0.11874016389E+03  0.14556382036E+02 -0.21960920586E+02  0.17440870624E+03  0.12500000000E+03 0.  0.
         25    1    1    2    0    0 -0.11874016389E+03 -0.14556382036E+02  0.31920480204E+03  0.36308101083E+03  0.12500000000E+03 0.  0.
</event>
<event>
 4    0  0.2193754E-002  0.1833284E+03  0.7546771E-02  0.1164620E+00
         21   -1    0    0  502  501  0.00000000000E+00  0.00000000000E+00  0.22304208473E+03  0.22304208473E+03  0.00000000000E+00 0. -1.
         21   -1    0    0  501  502 -0.00000000000E+00 -0.00000000000E+00 -0.15068588107E+03  0.15068588107E+03  0.00000000000E+00 0. -1.
         25    1    1    2    0    0  0.96162832393E+01  0.86044803143E+00  0.17251524477E+03  0.21325975465E+03  0.12500000000E+03 0.  0.
         25    1    1    2    0    0 -0.96162832393E+01 -0.86044803143E+00 -0.10015904111E+03  0.16046821115E+03  0.12500000000E+03 0.  0.
</event>
<event>
 4    0  0.2193754E-002  0.1539178E+03  0.7546771E-02  0.1195740E+00
         21   -1    0    0  502  501  0.00000000000E+00  0.00000000000E+00  0.28135055404E+03  0.28135055404E+03  0.00000000000E+00 0.  1.
         21   -1    0    0  501  502 -0.00000000000E+00 -0.00000000000E+00 -0.84203409047E+02  0.84203409047E+02  0.00000000000E+00 0.  1.
         25    1    1    2    0    0 -0.17501285632E+00  0.13326820677E+02  0.20404075790E+03  0.23965655773E+03  0.12500000000E+03 0.  0.
         25    1    1    2    0    0  0.17501285632E+00 -0.13326820677E+02 -0.68936128975E+01  0.12589740536E+03  0.12500000000E+03 0.  0.
</event>
<event>
 4    0  0.2193754E-002  0.1430317E+03  0.7546771E-02  0.1209307E+00
         21   -1    0    0  502  501  0.00000000000E+00  0.00000000000E+00  0.44859428037E+03  0.44859428037E+03  0.00000000000E+00 0.  1.
         21   -1    0    0  501  502 -0.00000000000E+00 -0.00000000000E+00 -0.45604814837E+02  0.45604814837E+02  0.00000000000E+00 0.  1.
         25    1    1    2    0    0  0.31561961012E+01  0.68336474647E+02  0.22287941406E+03  0.26453746153E+03  0.12500000000E+03 0.  0.
         25    1    1    2    0    0 -0.31561961012E+01 -0.68336474647E+02  0.18011005147E+03  0.22966163367E+03  0.12500000000E+03 0.  0.
</event>
<event>
 4    0  0.2193754E-002  0.2455245E+03  0.7546771E-02  0.1116166E+00
         21   -1    0    0  502  501  0.00000000000E+00  0.00000000000E+00  0.69462938178E+03  0.69462938178E+03  0.00000000000E+00 0.  1.
         21   -1    0    0  501  502 -0.00000000000E+00 -0.00000000000E+00 -0.86783344824E+02  0.86783344824E+02  0.00000000000E+00 0.  1.
         25    1    1    2    0    0  0.10271995391E+01 -0.18397714937E+01 -0.32340822426E+02  0.12913314328E+03  0.12500000000E+03 0.  0.
         25    1    1    2    0    0 -0.10271995391E+01  0.18397714937E+01  0.64018685938E+03  0.65227958333E+03  0.12500000000E+03 0.  0.
</event>
<event>
 4    0  0.2193754E-002  0.1832157E+03  0.7546771E-02  0.1164727E+00
         21   -1    0    0  502  501  0.00000000000E+00  0.00000000000E+00  0.37284747101E+03  0.37284747101E+03  0.00000000000E+00 0.  1.
         21   -1    0    0  501  502 -0.00000000000E+00 -0.00000000000E+00 -0.90031435431E+02  0.90031435431E+02  0.00000000000E+00 0.  1.
         25    1    1    2    0    0  0.67535782508E+02  0.11496532583E+03  0.15762855431E+03  0.24135009674E+03  0.12500000000E+03 0.  0.
         25    1    1    2    0    0 -0.67535782508E+02 -0.11496532583E+03  0.12518748127E+03  0.22152880970E+03  0.12500000000E+03 0.  0.
</event>
<event>
 4    0  0.2193754E-002  0.3356556E+03  0.7546771E-02  0.1068661E+00
         21   -1    0    0  502  501  0.00000000000E+00  0.00000000000E+00  0.52534669257E+02  0.52534669257E+02  0.00000000000E+00 0. -1.
         21   -1    0    0  501  502 -0.00000000000E+00 -0.00000000000E+00 -0.21445778245E+04  0.21445778245E+04  0.00000000000E+00 0.  1.
         25    1    1    2    0    0 -0.13703407665E+03 -0.15405636169E+03 -0.28176687481E+03  0.37084939326E+03  0.12500000000E+03 0.  0.
         25    1    1    2    0    0  0.13703407665E+03  0.15405636169E+03 -0.18102762804E+04  0.18262631005E+04  0.12500000000E+03 0.  0.
</event>
<event>
 4    0  0.2193754E-002  0.3189519E+03  0.7546771E-02  0.1076133E+00
         21   -1    0    0  502  501  0.00000000000E+00  0.00000000000E+00  0.53299086449E+03  0.53299086449E+03  0.00000000000E+00 0. -1.
         21   -1    0    0  501  502 -0.00000000000E+00 -0.00000000000E+00 -0.19086686281E+03  0.19086686281E+03  0.00000000000E+00 0. -1.
         25    1    1    2    0    0 -0.10194604507E+03 -0.21347949229E+03 -0.25935664624E+02  0.26881991822E+03  0.12500000000E+03 0.  0.
         25    1    1    2    0    0  0.10194604507E+03  0.21347949229E+03  0.36805966630E+03  0.45503780908E+03  0.12500000000E+03 0.  0.
</event>
<event>
 4    0  0.2193754E-002  0.1327031E+03  0.7546771E-02  0.1223499E+00
         21   -1    0    0  502  501  0.00000000000E+00  0.00000000000E+00  0.10223081814E+04  0.10223081814E+04  0.00000000000E+00 0.  1.
         21   -1    0    0  501  502 -0.00000000000E+00 -0.00000000000E+00 -0.17225835569E+02  0.17225835569E+02  0.00000000000E+00 0.  1.
         25    1    1    2    0    0 -0.44216205647E+02  0.17039127902E+01  0.48213768885E+03  0.50003972560E+03  0.12500000000E+03 0.  0.
         25    1    1    2    0    0  0.44216205647E+02 -0.17039127902E+01  0.52294465693E+03  0.53949429132E+03  0.12500000000E+03 0.  0.
</event>
<event>
 4    0  0.2193754E-002  0.2457609E+03  0.7546771E-02  0.1116013E+00
         21   -1    0    0  502  501  0.00000000000E+00  0.00000000000E+00  0.24931748306E+03  0.24931748306E+03  0.00000000000E+00 0. -1.
         21   -1    0    0  501  502 -0.00000000000E+00 -0.00000000000E+00 -0.24225513285E+03  0.24225513285E+03  0.00000000000E+00 0. -1.
         25    1    1    2    0    0  0.53614916900E+02  0.11513158610E+03  0.17279284232E+03  0.24821806499E+03  0.12500000000E+03 0.  0.
         25    1    1    2    0    0 -0.53614916900E+02 -0.11513158610E+03 -0.16573049211E+03  0.24335455091E+03  0.12500000000E+03 0.  0.
</event>
<event>
 4    0  0.2193754E-002  0.2095557E+03  0.7546771E-02  0.1141918E+00
         21   -1    0    0  502  501  0.00000000000E+00  0.00000000000E+00  0.80473916745E+03  0.80473916745E+03  0.00000000000E+00 0.  1.
         21   -1    0    0  501  502 -0.00000000000E+00 -0.00000000000E+00 -0.54568726444E+02  0.54568726444E+02  0.00000000000E+00 0.  1.
         25    1    1    2    0    0 -0.12817232966E+02  0.28484521701E+02  0.36238280051E+02  0.13384267772E+03  0.12500000000E+03 0.  0.
         25    1    1    2    0    0  0.12817232966E+02 -0.28484521701E+02  0.71393216096E+03  0.72546521618E+03  0.12500000000E+03 0.  0.
</event>
<event>
 4    0  0.2193754E-002  0.1859815E+03  0.7546771E-02  0.1162137E+00
         21   -1    0    0  502  501  0.00000000000E+00  0.00000000000E+00  0.61150531649E+02  0.61150531649E+02  0.00000000000E+00 0.  1.
         21   -1    0    0  501  502 -0.00000000000E+00 -0.00000000000E+00 -0.56563875137E+03  0.56563875137E+03  0.00000000000E+00 0.  1.
         25    1    1    2    0    0  0.21885226838E+02 -0.59917412172E+02 -0.46587407961E+02  0.14786631129E+03  0.12500000000E+03 0.  0.
         25    1    1    2    0    0 -0.21885226838E+02  0.59917412172E+02 -0.45790081176E+03  0.47892297173E+03  0.12500000000E+03 0.  0.
</event>
<event>
 4    0  0.2193754E-002  0.1817173E+03  0.7546771E-02  0.1166151E+00
         21   -1    0    0  502  501  0.00000000000E+00  0.00000000000E+00  0.69091367040E+02  0.69091367040E+02  0.00000000000E+00 0. -1.
         21   -1    0    0  501  502 -0.00000000000E+00 -0.00000000000E+00 -0.47793466112E+03  0.47793466112E+03  0.00000000000E+00 0. -1.
         25    1    1    2    0    0 -0.11365052863E+03 -0.37260995494E+02 -0.12073525404E+03  0.21096640967E+03  0.12500000000E+03 0.  0.
         25    1    1    2    0    0  0.11365052863E+03  0.37260995494E+02 -0.28810804004E+03  0.33605961849E+03  0.12500000000E+03 0.  0.
</event>
<event>
 4    0  0.2193754E-002  0.2229353E+03  0.7546771E-02  0.1131713E+00
         21   -1    0    0  502  501  0.00000000000E+00  0.00000000000E+00  0.54410325998E+03  0.54410325998E+03  0.00000000000E+00 0.  1.
         21   -1    0    0  501  502 -0.00000000000E+00 -0.00000000000E+00 -0.91343199121E+02  0.91343199121E+02  0.00000000000E+00 0.  1.
         25    1    1    2    0    0  0.11439563780E+03 -0.12435107244E+03  0.33231983812E+03  0.39320608588E+03  0.12500000000E+03 0.  0.
         25    1    1    2    0    0 -0.11439563780E+03  0.12435107244E+03  0.12044022275E+03  0.24224037323E+03  0.12500000000E+03 0.  0.
</event>
<event>
 4    0  0.2193754E-002  0.2412105E+03  0.7546771E-02  0.1118989E+00
         21   -1    0    0  502  501  0.00000000000E+00  0.00000000000E+00  0.74322315285E+03  0.74322315285E+03  0.00000000000E+00 0. -1.
         21   -1    0    0  501  502 -0.00000000000E+00 -0.00000000000E+00 -0.78284017307E+02  0.78284017307E+02  0.00000000000E+00 0. -1.
         25    1    1    2    0    0  0.19588537800E+03  0.49068657141E+02  0.40428769459E+03  0.46888415886E+03  0.12500000000E+03 0.  0.
         25    1    1    2    0    0 -0.19588537800E+03 -0.49068657141E+02  0.26065144095E+03  0.35262301130E+03  0.12500000000E+03 0.  0.
</event>
<event>
 4    0  0.2193754E-002  0.2089291E+03  0.7546771E-02  0.1142417E+00
         21   -1    0    0  502  501  0.00000000000E+00  0.00000000000E+00  0.28661526261E+02  0.28661526261E+02  0.00000000000E+00 0.  1.
         21   -1    0    0  501  502 -0.00000000000E+00 -0.00000000000E+00 -0.15229954252E+04  0.15229954252E+04  0.00000000000E+00 0.  1.
         25    1    1    2    0    0  0.71198118426E+02  0.63248993141E+02 -0.23589862578E+03  0.28344800025E+03  0.12500000000E+03 0.  0.
         25    1    1    2    0    0 -0.71198118426E+02 -0.63248993141E+02 -0.12584352731E+04  0.12682089512E+04  0.12500000000E+03 0.  0.
</event>
<event>
 4    0  0.2193754E-002  0.2003947E+03  0.7546771E-02  0.1149406E+00
         21   -1    0    0  502  501  0.00000000000E+00  0.00000000000E+00  0.12098723602E+03  0.12098723602E+03  0.00000000000E+00 0.  1.
         21   -1    0    0  501  502 -0.00000000000E+00 -0.00000000000E+00 -0.33191962469E+03  0.33191962469E+03  0.00000000000E+00 0.  1.
         25    1    1    2    0    0  0.14917432478E+03 -0.41771334745E+02 -0.13160926226E+03  0.23862904579E+03  0.12500000000E+03 0.  0.
         25    1    1    2    0    0 -0.14917432478E+03  0.41771334745E+02 -0.79323126411E+02  0.21427781491E+03  0.12500000000E+03 0.  0.
</event>
<event>
 4    0  0.2193754E-002  0.1958967E+03  0.7546771E-02  0.1153248E+00
         21   -1    0    0  502  501  0.00000000000E+00  0.00000000000E+00  0.89550964147E+02  0.89550964147E+02  0.00000000000E+00 0. -1.
         21   -1    0    0  501  502 -0.00000000000E+00 -0.00000000000E+00 -0.42853292031E+03  0.42853292031E+03  0.00000000000E+00 0. -1.
         25    1    1    2    0    0 -0.12015895310E+03  0.58340034862E+02 -0.26213782409E+03  0.31966071466E+03  0.12500000000E+03 0.  0.
         25    1    1    2    0    0  0.12015895310E+03 -0.58340034862E+02 -0.76844132077E+02  0.19842316980E+03  0.12500000000E+03 0.  0.
</event>
<event>
 4    0  0.2193754E-002  0.2171738E+03  0.7546771E-02  0.1136008E+00
         21   -1    0    0  502  501  0.00000000000E+00  0.00000000000E+00  0.63552509883E+02  0.63552509883E+02  0.00000000000E+00 0. -1.
         21   -1    0    0  501  502 -0.00000000000E+00 -0.00000000000E+00 -0.74213349557E+03  0.74213349557E+03  0.00000000000E+00 0. -1.
         25    1    1    2    0    0 -0.63158035163E+02 -0.11596993578E+03 -0.55956327989E+03  0.58836555611E+03  0.12500000000E+03 0.  0.
         25    1    1    2    0    0  0.63158035163E+02  0.11596993578E+03 -0.11901770580E+03  0.21732044935E+03  0.12500000000E+03 0.  0.
</event>
<event>
 4    0  0.2193754E-002  0.1723058E+03  0.7546771E-02  0.1175464E+00
         21   -1    0    0  502  501  0.00000000000E+00  0.00000000000E+00  0.67587952003E+03  0.67587952003E+03  0.00000000000E+00 0. -1.
         21   -1    0    0  501  502 -0.00000000000E+00 -0.00000000000E+00 -0.43926908269E+02  0.43926908269E+02  0.00000000000E+00 0. -1.
         25    1    1    2    0    0 -0.98313655256E+02 -0.44073425256E+02  0.21245670661E+03  0.26901838935E+03  0.12500000000E+03 0.  0.
         25    1    1    2    0    0  0.98313655256E+02  0.44073425256E+02  0.41949590515E+03  0.45078803895E+03  0.12500000000E+03 0.  0.
</event>
<event>
 4    0  0.2193754E-002  0.2464052E+03  0.7546771E-02  0.1115598E+00
         21   -1    0    0  502  501  0.00000000000E+00  0.00000000000E+00  0.21575021822E+03  0.21575021822E+03  0.00000000000E+00 0.  1.
         21   -1    0    0  501  502 -0.00000000000E+00 -0.00000000000E+00 -0.28141569683E+03  0.28141569683E+03  0.00000000000E+00 0.  1.
         25    1    1    2    0    0 -0.15560498526E+03 -0.12029357128E+03 -0.11358420217E+03  0.25924857899E+03  0.12500000000E+03 0.  0.
         25    1    1    2    0    0  0.15560498526E+03  0.12029357128E+03  0.47918723558E+02  0.23791733606E+03  0.12500000000E+03 0.  0.
</event>
<event>
 4    0  0.2193754E-002  0.2414036E+03  0.7546771E-02  0.1118861E+00
         21   -1    0    0  502  501  0.00000000000E+00  0.00000000000E+00  0.76077564705E+03  0.76077564705E+03  0.00000000000E+00 0.  1.
         21   -1    0    0  501  502 -0.00000000000E+00 -0.00000000000E+00 -0.76600348485E+02  0.76600348485E+02  0.00000000000E+00 0.  1.
         25    1    1    2    0    0 -0.13451532607E+02  0.14513297948E+03  0.88331741105E+02  0.21135756894E+03  0.12500000000E+03 0.  0.
         25    1    1    2    0    0  0.13451532607E+02 -0.14513297948E+03  0.59584355746E+03  0.62601842659E+03  0.12500000000E+03 0.  0.
</event>
<event>
 4    0  0.2193754E-002  0.2492094E+03  0.7546771E-02  0.1113805E+00
         21   -1    0    0  502  501  0.00000000000E+00  0.00000000000E+00  0.17282296303E+03  0.17282296303E+03  0.00000000000E+00 0. -1.
         21   -1    0    0  501  502 -0.00000000000E+00 -0.00000000000E+00 -0.35935813302E+03  0.35935813302E+03  0.00000000000E+00 0. -1.
         25    1    1    2    0    0 -0.14285583962E+03  0.15389130611E+03 -0.41068239695E+02  0.24779411882E+03  0.12500000000E+03 0.  0.
         25    1    1    2    0    0  0.14285583962E+03 -0.15389130611E+03 -0.14546693029E+03  0.28438697723E+03  0.12500000000E+03 0.  0.
</event>
<event>
 4    0  0.2193754E-002  0.1745582E+03  0.7546771E-02  0.1173176E+00
         21   -1    0    0  502  501  0.00000000000E+00  0.00000000000E+00  0.60089097604E+02  0.60089097604E+02  0.00000000000E+00 0. -1.
         21   -1    0    0  501  502 -0.00000000000E+00 -0.00000000000E+00 -0.50708963903E+03  0.50708963903E+03  0.00000000000E+00 0. -1.
         25    1    1    2    0    0  0.68384340932E+02  0.37865019988E+02 -0.71658709175E+02  0.16392116527E+03  0.12500000000E+03 0.  0.
         25    1    1    2    0    0 -0.68384340932E+02 -0.37865019988E+02 -0.37534183225E+03  0.40325757136E+03  0.12500000000E+03 0.  0.
</event>
<event>
 4    0  0.2193754E-002  0.2014650E+03  0.7546771E-02  0.1148509E+00
         21   -1    0    0  502  501  0.00000000000E+00  0.00000000000E+00  0.18356931939E+03  0.18356931939E+03  0.00000000000E+00 0.  1.
         21   -1    0    0  501  502 -0.00000000000E+00 -0.00000000000E+00 -0.22110526261E+03  0.22110526261E+03  0.00000000000E+00 0.  1.
         25    1    1    2    0    0 -0.48782017211E+02 -0.13646095524E+03 -0.81983850801E+02  0.20820093492E+03  0.12500000000E+03 0.  0.
         25    1    1    2    0    0  0.48782017211E+02  0.13646095524E+03  0.44447907578E+02  0.19647364708E+03  0.12500000000E+03 0.  0.
</event>
<event>
 4    0  0.2193754E-002  0.2110244E+03  0.7546771E-02  0.1140757E+00
         21   -1    0    0  502  501  0.00000000000E+00  0.00000000000E+00  0.10741102291E+03  0.10741102291E+03  0.00000000000E+00 0.  1.
         21   -1    0    0  501  502 -0.00000000000E+00 -0.00000000000E+00 -0.41458790005E+03  0.41458790005E+03  0.00000000000E+00 0.  1.
         25    1    1    2    0    0  0.79464539569E+02  0.11980134508E+03 -0.26585565549E+03  0.32706452710E+03  0.12500000000E+03 0.  0.
         25    1    1    2    0    0 -0.79464539569E+02 -0.11980134508E+03 -0.41321221652E+02  0.19493439586E+03  0.12500000000E+03 0.  0.
</event>
<event>
 4    0  0.2193754E-002  0.4513347E+03  0.7546771E-02  0.1027325E+00
         21   -1    0    0  502  501  0.00000000000E+00  0.00000000000E+00  0.87945798693E+03  0.87945798693E+03  0.00000000000E+00 0. -1.
         21   -1    0    0  501  502 -0.00000000000E+00 -0.00000000000E+00 -0.23162337611E+03  0.23162337611E+03  0.00000000000E+00 0. -1.
         25    1    1    2    0    0 -0.39291706429E+03 -0.42477919015E+02  0.10410942352E+03  0.42737801193E+03  0.12500000000E+03 0.  0.
         25    1    1    2    0    0  0.39291706429E+03  0.42477919015E+02  0.54372518730E+03  0.68370335111E+03  0.12500000000E+03 0.  0.
</event>
<event>
 4    0  0.2193754E-002  0.2111930E+03  0.7546771E-02  0.1140625E+00
         21   -1    0    0  502  501  0.00000000000E+00  0.00000000000E+00  0.16526853739E+04  0.16526853739E+04  0.00000000000E+00 0. -1.
         21   -1    0    0  501  502 -0.00000000000E+00 -0.00000000000E+00 -0.26987889114E+02  0.26987889114E+02  0.00000000000E+00 0. -1.
         25    1    1    2    0    0  0.13422334608E+03  0.64487321612E+02  0.48485580840E+03  0.52238364850E+03  0.12500000000E+03 0.  0.
         25    1    1    2    0    0 -0.13422334608E+03 -0.64487321612E+02  0.11408416764E+04  0.11572896145E+04  0.12500000000E+03 0.  0.
</event>
<event>
 4    0  0.2193754E-002  0.2533636E+03  0.7546771E-02  0.1111197E+00
         21   -1    0    0  502  501  0.00000000000E+00  0.00000000000E+00  0.21245927582E+04  0.21245927582E+04  0.00000000000E+00 0.  1.
         21   -1    0    0  501  502 -0.00000000000E+00 -0.00000000000E+00 -0.30214323693E+02  0.30214323693E+02  0.00000000000E+00 0.  1.
         25    1    1    2    0    0  0.12343328456E+03  0.17730203057E+03  0.12323687896E+04  0.12573900028E+04  0.12500000000E+03 0.  0.
         25    1    1    2    0    0 -0.12343328456E+03 -0.17730203057E+03  0.86200964496E+03  0.89741707906E+03  0.12500000000E+03 0.  0.
</event>
<event>
 4    0  0.2193754E-002  0.2293000E+03  0.7546771E-02  0.1127133E+00
         21   -1    0    0  502  501  0.00000000000E+00  0.00000000000E+00  0.10223488875E+04  0.10223488875E+04  0.00000000000E+00 0. -1.
         21   -1    0    0  501  502 -0.00000000000E+00 -0.00000000000E+00 -0.51429126292E+02  0.51429126292E+02  0.00000000000E+00 0. -1.
         25    1    1    2    0    0  0.12490990467E+03 -0.11739836527E+03  0.68915919804E+03  0.72107576626E+03  0.12500000000E+03 0.  0.
         25    1    1    2    0    0 -0.12490990467E+03  0.11739836527E+03  0.28176056316E+03  0.35270224752E+03  0.12500000000E+03 0.  0.
</event>
<event>
 4    0  0.2193754E-002  0.1803578E+03  0.7546771E-02  0.1167457E+00
         21   -1    0    0  502  501  0.00000000000E+00  0.00000000000E+00  0.19845231438E+03  0.19845231438E+03  0.00000000000E+00 0.  1.
         21   -1    0    0  501  502 -0.00000000000E+00 -0.00000000000E+00 -0.16391312758E+03  0.16391312758E+03  0.00000000000E+00 0.  1.
         25    1    1    2    0    0 -0.53258030142E+02  0.97880875182E+02  0.84559959636E+02  0.18759656253E+03  0.12500000000E+03 0.  0.
         25    1    1    2    0    0  0.53258030142E+02 -0.97880875182E+02 -0.50020772837E+02  0.17476887943E+03  0.12500000000E+03 0.  0.
</event>
<event>
 4    0  0.2193754E-002  0.2763455E+03  0.7546771E-02  0.1097702E+00
         21   -1    0    0  502  501  0.00000000000E+00  0.00000000000E+00  0.83045790106E+02  0.83045790106E+02  0.00000000000E+00 0.  1.
         21   -1    0    0  501  502 -0.00000000000E+00 -0.00000000000E+00 -0.91957480479E+03  0.91957480479E+03  0.00000000000E+00 0.  1.
         25    1    1    2    0    0 -0.18240124008E+03 -0.14954149068E+03 -0.28860034564E+03  0.39312597131E+03  0.12500000000E+03 0.  0.
         25    1    1    2    0    0  0.18240124008E+03  0.14954149068E+03 -0.54792866904E+03  0.60949462358E+03  0.12500000000E+03 0.  0.
</event>
<event>
 4    0  0.2193754E-002  0.2856209E+03  0.7546771E-02  0.1092658E+00
         21   -1    0    0  502  501  0.00000000000E+00  0.00000000000E+00  0.97466978866E+02  0.97466978866E+02  0.00000000000E+00 0.  1.
         21   -1    0    0  501  502 -0.00000000000E+00 -0.00000000000E+00 -0.83699444122E+03  0.83699444122E+03  0.00000000000E+00 0.  1.
         25    1    1    2    0    0 -0.11884606942E+03  0.20645621531E+03 -0.52671731010E+03  0.59144288128E+03  0.12500000000E+03 0.  0.
         25    1    1    2    0    0  0.11884606942E+03 -0.20645621531E+03 -0.21281015225E+03  0.34301853880E+03  0.12500000000E+03 0.  0.
</event>
<event>
 4    0  0.2193754E-002  0.2146297E+03  0.7546771E-02  0.1137951E+00
         21   -1    0    0  502  501  0.00000000000E+00  0.00000000000E+00  0.90001265859E+02  0.90001265859E+02  0.00000000000E+00 0.  1.
         21   -1    0    0  501  502 -0.00000000000E+00 -0.00000000000E+00 -0.51183637019E+03  0.51183637019E+03  0.00000000000E+00 0.  1.
         25    1    1    2    0    0 -0.44360182195E+02 -0.63803301726E+02 -0.42993275490E+03  0.45442915929E+03  0.12500000000E+03 0.  0.
         25    1    1    2    0    0  0.44360182195E+02  0.63803301726E+02  0.80976505722E+01  0.14740847676E+03  0.12500000000E+03 0.  0.
</event>
<event>
 4    0  0.2193754E-002  0.2049880E+03  0.7546771E-02  0.1145598E+00
         21   -1    0    0  502  501  0.00000000000E+00  0.00000000000E+00  0.57667153659E+03  0.57667153659E+03  0.00000000000E+00 0.  1.
         21   -1    0    0  501  502 -0.00000000000E+00 -0.00000000000E+00 -0.72866553657E+02  0.72866553657E+02  0.00000000000E+00 0.  1.
         25    1    1    2    0    0 -0.10291304727E+03 -0.12014926297E+03  0.31050408512E+03  0.37022253789E+03  0.12500000000E+03 0.  0.
         25    1    1    2    0    0  0.10291304727E+03  0.12014926297E+03  0.19330089781E+03  0.27931555235E+03  0.12500000000E+03 0.  0.
</event>
<event>
 4    0  0.2193754E-002  0.4561930E+03  0.7546771E-02  0.1025891E+00
         21   -1    0    0  502  501  0.00000000000E+00  0.00000000000E+00  0.10602757340E+03  0.10602757340E+03  0.00000000000E+00 0. -1.
         21   -1    0    0  501  502 -0.00000000000E+00 -0.00000000000E+00 -0.19628102796E+04  0.19628102796E+04  0.00000000000E+00 0. -1.
         25    1    1    2    0    0  0.26636551324E+03  0.71631460303E+02 -0.17020232565E+04  0.17287538340E+04  0.12500000000E+03 0.  0.
         25    1    1    2    0    0 -0.26636551324E+03 -0.71631460303E+02 -0.15475944972E+03  0.34008401907E+03  0.12500000000E+03 0.  0.
</event>
<event>
 4    0  0.2193754E-002  0.1977460E+03  0.7546771E-02  0.1151655E+00
         21   -1    0    0  502  501  0.00000000000E+00  0.00000000000E+00  0.13065761258E+03  0.13065761258E+03  0.00000000000E+00 0.  1.
         21   -1    0    0  501  502 -0.00000000000E+00 -0.00000000000E+00 -0.29928215609E+03  0.29928215609E+03  0.00000000000E+00 0.  1.
         25    1    1    2    0    0 -0.10810423713E+03  0.81339415297E+02 -0.61024420756E+01  0.18429559508E+03  0.12500000000E+03 0.  0.
         25    1    1    2    0    0  0.10810423713E+03 -0.81339415297E+02 -0.16252210143E+03  0.24564417359E+03  0.12500000000E+03 0.  0.
</event>
<event>
 4    0  0.2193754E-002  0.2017013E+03  0.7546771E-02  0.1148312E+00
         21   -1    0    0  502  501  0.00000000000E+00  0.00000000000E+00  0.41842882459E+02  0.41842882459E+02  0.00000000000E+00 0.  1.
         21   -1    0    0  501  502 -0.00000000000E+00 -0.00000000000E+00 -0.97228948168E+03  0.97228948168E+03  0.00000000000E+00 0.  1.
         25    1    1    2    0    0 -0.51391737334E+02 -0.13137708206E+03 -0.28468506297E+03  0.34142588278E+03  0.12500000000E+03 0.  0.
         25    1    1    2    0    0  0.51391737334E+02  0.13137708206E+03 -0.64576153625E+03  0.67270648136E+03  0.12500000000E+03 0.  0.
</event>
<event>
 4    0  0.2193754E-002  0.2029142E+03  0.7546771E-02  0.1147303E+00
         21   -1    0    0  502  501  0.00000000000E+00  0.00000000000E+00  0.87465072125E+02  0.87465072125E+02  0.00000000000E+00 0.  1.
         21   -1    0    0  501  502 -0.00000000000E+00 -0.00000000000E+00 -0.47074968543E+03  0.47074968543E+03  0.00000000000E+00 0.  1.
         25    1    1    2    0    0  0.94777559749E+01 -0.43158105155E+02  0.19650471691E+02  0.13402832140E+03  0.12500000000E+03 0.  0.
         25    1    1    2    0    0 -0.94777559749E+01  0.43158105155E+02 -0.40293508500E+03  0.42418643616E+03  0.12500000000E+03 0.  0.
</event>
<event>
 4    0  0.2193754E-002  0.1980182E+03  0.7546771E-02  0.1151422E+00
         21   -1    0    0  502  501  0.00000000000E+00  0.00000000000E+00  0.16959275124E+04  0.16959275124E+04  0.00000000000E+00 0.  1.
         21   -1    0    0  501  502 -0.00000000000E+00 -0.00000000000E+00 -0.23120812250E+02  0.23120812250E+02  0.00000000000E+00 0.  1.
         25    1    1    2    0    0  0.12369323346E+02 -0.91672076871E+02  0.13685415949E+04  0.13773481284E+04  0.12500000000E+03 0.  0.
         25    1    1    2    0    0 -0.12369323346E+02  0.91672076871E+02  0.30426510517E+03  0.34170019617E+03  0.12500000000E+03 0.  0.
</event>
<event>
 4    0  0.2193754E-002  0.1700877E+03  0.7546771E-02  0.1177756E+00
         21   -1    0    0  502  501  0.00000000000E+00  0.00000000000E+00  0.23559073243E+03  0.23559073243E+03  0.00000000000E+00 0.  1.
         21   -1    0    0  501  502 -0.00000000000E+00 -0.00000000000E+00 -0.12279698209E+03  0.12279698209E+03  0.00000000000E+00 0.  1.
         25    1    1    2    0    0  0.11029167113E+03 -0.23202466798E+02  0.30542793619E+02  0.17105691868E+03  0.12500000000E+03 0.  0.
         25    1    1    2    0    0 -0.11029167113E+03  0.23202466798E+02  0.82250956726E+02  0.18733079584E+03  0.12500000000E+03 0.  0.
</event>
<event>
 4    0  0.2193754E-002  0.1544349E+03  0.7546771E-02  0.1195127E+00
         21   -1    0    0  502  501  0.00000000000E+00  0.00000000000E+00  0.74973974627E+03  0.74973974627E+03  0.00000000000E+00 0.  1.
         21   -1    0    0  501  502 -0.00000000000E+00 -0.00000000000E+00 -0.31811203383E+02  0.31811203383E+02  0.00000000000E+00 0.  1.
         25    1    1    2    0    0 -0.60632770810E+02  0.67402091212E+02  0.36503120091E+03  0.39634852394E+03  0.12500000000E+03 0.  0.
         25    1    1    2    0    0  0.60632770810E+02 -0.67402091212E+02  0.35289734198E+03  0.38520242571E+03  0.12500000000E+03 0.  0.
</event>
<event>
 4    0  0.2193754E-002  0.1724646E+03  0.7546771E-02  0.1175302E+00
         21   -1    0    0  502  501  0.00000000000E+00  0.00000000000E+00  0.19371919887E+03  0.19371919887E+03  0.00000000000E+00 0.  1.
         21   -1    0    0  501  502 -0.00000000000E+00 -0.00000000000E+00 -0.15354199674E+03  0.15354199674E+03  0.00000000000E+00 0.  1.
         25    1    1    2    0    0  0.86483205349E+02 -0.48998482724E+02 -0.45457923338E+02  0.16604703825E+03  0.12500000000E+03 0.  0.
         25    1    1    2    0    0 -0.86483205349E+02  0.48998482724E+02  0.85635125468E+02  0.18121415737E+03  0.12500000000E+03 0.  0.
</event>
<event>
 4    0  0.2193754E-002  0.2545323E+03  0.7546771E-02  0.1110474E+00
         21   -1    0    0  502  501  0.00000000000E+00  0.00000000000E+00  0.60991273407E+02  0.60991273407E+02  0.00000000000E+00 0.  1.
         21   -1    0    0  501  502 -0.00000000000E+00 -0.00000000000E+00 -0.10622291978E+04  0.10622291978E+04  0.00000000000E+00 0.  1.
         25    1    1    2    0    0 -0.13902699982E+03 -0.15793468449E+03 -0.65490953057E+03  0.69914473786E+03  0.12500000000E+03 0.  0.
         25    1    1    2    0    0  0.13902699982E+03  0.15793468449E+03 -0.34632839381E+03  0.42407573333E+03  0.12500000000E+03 0.  0.
</event>
<event>
 4    0  0.2193754E-002  0.1367545E+03  0.7546771E-02  0.1217764E+00
         21   -1    0    0  502  501  0.00000000000E+00  0.00000000000E+00  0.10187036124E+03  0.10187036124E+03  0.00000000000E+00 0.  1.
         21   -1    0    0  501  502 -0.00000000000E+00 -0.00000000000E+00 -0.18358434917E+03  0.18358434917E+03  0.00000000000E+00 0.  1.
         25    1    1    2    0    0  0.55640220901E+01 -0.54926271522E+02 -0.35241445540E+02  0.14111985377E+03  0.12500000000E+03 0.  0.
         25    1    1    2    0    0 -0.55640220901E+01  0.54926271522E+02 -0.46472542394E+02  0.14433485664E+03  0.12500000000E+03 0.  0.
</event>
<event>
 4    0  0.2193754E-002  0.2273464E+03  0.7546771E-02  0.1128522E+00
         21   -1    0    0  502  501  0.00000000000E+00  0.00000000000E+00  0.77977226827E+03  0.77977226827E+03  0.00000000000E+00 0.  1.
         21   -1    0    0  501  502 -0.00000000000E+00 -0.00000000000E+00 -0.66283968135E+02  0.66283968135E+02  0.00000000000E+00 0.  1.
         25    1    1    2    0    0 -0.93807969623E+02  0.16508238806E+03  0.35107882409E+03  0.41825048803E+03  0.12500000000E+03 0.  0.
         25    1    1    2    0    0  0.93807969623E+02 -0.16508238806E+03  0.36240947604E+03  0.42780574837E+03  0.12500000000E+03 0.  0.
</event>
<event>
 4    0  0.2193754E-002  0.1592842E+03  0.7546771E-02  0.1189507E+00
         21   -1    0    0  502  501  0.00000000000E+00  0.00000000000E+00  0.96967956665E+02  0.96967956665E+02  0.00000000000E+00 0.  1.
         21   -1    0    0  501  502 -0.00000000000E+00 -0.00000000000E+00 -0.26164796644E+03  0.26164796644E+03  0.00000000000E+00 0. -1.
         25    1    1    2    0    0  0.87658645870E+02  0.45371258445E+02 -0.80122788621E+02  0.17828979372E+03  0.12500000000E+03 0.  0.
         25    1    1    2    0    0 -0.87658645870E+02 -0.45371258445E+02 -0.84557221150E+02  0.18032612938E+03  0.12500000000E+03 0.  0.
</event>
<event>
 4    0  0.2193754E-002  0.2202171E+03  0.7546771E-02  0.1133721E+00
         21   -1    0    0  502  501  0.00000000000E+00  0.00000000000E+00  0.79024719074E+03  0.79024719074E+03  0.00000000000E+00 0. -1.
         21   -1    0    0  501  502 -0.00000000000E+00 -0.00000000000E+00 -0.61367571898E+02  0.61367571898E+02  0.00000000000E+00 0. -1.
         25    1    1    2    0    0 -0.21517458114E+02  0.13707046212E+03  0.59009153097E+03  0.61893806436E+03  0.12500000000E+03 0.  0.
         25    1    1    2    0    0  0.21517458114E+02 -0.13707046212E+03  0.13878808788E+03  0.23267669829E+03  0.12500000000E+03 0.  0.
</event>
<event>
 4    0  0.2193754E-002  0.1759146E+03  0.7546771E-02  0.1171817E+00
         21   -1    0    0  502  501  0.00000000000E+00  0.00000000000E+00  0.92456872865E+02  0.92456872865E+02  0.00000000000E+00 0. -1.
         21   -1    0    0  501  502 -0.00000000000E+00 -0.00000000000E+00 -0.33470666728E+03  0.33470666728E+03  0.00000000000E+00 0. -1.
         25    1    1    2    0    0  0.83628806908E+01 -0.15908904349E+02  0.27563690867E+02  0.12925860925E+03  0.12500000000E+03 0.  0.
         25    1    1    2    0    0 -0.83628806908E+01  0.15908904349E+02 -0.26981348528E+03  0.29790493090E+03  0.12500000000E+03 0.  0.
</event>
<event>
 4    0  0.2193754E-002  0.2314110E+03  0.7546771E-02  0.1125651E+00
         21   -1    0    0  502  501  0.00000000000E+00  0.00000000000E+00  0.59789595099E+02  0.59789595099E+02  0.00000000000E+00 0.  1.
         21   -1    0    0  501  502 -0.00000000000E+00 -0.00000000000E+00 -0.89565842847E+03  0.89565842847E+03  0.00000000000E+00 0.  1.
         25    1    1    2    0    0 -0.16251051845E+02 -0.32540339551E+02 -0.22975523088E+02  0.13219623688E+03  0.12500000000E+03 0.  0.
         25    1    1    2    0    0  0.16251051845E+02  0.32540339551E+02 -0.81289331028E+03  0.82325178669E+03  0.12500000000E+03 0.  0.
</event>
<event>
 4    0  0.2193754E-002  0.1526137E+03  0.7546771E-02  0.1197298E+00
         21   -1    0    0  502  501  0.00000000000E+00  0.00000000000E+00  0.42254299253E+02  0.42254299253E+02  0.00000000000E+00 0. -1.
         21   -1    0    0  501  502 -0.00000000000E+00 -0.00000000000E+00 -0.55120851935E+03  0.55120851935E+03  0.00000000000E+00 0. -1.
         25    1    1    2    0    0 -0.75175053671E+02 -0.19044191209E+02 -0.17545113811E+03  0.22895866827E+03  0.12500000000E+03 0.  0.
         25    1    1    2    0    0  0.75175053671E+02  0.19044191209E+02 -0.33350308198E+03  0.36450415033E+03  0.12500000000E+03 0.  0.
</event>
<event>
 4    0  0.2193754E-002  0.2353774E+03  0.7546771E-02  0.1122911E+00
         21   -1    0    0  502  501  0.00000000000E+00  0.00000000000E+00  0.19074076831E+03  0.19074076831E+03  0.00000000000E+00 0. -1.
         21   -1    0    0  501  502 -0.00000000000E+00 -0.00000000000E+00 -0.29045977790E+03  0.29045977790E+03  0.00000000000E+00 0. -1.
         25    1    1    2    0    0  0.96171312492E+02 -0.13328296615E+03  0.65626409209E+02  0.21666817025E+03  0.12500000000E+03 0.  0.
         25    1    1    2    0    0 -0.96171312492E+02  0.13328296615E+03 -0.16534541880E+03  0.26453237596E+03  0.12500000000E+03 0.  0.
</event>
<event>
 4    0  0.2193754E-002  0.1823429E+03  0.7546771E-02  0.1165555E+00
         21   -1    0    0  502  501  0.00000000000E+00  0.00000000000E+00  0.71941570330E+02  0.71941570330E+02  0.00000000000E+00 0.  1.
         21   -1    0    0  501  502 -0.00000000000E+00 -0.00000000000E+00 -0.46216602656E+03  0.46216602656E+03  0.00000000000E+00 0.  1.
         25    1    1    2    0    0 -0.44138176381E+02 -0.12253508732E+03 -0.23276399659E+03  0.29456256440E+03  0.12500000000E+03 0.  0.
         25    1    1    2    0    0  0.44138176381E+02  0.12253508732E+03 -0.15746045964E+03  0.23954503249E+03  0.12500000000E+03 0.  0.
</event>
<event>
 4    0  0.2193754E-002  0.2283738E+03  0.7546771E-02  0.1127790E+00
         21   -1    0    0  502  501  0.00000000000E+00  0.00000000000E+00  0.49701124975E+02  0.49701124975E+02  0.00000000000E+00 0.  1.
         21   -1    0    0  501  502 -0.00000000000E+00 -0.00000000000E+00 -0.10493640556E+04  0.10493640556E+04  0.00000000000E+00 0.  1.
         25    1    1    2    0    0 -0.10102362443E+03  0.15957865056E+03 -0.57033423639E+03  0.61365891145E+03  0.12500000000E+03 0.  0.
         25    1    1    2    0    0  0.10102362443E+03 -0.15957865056E+03 -0.42932869422E+03  0.48540626910E+03  0.12500000000E+03 0.  0.
</event>
<event>
 4    0  0.2193754E-002  0.2246271E+03  0.7546771E-02  0.1130480E+00
         21   -1    0    0  502  501  0.00000000000E+00  0.00000000000E+00  0.10825111896E+03  0.10825111896E+03  0.00000000000E+00 0.  1.
         21   -1    0    0  501  502 -0.00000000000E+00 -0.00000000000E+00 -0.46611387357E+03  0.46611387357E+03  0.00000000000E+00 0.  1.
         25    1    1    2    0    0 -0.13304114045E+03  0.11673671952E+03 -0.10324178779E+03  0.24002348527E+03  0.12500000000E+03 0.  0.
         25    1    1    2    0    0  0.13304114045E+03 -0.11673671952E+03 -0.25462096682E+03  0.33434150726E+03  0.12500000000E+03 0.  0.
</event>
<event>
 4    0  0.2193754E-002  0.2285894E+03  0.7546771E-02  0.1127637E+00
         21   -1    0    0  502  501  0.00000000000E+00  0.00000000000E+00  0.37811548110E+03  0.37811548110E+03  0.00000000000E+00 0. -1.
         21   -1    0    0  501  502 -0.00000000000E+00 -0.00000000000E+00 -0.13819354937E+03  0.13819354937E+03  0.00000000000E+00 0. -1.
         25    1    1    2    0    0  0.57063718542E+02 -0.11460507182E+03 -0.40697036437E+02  0.18349888075E+03  0.12500000000E+03 0.  0.
         25    1    1    2    0    0 -0.57063718542E+02  0.11460507182E+03  0.28061896816E+03  0.33281014972E+03  0.12500000000E+03 0.  0.
</event>
<event>
 4    0  0.2193754E-002  0.2492532E+03  0.7546771E-02  0.1113778E+00
         21   -1    0    0  502  501  0.00000000000E+00  0.00000000000E+00  0.88298742640E+02  0.88298742640E+02  0.00000000000E+00 0. -1.
         21   -1    0    0  501  502 -0.00000000000E+00 -0.00000000000E+00 -0.70360184985E+03  0.70360184985E+03  0.00000000000E+00 0. -1.
         25    1    1    2    0    0 -0.16507207220E+03 -0.11606980831E+03 -0.42843509744E+03  0.48979855261E+03  0.12500000000E+03 0.  0.
         25    1    1    2    0    0  0.16507207220E+03  0.11606980831E+03 -0.18686800977E+03  0.30210203988E+03  0.12500000000E+03 0.  0.
</event>
<event>
 4    0  0.2193754E-002  0.2146527E+03  0.7546771E-02  0.1137934E+00
         21   -1    0    0  502  501  0.00000000000E+00  0.00000000000E+00  0.61371587386E+02  0.61371587386E+02  0.00000000000E+00 0.  1.
         21   -1    0    0  501  502 -0.00000000000E+00 -0.00000000000E+00 -0.75076713592E+03  0.75076713592E+03  0.00000000000E+00 0.  1.
         25    1    1    2    0    0  0.54709543886E+02  0.16565632859E+03 -0.33722176893E+03  0.39972324780E+03  0.12500000000E+03 0.  0.
         25    1    1    2    0    0 -0.54709543886E+02 -0.16565632859E+03 -0.35217377961E+03  0.41241547551E+03  0.12500000000E+03 0.  0.
</event>
<event>
 4    0  0.2193754E-002  0.1730913E+03  0.7546771E-02  0.1174662E+00
         21   -1    0    0  502  501  0.00000000000E+00  0.00000000000E+00  0.53491951932E+02  0.53491951932E+02  0.00000000000E+00 0. -1.
         21   -1    0    0  501  502 -0.00000000000E+00 -0.00000000000E+00 -0.56009528514E+03  0.56009528514E+03  0.00000000000E+00 0. -1.
         25    1    1    2    0    0 -0.82102562059E+02  0.72904282119E+02 -0.16867399860E+03  0.23692146980E+03  0.12500000000E+03 0.  0.
         25    1    1    2    0    0  0.82102562059E+02 -0.72904282119E+02 -0.33792933461E+03  0.37666576727E+03  0.12500000000E+03 0.  0.
</event>
<event>
 4    0  0.2193754E-002  0.2277686E+03  0.7546771E-02  0.1128220E+00
         21   -1    0    0  502  501  0.00000000000E+00  0.00000000000E+00  0.13640275143E+04  0.13640275143E+04  0.00000000000E+00 0.  1.
         21   -1    0    0  501  502 -0.00000000000E+00 -0.00000000000E+00 -0.38033354310E+02  0.38033354310E+02  0.00000000000E+00 0.  1.
         25    1    1    2    0    0 -0.58731713275E+02 -0.17085686306E+03  0.47801891488E+03  0.52608798198E+03  0.12500000000E+03 0.  0.
         25    1    1    2    0    0  0.58731713275E+02  0.17085686306E+03  0.84797524513E+03  0.87597288665E+03  0.12500000000E+03 0.  0.
</event>
<event>
 4    0  0.2193754E-002  0.1782119E+03  0.7546771E-02  0.1169545E+00
         21   -1    0    0  502  501  0.00000000000E+00  0.00000000000E+00  0.28055052216E+03  0.28055052216E+03  0.00000000000E+00 0.  1.
         21   -1    0    0  501  502 -0.00000000000E+00 -0.00000000000E+00 -0.11320419707E+03  0.11320419707E+03  0.00000000000E+00 0.  1.
         25    1    1    2    0    0  0.39996551991E+02 -0.84783948441E+02  0.17836180022E+03  0.23712016756E+03  0.12500000000E+03 0.  0.
         25    1    1    2    0    0 -0.39996551991E+02  0.84783948441E+02 -0.11015475126E+02  0.15663455167E+03  0.12500000000E+03 0.  0.
</event>
<event>
 4    0  0.2193754E-002  0.2239267E+03  0.7546771E-02  0.1130989E+00
         21   -1    0    0  502  501  0.00000000000E+00  0.00000000000E+00  0.97462403369E+02  0.97462403369E+02  0.00000000000E+00 0. -1.
         21   -1    0    0  501  502 -0.00000000000E+00 -0.00000000000E+00 -0.51448723150E+03  0.51448723150E+03  0.00000000000E+00 0. -1.
         25    1    1    2    0    0  0.15141584148E+03  0.97573502134E+02 -0.14633242286E+03  0.26360106857E+03  0.12500000000E+03 0.  0.
         25    1    1    2    0    0 -0.15141584148E+03 -0.97573502134E+02 -0.27069240527E+03  0.34834856630E+03  0.12500000000E+03 0.  0.
</event>
<event>
 4    0  0.2193754E-002  0.2486151E+03  0.7546771E-02  0.1114183E+00
         21   -1    0    0  502  501  0.00000000000E+00  0.00000000000E+00  0.97586172873E+03  0.97586172873E+03  0.00000000000E+00 0.  1.
         21   -1    0    0  501  502 -0.00000000000E+00 -0.00000000000E+00 -0.63338322426E+02  0.63338322426E+02  0.00000000000E+00 0.  1.
         25    1    1    2    0    0 -0.12831852127E+03 -0.75277537468E+02  0.78039092837E+03  0.80421847257E+03  0.12500000000E+03 0.  0.
         25    1    1    2    0    0  0.12831852127E+03  0.75277537468E+02  0.13213247794E+03  0.23498157858E+03  0.12500000000E+03 0.  0.
</event>
<event>
 4    0  0.2193754E-002  0.1709521E+03  0.7546771E-02  0.1176859E+00
         21   -1    0    0  502  501  0.00000000000E+00  0.00000000000E+00  0.51626674193E+03  0.51626674193E+03  0.00000000000E+00 0. -1.
         21   -1    0    0  501  502 -0.00000000000E+00 -0.00000000000E+00 -0.56607599333E+02  0.56607599333E+02  0.00000000000E+00 0. -1.
         25    1    1    2    0    0 -0.99990336249E+02 -0.52644068608E+02  0.27810594899E+03  0.32517285275E+03  0.12500000000E+03 0.  0.
         25    1    1    2    0    0  0.99990336249E+02  0.52644068608E+02  0.18155319361E+03  0.24770148852E+03  0.12500000000E+03 0.  0.
</event>
<event>
 4    0  0.2193754E-002  0.1952080E+03  0.7546771E-02  0.1153846E+00
         21   -1    0    0  502  501  0.00000000000E+00  0.00000000000E+00  0.53295373650E+02  0.53295373650E+02  0.00000000000E+00 0. -1.
         21   -1    0    0  501  502 -0.00000000000E+00 -0.00000000000E+00 -0.71499956048E+03  0.71499956048E+03  0.00000000000E+00 0. -1.
         25    1    1    2    0    0  0.13982936820E+03 -0.26935852892E+02 -0.23847917331E+03  0.30459006630E+03  0.12500000000E+03 0.  0.
         25    1    1    2    0    0 -0.13982936820E+03  0.26935852892E+02 -0.42322501352E+03  0.46370486783E+03  0.12500000000E+03 0.  0.
</event>
<event>
 4    0  0.2193754E-002  0.1662160E+03  0.7546771E-02  0.1181852E+00
         21   -1    0    0  502  501  0.00000000000E+00  0.00000000000E+00  0.17187069817E+02  0.17187069817E+02  0.00000000000E+00 0.  1.
         21   -1    0    0  501  502 -0.00000000000E+00 -0.00000000000E+00 -0.16074733935E+04  0.16074733935E+04  0.00000000000E+00 0.  1.
         25    1    1    2    0    0 -0.82476338579E+02  0.54078589067E+02 -0.56199176045E+03  0.58411178642E+03  0.12500000000E+03 0.  0.
         25    1    1    2    0    0  0.82476338579E+02 -0.54078589067E+02 -0.10282945633E+04  0.10405486769E+04  0.12500000000E+03 0.  0.
</event>
<event>
 4    0  0.2193754E-002  0.4038645E+03  0.7546771E-02  0.1042450E+00
         21   -1    0    0  502  501  0.00000000000E+00  0.00000000000E+00  0.62524585962E+03  0.62524585962E+03  0.00000000000E+00 0.  1.
         21   -1    0    0  501  502 -0.00000000000E+00 -0.00000000000E+00 -0.26086784434E+03  0.26086784434E+03  0.00000000000E+00 0.  1.
         25    1    1    2    0    0  0.43929356186E+02  0.30381217764E+03  0.43534208872E+03  0.54715570163E+03  0.12500000000E+03 0.  0.
         25    1    1    2    0    0 -0.43929356186E+02 -0.30381217764E+03 -0.70964073436E+02  0.33895800232E+03  0.12500000000E+03 0.  0.
</event>
<event>
 4    0  0.2193754E-002  0.2351867E+03  0.7546771E-02  0.1123041E+00
         21   -1    0    0  502  501  0.00000000000E+00  0.00000000000E+00  0.53427535489E+02  0.53427535489E+02  0.00000000000E+00 0.  1.
         21   -1    0    0  501  502 -0.00000000000E+00 -0.00000000000E+00 -0.10352861423E+04  0.10352861423E+04  0.00000000000E+00 0.  1.
         25    1    1    2    0    0 -0.84234676481E+02  0.72225190255E+01 -0.73406084992E+02  0.16781268968E+03  0.12500000000E+03 0.  0.
         25    1    1    2    0    0  0.84234676481E+02 -0.72225190255E+01 -0.90845252179E+03  0.92090098809E+03  0.12500000000E+03 0.  0.
</event>
<event>
 4    0  0.2193754E-002  0.3322974E+03  0.7546771E-02  0.1070125E+00
         21   -1    0    0  502  501  0.00000000000E+00  0.00000000000E+00  0.26843731252E+03  0.26843731252E+03  0.00000000000E+00 0. -1.
         21   -1    0    0  501  502 -0.00000000000E+00 -0.00000000000E+00 -0.41134945267E+03  0.41134945267E+03  0.00000000000E+00 0. -1.
         25    1    1    2    0    0 -0.26724721087E+02 -0.12767121867E+03 -0.35672629879E+03  0.39986598135E+03  0.12500000000E+03 0.  0.
         25    1    1    2    0    0  0.26724721087E+02  0.12767121867E+03  0.21381415864E+03  0.27992078385E+03  0.12500000000E+03 0.  0.
</event>
<event>
 4    0  0.2193754E-002  0.2222101E+03  0.7546771E-02  0.1132246E+00
         21   -1    0    0  502  501  0.00000000000E+00  0.00000000000E+00  0.12300951126E+04  0.12300951126E+04  0.00000000000E+00 0. -1.
         21   -1    0    0  501  502 -0.00000000000E+00 -0.00000000000E+00 -0.40141078445E+02  0.40141078445E+02  0.00000000000E+00 0. -1.
         25    1    1    2    0    0  0.13886276326E+03  0.12003422455E+03  0.61734811843E+03  0.65607528639E+03  0.12500000000E+03 0.  0.
         25    1    1    2    0    0 -0.13886276326E+03 -0.12003422455E+03  0.57260591572E+03  0.61416090465E+03  0.12500000000E+03 0.  0.
</event>
<event>
 4    0  0.2193754E-002  0.2244897E+03  0.7546771E-02  0.1130579E+00
         21   -1    0    0  502  501  0.00000000000E+00  0.00000000000E+00  0.12737471649E+04  0.12737471649E+04  0.00000000000E+00 0. -1.
         21   -1    0    0  501  502 -0.00000000000E+00 -0.00000000000E+00 -0.39564847528E+02  0.39564847528E+02  0.00000000000E+00 0. -1.
         25    1    1    2    0    0 -0.50769167799E+02 -0.16970148308E+03  0.44666739869E+03  0.49650062116E+03  0.12500000000E+03 0.  0.
         25    1    1    2    0    0  0.50769167799E+02  0.16970148308E+03  0.78751491863E+03  0.81681139122E+03  0.12500000000E+03 0.  0.
</event>
<event>
 4    0  0.2193754E-002  0.2373770E+03  0.7546771E-02  0.1121553E+00
         21   -1    0    0  502  501  0.00000000000E+00  0.00000000000E+00  0.53619548978E+02  0.53619548978E+02  0.00000000000E+00 0.  1.
         21   -1    0    0  501  502 -0.00000000000E+00 -0.00000000000E+00 -0.10508826536E+04  0.10508826536E+04  0.00000000000E+00 0.  1.
         25    1    1    2    0    0  0.14390861736E+02 -0.15122993389E+03 -0.18959348283E+03  0.27321837152E+03  0.12500000000E+03 0.  0.
         25    1    1    2    0    0 -0.14390861736E+02  0.15122993389E+03 -0.80766962178E+03  0.83128383104E+03  0.12500000000E+03 0.  0.
</event>
<event>
 4    0  0.2193754E-002  0.2673766E+03  0.7546771E-02  0.1102791E+00
         21   -1    0    0  502  501  0.00000000000E+00  0.00000000000E+00  0.61371271673E+02  0.61371271673E+02  0.00000000000E+00 0. -1.
         21   -1    0    0  501  502 -0.00000000000E+00 -0.00000000000E+00 -0.11648808904E+04  0.11648808904E+04  0.00000000000E+00 0. -1.
         25    1    1    2    0    0  0.20727384245E+03  0.58653866606E+02 -0.77481877028E+03  0.81386230322E+03  0.12500000000E+03 0.  0.
         25    1    1    2    0    0 -0.20727384245E+03 -0.58653866606E+02 -0.32869084848E+03  0.41238985888E+03  0.12500000000E+03 0.  0.
</event>
<event>
 4    0  0.2193754E-002  0.2073880E+03  0.7546771E-02  0.1143651E+00
         21   -1    0    0  502  501  0.00000000000E+00  0.00000000000E+00  0.66783508994E+03  0.66783508994E+03  0.00000000000E+00 0. -1.
         21   -1    0    0  501  502 -0.00000000000E+00 -0.00000000000E+00 -0.64401786338E+02  0.64401786338E+02  0.00000000000E+00 0. -1.
         25    1    1    2    0    0  0.73475412189E+02 -0.12606632394E+03  0.43952278030E+03  0.47968388407E+03  0.12500000000E+03 0.  0.
         25    1    1    2    0    0 -0.73475412189E+02  0.12606632394E+03  0.16391052330E+03  0.25255299221E+03  0.12500000000E+03 0.  0.
</event>
<event>
 4    0  0.2193754E-002  0.1765874E+03  0.7546771E-02  0.1171147E+00
         21   -1    0    0  502  501  0.00000000000E+00  0.00000000000E+00  0.40982147614E+03  0.40982147614E+03  0.00000000000E+00 0.  1.
         21   -1    0    0  501  502 -0.00000000000E+00 -0.00000000000E+00 -0.76089539069E+02  0.76089539069E+02  0.00000000000E+00 0.  1.
         25    1    1    2    0    0  0.45373107606E+02  0.95699426159E+02  0.76216926929E+02  0.18069620641E+03  0.12500000000E+03 0.  0.
         25    1    1    2    0    0 -0.45373107606E+02 -0.95699426159E+02  0.25751501014E+03  0.30521480880E+03  0.12500000000E+03 0.  0.
</event>
<event>
 4    0  0.2193754E-002  0.1668077E+03  0.7546771E-02  0.1181218E+00
         21   -1    0    0  502  501  0.00000000000E+00  0.00000000000E+00  0.11342382660E+03  0.11342382660E+03  0.00000000000E+00 0.  1.
         21   -1    0    0  501  502 -0.00000000000E+00 -0.00000000000E+00 -0.24531727024E+03  0.24531727024E+03  0.00000000000E+00 0.  1.
         25    1    1    2    0    0  0.50139911604E+02 -0.35863689985E+02 -0.16449849658E+03  0.21560373459E+03  0.12500000000E+03 0.  0.
         25    1    1    2    0    0 -0.50139911604E+02  0.35863689985E+02  0.32605052936E+02  0.14313736225E+03  0.12500000000E+03 0.  0.
</event>
<event>
 4    0  0.2193754E-002  0.2463068E+03  0.7546771E-02  0.1115661E+00
         21   -1    0    0  502  501  0.00000000000E+00  0.00000000000E+00  0.96985930039E+03  0.96985930039E+03  0.00000000000E+00 0.  1.
         21   -1    0    0  501  502 -0.00000000000E+00 -0.00000000000E+00 -0.62552435393E+02  0.62552435393E+02  0.00000000000E+00 0.  1.
         25    1    1    2    0    0 -0.20723132378E+02 -0.47865869959E+02  0.22504973789E+02  0.13730281704E+03  0.12500000000E+03 0.  0.
         25    1    1    2    0    0  0.20723132378E+02  0.47865869959E+02  0.88480189121E+03  0.89510891874E+03  0.12500000000E+03 0.  0.
</event>
<event>
 4    0  0.2193754E-002  0.1877785E+03  0.7546771E-02  0.1160480E+00
         21   -1    0    0  502  501  0.00000000000E+00  0.00000000000E+00  0.65422321720E+03  0.65422321720E+03  0.00000000000E+00 0. -1.
         21   -1    0    0  501  502 -0.00000000000E+00 -0.00000000000E+00 -0.53897149380E+02  0.53897149380E+02  0.00000000000E+00 0. -1.
         25    1    1    2    0    0 -0.11599161600E+03 -0.67396023702E+02  0.37650885441E+03  0.41878418838E+03  0.12500000000E+03 0.  0.
         25    1    1    2    0    0  0.11599161600E+03  0.67396023702E+02  0.22381721341E+03  0.28933617820E+03  0.12500000000E+03 0.  0.
</event>
<event>
 4    0  0.2193754E-002  0.2878540E+03  0.7546771E-02  0.1091475E+00
         21   -1    0    0  502  501  0.00000000000E+00  0.00000000000E+00  0.46014489388E+03  0.46014489388E+03  0.00000000000E+00 0. -1.
         21   -1    0    0  501  502 -0.00000000000E+00 -0.00000000000E+00 -0.18007361306E+03  0.18007361306E+03  0.00000000000E+00 0. -1.
         25    1    1    2    0    0 -0.65620922076E+02  0.13829218135E+03 -0.92710972434E+02  0.21829145023E+03  0.12500000000E+03 0.  0.
         25    1    1    2    0    0  0.65620922076E+02 -0.13829218135E+03  0.37278225326E+03  0.42192705671E+03  0.12500000000E+03 0.  0.
</event>
<event>
 4    0  0.2193754E-002  0.2783001E+03  0.7546771E-02  0.1096621E+00
         21   -1    0    0  502  501  0.00000000000E+00  0.00000000000E+00  0.98439100843E+02  0.98439100843E+02  0.00000000000E+00 0.  1.
         21   -1    0    0  501  502 -0.00000000000E+00 -0.00000000000E+00 -0.78679027227E+03  0.78679027227E+03  0.00000000000E+00 0.  1.
         25    1    1    2    0    0  0.21521867699E+03 -0.52668485858E+02 -0.52363895209E+03  0.58216475372E+03  0.12500000000E+03 0.  0.
         25    1    1    2    0    0 -0.21521867699E+03  0.52668485858E+02 -0.16471221933E+03  0.30306461939E+03  0.12500000000E+03 0.  0.
</event>
<event>
 4    0  0.2193754E-002  0.2592692E+03  0.7546771E-02  0.1107583E+00
         21   -1    0    0  502  501  0.00000000000E+00  0.00000000000E+00  0.16904530820E+04  0.16904530820E+04  0.00000000000E+00 0. -1.
         21   -1    0    0  501  502 -0.00000000000E+00 -0.00000000000E+00 -0.39764779289E+02  0.39764779289E+02  0.00000000000E+00 0. -1.
         25    1    1    2    0    0  0.59486537701E+02  0.17737412859E+03  0.39549900247E+03  0.45502163752E+03  0.12500000000E+03 0.  0.
         25    1    1    2    0    0 -0.59486537701E+02 -0.17737412859E+03  0.12551893002E+04  0.12751962238E+04  0.12500000000E+03 0.  0.
</event>
<event>
 4    0  0.2193754E-002  0.2056221E+03  0.7546771E-02  0.1145080E+00
         21   -1    0    0  502  501  0.00000000000E+00  0.00000000000E+00  0.28212157211E+03  0.28212157211E+03  0.00000000000E+00 0. -1.
         21   -1    0    0  501  502 -0.00000000000E+00 -0.00000000000E+00 -0.14986606226E+03  0.14986606226E+03  0.00000000000E+00 0. -1.
         25    1    1    2    0    0  0.56815322974E+02 -0.11416293122E+03 -0.40967198817E+02  0.18320607841E+03  0.12500000000E+03 0.  0.
         25    1    1    2    0    0 -0.56815322974E+02  0.11416293122E+03  0.17322270866E+03  0.24878155596E+03  0.12500000000E+03 0.  0.
</event>
<event>
 4    0  0.2193754E-002  0.2435418E+03  0.7546771E-02  0.1117456E+00
         21   -1    0    0  502  501  0.00000000000E+00  0.00000000000E+00  0.20382381983E+03  0.20382381983E+03  0.00000000000E+00 0. -1.
         21   -1    0    0  501  502 -0.00000000000E+00 -0.00000000000E+00 -0.29099940496E+03  0.29099940496E+03  0.00000000000E+00 0. -1.
         25    1    1    2    0    0  0.10691367085E+03 -0.16956370230E+03  0.16557924289E+02  0.23681542815E+03  0.12500000000E+03 0.  0.
         25    1    1    2    0    0 -0.10691367085E+03  0.16956370230E+03 -0.10373350943E+03  0.25800779664E+03  0.12500000000E+03 0.  0.
</event>
<event>
 4    0  0.2193754E-002  0.2297039E+03  0.7546771E-02  0.1126848E+00
         21   -1    0    0  502  501  0.00000000000E+00  0.00000000000E+00  0.17406755263E+03  0.17406755263E+03  0.00000000000E+00 0. -1.
         21   -1    0    0  501  502 -0.00000000000E+00 -0.00000000000E+00 -0.30312300658E+03  0.30312300658E+03  0.00000000000E+00 0. -1.
         25    1    1    2    0    0 -0.70733778779E+02  0.13832057134E+03  0.53917019078E+02  0.20656207992E+03  0.12500000000E+03 0.  0.
         25    1    1    2    0    0  0.70733778779E+02 -0.13832057134E+03 -0.18297247303E+03  0.27062847929E+03  0.12500000000E+03 0.  0.
</event>
<event>
 4    0  0.2193754E-002  0.1838016E+03  0.7546771E-02  0.1164174E+00
         21   -1    0    0  502  501  0.00000000000E+00  0.00000000000E+00  0.56882825129E+03  0.56882825129E+03  0.00000000000E+00 0.  1.
         21   -1    0    0  501  502 -0.00000000000E+00 -0.00000000000E+00 -0.59390556386E+02  0.59390556386E+02  0.00000000000E+00 0.  1.
         25    1    1    2    0    0  0.33063616933E+02 -0.10493947280E+03  0.12176522944E+03  0.20629412696E+03  0.12500000000E+03 0.  0.
         25    1    1    2    0    0 -0.33063616933E+02  0.10493947280E+03  0.38767246546E+03  0.42192468071E+03  0.12500000000E+03 0.  0.
</event>
<event>
 4    0  0.2193754E-002  0.4837543E+03  0.7546771E-02  0.1018108E+00
         21   -1    0    0  502  501  0.00000000000E+00  0.00000000000E+00  0.38263877128E+03  0.38263877128E+03  0.00000000000E+00 0. -1.
         21   -1    0    0  501  502 -0.00000000000E+00 -0.00000000000E+00 -0.61159057207E+03  0.61159057207E+03  0.00000000000E+00 0. -1.
         25    1    1    2    0    0  0.16005267205E+03 -0.26400178086E+03 -0.47499186946E+03  0.58013453111E+03  0.12500000000E+03 0.  0.
         25    1    1    2    0    0 -0.16005267205E+03  0.26400178086E+03  0.24604006868E+03  0.41409481224E+03  0.12500000000E+03 0.  0.
</event>
<event>
 4    0  0.2193754E-002  0.2025308E+03  0.7546771E-02  0.1147621E+00
         21   -1    0    0  502  501  0.00000000000E+00  0.00000000000E+00  0.19203035948E+04  0.19203035948E+04  0.00000000000E+00 0.  1.
         21   -1    0    0  501  502 -0.00000000000E+00 -0.00000000000E+00 -0.21360544035E+02  0.21360544035E+02  0.00000000000E+00 0.  1.
         25    1    1    2    0    0 -0.45053362119E+02 -0.10527011940E+03  0.14807103245E+04  0.14903823900E+04  0.12500000000E+03 0.  0.
         25    1    1    2    0    0  0.45053362119E+02  0.10527011940E+03  0.41823272634E+03  0.45128174887E+03  0.12500000000E+03 0.  0.
</event>
<event>
 4    0  0.2193754E-002  0.1998390E+03  0.7546771E-02  0.1149875E+00
         21   -1    0    0  502  501  0.00000000000E+00  0.00000000000E+00  0.48206193979E+02  0.48206193979E+02  0.00000000000E+00 0.  1.
         21   -1    0    0  501  502 -0.00000000000E+00 -0.00000000000E+00 -0.82843340852E+03  0.82843340852E+03  0.00000000000E+00 0.  1.
         25    1    1    2    0    0 -0.71226547370E+02  0.13675416483E+03 -0.33934780421E+03  0.39313719599E+03  0.12500000000E+03 0.  0.
         25    1    1    2    0    0  0.71226547370E+02 -0.13675416483E+03 -0.44087941033E+03  0.48350240651E+03  0.12500000000E+03 0.  0.
</event>
<event>
 4    0  0.2193754E-002  0.1804999E+03  0.7546771E-02  0.1167320E+00
         21   -1    0    0  502  501  0.00000000000E+00  0.00000000000E+00  0.16226296947E+03  0.16226296947E+03  0.00000000000E+00 0.  1.
         21   -1    0    0  501  502 -0.00000000000E+00 -0.00000000000E+00 -0.20078654723E+03  0.20078654723E+03  0.00000000000E+00 0.  1.
         25    1    1    2    0    0 -0.88623555927E+02 -0.93119556860E+02  0.15883840988E+01  0.17931232389E+03  0.12500000000E+03 0.  0.
         25    1    1    2    0    0  0.88623555927E+02  0.93119556860E+02 -0.40111961860E+02  0.18373719280E+03  0.12500000000E+03 0.  0.
</event>
<event>
 4    0  0.2193754E-002  0.2011836E+03  0.7546771E-02  0.1148744E+00
         21   -1    0    0  502  501  0.00000000000E+00  0.00000000000E+00  0.86071346478E+03  0.86071346478E+03  0.00000000000E+00 0.  1.
         21   -1    0    0  501  502 -0.00000000000E+00 -0.00000000000E+00 -0.47024757449E+02  0.47024757449E+02  0.00000000000E+00 0.  1.
         25    1    1    2    0    0 -0.56977976688E+02  0.81901321907E+02  0.13150647508E+03  0.20705861331E+03  0.12500000000E+03 0.  0.
         25    1    1    2    0    0  0.56977976688E+02 -0.81901321907E+02  0.68218223225E+03  0.70067960892E+03  0.12500000000E+03 0.  0.
</event>
<event>
 4    0  0.2193754E-002  0.2370031E+03  0.7546771E-02  0.1121806E+00
         21   -1    0    0  502  501  0.00000000000E+00  0.00000000000E+00  0.10493030588E+03  0.10493030588E+03  0.00000000000E+00 0. -1.
         21   -1    0    0  501  502 -0.00000000000E+00 -0.00000000000E+00 -0.53531219806E+03  0.53531219806E+03  0.00000000000E+00 0. -1.
         25    1    1    2    0    0  0.13787813388E+03 -0.11680027114E+03 -0.33518942164E+03  0.40078626663E+03  0.12500000000E+03 0.  0.
         25    1    1    2    0    0 -0.13787813388E+03  0.11680027114E+03 -0.95192470540E+02  0.23945623731E+03  0.12500000000E+03 0.  0.
</event>
<event>
 4    0  0.2248275E-002  0.2044061E+03  0.7546771E-02  0.1146074E+00
         21   -1    0    0  502  501  0.00000000000E+00  0.00000000000E+00  0.13719371415E+03  0.13719371415E+03  0.00000000000E+00 0.  1.
         21   -1    0    0  501  502 -0.00000000000E+00 -0.00000000000E+00 -0.30454650877E+03  0.30454650877E+03  0.00000000000E+00 0.  1.
         25    1    1    2    0    0 -0.19105900472E+02 -0.12741212863E+02  0.89310431068E+02  0.15533424296E+03  0.12500000000E+03 0.  0.
         25    1    1    2    0    0  0.19105900472E+02  0.12741212863E+02 -0.25666322569E+03  0.28640597997E+03  0.12500000000E+03 0.  0.
</event>
<event>
 4    0  0.2193754E-002  0.2294818E+03  0.7546771E-02  0.1127005E+00
         21   -1    0    0  502  501  0.00000000000E+00  0.00000000000E+00  0.47676724463E+02  0.47676724463E+02  0.00000000000E+00 0. -1.
         21   -1    0    0  501  502 -0.00000000000E+00 -0.00000000000E+00 -0.11045617696E+04  0.11045617696E+04  0.00000000000E+00 0. -1.
         25    1    1    2    0    0  0.15030182376E+01 -0.10149585992E+03 -0.93892044104E+03  0.95262808234E+03  0.12500000000E+03 0.  0.
         25    1    1    2    0    0 -0.15030182376E+01  0.10149585992E+03 -0.11796460405E+03  0.19961041168E+03  0.12500000000E+03 0.  0.
</event>
<event>
 4    0  0.2193754E-002  0.3396386E+03  0.7546771E-02  0.1066950E+00
         21   -1    0    0  502  501  0.00000000000E+00  0.00000000000E+00  0.15211426943E+03  0.15211426943E+03  0.00000000000E+00 0.  1.
         21   -1    0    0  501  502 -0.00000000000E+00 -0.00000000000E+00 -0.75834042660E+03  0.75834042660E+03  0.00000000000E+00 0.  1.
         25    1    1    2    0    0  0.23503341383E+02  0.16349475429E+03 -0.66387429420E+03  0.69544016294E+03  0.12500000000E+03 0.  0.
         25    1    1    2    0    0 -0.23503341383E+02 -0.16349475429E+03  0.57648137030E+02  0.21501453309E+03  0.12500000000E+03 0.  0.
</event>
<event>
 4    0  0.2193754E-002  0.2017930E+03  0.7546771E-02  0.1148235E+00
         21   -1    0    0  502  501  0.00000000000E+00  0.00000000000E+00  0.33409852268E+03  0.33409852268E+03  0.00000000000E+00 0.  1.
         21   -1    0    0  501  502 -0.00000000000E+00 -0.00000000000E+00 -0.12188149140E+03  0.12188149140E+03  0.00000000000E+00 0.  1.
         25    1    1    2    0    0  0.10517886701E+02  0.15590085654E+03  0.13556464668E+03  0.24169914448E+03  0.12500000000E+03 0.  0.
         25    1    1    2    0    0 -0.10517886701E+02 -0.15590085654E+03  0.76652384611E+02  0.21428086960E+03  0.12500000000E+03 0.  0.
</event>
<event>
 4    0  0.2193754E-002  0.3548691E+03  0.7546771E-02  0.1060634E+00
         21   -1    0    0  502  501  0.00000000000E+00  0.00000000000E+00  0.28271137539E+03  0.28271137539E+03  0.00000000000E+00 0.  1.
         21   -1    0    0  501  502 -0.00000000000E+00 -0.00000000000E+00 -0.44544405795E+03  0.44544405795E+03  0.00000000000E+00 0.  1.
         25    1    1    2    0    0  0.16001080874E+03  0.28615733528E+03 -0.26907637333E+02  0.35190694848E+03  0.12500000000E+03 0.  0.
         25    1    1    2    0    0 -0.16001080874E+03 -0.28615733528E+03 -0.13582504523E+03  0.37624848486E+03  0.12500000000E+03 0.  0.
</event>
<event>
 4    0  0.2193754E-002  0.1676504E+03  0.7546771E-02  0.1180320E+00
         21   -1    0    0  502  501  0.00000000000E+00  0.00000000000E+00  0.39265535766E+02  0.39265535766E+02  0.00000000000E+00 0. -1.
         21   -1    0    0  501  502 -0.00000000000E+00 -0.00000000000E+00 -0.71581000729E+03  0.71581000729E+03  0.00000000000E+00 0. -1.
         25    1    1    2    0    0 -0.47982693550E+02  0.99051697372E+02 -0.38147686667E+03  0.41624893686E+03  0.12500000000E+03 0.  0.
         25    1    1    2    0    0  0.47982693550E+02 -0.99051697372E+02 -0.29506760486E+03  0.33882660620E+03  0.12500000000E+03 0.  0.
</event>
<event>
 4    0  0.2193754E-002  0.1793903E+03  0.7546771E-02  0.1168394E+00
         21   -1    0    0  502  501  0.00000000000E+00  0.00000000000E+00  0.27993614212E+03  0.27993614212E+03  0.00000000000E+00 0.  1.
         21   -1    0    0  501  502 -0.00000000000E+00 -0.00000000000E+00 -0.11495791155E+03  0.11495791155E+03  0.00000000000E+00 0.  1.
         25    1    1    2    0    0  0.10759289217E+03 -0.47582902714E+02  0.13984493323E+03  0.22140905227E+03  0.12500000000E+03 0.  0.
         25    1    1    2    0    0 -0.10759289217E+03  0.47582902714E+02  0.25133297347E+02  0.17348500140E+03  0.12500000000E+03 0.  0.
</event>
<event>
 4    0  0.2193754E-002  0.2719845E+03  0.7546771E-02  0.1100149E+00
         21   -1    0    0  502  501  0.00000000000E+00  0.00000000000E+00  0.16921568205E+03  0.16921568205E+03  0.00000000000E+00 0.  1.
         21   -1    0    0  501  502 -0.00000000000E+00 -0.00000000000E+00 -0.43716726959E+03  0.43716726959E+03  0.00000000000E+00 0.  1.
         25    1    1    2    0    0  0.14411100859E+01  0.27551547781E+02 -0.40148831469E+03  0.42140127125E+03  0.12500000000E+03 0.  0.
         25    1    1    2    0    0 -0.14411100859E+01 -0.27551547781E+02  0.13353672715E+03  0.18498168039E+03  0.12500000000E+03 0.  0.
</event>
<event>
 4    0  0.2193754E-002  0.2927577E+03  0.7546771E-02  0.1088918E+00
         21   -1    0    0  502  501  0.00000000000E+00  0.00000000000E+00  0.12077730962E+04  0.12077730962E+04  0.00000000000E+00 0.  1.
         21   -1    0    0  501  502 -0.00000000000E+00 -0.00000000000E+00 -0.70962914283E+02  0.70962914283E+02  0.00000000000E+00 0.  1.
         25    1    1    2    0    0  0.33074001358E+02  0.23956490791E+03  0.80359180570E+03  0.84845154538E+03  0.12500000000E+03 0.  0.
         25    1    1    2    0    0 -0.33074001358E+02 -0.23956490791E+03  0.33321837626E+03  0.43028446515E+03  0.12500000000E+03 0.  0.
</event>
<event>
 4    0  0.2193754E-002  0.2240299E+03  0.7546771E-02  0.1130914E+00
         21   -1    0    0  502  501  0.00000000000E+00  0.00000000000E+00  0.28380963739E+03  0.28380963739E+03  0.00000000000E+00 0. -1.
         21   -1    0    0  501  502 -0.00000000000E+00 -0.00000000000E+00 -0.17684180107E+03  0.17684180107E+03  0.00000000000E+00 0. -1.
         25    1    1    2    0    0 -0.14135817994E+03 -0.99288166665E+01  0.17721420716E+03  0.25905712045E+03  0.12500000000E+03 0.  0.
         25    1    1    2    0    0  0.14135817994E+03  0.99288166665E+01 -0.70246370844E+02  0.20159431801E+03  0.12500000000E+03 0.  0.
</event>
<event>
 4    0  0.2193754E-002  0.2267521E+03  0.7546771E-02  0.1128947E+00
         21   -1    0    0  502  501  0.00000000000E+00  0.00000000000E+00  0.76007751172E+02  0.76007751172E+02  0.00000000000E+00 0.  1.
         21   -1    0    0  501  502 -0.00000000000E+00 -0.00000000000E+00 -0.67646417353E+03  0.67646417353E+03  0.00000000000E+00 0.  1.
         25    1    1    2    0    0 -0.12790343717E+03  0.13835215002E+03 -0.27192789961E+03  0.35365292200E+03  0.12500000000E+03 0.  0.
         25    1    1    2    0    0  0.12790343717E+03 -0.13835215002E+03 -0.32852852275E+03  0.39881900270E+03  0.12500000000E+03 0.  0.
</event>
<event>
 4    0  0.2193754E-002  0.1862976E+03  0.7546771E-02  0.1161844E+00
         21   -1    0    0  502  501  0.00000000000E+00  0.00000000000E+00  0.22345493481E+03  0.22345493481E+03  0.00000000000E+00 0. -1.
         21   -1    0    0  501  502 -0.00000000000E+00 -0.00000000000E+00 -0.15531903353E+03  0.15531903353E+03  0.00000000000E+00 0. -1.
         25    1    1    2    0    0  0.65770869840E+01  0.68805713690E+02  0.15565195007E+03  0.21125816876E+03  0.12500000000E+03 0.  0.
         25    1    1    2    0    0 -0.65770869840E+01 -0.68805713690E+02 -0.87516048788E+02  0.16751579957E+03  0.12500000000E+03 0.  0.
</event>
<event>
 4    0  0.2193754E-002  0.2146291E+03  0.7546771E-02  0.1137952E+00
         21   -1    0    0  502  501  0.00000000000E+00  0.00000000000E+00  0.74162811074E+03  0.74162811074E+03  0.00000000000E+00 0. -1.
         21   -1    0    0  501  502 -0.00000000000E+00 -0.00000000000E+00 -0.62114216164E+02  0.62114216164E+02  0.00000000000E+00 0. -1.
         25    1    1    2    0    0  0.11045792505E+02  0.16930842812E+03  0.41589004128E+03  0.46623693526E+03  0.12500000000E+03 0.  0.
         25    1    1    2    0    0 -0.11045792505E+02 -0.16930842812E+03  0.26362385330E+03  0.33750539165E+03  0.12500000000E+03 0.  0.
</event>
<event>
 4    0  0.2193754E-002  0.2907873E+03  0.7546771E-02  0.1089939E+00
         21   -1    0    0  502  501  0.00000000000E+00  0.00000000000E+00  0.53145780772E+03  0.53145780772E+03  0.00000000000E+00 0. -1.
         21   -1    0    0  501  502 -0.00000000000E+00 -0.00000000000E+00 -0.15910438962E+03  0.15910438962E+03  0.00000000000E+00 0. -1.
         25    1    1    2    0    0  0.10338305668E+03  0.61368741697E+02 -0.90969070545E+02  0.19584317875E+03  0.12500000000E+03 0.  0.
         25    1    1    2    0    0 -0.10338305668E+03 -0.61368741697E+02  0.46332248865E+03  0.49471901859E+03  0.12500000000E+03 0.  0.
</event>
<event>
 4    0  0.2193754E-002  0.1999798E+03  0.7546771E-02  0.1149756E+00
         21   -1    0    0  502  501  0.00000000000E+00  0.00000000000E+00  0.55483773364E+03  0.55483773364E+03  0.00000000000E+00 0. -1.
         21   -1    0    0  501  502 -0.00000000000E+00 -0.00000000000E+00 -0.72078623864E+02  0.72078623864E+02  0.00000000000E+00 0. -1.
         25    1    1    2    0    0 -0.55976130960E+02 -0.91498991007E+02  0.63617122267E+02  0.17657160258E+03  0.12500000000E+03 0.  0.
         25    1    1    2    0    0  0.55976130960E+02  0.91498991007E+02  0.41914198751E+03  0.45034475492E+03  0.12500000000E+03 0.  0.
</event>
<event>
 4    0  0.2193754E-002  0.3237022E+03  0.7546771E-02  0.1073958E+00
         21   -1    0    0  502  501  0.00000000000E+00  0.00000000000E+00  0.98025785907E+02  0.98025785907E+02  0.00000000000E+00 0.  1.
         21   -1    0    0  501  502 -0.00000000000E+00 -0.00000000000E+00 -0.10689343642E+04  0.10689343642E+04  0.00000000000E+00 0.  1.
         25    1    1    2    0    0  0.28450083404E+03  0.89042191520E+02 -0.45481701470E+03  0.55798992223E+03  0.12500000000E+03 0.  0.
         25    1    1    2    0    0 -0.28450083404E+03 -0.89042191520E+02 -0.51609156363E+03  0.60897022792E+03  0.12500000000E+03 0.  0.
</event>
<event>
 4    0  0.2193754E-002  0.2747152E+03  0.7546771E-02  0.1098611E+00
         21   -1    0    0  502  501  0.00000000000E+00  0.00000000000E+00  0.35168891811E+03  0.35168891811E+03  0.00000000000E+00 0. -1.
         21   -1    0    0  501  502 -0.00000000000E+00 -0.00000000000E+00 -0.21458867008E+03  0.21458867008E+03  0.00000000000E+00 0. -1.
         25    1    1    2    0    0 -0.20762425551E+03  0.25779989811E+02 -0.62108576357E+02  0.25150529738E+03  0.12500000000E+03 0.  0.
         25    1    1    2    0    0  0.20762425551E+03 -0.25779989811E+02  0.19920882438E+03  0.31477229081E+03  0.12500000000E+03 0.  0.
</event>
<event>
 4    0  0.2193754E-002  0.3082171E+03  0.7546771E-02  0.1081204E+00
         21   -1    0    0  502  501  0.00000000000E+00  0.00000000000E+00  0.24387073422E+03  0.24387073422E+03  0.00000000000E+00 0. -1.
         21   -1    0    0  501  502 -0.00000000000E+00 -0.00000000000E+00 -0.38954145316E+03  0.38954145316E+03  0.00000000000E+00 0. -1.
         25    1    1    2    0    0  0.41115373009E+02  0.20697151191E+03 -0.26464501567E+03  0.36081804966E+03  0.12500000000E+03 0.  0.
         25    1    1    2    0    0 -0.41115373009E+02 -0.20697151191E+03  0.11897429673E+03  0.27259413772E+03  0.12500000000E+03 0.  0.
</event>
<event>
 4    0  0.2193754E-002  0.1884490E+03  0.7546771E-02  0.1159868E+00
         21   -1    0    0  502  501  0.00000000000E+00  0.00000000000E+00  0.83440970596E+02  0.83440970596E+02  0.00000000000E+00 0.  1.
         21   -1    0    0  501  502 -0.00000000000E+00 -0.00000000000E+00 -0.42560640934E+03  0.42560640934E+03  0.00000000000E+00 0.  1.
         25    1    1    2    0    0  0.32996229273E+02  0.12863387006E+03 -0.10698016126E+03  0.21143599168E+03  0.12500000000E+03 0.  0.
         25    1    1    2    0    0 -0.32996229273E+02 -0.12863387006E+03 -0.23518527748E+03  0.29761138826E+03  0.12500000000E+03 0.  0.
</event>
<event>
 4    0  0.2193754E-002  0.2282537E+03  0.7546771E-02  0.1127875E+00
         21   -1    0    0  502  501  0.00000000000E+00  0.00000000000E+00  0.28438326164E+03  0.28438326164E+03  0.00000000000E+00 0.  1.
         21   -1    0    0  501  502 -0.00000000000E+00 -0.00000000000E+00 -0.18320263828E+03  0.18320263828E+03  0.00000000000E+00 0.  1.
         25    1    1    2    0    0  0.11699470510E+03 -0.14171711556E+03 -0.26643462488E+01  0.22226920750E+03  0.12500000000E+03 0.  0.
         25    1    1    2    0    0 -0.11699470510E+03  0.14171711556E+03  0.10384496961E+03  0.24531669241E+03  0.12500000000E+03 0.  0.
</event>
<event>
 4    0  0.2193754E-002  0.2157661E+03  0.7546771E-02  0.1137079E+00
         21   -1    0    0  502  501  0.00000000000E+00  0.00000000000E+00  0.31601384731E+03  0.31601384731E+03  0.00000000000E+00 0. -1.
         21   -1    0    0  501  502 -0.00000000000E+00 -0.00000000000E+00 -0.14731956724E+03  0.14731956724E+03  0.00000000000E+00 0. -1.
         25    1    1    2    0    0 -0.11480060741E+03  0.13186775583E+03  0.10476818032E+03  0.23910176933E+03  0.12500000000E+03 0.  0.
         25    1    1    2    0    0  0.11480060741E+03 -0.13186775583E+03  0.63926099744E+02  0.22423164522E+03  0.12500000000E+03 0.  0.
</event>
<event>
 4    0  0.2193754E-002  0.2457490E+03  0.7546771E-02  0.1116021E+00
         21   -1    0    0  502  501  0.00000000000E+00  0.00000000000E+00  0.26772904926E+03  0.26772904926E+03  0.00000000000E+00 0.  1.
         21   -1    0    0  501  502 -0.00000000000E+00 -0.00000000000E+00 -0.22557349720E+03  0.22557349720E+03  0.00000000000E+00 0.  1.
         25    1    1    2    0    0  0.64864185695E+02  0.71190917963E+02  0.21016284369E+03  0.26280968447E+03  0.12500000000E+03 0.  0.
         25    1    1    2    0    0 -0.64864185695E+02 -0.71190917963E+02 -0.16800729163E+03  0.23049286199E+03  0.12500000000E+03 0.  0.
</event>
<event>
 4    0  0.2193754E-002  0.2704679E+03  0.7546771E-02  0.1101012E+00
         21   -1    0    0  502  501  0.00000000000E+00  0.00000000000E+00  0.11831551576E+04  0.11831551576E+04  0.00000000000E+00 0.  1.
         21   -1    0    0  501  502 -0.00000000000E+00 -0.00000000000E+00 -0.61828649964E+02  0.61828649964E+02  0.00000000000E+00 0.  1.
         25    1    1    2    0    0  0.20508628822E+03 -0.62712244679E+02  0.31347908461E+03  0.39985915987E+03  0.12500000000E+03 0.  0.
         25    1    1    2    0    0 -0.20508628822E+03  0.62712244679E+02  0.80784742305E+03  0.84512464772E+03  0.12500000000E+03 0.  0.
</event>
<event>
 4    0  0.2193754E-002  0.2101933E+03  0.7546771E-02  0.1141413E+00
         21   -1    0    0  502  501  0.00000000000E+00  0.00000000000E+00  0.17841608630E+03  0.17841608630E+03  0.00000000000E+00 0. -1.
         21   -1    0    0  501  502 -0.00000000000E+00 -0.00000000000E+00 -0.24763027948E+03  0.24763027948E+03  0.00000000000E+00 0. -1.
         25    1    1    2    0    0 -0.66300452915E+01 -0.99017850208E+02  0.10401056700E+03  0.19050378004E+03  0.12500000000E+03 0.  0.
         25    1    1    2    0    0  0.66300452915E+01  0.99017850208E+02 -0.17322476018E+03  0.23554258575E+03  0.12500000000E+03 0.  0.
</event>
<event>
 4    0  0.2193754E-002  0.3377169E+03  0.7546771E-02  0.1067773E+00
         21   -1    0    0  502  501  0.00000000000E+00  0.00000000000E+00  0.11512962447E+03  0.11512962447E+03  0.00000000000E+00 0. -1.
         21   -1    0    0  501  502 -0.00000000000E+00 -0.00000000000E+00 -0.99064588064E+03  0.99064588064E+03  0.00000000000E+00 0. -1.
         25    1    1    2    0    0  0.18406400025E+03 -0.25376204223E+03 -0.41751068224E+03  0.53685649856E+03  0.12500000000E+03 0.  0.
         25    1    1    2    0    0 -0.18406400025E+03  0.25376204223E+03 -0.45800557393E+03  0.56891900655E+03  0.12500000000E+03 0.  0.
</event>
<event>
 4    0  0.2193754E-002  0.2576727E+03  0.7546771E-02  0.1108550E+00
         21   -1    0    0  502  501  0.00000000000E+00  0.00000000000E+00  0.14903865938E+03  0.14903865938E+03  0.00000000000E+00 0. -1.
         21   -1    0    0  501  502 -0.00000000000E+00 -0.00000000000E+00 -0.44548981066E+03  0.44548981066E+03  0.00000000000E+00 0. -1.
         25    1    1    2    0    0 -0.10289285786E+03  0.13969401388E+03  0.17630896989E+02  0.21456282586E+03  0.12500000000E+03 0.  0.
         25    1    1    2    0    0  0.10289285786E+03 -0.13969401388E+03 -0.31408204827E+03  0.37996564418E+03  0.12500000000E+03 0.  0.
</event>
<event>
 4    0  0.2193754E-002  0.2138307E+03  0.7546771E-02  0.1138568E+00
         21   -1    0    0  502  501  0.00000000000E+00  0.00000000000E+00  0.81138076062E+02  0.81138076062E+02  0.00000000000E+00 0.  1.
         21   -1    0    0  501  502 -0.00000000000E+00 -0.00000000000E+00 -0.56352800460E+03  0.56352800460E+03  0.00000000000E+00 0.  1.
         25    1    1    2    0    0 -0.15568733387E+02  0.30261016141E+02 -0.49763596423E+03  0.51422239104E+03  0.12500000000E+03 0.  0.
         25    1    1    2    0    0  0.15568733387E+02 -0.30261016141E+02  0.15246035690E+02  0.13044368962E+03  0.12500000000E+03 0.  0.
</event>
<event>
 4    0  0.2193754E-002  0.1961095E+03  0.7546771E-02  0.1153064E+00
         21   -1    0    0  502  501  0.00000000000E+00  0.00000000000E+00  0.65835405178E+03  0.65835405178E+03  0.00000000000E+00 0.  1.
         21   -1    0    0  501  502 -0.00000000000E+00 -0.00000000000E+00 -0.58416786781E+02  0.58416786781E+02  0.00000000000E+00 0.  1.
         25    1    1    2    0    0 -0.91453069923E+02  0.12083784063E+02  0.81249066488E+02  0.17531712022E+03  0.12500000000E+03 0.  0.
         25    1    1    2    0    0  0.91453069923E+02 -0.12083784063E+02  0.51868819851E+03  0.54145371834E+03  0.12500000000E+03 0.  0.
</event>
<event>
 4    0  0.2193754E-002  0.2139679E+03  0.7546771E-02  0.1138462E+00
         21   -1    0    0  502  501  0.00000000000E+00  0.00000000000E+00  0.82797213135E+02  0.82797213135E+02  0.00000000000E+00 0.  1.
         21   -1    0    0  501  502 -0.00000000000E+00 -0.00000000000E+00 -0.55294434034E+03  0.55294434034E+03  0.00000000000E+00 0.  1.
         25    1    1    2    0    0  0.86085968560E+02  0.98785029429E+02 -0.65767408722E+02  0.19266454804E+03  0.12500000000E+03 0.  0.
         25    1    1    2    0    0 -0.86085968560E+02 -0.98785029429E+02 -0.40437971848E+03  0.44307700543E+03  0.12500000000E+03 0.  0.
</event>
<event>
 4    0  0.2193754E-002  0.1568836E+03  0.7546771E-02  0.1192261E+00
         21   -1    0    0  502  501  0.00000000000E+00  0.00000000000E+00  0.51858514232E+03  0.51858514232E+03  0.00000000000E+00 0. -1.
         21   -1    0    0  501  502 -0.00000000000E+00 -0.00000000000E+00 -0.47460817120E+02  0.47460817120E+02  0.00000000000E+00 0. -1.
         25    1    1    2    0    0  0.93361902056E+02  0.64517200866E+01  0.20823807664E+03  0.26028093670E+03  0.12500000000E+03 0.  0.
         25    1    1    2    0    0 -0.93361902056E+02 -0.64517200866E+01  0.26288624856E+03  0.30576502273E+03  0.12500000000E+03 0.  0.
</event>
<event>
 4    0  0.2193754E-002  0.1729660E+03  0.7546771E-02  0.1174790E+00
         21   -1    0    0  502  501  0.00000000000E+00  0.00000000000E+00  0.61388271420E+03  0.61388271420E+03  0.00000000000E+00 0.  1.
         21   -1    0    0  501  502 -0.00000000000E+00 -0.00000000000E+00 -0.48734451707E+02  0.48734451707E+02  0.00000000000E+00 0.  1.
         25    1    1    2    0    0 -0.53230302716E+02  0.48634614202E+02  0.99917180052E+02  0.17551989544E+03  0.12500000000E+03 0.  0.
         25    1    1    2    0    0  0.53230302716E+02 -0.48634614202E+02  0.46523108244E+03  0.48709727046E+03  0.12500000000E+03 0.  0.
</event>
<event>
 4    0  0.2193754E-002  0.2349203E+03  0.7546771E-02  0.1123224E+00
         21   -1    0    0  502  501  0.00000000000E+00  0.00000000000E+00  0.58570838067E+02  0.58570838067E+02  0.00000000000E+00 0.  1.
         21   -1    0    0  501  502 -0.00000000000E+00 -0.00000000000E+00 -0.94223563618E+03  0.94223563618E+03  0.00000000000E+00 0.  1.
         25    1    1    2    0    0  0.15988883732E+03 -0.49625374872E+02 -0.21305337781E+03  0.29840217815E+03  0.12500000000E+03 0.  0.
         25    1    1    2    0    0 -0.15988883732E+03  0.49625374872E+02 -0.67061142030E+03  0.70240429609E+03  0.12500000000E+03 0.  0.
</event>
<event>
 4    0  0.2193754E-002  0.1681024E+03  0.7546771E-02  0.1179841E+00
         21   -1    0    0  502  501  0.00000000000E+00  0.00000000000E+00  0.60853383638E+03  0.60853383638E+03  0.00000000000E+00 0. -1.
         21   -1    0    0  501  502 -0.00000000000E+00 -0.00000000000E+00 -0.46436885175E+02  0.46436885175E+02  0.00000000000E+00 0. -1.
         25    1    1    2    0    0 -0.27193497753E+02  0.90768745989E+02  0.39882522273E+03  0.42856155900E+03  0.12500000000E+03 0.  0.
         25    1    1    2    0    0  0.27193497753E+02 -0.90768745989E+02  0.16327172848E+03  0.22640916255E+03  0.12500000000E+03 0.  0.
</event>
<event>
 4    0  0.2193754E-002  0.1775747E+03  0.7546771E-02  0.1170171E+00
         21   -1    0    0  502  501  0.00000000000E+00  0.00000000000E+00  0.46299776396E+03  0.46299776396E+03  0.00000000000E+00 0. -1.
         21   -1    0    0  501  502 -0.00000000000E+00 -0.00000000000E+00 -0.68105635812E+02  0.68105635812E+02  0.00000000000E+00 0. -1.
         25    1    1    2    0    0  0.96566217230E+02  0.42910342808E+02  0.30041887493E+03  0.34211523241E+03  0.12500000000E+03 0.  0.
         25    1    1    2    0    0 -0.96566217230E+02 -0.42910342808E+02  0.94473253212E+02  0.18898816736E+03  0.12500000000E+03 0.  0.
</event>
<event>
 4    0  0.2193754E-002  0.1722775E+03  0.7546771E-02  0.1175493E+00
         21   -1    0    0  502  501  0.00000000000E+00  0.00000000000E+00  0.20045353690E+02  0.20045353690E+02  0.00000000000E+00 0. -1.
         21   -1    0    0  501  502 -0.00000000000E+00 -0.00000000000E+00 -0.14806195667E+04  0.14806195667E+04  0.00000000000E+00 0. -1.
         25    1    1    2    0    0 -0.10739970497E+03  0.17218490656E+02 -0.52491995156E+03  0.55045174956E+03  0.12500000000E+03 0.  0.
         25    1    1    2    0    0  0.10739970497E+03 -0.17218490656E+02 -0.93565426146E+03  0.95021317084E+03  0.12500000000E+03 0.  0.
</event>
<event>
 4    0  0.2193754E-002  0.2609077E+03  0.7546771E-02  0.1106599E+00
         21   -1    0    0  502  501  0.00000000000E+00  0.00000000000E+00  0.19540444442E+04  0.19540444442E+04  0.00000000000E+00 0.  1.
         21   -1    0    0  501  502 -0.00000000000E+00 -0.00000000000E+00 -0.34836881416E+02  0.34836881416E+02  0.00000000000E+00 0.  1.
         25    1    1    2    0    0  0.21841220402E+03 -0.33311936162E+02  0.11893766471E+04  0.12161642096E+04  0.12500000000E+03 0.  0.
         25    1    1    2    0    0 -0.21841220402E+03  0.33311936162E+02  0.72983091569E+03  0.77271711606E+03  0.12500000000E+03 0.  0.
</event>
<event>
 4    0  0.2193754E-002  0.1862689E+03  0.7546771E-02  0.1161870E+00
         21   -1    0    0  502  501  0.00000000000E+00  0.00000000000E+00  0.90027092926E+02  0.90027092926E+02  0.00000000000E+00 0.  1.
         21   -1    0    0  501  502 -0.00000000000E+00 -0.00000000000E+00 -0.38539643909E+03  0.38539643909E+03  0.00000000000E+00 0.  1.
         25    1    1    2    0    0  0.66563044200E+02  0.12075777427E+03 -0.13796208451E+03  0.23167135270E+03  0.12500000000E+03 0.  0.
         25    1    1    2    0    0 -0.66563044200E+02 -0.12075777427E+03 -0.15740726165E+03  0.24375217931E+03  0.12500000000E+03 0.  0.
</event>
<event>
 4    0  0.2193754E-002  0.2125656E+03  0.7546771E-02  0.1139550E+00
         21   -1    0    0  502  501  0.00000000000E+00  0.00000000000E+00  0.30321623423E+02  0.30321623423E+02  0.00000000000E+00 0.  1.
         21   -1    0    0  501  502 -0.00000000000E+00 -0.00000000000E+00 -0.14901615324E+04  0.14901615324E+04  0.00000000000E+00 0.  1.
         25    1    1    2    0    0 -0.14514573695E+03  0.67461153392E+02 -0.95443852808E+03  0.97580540891E+03  0.12500000000E+03 0.  0.
         25    1    1    2    0    0  0.14514573695E+03 -0.67461153392E+02 -0.50540138091E+03  0.54467774693E+03  0.12500000000E+03 0.  0.
</event>
<event>
 4    0  0.2193754E-002  0.2171647E+03  0.7546771E-02  0.1136015E+00
         21   -1    0    0  502  501  0.00000000000E+00  0.00000000000E+00  0.24947080981E+02  0.24947080981E+02  0.00000000000E+00 0.  1.
         21   -1    0    0  501  502 -0.00000000000E+00 -0.00000000000E+00 -0.18904221251E+04  0.18904221251E+04  0.00000000000E+00 0.  1.
         25    1    1    2    0    0  0.40281095543E+02 -0.17161116812E+03 -0.10275825431E+04  0.10500589710E+04  0.12500000000E+03 0.  0.
         25    1    1    2    0    0 -0.40281095543E+02  0.17161116812E+03 -0.83789250108E+03  0.86531023514E+03  0.12500000000E+03 0.  0.
</event>
<event>
 4    0  0.2193754E-002  0.1874344E+03  0.7546771E-02  0.1160796E+00
         21   -1    0    0  502  501  0.00000000000E+00  0.00000000000E+00  0.15097527329E+03  0.15097527329E+03  0.00000000000E+00 0.  1.
         21   -1    0    0  501  502 -0.00000000000E+00 -0.00000000000E+00 -0.23269799783E+03  0.23269799783E+03  0.00000000000E+00 0.  1.
         25    1    1    2    0    0  0.12771619515E+03 -0.18670791017E+02  0.13745468994E+02  0.18020533527E+03  0.12500000000E+03 0.  0.
         25    1    1    2    0    0 -0.12771619515E+03  0.18670791017E+02 -0.95468193535E+02  0.20346793585E+03  0.12500000000E+03 0.  0.
</event>
<event>
 4    0  0.2193754E-002  0.2159384E+03  0.7546771E-02  0.1136948E+00
         21   -1    0    0  502  501  0.00000000000E+00  0.00000000000E+00  0.18388361182E+03  0.18388361182E+03  0.00000000000E+00 0. -1.
         21   -1    0    0  501  502 -0.00000000000E+00 -0.00000000000E+00 -0.25358101193E+03  0.25358101193E+03  0.00000000000E+00 0. -1.
         25    1    1    2    0    0 -0.15899280023E+03 -0.73829669370E+02 -0.18055238489E+02  0.21605675699E+03  0.12500000000E+03 0.  0.
         25    1    1    2    0    0  0.15899280023E+03  0.73829669370E+02 -0.51642161620E+02  0.22140786676E+03  0.12500000000E+03 0.  0.
</event>
<event>
 4    0  0.2193754E-002  0.2047260E+03  0.7546771E-02  0.1145812E+00
         21   -1    0    0  502  501  0.00000000000E+00  0.00000000000E+00  0.12942443820E+03  0.12942443820E+03  0.00000000000E+00 0. -1.
         21   -1    0    0  501  502 -0.00000000000E+00 -0.00000000000E+00 -0.32383952064E+03  0.32383952064E+03  0.00000000000E+00 0. -1.
         25    1    1    2    0    0 -0.29835293900E+02  0.12120542085E+03 -0.21175328779E+03  0.27576322034E+03  0.12500000000E+03 0.  0.
         25    1    1    2    0    0  0.29835293900E+02 -0.12120542085E+03  0.17338205343E+02  0.17750073850E+03  0.12500000000E+03 0.  0.
</event>
<event>
 4    0  0.2193754E-002  0.1580567E+03  0.7546771E-02  0.1190908E+00
         21   -1    0    0  502  501  0.00000000000E+00  0.00000000000E+00  0.62240652257E+02  0.62240652257E+02  0.00000000000E+00 0.  1.
         21   -1    0    0  501  502 -0.00000000000E+00 -0.00000000000E+00 -0.40137648507E+03  0.40137648507E+03  0.00000000000E+00 0.  1.
         25    1    1    2    0    0 -0.94951607729E+02 -0.45673332501E+01 -0.19581444050E+03  0.25100789520E+03  0.12500000000E+03 0.  0.
         25    1    1    2    0    0  0.94951607729E+02  0.45673332501E+01 -0.14332139231E+03  0.21260924212E+03  0.12500000000E+03 0.  0.
</event>
<event>
 4    0  0.2193754E-002  0.2332596E+03  0.7546771E-02  0.1124366E+00
         21   -1    0    0  502  501  0.00000000000E+00  0.00000000000E+00  0.16223332433E+03  0.16223332433E+03  0.00000000000E+00 0. -1.
         21   -1    0    0  501  502 -0.00000000000E+00 -0.00000000000E+00 -0.33538141428E+03  0.33538141428E+03  0.00000000000E+00 0. -1.
         25    1    1    2    0    0  0.88193573677E+02  0.17567765263E+03 -0.73760969166E+02  0.24434898126E+03  0.12500000000E+03 0.  0.
         25    1    1    2    0    0 -0.88193573677E+02 -0.17567765263E+03 -0.99387120781E+02  0.25326575736E+03  0.12500000000E+03 0.  0.
</event>
<event>
 4    0  0.2193754E-002  0.1966255E+03  0.7546771E-02  0.1152618E+00
         21   -1    0    0  502  501  0.00000000000E+00  0.00000000000E+00  0.10887563416E+03  0.10887563416E+03  0.00000000000E+00 0.  1.
         21   -1    0    0  501  502 -0.00000000000E+00 -0.00000000000E+00 -0.35509857923E+03  0.35509857923E+03  0.00000000000E+00 0.  1.
         25    1    1    2    0    0  0.80448720709E+02 -0.58043767391E+02 -0.25864198476E+03  0.30391076302E+03  0.12500000000E+03 0.  0.
         25    1    1    2    0    0 -0.80448720709E+02  0.58043767391E+02  0.12419039691E+02  0.16006345037E+03  0.12500000000E+03 0.  0.
</event>
<event>
 4    0  0.2193754E-002  0.2069028E+03  0.7546771E-02  0.1144042E+00
         21   -1    0    0  502  501  0.00000000000E+00  0.00000000000E+00  0.26608012341E+03  0.26608012341E+03  0.00000000000E+00 0. -1.
         21   -1    0    0  501  502 -0.00000000000E+00 -0.00000000000E+00 -0.16088681042E+03  0.16088681042E+03  0.00000000000E+00 0. -1.
         25    1    1    2    0    0 -0.34314069364E+02  0.12501805614E+03 -0.52509897450E+02  0.18758800347E+03  0.12500000000E+03 0.  0.
         25    1    1    2    0    0  0.34314069364E+02 -0.12501805614E+03  0.15770321043E+03  0.23937893035E+03  0.12500000000E+03 0.  0.
</event>
<event>
 4    0  0.2193754E-002  0.2109488E+03  0.7546771E-02  0.1140817E+00
         21   -1    0    0  502  501  0.00000000000E+00  0.00000000000E+00  0.42376267973E+03  0.42376267973E+03  0.00000000000E+00 0.  1.
         21   -1    0    0  501  502 -0.00000000000E+00 -0.00000000000E+00 -0.10501022023E+03  0.10501022023E+03  0.00000000000E+00 0.  1.
         25    1    1    2    0    0 -0.15102909254E+03  0.48488297198E+02  0.23575178622E+03  0.31042681338E+03  0.12500000000E+03 0.  0.
         25    1    1    2    0    0  0.15102909254E+03 -0.48488297198E+02  0.83000673288E+02  0.21834608658E+03  0.12500000000E+03 0.  0.
</event>
<event>
 4    0  0.2193754E-002  0.1971192E+03  0.7546771E-02  0.1152193E+00
         21   -1    0    0  502  501  0.00000000000E+00  0.00000000000E+00  0.49701633098E+03  0.49701633098E+03  0.00000000000E+00 0.  1.
         21   -1    0    0  501  502 -0.00000000000E+00 -0.00000000000E+00 -0.78178459617E+02  0.78178459617E+02  0.00000000000E+00 0.  1.
         25    1    1    2    0    0 -0.11840296811E+03  0.29497365395E+02  0.76164675553E+02  0.19056603901E+03  0.12500000000E+03 0.  0.
         25    1    1    2    0    0  0.11840296811E+03 -0.29497365395E+02  0.34267319581E+03  0.38462875159E+03  0.12500000000E+03 0.  0.
</event>
<event>
 4    0  0.2193754E-002  0.1668571E+03  0.7546771E-02  0.1181166E+00
         21   -1    0    0  502  501  0.00000000000E+00  0.00000000000E+00  0.56968930371E+03  0.56968930371E+03  0.00000000000E+00 0.  1.
         21   -1    0    0  501  502 -0.00000000000E+00 -0.00000000000E+00 -0.48870995681E+02  0.48870995681E+02  0.00000000000E+00 0.  1.
         25    1    1    2    0    0 -0.93111578429E+02 -0.24797848574E+02  0.36076868071E+03  0.39378133566E+03  0.12500000000E+03 0.  0.
         25    1    1    2    0    0  0.93111578429E+02  0.24797848574E+02  0.16004962732E+03  0.22477896373E+03  0.12500000000E+03 0.  0.
</event>
<event>
 4    0  0.2193754E-002  0.2348431E+03  0.7546771E-02  0.1123277E+00
         21   -1    0    0  502  501  0.00000000000E+00  0.00000000000E+00  0.16085202804E+03  0.16085202804E+03  0.00000000000E+00 0. -1.
         21   -1    0    0  501  502 -0.00000000000E+00 -0.00000000000E+00 -0.34286965792E+03  0.34286965792E+03  0.00000000000E+00 0. -1.
         25    1    1    2    0    0  0.70172861282E+02  0.28656887810E+02 -0.28812306722E+03  0.32308721662E+03  0.12500000000E+03 0.  0.
         25    1    1    2    0    0 -0.70172861282E+02 -0.28656887810E+02  0.10610543734E+03  0.18063446934E+03  0.12500000000E+03 0.  0.
</event>
<event>
 4    0  0.2193754E-002  0.2297066E+03  0.7546771E-02  0.1126846E+00
         21   -1    0    0  502  501  0.00000000000E+00  0.00000000000E+00  0.56703562269E+03  0.56703562269E+03  0.00000000000E+00 0.  1.
         21   -1    0    0  501  502 -0.00000000000E+00 -0.00000000000E+00 -0.93054353813E+02  0.93054353813E+02  0.00000000000E+00 0.  1.
         25    1    1    2    0    0  0.28010788437E+02  0.94004120552E+02  0.47534000473E+03  0.50119307561E+03  0.12500000000E+03 0.  0.
         25    1    1    2    0    0 -0.28010788437E+02 -0.94004120552E+02 -0.13587358479E+01  0.15889690089E+03  0.12500000000E+03 0.  0.
</event>
<event>
 4    0  0.2193754E-002  0.1752448E+03  0.7546771E-02  0.1172486E+00
         21   -1    0    0  502  501  0.00000000000E+00  0.00000000000E+00  0.49064938342E+02  0.49064938342E+02  0.00000000000E+00 0.  1.
         21   -1    0    0  501  502 -0.00000000000E+00 -0.00000000000E+00 -0.62592057607E+03  0.62592057607E+03  0.00000000000E+00 0.  1.
         25    1    1    2    0    0 -0.38195417059E+02 -0.86147648178E+02 -0.44013486766E+03  0.46714452678E+03  0.12500000000E+03 0.  0.
         25    1    1    2    0    0  0.38195417059E+02  0.86147648178E+02 -0.13672077006E+03  0.20784098762E+03  0.12500000000E+03 0.  0.
</event>
<event>
 4    0  0.2193754E-002  0.1986420E+03  0.7546771E-02  0.1150890E+00
         21   -1    0    0  502  501  0.00000000000E+00  0.00000000000E+00  0.55896885677E+03  0.55896885677E+03  0.00000000000E+00 0.  1.
         21   -1    0    0  501  502 -0.00000000000E+00 -0.00000000000E+00 -0.70591824756E+02  0.70591824756E+02  0.00000000000E+00 0.  1.
         25    1    1    2    0    0  0.55249440560E+02  0.14170563007E+03  0.28613404727E+03  0.34731927571E+03  0.12500000000E+03 0.  0.
         25    1    1    2    0    0 -0.55249440560E+02 -0.14170563007E+03  0.20224298474E+03  0.28224140581E+03  0.12500000000E+03 0.  0.
</event>
<event>
 4    0  0.2193754E-002  0.1753544E+03  0.7546771E-02  0.1172376E+00
         21   -1    0    0  502  501  0.00000000000E+00  0.00000000000E+00  0.96272785216E+02  0.96272785216E+02  0.00000000000E+00 0.  1.
         21   -1    0    0  501  502 -0.00000000000E+00 -0.00000000000E+00 -0.31939628695E+03  0.31939628695E+03  0.00000000000E+00 0.  1.
         25    1    1    2    0    0  0.22371340000E+02 -0.41180802262E+02  0.23199152513E+02  0.13549736531E+03  0.12500000000E+03 0.  0.
         25    1    1    2    0    0 -0.22371340000E+02  0.41180802262E+02 -0.24632265425E+03  0.28017170686E+03  0.12500000000E+03 0.  0.
</event>
<event>
 4    0  0.2193754E-002  0.1822424E+03  0.7546771E-02  0.1165650E+00
         21   -1    0    0  502  501  0.00000000000E+00  0.00000000000E+00  0.39274702068E+02  0.39274702068E+02  0.00000000000E+00 0. -1.
         21   -1    0    0  501  502 -0.00000000000E+00 -0.00000000000E+00 -0.84564127437E+03  0.84564127437E+03  0.00000000000E+00 0. -1.
         25    1    1    2    0    0 -0.11013748633E+01 -0.34408455090E+02 -0.92245894376E+02  0.15912089692E+03  0.12500000000E+03 0.  0.
         25    1    1    2    0    0  0.11013748633E+01  0.34408455090E+02 -0.71412067792E+03  0.72579507951E+03  0.12500000000E+03 0.  0.
</event>
<event>
 4    0  0.2193754E-002  0.1887249E+03  0.7546771E-02  0.1159616E+00
         21   -1    0    0  502  501  0.00000000000E+00  0.00000000000E+00  0.95316072759E+02  0.95316072759E+02  0.00000000000E+00 0.  1.
         21   -1    0    0  501  502 -0.00000000000E+00 -0.00000000000E+00 -0.37367343468E+03  0.37367343468E+03  0.00000000000E+00 0.  1.
         25    1    1    2    0    0 -0.30837346065E+02 -0.10608850453E+03 -0.24881930821E+03  0.29956929223E+03  0.12500000000E+03 0.  0.
         25    1    1    2    0    0  0.30837346065E+02  0.10608850453E+03 -0.29538053708E+02  0.16942021521E+03  0.12500000000E+03 0.  0.
</event>
<event>
 4    0  0.2193754E-002  0.1944584E+03  0.7546771E-02  0.1154501E+00
         21   -1    0    0  502  501  0.00000000000E+00  0.00000000000E+00  0.10552950386E+03  0.10552950386E+03  0.00000000000E+00 0. -1.
         21   -1    0    0  501  502 -0.00000000000E+00 -0.00000000000E+00 -0.35832698932E+03  0.35832698932E+03  0.00000000000E+00 0. -1.
         25    1    1    2    0    0 -0.14702367209E+03  0.20784854019E+02 -0.11223137905E+03  0.22420716482E+03  0.12500000000E+03 0.  0.
         25    1    1    2    0    0  0.14702367209E+03 -0.20784854019E+02 -0.14056610641E+03  0.23964932836E+03  0.12500000000E+03 0.  0.
</event>
<event>
 4    0  0.2193754E-002  0.3506004E+03  0.7546771E-02  0.1062369E+00
         21   -1    0    0  502  501  0.00000000000E+00  0.00000000000E+00  0.63047204747E+03  0.63047204747E+03  0.00000000000E+00 0.  1.
         21   -1    0    0  501  502 -0.00000000000E+00 -0.00000000000E+00 -0.19496602958E+03  0.19496602958E+03  0.00000000000E+00 0.  1.
         25    1    1    2    0    0 -0.27860412957E+02 -0.49018386852E+02  0.59759428491E+03  0.61312554524E+03  0.12500000000E+03 0.  0.
         25    1    1    2    0    0  0.27860412957E+02  0.49018386852E+02 -0.16208826702E+03  0.21231253181E+03  0.12500000000E+03 0.  0.
</event>
<event>
 4    0  0.2193754E-002  0.2203766E+03  0.7546771E-02  0.1133603E+00
         21   -1    0    0  502  501  0.00000000000E+00  0.00000000000E+00  0.74566987917E+02  0.74566987917E+02  0.00000000000E+00 0. -1.
         21   -1    0    0  501  502 -0.00000000000E+00 -0.00000000000E+00 -0.65130506266E+03  0.65130506266E+03  0.00000000000E+00 0. -1.
         25    1    1    2    0    0 -0.41919620929E+02  0.13092327217E+03 -0.93209471295E+02  0.20787295003E+03  0.12500000000E+03 0.  0.
         25    1    1    2    0    0  0.41919620929E+02 -0.13092327217E+03 -0.48352860345E+03  0.51799910055E+03  0.12500000000E+03 0.  0.
</event>
<event>
 4    0  0.2193754E-002  0.2141464E+03  0.7546771E-02  0.1138324E+00
         21   -1    0    0  502  501  0.00000000000E+00  0.00000000000E+00  0.28406066651E+02  0.28406066651E+02  0.00000000000E+00 0.  1.
         21   -1    0    0  501  502 -0.00000000000E+00 -0.00000000000E+00 -0.16143967346E+04  0.16143967346E+04  0.00000000000E+00 0.  1.
         25    1    1    2    0    0 -0.41582868851E+02  0.31756693753E+02 -0.15696208696E+03  0.20736373676E+03  0.12500000000E+03 0.  0.
         25    1    1    2    0    0  0.41582868851E+02 -0.31756693753E+02 -0.14290285810E+04  0.14354390645E+04  0.12500000000E+03 0.  0.
</event>
<event>
 4    0  0.2193754E-002  0.1909691E+03  0.7546771E-02  0.1157590E+00
         21   -1    0    0  502  501  0.00000000000E+00  0.00000000000E+00  0.71863702300E+03  0.71863702300E+03  0.00000000000E+00 0.  1.
         21   -1    0    0  501  502 -0.00000000000E+00 -0.00000000000E+00 -0.50747706856E+02  0.50747706856E+02  0.00000000000E+00 0.  1.
         25    1    1    2    0    0 -0.83734596632E+01 -0.90526174855E+02  0.10801410591E+03  0.18856603680E+03  0.12500000000E+03 0.  0.
         25    1    1    2    0    0  0.83734596632E+01  0.90526174855E+02  0.55987521024E+03  0.58081869305E+03  0.12500000000E+03 0.  0.
</event>
<event>
 4    0  0.2193754E-002  0.1891028E+03  0.7546771E-02  0.1159273E+00
         21   -1    0    0  502  501  0.00000000000E+00  0.00000000000E+00  0.89108656189E+02  0.89108656189E+02  0.00000000000E+00 0. -1.
         21   -1    0    0  501  502 -0.00000000000E+00 -0.00000000000E+00 -0.40130644012E+03  0.40130644012E+03  0.00000000000E+00 0.  1.
         25    1    1    2    0    0 -0.66435604528E+02 -0.56892294933E+02 -0.30098295420E+03  0.33744060439E+03  0.12500000000E+03 0.  0.
         25    1    1    2    0    0  0.66435604528E+02  0.56892294933E+02 -0.11214829730E+02  0.15297449192E+03  0.12500000000E+03 0.  0.
</event>
<event>
 4    0  0.2193754E-002  0.2801558E+03  0.7546771E-02  0.1095604E+00
         21   -1    0    0  502  501  0.00000000000E+00  0.00000000000E+00  0.75662916799E+02  0.75662916799E+02  0.00000000000E+00 0. -1.
         21   -1    0    0  501  502 -0.00000000000E+00 -0.00000000000E+00 -0.10373282233E+04  0.10373282233E+04  0.00000000000E+00 0. -1.
         25    1    1    2    0    0  0.16932728571E+03  0.35733363011E+02 -0.84120401472E+03  0.86786968913E+03  0.12500000000E+03 0.  0.
         25    1    1    2    0    0 -0.16932728571E+03 -0.35733363011E+02 -0.12046129182E+03  0.24512145101E+03  0.12500000000E+03 0.  0.
</event>
<event>
 4    0  0.2193754E-002  0.2966270E+03  0.7546771E-02  0.1086939E+00
         21   -1    0    0  502  501  0.00000000000E+00  0.00000000000E+00  0.12485168400E+03  0.12485168400E+03  0.00000000000E+00 0. -1.
         21   -1    0    0  501  502 -0.00000000000E+00 -0.00000000000E+00 -0.70473704227E+03  0.70473704227E+03  0.00000000000E+00 0. -1.
         25    1    1    2    0    0  0.17190820604E+03 -0.70039829004E+02 -0.56219277346E+03  0.60509811062E+03  0.12500000000E+03 0.  0.
         25    1    1    2    0    0 -0.17190820604E+03  0.70039829004E+02 -0.17692584811E+02  0.22449061564E+03  0.12500000000E+03 0.  0.
</event>
<event>
 4    0  0.2193754E-002  0.1680882E+03  0.7546771E-02  0.1179856E+00
         21   -1    0    0  502  501  0.00000000000E+00  0.00000000000E+00  0.43314386890E+03  0.43314386890E+03  0.00000000000E+00 0. -1.
         21   -1    0    0  501  502 -0.00000000000E+00 -0.00000000000E+00 -0.65229252378E+02  0.65229252378E+02  0.00000000000E+00 0. -1.
         25    1    1    2    0    0 -0.57839915502E+02 -0.70237633281E+02  0.28173177545E+03  0.32136672860E+03  0.12500000000E+03 0.  0.
         25    1    1    2    0    0  0.57839915502E+02  0.70237633281E+02  0.86182841080E+02  0.17700639268E+03  0.12500000000E+03 0.  0.
</event>
<event>
 4    0  0.2193754E-002  0.2079798E+03  0.7546771E-02  0.1143176E+00
         21   -1    0    0  502  501  0.00000000000E+00  0.00000000000E+00  0.15960656880E+03  0.15960656880E+03  0.00000000000E+00 0.  1.
         21   -1    0    0  501  502 -0.00000000000E+00 -0.00000000000E+00 -0.27101379522E+03  0.27101379522E+03  0.00000000000E+00 0.  1.
         25    1    1    2    0    0 -0.70760522715E+02 -0.55938759539E+02 -0.20024701252E+03  0.25270548553E+03  0.12500000000E+03 0.  0.
         25    1    1    2    0    0  0.70760522715E+02  0.55938759539E+02  0.88839786107E+02  0.17791487849E+03  0.12500000000E+03 0.  0.
</event>
<event>
 4    0  0.2193754E-002  0.1595232E+03  0.7546771E-02  0.1189236E+00
         21   -1    0    0  502  501  0.00000000000E+00  0.00000000000E+00  0.45470569051E+02  0.45470569051E+02  0.00000000000E+00 0. -1.
         21   -1    0    0  501  502 -0.00000000000E+00 -0.00000000000E+00 -0.55965137043E+03  0.55965137043E+03  0.00000000000E+00 0. -1.
         25    1    1    2    0    0 -0.24415328918E+02 -0.69841218929E+02 -0.13201504405E+03  0.19628264316E+03  0.12500000000E+03 0.  0.
         25    1    1    2    0    0  0.24415328918E+02  0.69841218929E+02 -0.38216575732E+03  0.40883929632E+03  0.12500000000E+03 0.  0.
</event>
<event>
 4    0  0.2193754E-002  0.1567138E+03  0.7546771E-02  0.1192458E+00
         21   -1    0    0  502  501  0.00000000000E+00  0.00000000000E+00  0.17236912081E+04  0.17236912081E+04  0.00000000000E+00 0. -1.
         21   -1    0    0  501  502 -0.00000000000E+00 -0.00000000000E+00 -0.14248030966E+02  0.14248030966E+02  0.00000000000E+00 0. -1.
         25    1    1    2    0    0 -0.33068774907E+02  0.67954283159E+02  0.11695104205E+04  0.11785970270E+04  0.12500000000E+03 0.  0.
         25    1    1    2    0    0  0.33068774907E+02 -0.67954283159E+02  0.53993275658E+03  0.55934221198E+03  0.12500000000E+03 0.  0.
</event>
<event>
 4    0  0.2193754E-002  0.1685743E+03  0.7546771E-02  0.1179343E+00
         21   -1    0    0  502  501  0.00000000000E+00  0.00000000000E+00  0.28300781212E+04  0.28300781212E+04  0.00000000000E+00 0.  1.
         21   -1    0    0  501  502 -0.00000000000E+00 -0.00000000000E+00 -0.10041173224E+02  0.10041173224E+02  0.00000000000E+00 0.  1.
         25    1    1    2    0    0  0.10481500033E+03  0.21740287483E+02  0.11024028144E+04  0.11146191231E+04  0.12500000000E+03 0.  0.
         25    1    1    2    0    0 -0.10481500033E+03 -0.21740287483E+02  0.17176341336E+04  0.17255001713E+04  0.12500000000E+03 0.  0.
</event>
<event>
 4    0  0.2193754E-002  0.2556750E+03  0.7546771E-02  0.1109770E+00
         21   -1    0    0  502  501  0.00000000000E+00  0.00000000000E+00  0.12813044437E+03  0.12813044437E+03  0.00000000000E+00 0. -1.
         21   -1    0    0  501  502 -0.00000000000E+00 -0.00000000000E+00 -0.51018074853E+03  0.51018074853E+03  0.00000000000E+00 0. -1.
         25    1    1    2    0    0  0.15857343347E+03 -0.10441993864E+03 -0.33711002609E+03  0.40659221227E+03  0.12500000000E+03 0.  0.
         25    1    1    2    0    0 -0.15857343347E+03  0.10441993864E+03 -0.44940278066E+02  0.23171898062E+03  0.12500000000E+03 0.  0.
</event>
<event>
 4    0  0.2193754E-002  0.2042828E+03  0.7546771E-02  0.1146175E+00
         21   -1    0    0  502  501  0.00000000000E+00  0.00000000000E+00  0.53079225886E+03  0.53079225886E+03  0.00000000000E+00 0.  1.
         21   -1    0    0  501  502 -0.00000000000E+00 -0.00000000000E+00 -0.78621118808E+02  0.78621118808E+02  0.00000000000E+00 0.  1.
         25    1    1    2    0    0 -0.46115798979E+02  0.16424109572E+02 -0.35908664757E+01  0.13429189332E+03  0.12500000000E+03 0.  0.
         25    1    1    2    0    0  0.46115798979E+02 -0.16424109572E+02  0.45576200653E+03  0.47512148434E+03  0.12500000000E+03 0.  0.
</event>
<event>
 4    0  0.2193754E-002  0.2619792E+03  0.7546771E-02  0.1105960E+00
         21   -1    0    0  502  501  0.00000000000E+00  0.00000000000E+00  0.72925592963E+02  0.72925592963E+02  0.00000000000E+00 0.  1.
         21   -1    0    0  501  502 -0.00000000000E+00 -0.00000000000E+00 -0.94113848666E+03  0.94113848666E+03  0.00000000000E+00 0.  1.
         25    1    1    2    0    0  0.35581131936E+02  0.23975091365E+01  0.61101454271E+01  0.13013108344E+03  0.12500000000E+03 0.  0.
         25    1    1    2    0    0 -0.35581131936E+02 -0.23975091365E+01 -0.87432303912E+03  0.88393299618E+03  0.12500000000E+03 0.  0.
</event>
<event>
 4    0  0.2193754E-002  0.2245875E+03  0.7546771E-02  0.1130508E+00
         21   -1    0    0  502  501  0.00000000000E+00  0.00000000000E+00  0.56246636506E+03  0.56246636506E+03  0.00000000000E+00 0.  1.
         21   -1    0    0  501  502 -0.00000000000E+00 -0.00000000000E+00 -0.89675655719E+02  0.89675655719E+02  0.00000000000E+00 0.  1.
         25    1    1    2    0    0  0.16677903317E+03 -0.83413887849E+02  0.22705165976E+03  0.31929700717E+03  0.12500000000E+03 0.  0.
         25    1    1    2    0    0 -0.16677903317E+03  0.83413887849E+02  0.24573904958E+03  0.33284501360E+03  0.12500000000E+03 0.  0.
</event>
<event>
 4    0  0.2193754E-002  0.1720423E+03  0.7546771E-02  0.1175735E+00
         21   -1    0    0  502  501  0.00000000000E+00  0.00000000000E+00  0.32922299403E+02  0.32922299403E+02  0.00000000000E+00 0.  1.
         21   -1    0    0  501  502 -0.00000000000E+00 -0.00000000000E+00 -0.89904270076E+03  0.89904270076E+03  0.00000000000E+00 0.  1.
         25    1    1    2    0    0  0.33913367160E+02  0.24847831306E+02 -0.13381896628E+03  0.18788306717E+03  0.12500000000E+03 0.  0.
         25    1    1    2    0    0 -0.33913367160E+02 -0.24847831306E+02 -0.73230143507E+03  0.74408193299E+03  0.12500000000E+03 0.  0.
</event>
<event>
 4    0  0.2193754E-002  0.1458980E+03  0.7546771E-02  0.1205606E+00
         21   -1    0    0  502  501  0.00000000000E+00  0.00000000000E+00  0.29748602932E+03  0.29748602932E+03  0.00000000000E+00 0.  1.
         21   -1    0    0  501  502 -0.00000000000E+00 -0.00000000000E+00 -0.71553661841E+02  0.71553661841E+02  0.00000000000E+00 0.  1.
         25    1    1    2    0    0  0.51101612436E+02 -0.55097918038E+02  0.11770835170E+03  0.18742308135E+03  0.12500000000E+03 0.  0.
         25    1    1    2    0    0 -0.51101612436E+02  0.55097918038E+02  0.10822401579E+03  0.18161660981E+03  0.12500000000E+03 0.  0.
</event>
<event>
 4    0  0.2193754E-002  0.1898765E+03  0.7546771E-02  0.1158573E+00
         21   -1    0    0  502  501  0.00000000000E+00  0.00000000000E+00  0.15068126097E+03  0.15068126097E+03  0.00000000000E+00 0. -1.
         21   -1    0    0  501  502 -0.00000000000E+00 -0.00000000000E+00 -0.23926731045E+03  0.23926731045E+03  0.00000000000E+00 0. -1.
         25    1    1    2    0    0  0.60698159682E+02  0.64512411755E+02 -0.15947395031E+03  0.22114035970E+03  0.12500000000E+03 0.  0.
         25    1    1    2    0    0 -0.60698159682E+02 -0.64512411755E+02  0.70887900841E+02  0.16880821172E+03  0.12500000000E+03 0.  0.
</event>
<event>
 4    0  0.2193754E-002  0.1481520E+03  0.7546771E-02  0.1202762E+00
         21   -1    0    0  502  501  0.00000000000E+00  0.00000000000E+00  0.78815812067E+02  0.78815812067E+02  0.00000000000E+00 0.  1.
         21   -1    0    0  501  502 -0.00000000000E+00 -0.00000000000E+00 -0.27848480723E+03  0.27848480723E+03  0.00000000000E+00 0.  1.
         25    1    1    2    0    0 -0.46931755699E+02  0.63950464503E+02 -0.93039335071E+02  0.17485299389E+03  0.12500000000E+03 0.  0.
         25    1    1    2    0    0  0.46931755699E+02 -0.63950464503E+02 -0.10662966009E+03  0.18244762540E+03  0.12500000000E+03 0.  0.
</event>
<event>
 4    0  0.2193754E-002  0.2175627E+03  0.7546771E-02  0.1135713E+00
         21   -1    0    0  502  501  0.00000000000E+00  0.00000000000E+00  0.10055590629E+03  0.10055590629E+03  0.00000000000E+00 0.  1.
         21   -1    0    0  501  502 -0.00000000000E+00 -0.00000000000E+00 -0.47071852779E+03  0.47071852779E+03  0.00000000000E+00 0.  1.
         25    1    1    2    0    0 -0.13659739714E+03  0.10912548440E+03 -0.22943520632E+03  0.31437673920E+03  0.12500000000E+03 0.  0.
         25    1    1    2    0    0  0.13659739714E+03 -0.10912548440E+03 -0.14072741518E+03  0.25689769488E+03  0.12500000000E+03 0.  0.
</event>
<event>
 4    0  0.2193754E-002  0.2035011E+03  0.7546771E-02  0.1146818E+00
         21   -1    0    0  502  501  0.00000000000E+00  0.00000000000E+00  0.63836385824E+02  0.63836385824E+02  0.00000000000E+00 0.  1.
         21   -1    0    0  501  502 -0.00000000000E+00 -0.00000000000E+00 -0.64873178476E+03  0.64873178476E+03  0.00000000000E+00 0.  1.
         25    1    1    2    0    0 -0.27376088259E+02 -0.10394967494E+03 -0.50131644090E+03  0.52772924786E+03  0.12500000000E+03 0.  0.
         25    1    1    2    0    0  0.27376088259E+02  0.10394967494E+03 -0.83578958033E+02  0.18483892272E+03  0.12500000000E+03 0.  0.
</event>
<event>
 4    0  0.2193754E-002  0.2350547E+03  0.7546771E-02  0.1123132E+00
         21   -1    0    0  502  501  0.00000000000E+00  0.00000000000E+00  0.67135943677E+02  0.67135943677E+02  0.00000000000E+00 0. -1.
         21   -1    0    0  501  502 -0.00000000000E+00 -0.00000000000E+00 -0.82296760687E+03  0.82296760687E+03  0.00000000000E+00 0. -1.
         25    1    1    2    0    0  0.55952163166E+02  0.18423941726E+03 -0.47354453993E+03  0.52625491802E+03  0.12500000000E+03 0.  0.
         25    1    1    2    0    0 -0.55952163166E+02 -0.18423941726E+03 -0.28228712326E+03  0.36384863253E+03  0.12500000000E+03 0.  0.
</event>
<event>
 4    0  0.2193754E-002  0.1948762E+03  0.7546771E-02  0.1154135E+00
         21   -1    0    0  502  501  0.00000000000E+00  0.00000000000E+00  0.10854726587E+04  0.10854726587E+04  0.00000000000E+00 0. -1.
         21   -1    0    0  501  502 -0.00000000000E+00 -0.00000000000E+00 -0.34986354539E+02  0.34986354539E+02  0.00000000000E+00 0. -1.
         25    1    1    2    0    0 -0.72321738602E+02 -0.12782818084E+03  0.60559635655E+03  0.63556465033E+03  0.12500000000E+03 0.  0.
         25    1    1    2    0    0  0.72321738602E+02  0.12782818084E+03  0.44488994764E+03  0.48489436293E+03  0.12500000000E+03 0.  0.
</event>
<event>
 4    0  0.2193754E-002  0.1913857E+03  0.7546771E-02  0.1157217E+00
         21   -1    0    0  502  501  0.00000000000E+00  0.00000000000E+00  0.18622427416E+04  0.18622427416E+04  0.00000000000E+00 0. -1.
         21   -1    0    0  501  502 -0.00000000000E+00 -0.00000000000E+00 -0.19669019084E+02  0.19669019084E+02  0.00000000000E+00 0. -1.
         25    1    1    2    0    0 -0.80525506659E+02 -0.76780664588E+02  0.13778602784E+04  0.13879854374E+04  0.12500000000E+03 0.  0.
         25    1    1    2    0    0  0.80525506659E+02  0.76780664588E+02  0.46471344412E+03  0.49392632327E+03  0.12500000000E+03 0.  0.
</event>
<event>
 4    0  0.2193754E-002  0.1995716E+03  0.7546771E-02  0.1150101E+00
         21   -1    0    0  502  501  0.00000000000E+00  0.00000000000E+00  0.13271669480E+03  0.13271669480E+03  0.00000000000E+00 0.  1.
         21   -1    0    0  501  502 -0.00000000000E+00 -0.00000000000E+00 -0.30010409026E+03  0.30010409026E+03  0.00000000000E+00 0.  1.
         25    1    1    2    0    0 -0.10202544043E+03 -0.31625229710E+02 -0.20635022116E+03  0.26384609040E+03  0.12500000000E+03 0.  0.
         25    1    1    2    0    0  0.10202544043E+03  0.31625229710E+02  0.38962825693E+02  0.16897469466E+03  0.12500000000E+03 0.  0.
</event>
<event>
 4    0  0.2193754E-002  0.1998059E+03  0.7546771E-02  0.1149903E+00
         21   -1    0    0  502  501  0.00000000000E+00  0.00000000000E+00  0.45051458295E+03  0.45051458295E+03  0.00000000000E+00 0.  1.
         21   -1    0    0  501  502 -0.00000000000E+00 -0.00000000000E+00 -0.88615122931E+02  0.88615122931E+02  0.00000000000E+00 0.  1.
         25    1    1    2    0    0 -0.80994561708E+00 -0.74590243466E+02  0.36560389265E+03  0.39351692054E+03  0.12500000000E+03 0.  0.
         25    1    1    2    0    0  0.80994561708E+00  0.74590243466E+02 -0.37044326333E+01  0.14561278534E+03  0.12500000000E+03 0.  0.
</event>
<event>
 4    0  0.2193754E-002  0.2433270E+03  0.7546771E-02  0.1117596E+00
         21   -1    0    0  502  501  0.00000000000E+00  0.00000000000E+00  0.15749045057E+03  0.15749045057E+03  0.00000000000E+00 0. -1.
         21   -1    0    0  501  502 -0.00000000000E+00 -0.00000000000E+00 -0.37594677997E+03  0.37594677997E+03  0.00000000000E+00 0. -1.
         25    1    1    2    0    0  0.22803263036E+02  0.11575230838E+03  0.79562763864E+02  0.18940385185E+03  0.12500000000E+03 0.  0.
         25    1    1    2    0    0 -0.22803263036E+02 -0.11575230838E+03 -0.29801909326E+03  0.34403337869E+03  0.12500000000E+03 0.  0.
</event>
<event>
 4    0  0.2193754E-002  0.1740306E+03  0.7546771E-02  0.1173709E+00
         21   -1    0    0  502  501  0.00000000000E+00  0.00000000000E+00  0.23668225859E+03  0.23668225859E+03  0.00000000000E+00 0. -1.
         21   -1    0    0  501  502 -0.00000000000E+00 -0.00000000000E+00 -0.12796334934E+03  0.12796334934E+03  0.00000000000E+00 0. -1.
         25    1    1    2    0    0  0.91166810900E+02 -0.70383413176E+02  0.15209899250E+02  0.17065038323E+03  0.12500000000E+03 0.  0.
         25    1    1    2    0    0 -0.91166810900E+02  0.70383413176E+02  0.93509010000E+02  0.19399522471E+03  0.12500000000E+03 0.  0.
</event>
<event>
 4    0  0.2193754E-002  0.2359886E+03  0.7546771E-02  0.1122494E+00
         21   -1    0    0  502  501  0.00000000000E+00  0.00000000000E+00  0.16234721183E+03  0.16234721183E+03  0.00000000000E+00 0.  1.
         21   -1    0    0  501  502 -0.00000000000E+00 -0.00000000000E+00 -0.34303410001E+03  0.34303410001E+03  0.00000000000E+00 0.  1.
         25    1    1    2    0    0  0.29649146798E+02  0.19445953280E+03 -0.13000618791E+03  0.26687111252E+03  0.12500000000E+03 0.  0.
         25    1    1    2    0    0 -0.29649146798E+02 -0.19445953280E+03 -0.50680700259E+02  0.23851019932E+03  0.12500000000E+03 0.  0.
</event>
<event>
 4    0  0.2193754E-002  0.3660809E+03  0.7546771E-02  0.1056202E+00
         21   -1    0    0  502  501  0.00000000000E+00  0.00000000000E+00  0.14678747809E+04  0.14678747809E+04  0.00000000000E+00 0.  1.
         21   -1    0    0  501  502 -0.00000000000E+00 -0.00000000000E+00 -0.91298814368E+02  0.91298814368E+02  0.00000000000E+00 0. -1.
         25    1    1    2    0    0 -0.17639119932E+03 -0.13526858579E+03  0.12898754206E+03  0.28578703873E+03  0.12500000000E+03 0.  0.
         25    1    1    2    0    0  0.17639119932E+03  0.13526858579E+03  0.12475884245E+04  0.12733865566E+04  0.12500000000E+03 0.  0.
</event>
<event>
 4    0  0.2193754E-002  0.1808100E+03  0.7546771E-02  0.1167021E+00
         21   -1    0    0  502  501  0.00000000000E+00  0.00000000000E+00  0.17529361209E+02  0.17529361209E+02  0.00000000000E+00 0. -1.
         21   -1    0    0  501  502 -0.00000000000E+00 -0.00000000000E+00 -0.18649999538E+04  0.18649999538E+04  0.00000000000E+00 0. -1.
         25    1    1    2    0    0 -0.41298628342E+02 -0.49365706545E+02 -0.15155689638E+04  0.15220764874E+04  0.12500000000E+03 0.  0.
         25    1    1    2    0    0  0.41298628342E+02  0.49365706545E+02 -0.33190162881E+03  0.36045282755E+03  0.12500000000E+03 0.  0.
</event>
<event>
 4    0  0.2193754E-002  0.1747786E+03  0.7546771E-02  0.1172954E+00
         21   -1    0    0  502  501  0.00000000000E+00  0.00000000000E+00  0.70900633892E+02  0.70900633892E+02  0.00000000000E+00 0.  1.
         21   -1    0    0  501  502 -0.00000000000E+00 -0.00000000000E+00 -0.43085053215E+03  0.43085053215E+03  0.00000000000E+00 0.  1.
         25    1    1    2    0    0  0.80353262875E+02 -0.74092340819E+02 -0.25828274794E+03  0.30705260088E+03  0.12500000000E+03 0.  0.
         25    1    1    2    0    0 -0.80353262875E+02  0.74092340819E+02 -0.10166715032E+03  0.19469856516E+03  0.12500000000E+03 0.  0.
</event>
<event>
 4    0  0.2193754E-002  0.2075312E+03  0.7546771E-02  0.1143536E+00
         21   -1    0    0  502  501  0.00000000000E+00  0.00000000000E+00  0.99761459598E+02  0.99761459598E+02  0.00000000000E+00 0. -1.
         21   -1    0    0  501  502 -0.00000000000E+00 -0.00000000000E+00 -0.43172194827E+03  0.43172194827E+03  0.00000000000E+00 0. -1.
         25    1    1    2    0    0  0.11577806184E+03  0.54447737126E+02 -0.30073683165E+03  0.34990964204E+03  0.12500000000E+03 0.  0.
         25    1    1    2    0    0 -0.11577806184E+03 -0.54447737126E+02 -0.31223657026E+02  0.18157376583E+03  0.12500000000E+03 0.  0.
</event>
<event>
 4    0  0.2193754E-002  0.2212703E+03  0.7546771E-02  0.1132940E+00
         21   -1    0    0  502  501  0.00000000000E+00  0.00000000000E+00  0.18300603768E+03  0.18300603768E+03  0.00000000000E+00 0. -1.
         21   -1    0    0  501  502 -0.00000000000E+00 -0.00000000000E+00 -0.26753521553E+03  0.26753521553E+03  0.00000000000E+00 0. -1.
         25    1    1    2    0    0 -0.89145355729E+02 -0.51838059181E+02  0.11112944705E+03  0.19649130472E+03  0.12500000000E+03 0.  0.
         25    1    1    2    0    0  0.89145355729E+02  0.51838059181E+02 -0.19565862491E+03  0.25404994849E+03  0.12500000000E+03 0.  0.
</event>
<event>
 4    0  0.2193754E-002  0.5179223E+03  0.7546771E-02  0.1009204E+00
         21   -1    0    0  502  501  0.00000000000E+00  0.00000000000E+00  0.21083686005E+04  0.21083686005E+04  0.00000000000E+00 0. -1.
         21   -1    0    0  501  502 -0.00000000000E+00 -0.00000000000E+00 -0.12722799370E+03  0.12722799370E+03  0.00000000000E+00 0. -1.
         25    1    1    2    0    0 -0.28174963079E+03 -0.68095154176E+02  0.18767584741E+04  0.19031203784E+04  0.12500000000E+03 0.  0.
         25    1    1    2    0    0  0.28174963079E+03  0.68095154176E+02  0.10438213273E+03  0.33247621585E+03  0.12500000000E+03 0.  0.
</event>
<event>
 4    0  0.2193754E-002  0.2996010E+03  0.7546771E-02  0.1085440E+00
         21   -1    0    0  502  501  0.00000000000E+00  0.00000000000E+00  0.41224040713E+03  0.41224040713E+03  0.00000000000E+00 0. -1.
         21   -1    0    0  501  502 -0.00000000000E+00 -0.00000000000E+00 -0.21773889756E+03  0.21773889756E+03  0.00000000000E+00 0.  1.
         25    1    1    2    0    0 -0.22783723756E+03 -0.13490673749E+03  0.30539780990E+02  0.29439312638E+03  0.12500000000E+03 0.  0.
         25    1    1    2    0    0  0.22783723756E+03  0.13490673749E+03  0.16396172857E+03  0.33558617831E+03  0.12500000000E+03 0.  0.
</event>
<event>
 4    0  0.2193754E-002  0.2199373E+03  0.7546771E-02  0.1133930E+00
         21   -1    0    0  502  501  0.00000000000E+00  0.00000000000E+00  0.52698410402E+02  0.52698410402E+02  0.00000000000E+00 0.  1.
         21   -1    0    0  501  502 -0.00000000000E+00 -0.00000000000E+00 -0.91791064481E+03  0.91791064481E+03  0.00000000000E+00 0.  1.
         25    1    1    2    0    0 -0.14224012031E+02  0.66558659284E+02 -0.80259173725E+03  0.81511402536E+03  0.12500000000E+03 0.  0.
         25    1    1    2    0    0  0.14224012031E+02 -0.66558659284E+02 -0.62620497162E+02  0.15549502985E+03  0.12500000000E+03 0.  0.
</event>
<event>
 4    0  0.2193754E-002  0.1726945E+03  0.7546771E-02  0.1175067E+00
         21   -1    0    0  502  501  0.00000000000E+00  0.00000000000E+00  0.26046367696E+03  0.26046367696E+03  0.00000000000E+00 0. -1.
         21   -1    0    0  501  502 -0.00000000000E+00 -0.00000000000E+00 -0.11450115558E+03  0.11450115558E+03  0.00000000000E+00 0. -1.
         25    1    1    2    0    0 -0.38241961045E+02 -0.54690230300E+02  0.18015076755E+03  0.22920027906E+03  0.12500000000E+03 0.  0.
         25    1    1    2    0    0  0.38241961045E+02  0.54690230300E+02 -0.34188246158E+02  0.14576455348E+03  0.12500000000E+03 0.  0.
</event>
<event>
 4    0  0.2193754E-002  0.2034732E+03  0.7546771E-02  0.1146841E+00
         21   -1    0    0  502  501  0.00000000000E+00  0.00000000000E+00  0.27325213020E+02  0.27325213020E+02  0.00000000000E+00 0. -1.
         21   -1    0    0  501  502 -0.00000000000E+00 -0.00000000000E+00 -0.15151335677E+04  0.15151335677E+04  0.00000000000E+00 0. -1.
         25    1    1    2    0    0  0.15860917058E+03  0.12383834388E+02 -0.66207186844E+03  0.69229645913E+03  0.12500000000E+03 0.  0.
         25    1    1    2    0    0 -0.15860917058E+03 -0.12383834388E+02 -0.82573648627E+03  0.85016232162E+03  0.12500000000E+03 0.  0.
</event>
<event>
 4    0  0.2193754E-002  0.1713802E+03  0.7546771E-02  0.1176416E+00
         21   -1    0    0  502  501  0.00000000000E+00  0.00000000000E+00  0.36734149138E+03  0.36734149138E+03  0.00000000000E+00 0.  1.
         21   -1    0    0  501  502 -0.00000000000E+00 -0.00000000000E+00 -0.79956047555E+02  0.79956047555E+02  0.00000000000E+00 0.  1.
         25    1    1    2    0    0 -0.25478153722E+02  0.11388157100E+03  0.12892703576E+03  0.21416192257E+03  0.12500000000E+03 0.  0.
         25    1    1    2    0    0  0.25478153722E+02 -0.11388157100E+03  0.15845840806E+03  0.23313561636E+03  0.12500000000E+03 0.  0.
</event>
<event>
 4    0  0.2193754E-002  0.2071085E+03  0.7546771E-02  0.1143876E+00
         21   -1    0    0  502  501  0.00000000000E+00  0.00000000000E+00  0.21985053638E+02  0.21985053638E+02  0.00000000000E+00 0. -1.
         21   -1    0    0  501  502 -0.00000000000E+00 -0.00000000000E+00 -0.19510495862E+04  0.19510495862E+04  0.00000000000E+00 0. -1.
         25    1    1    2    0    0  0.16431239403E+03 -0.10834682625E+02 -0.90561815536E+03  0.92891614072E+03  0.12500000000E+03 0.  0.
         25    1    1    2    0    0 -0.16431239403E+03  0.10834682625E+02 -0.10234463772E+04  0.10441184991E+04  0.12500000000E+03 0.  0.
</event>
<event>
 4    0  0.2193754E-002  0.1950948E+03  0.7546771E-02  0.1153945E+00
         21   -1    0    0  502  501  0.00000000000E+00  0.00000000000E+00  0.12272133540E+04  0.12272133540E+04  0.00000000000E+00 0.  1.
         21   -1    0    0  501  502 -0.00000000000E+00 -0.00000000000E+00 -0.31014971689E+02  0.31014971689E+02  0.00000000000E+00 0.  1.
         25    1    1    2    0    0 -0.16360261544E+02  0.81040749517E+02  0.19531718802E+03  0.24618908419E+03  0.12500000000E+03 0.  0.
         25    1    1    2    0    0  0.16360261544E+02 -0.81040749517E+02  0.10008811943E+04  0.10120392415E+04  0.12500000000E+03 0.  0.
</event>
<event>
 4    0  0.2193754E-002  0.6872687E+03  0.7546771E-02  0.9739255E-01
         21   -1    0    0  502  501  0.00000000000E+00  0.00000000000E+00  0.50011575343E+03  0.50011575343E+03  0.00000000000E+00 0. -1.
         21   -1    0    0  501  502 -0.00000000000E+00 -0.00000000000E+00 -0.94445798055E+03  0.94445798055E+03  0.00000000000E+00 0.  1.
         25    1    1    2    0    0 -0.65531676076E+03 -0.15434516829E+03 -0.16043423037E+03  0.70329697154E+03  0.12500000000E+03 0.  0.
         25    1    1    2    0    0  0.65531676076E+03  0.15434516829E+03 -0.28390799675E+03  0.74127676243E+03  0.12500000000E+03 0.  0.
</event>
<event>
 4    0  0.2193754E-002  0.1629360E+03  0.7546771E-02  0.1185421E+00
         21   -1    0    0  502  501  0.00000000000E+00  0.00000000000E+00  0.22165227534E+02  0.22165227534E+02  0.00000000000E+00 0.  1.
         21   -1    0    0  501  502 -0.00000000000E+00 -0.00000000000E+00 -0.11977378862E+04  0.11977378862E+04  0.00000000000E+00 0.  1.
         25    1    1    2    0    0  0.12580372954E+02 -0.84449505155E+02 -0.81342830962E+03  0.82739386002E+03  0.12500000000E+03 0.  0.
         25    1    1    2    0    0 -0.12580372954E+02  0.84449505155E+02 -0.36214434901E+03  0.39250925368E+03  0.12500000000E+03 0.  0.
</event>
<event>
 4    0  0.2193754E-002  0.2548068E+03  0.7546771E-02  0.1110304E+00
         21   -1    0    0  502  501  0.00000000000E+00  0.00000000000E+00  0.17893971891E+03  0.17893971891E+03  0.00000000000E+00 0.  1.
         21   -1    0    0  501  502 -0.00000000000E+00 -0.00000000000E+00 -0.36284010944E+03  0.36284010944E+03  0.00000000000E+00 0. -1.
         25    1    1    2    0    0 -0.18711870399E+03 -0.11792853000E+03 -0.11270034761E+03  0.27793329401E+03  0.12500000000E+03 0.  0.
         25    1    1    2    0    0  0.18711870399E+03  0.11792853000E+03 -0.71200042917E+02  0.26384653434E+03  0.12500000000E+03 0.  0.
</event>
<event>
 4    0  0.2193754E-002  0.3202448E+03  0.7546771E-02  0.1075537E+00
         21   -1    0    0  502  501  0.00000000000E+00  0.00000000000E+00  0.12181263797E+03  0.12181263797E+03  0.00000000000E+00 0.  1.
         21   -1    0    0  501  502 -0.00000000000E+00 -0.00000000000E+00 -0.84192206273E+03  0.84192206273E+03  0.00000000000E+00 0.  1.
         25    1    1    2    0    0  0.84554686221E+02 -0.15139504220E+03 -0.71885737660E+03  0.74996725372E+03  0.12500000000E+03 0.  0.
         25    1    1    2    0    0 -0.84554686221E+02  0.15139504220E+03 -0.12520481694E+01  0.21376744698E+03  0.12500000000E+03 0.  0.
</event>
<event>
 4    0  0.2193754E-002  0.2194525E+03  0.7546771E-02  0.1134292E+00
         21   -1    0    0  502  501  0.00000000000E+00  0.00000000000E+00  0.16528963046E+03  0.16528963046E+03  0.00000000000E+00 0. -1.
         21   -1    0    0  501  502 -0.00000000000E+00 -0.00000000000E+00 -0.29136379485E+03  0.29136379485E+03  0.00000000000E+00 0. -1.
         25    1    1    2    0    0  0.13548948787E+03  0.77410572459E+02  0.31090148023E+02  0.20233980171E+03  0.12500000000E+03 0.  0.
         25    1    1    2    0    0 -0.13548948787E+03 -0.77410572459E+02 -0.15716431242E+03  0.25431362360E+03  0.12500000000E+03 0.  0.
</event>
<event>
 4    0  0.2193754E-002  0.3627066E+03  0.7546771E-02  0.1057517E+00
         21   -1    0    0  502  501  0.00000000000E+00  0.00000000000E+00  0.94825488259E+03  0.94825488259E+03  0.00000000000E+00 0.  1.
         21   -1    0    0  501  502 -0.00000000000E+00 -0.00000000000E+00 -0.13873496293E+03  0.13873496293E+03  0.00000000000E+00 0.  1.
         25    1    1    2    0    0 -0.91853951348E+02  0.18473743444E+03 -0.11105708093E+01  0.24122873260E+03  0.12500000000E+03 0.  0.
         25    1    1    2    0    0  0.91853951348E+02 -0.18473743444E+03  0.81063049047E+03  0.84576111292E+03  0.12500000000E+03 0.  0.
</event>
<event>
 4    0  0.2193754E-002  0.1856701E+03  0.7546771E-02  0.1162426E+00
         21   -1    0    0  502  501  0.00000000000E+00  0.00000000000E+00  0.86448288062E+02  0.86448288062E+02  0.00000000000E+00 0.  1.
         21   -1    0    0  501  502 -0.00000000000E+00 -0.00000000000E+00 -0.39877461112E+03  0.39877461112E+03  0.00000000000E+00 0.  1.
         25    1    1    2    0    0 -0.71402776041E+01 -0.60586125436E+02  0.45464059296E+01  0.13916656196E+03  0.12500000000E+03 0.  0.
         25    1    1    2    0    0  0.71402776041E+01  0.60586125436E+02 -0.31687272899E+03  0.34605633723E+03  0.12500000000E+03 0.  0.
</event>
<event>
 4    0  0.2193754E-002  0.2933357E+03  0.7546771E-02  0.1088620E+00
         21   -1    0    0  502  501  0.00000000000E+00  0.00000000000E+00  0.10340198126E+03  0.10340198126E+03  0.00000000000E+00 0. -1.
         21   -1    0    0  501  502 -0.00000000000E+00 -0.00000000000E+00 -0.83214884015E+03  0.83214884015E+03  0.00000000000E+00 0. -1.
         25    1    1    2    0    0  0.42354111755E+02  0.18156133785E+03 -0.66552007630E+03  0.70235344531E+03  0.12500000000E+03 0.  0.
         25    1    1    2    0    0 -0.42354111755E+02 -0.18156133785E+03 -0.63226782594E+02  0.23319737610E+03  0.12500000000E+03 0.  0.
</event>
<event>
 4    0  0.2193754E-002  0.3274966E+03  0.7546771E-02  0.1072250E+00
         21   -1    0    0  502  501  0.00000000000E+00  0.00000000000E+00  0.74995905703E+02  0.74995905703E+02  0.00000000000E+00 0. -1.
         21   -1    0    0  501  502 -0.00000000000E+00 -0.00000000000E+00 -0.14301319965E+04  0.14301319965E+04  0.00000000000E+00 0. -1.
         25    1    1    2    0    0 -0.20918427948E+03 -0.11304984128E+02 -0.11796703776E+04  0.12046298457E+04  0.12500000000E+03 0.  0.
         25    1    1    2    0    0  0.20918427948E+03  0.11304984128E+02 -0.17546571325E+03  0.30049805652E+03  0.12500000000E+03 0.  0.
</event>
<event>
 4    0  0.2193754E-002  0.1899534E+03  0.7546771E-02  0.1158503E+00
         21   -1    0    0  502  501  0.00000000000E+00  0.00000000000E+00  0.48748543976E+02  0.48748543976E+02  0.00000000000E+00 0.  1.
         21   -1    0    0  501  502 -0.00000000000E+00 -0.00000000000E+00 -0.74017149143E+03  0.74017149143E+03  0.00000000000E+00 0.  1.
         25    1    1    2    0    0 -0.56120175434E+02  0.10076516616E+03 -0.52135664480E+03  0.54839843534E+03  0.12500000000E+03 0.  0.
         25    1    1    2    0    0  0.56120175434E+02 -0.10076516616E+03 -0.17006630265E+03  0.24052160006E+03  0.12500000000E+03 0.  0.
</event>
<event>
 4    0  0.2193754E-002  0.2274074E+03  0.7546771E-02  0.1128478E+00
         21   -1    0    0  502  501  0.00000000000E+00  0.00000000000E+00  0.12199689175E+04  0.12199689175E+04  0.00000000000E+00 0.  1.
         21   -1    0    0  501  502 -0.00000000000E+00 -0.00000000000E+00 -0.42389692465E+02  0.42389692465E+02  0.00000000000E+00 0.  1.
         25    1    1    2    0    0  0.27288219872E+01  0.18905596375E+03  0.53764849011E+03  0.58347279527E+03  0.12500000000E+03 0.  0.
         25    1    1    2    0    0 -0.27288219872E+01 -0.18905596375E+03  0.63993073496E+03  0.67888581473E+03  0.12500000000E+03 0.  0.
</event>
<event>
 4    0  0.2193754E-002  0.1936365E+03  0.7546771E-02  0.1155222E+00
         21   -1    0    0  502  501  0.00000000000E+00  0.00000000000E+00  0.13980931071E+03  0.13980931071E+03  0.00000000000E+00 0.  1.
         21   -1    0    0  501  502 -0.00000000000E+00 -0.00000000000E+00 -0.26818730580E+03  0.26818730580E+03  0.00000000000E+00 0.  1.
         25    1    1    2    0    0  0.44981043478E+02  0.58934270769E+02  0.70617461134E+02  0.16158084156E+03  0.12500000000E+03 0.  0.
         25    1    1    2    0    0 -0.44981043478E+02 -0.58934270769E+02 -0.19899545622E+03  0.24641577494E+03  0.12500000000E+03 0.  0.
</event>
<event>
 4    0  0.2193754E-002  0.1869543E+03  0.7546771E-02  0.1161237E+00
         21   -1    0    0  502  501  0.00000000000E+00  0.00000000000E+00  0.47706001318E+03  0.47706001318E+03  0.00000000000E+00 0. -1.
         21   -1    0    0  501  502 -0.00000000000E+00 -0.00000000000E+00 -0.73265239491E+02  0.73265239491E+02  0.00000000000E+00 0. -1.
         25    1    1    2    0    0  0.17287586061E+02 -0.50158252060E+01 -0.99411564868E+00  0.12629333870E+03  0.12500000000E+03 0.  0.
         25    1    1    2    0    0 -0.17287586061E+02  0.50158252060E+01  0.40478888934E+03  0.42403191397E+03  0.12500000000E+03 0.  0.
</event>
<event>
 4    0  0.2193754E-002  0.3103781E+03  0.7546771E-02  0.1080165E+00
         21   -1    0    0  502  501  0.00000000000E+00  0.00000000000E+00  0.40515579798E+03  0.40515579798E+03  0.00000000000E+00 0.  1.
         21   -1    0    0  501  502 -0.00000000000E+00 -0.00000000000E+00 -0.23777158449E+03  0.23777158449E+03  0.00000000000E+00 0.  1.
         25    1    1    2    0    0 -0.24907489841E+03 -0.13570238622E+03  0.67117618790E+02  0.31714857306E+03  0.12500000000E+03 0.  0.
         25    1    1    2    0    0  0.24907489841E+03  0.13570238622E+03  0.10026659470E+03  0.32577880940E+03  0.12500000000E+03 0.  0.
</event>
<event>
 4    0  0.2193754E-002  0.2147952E+03  0.7546771E-02  0.1137824E+00
         21   -1    0    0  502  501  0.00000000000E+00  0.00000000000E+00  0.31618266100E+03  0.31618266100E+03  0.00000000000E+00 0. -1.
         21   -1    0    0  501  502 -0.00000000000E+00 -0.00000000000E+00 -0.14591868035E+03  0.14591868035E+03  0.00000000000E+00 0. -1.
         25    1    1    2    0    0 -0.67849753332E+02  0.16058996936E+03  0.96877567441E+02  0.23537839825E+03  0.12500000000E+03 0.  0.
         25    1    1    2    0    0  0.67849753332E+02 -0.16058996936E+03  0.73386413205E+02  0.22672294311E+03  0.12500000000E+03 0.  0.
</event>
<event>
 4    0  0.2193754E-002  0.2241601E+03  0.7546771E-02  0.1130819E+00
         21   -1    0    0  502  501  0.00000000000E+00  0.00000000000E+00  0.77214684000E+03  0.77214684000E+03  0.00000000000E+00 0.  1.
         21   -1    0    0  501  502 -0.00000000000E+00 -0.00000000000E+00 -0.65075400769E+02  0.65075400769E+02  0.00000000000E+00 0.  1.
         25    1    1    2    0    0 -0.49657840594E+02 -0.56681206682E+02  0.35824576747E+02  0.15028992189E+03  0.12500000000E+03 0.  0.
         25    1    1    2    0    0  0.49657840594E+02  0.56681206682E+02  0.67124686248E+03  0.68693231888E+03  0.12500000000E+03 0.  0.
</event>
<event>
 4    0  0.2193754E-002  0.2924827E+03  0.7546771E-02  0.1089060E+00
         21   -1    0    0  502  501  0.00000000000E+00  0.00000000000E+00  0.81790708402E+03  0.81790708402E+03  0.00000000000E+00 0.  1.
         21   -1    0    0  501  502 -0.00000000000E+00 -0.00000000000E+00 -0.10459146960E+03  0.10459146960E+03  0.00000000000E+00 0.  1.
         25    1    1    2    0    0 -0.40166365548E+02  0.23893660934E+03  0.52368038185E+03  0.59039832532E+03  0.12500000000E+03 0.  0.
         25    1    1    2    0    0  0.40166365548E+02 -0.23893660934E+03  0.18963523257E+03  0.33210022830E+03  0.12500000000E+03 0.  0.
</event>
<event>
 4    0  0.2193754E-002  0.2350639E+03  0.7546771E-02  0.1123126E+00
         21   -1    0    0  502  501  0.00000000000E+00  0.00000000000E+00  0.25021152823E+03  0.25021152823E+03  0.00000000000E+00 0. -1.
         21   -1    0    0  501  502 -0.00000000000E+00 -0.00000000000E+00 -0.22083323619E+03  0.22083323619E+03  0.00000000000E+00 0. -1.
         25    1    1    2    0    0 -0.11955055797E+03 -0.14953145020E+03  0.69366931455E+02  0.23893254632E+03  0.12500000000E+03 0.  0.
         25    1    1    2    0    0  0.11955055797E+03  0.14953145020E+03 -0.39988639413E+02  0.23211221810E+03  0.12500000000E+03 0.  0.
</event>
<event>
 4    0  0.2193754E-002  0.1985292E+03  0.7546771E-02  0.1150986E+00
         21   -1    0    0  502  501  0.00000000000E+00  0.00000000000E+00  0.12689325439E+02  0.12689325439E+02  0.00000000000E+00 0. -1.
         21   -1    0    0  501  502 -0.00000000000E+00 -0.00000000000E+00 -0.31060643146E+04  0.31060643146E+04  0.00000000000E+00 0. -1.
         25    1    1    2    0    0  0.11835969656E+03  0.68968806710E+01 -0.77180866295E+03  0.79080351348E+03  0.12500000000E+03 0.  0.
         25    1    1    2    0    0 -0.11835969656E+03 -0.68968806710E+01 -0.23215663262E+04  0.23279501265E+04  0.12500000000E+03 0.  0.
</event>
<event>
 4    0  0.2193754E-002  0.2187358E+03  0.7546771E-02  0.1134829E+00
         21   -1    0    0  502  501  0.00000000000E+00  0.00000000000E+00  0.48331085555E+02  0.48331085555E+02  0.00000000000E+00 0.  1.
         21   -1    0    0  501  502 -0.00000000000E+00 -0.00000000000E+00 -0.98994999059E+03  0.98994999059E+03  0.00000000000E+00 0.  1.
         25    1    1    2    0    0  0.11315391135E+03 -0.12580178669E+03 -0.61302272067E+03  0.64811399710E+03  0.12500000000E+03 0.  0.
         25    1    1    2    0    0 -0.11315391135E+03  0.12580178669E+03 -0.32859618437E+03  0.39016707904E+03  0.12500000000E+03 0.  0.
</event>
<event>
 4    0  0.2193754E-002  0.1846903E+03  0.7546771E-02  0.1163339E+00
         21   -1    0    0  502  501  0.00000000000E+00  0.00000000000E+00  0.67673685849E+02  0.67673685849E+02  0.00000000000E+00 0. -1.
         21   -1    0    0  501  502 -0.00000000000E+00 -0.00000000000E+00 -0.50404377971E+03  0.50404377971E+03  0.00000000000E+00 0. -1.
         25    1    1    2    0    0  0.85033118782E+02  0.87172419781E+02 -0.31176889750E+03  0.35728770971E+03  0.12500000000E+03 0.  0.
         25    1    1    2    0    0 -0.85033118782E+02 -0.87172419781E+02 -0.12460119636E+03  0.21442975585E+03  0.12500000000E+03 0.  0.
</event>
<event>
 4    0  0.2193754E-002  0.2857580E+03  0.7546771E-02  0.1092585E+00
         21   -1    0    0  502  501  0.00000000000E+00  0.00000000000E+00  0.13808159666E+04  0.13808159666E+04  0.00000000000E+00 0.  1.
         21   -1    0    0  501  502 -0.00000000000E+00 -0.00000000000E+00 -0.59137252666E+02  0.59137252666E+02  0.00000000000E+00 0.  1.
         25    1    1    2    0    0  0.93776426955E+02  0.49916922614E+02  0.71317568678E+02  0.17887680961E+03  0.12500000000E+03 0.  0.
         25    1    1    2    0    0 -0.93776426955E+02 -0.49916922614E+02  0.12503611453E+04  0.12610764096E+04  0.12500000000E+03 0.  0.
</event>
<event>
 4    0  0.2193754E-002  0.2060907E+03  0.7546771E-02  0.1144700E+00
         21   -1    0    0  502  501  0.00000000000E+00  0.00000000000E+00  0.78513689877E+02  0.78513689877E+02  0.00000000000E+00 0. -1.
         21   -1    0    0  501  502 -0.00000000000E+00 -0.00000000000E+00 -0.54096793479E+03  0.54096793479E+03  0.00000000000E+00 0. -1.
         25    1    1    2    0    0 -0.91472372653E+02 -0.43619265809E+01 -0.27015094481E+02  0.15729283738E+03  0.12500000000E+03 0.  0.
         25    1    1    2    0    0  0.91472372653E+02  0.43619265809E+01 -0.43543915043E+03  0.46218878728E+03  0.12500000000E+03 0.  0.
</event>
<event>
 4    0  0.2193754E-002  0.2080908E+03  0.7546771E-02  0.1143087E+00
         21   -1    0    0  502  501  0.00000000000E+00  0.00000000000E+00  0.99820280585E+03  0.99820280585E+03  0.00000000000E+00 0. -1.
         21   -1    0    0  501  502 -0.00000000000E+00 -0.00000000000E+00 -0.43379755551E+02  0.43379755551E+02  0.00000000000E+00 0. -1.
         25    1    1    2    0    0 -0.54225306992E+02  0.11981944593E+03  0.73238991518E+03  0.75453102746E+03  0.12500000000E+03 0.  0.
         25    1    1    2    0    0  0.54225306992E+02 -0.11981944593E+03  0.22243313512E+03  0.28705153395E+03  0.12500000000E+03 0.  0.
</event>
<event>
 4    0  0.2193754E-002  0.2424267E+03  0.7546771E-02  0.1118187E+00
         21   -1    0    0  502  501  0.00000000000E+00  0.00000000000E+00  0.40213754022E+03  0.40213754022E+03  0.00000000000E+00 0. -1.
         21   -1    0    0  501  502 -0.00000000000E+00 -0.00000000000E+00 -0.14614579364E+03  0.14614579364E+03  0.00000000000E+00 0. -1.
         25    1    1    2    0    0  0.12995158963E+03 -0.12747642604E+03  0.24112369505E+03  0.32696068748E+03  0.12500000000E+03 0.  0.
         25    1    1    2    0    0 -0.12995158963E+03  0.12747642604E+03  0.14868051537E+02  0.22132264638E+03  0.12500000000E+03 0.  0.
</event>
<event>
 4    0  0.2193754E-002  0.2498831E+03  0.7546771E-02  0.1113379E+00
         21   -1    0    0  502  501  0.00000000000E+00  0.00000000000E+00  0.61582584377E+03  0.61582584377E+03  0.00000000000E+00 0.  1.
         21   -1    0    0  501  502 -0.00000000000E+00 -0.00000000000E+00 -0.10139481175E+03  0.10139481175E+03  0.00000000000E+00 0.  1.
         25    1    1    2    0    0 -0.16421530522E+03  0.13849828841E+03  0.22012116927E+03  0.33200417395E+03  0.12500000000E+03 0.  0.
         25    1    1    2    0    0  0.16421530522E+03 -0.13849828841E+03  0.29430986275E+03  0.38521648157E+03  0.12500000000E+03 0.  0.
</event>
<event>
 4    0  0.2193754E-002  0.2080328E+03  0.7546771E-02  0.1143133E+00
         21   -1    0    0  502  501  0.00000000000E+00  0.00000000000E+00  0.13605119804E+03  0.13605119804E+03  0.00000000000E+00 0.  1.
         21   -1    0    0  501  502 -0.00000000000E+00 -0.00000000000E+00 -0.31809810853E+03  0.31809810853E+03  0.00000000000E+00 0.  1.
         25    1    1    2    0    0 -0.15766214885E+03 -0.20039914259E+02 -0.37619952602E+02  0.20566772274E+03  0.12500000000E+03 0.  0.
         25    1    1    2    0    0  0.15766214885E+03  0.20039914259E+02 -0.14442695788E+03  0.24848158383E+03  0.12500000000E+03 0.  0.
</event>
<event>
 4    0  0.2193754E-002  0.2035561E+03  0.7546771E-02  0.1146773E+00
         21   -1    0    0  502  501  0.00000000000E+00  0.00000000000E+00  0.48540725721E+03  0.48540725721E+03  0.00000000000E+00 0.  1.
         21   -1    0    0  501  502 -0.00000000000E+00 -0.00000000000E+00 -0.85361524670E+02  0.85361524670E+02  0.00000000000E+00 0.  1.
         25    1    1    2    0    0  0.49098705865E+01  0.15808470253E+03  0.16048705817E+03  0.25767416604E+03  0.12500000000E+03 0.  0.
         25    1    1    2    0    0 -0.49098705865E+01 -0.15808470253E+03  0.23955867438E+03  0.31309461585E+03  0.12500000000E+03 0.  0.
</event>
<event>
 4    0  0.2193754E-002  0.2405870E+03  0.7546771E-02  0.1119402E+00
         21   -1    0    0  502  501  0.00000000000E+00  0.00000000000E+00  0.83972566482E+03  0.83972566482E+03  0.00000000000E+00 0. -1.
         21   -1    0    0  501  502 -0.00000000000E+00 -0.00000000000E+00 -0.68929788430E+02  0.68929788430E+02  0.00000000000E+00 0. -1.
         25    1    1    2    0    0 -0.16546652900E+03  0.66658886776E+02  0.57829853183E+03  0.61796178791E+03  0.12500000000E+03 0.  0.
         25    1    1    2    0    0  0.16546652900E+03 -0.66658886776E+02  0.19249734456E+03  0.29069366534E+03  0.12500000000E+03 0.  0.
</event>
<event>
 4    0  0.2193754E-002  0.2389773E+03  0.7546771E-02  0.1120476E+00
         21   -1    0    0  502  501  0.00000000000E+00  0.00000000000E+00  0.95579789318E+02  0.95579789318E+02  0.00000000000E+00 0. -1.
         21   -1    0    0  501  502 -0.00000000000E+00 -0.00000000000E+00 -0.59751288992E+03  0.59751288992E+03  0.00000000000E+00 0. -1.
         25    1    1    2    0    0  0.15994589326E+03  0.15777110633E+02 -0.43239737163E+03  0.47793733165E+03  0.12500000000E+03 0.  0.
         25    1    1    2    0    0 -0.15994589326E+03 -0.15777110633E+02 -0.69535728972E+02  0.21515534759E+03  0.12500000000E+03 0.  0.
</event>
<event>
 4    0  0.2193754E-002  0.2740828E+03  0.7546771E-02  0.1098965E+00
         21   -1    0    0  502  501  0.00000000000E+00  0.00000000000E+00  0.40108852569E+02  0.40108852569E+02  0.00000000000E+00 0. -1.
         21   -1    0    0  501  502 -0.00000000000E+00 -0.00000000000E+00 -0.18729376833E+04  0.18729376833E+04  0.00000000000E+00 0. -1.
         25    1    1    2    0    0  0.12496180157E+02 -0.20109190196E+03 -0.43660277305E+03  0.49683104673E+03  0.12500000000E+03 0.  0.
         25    1    1    2    0    0 -0.12496180157E+02  0.20109190196E+03 -0.13962260577E+04  0.14162154892E+04  0.12500000000E+03 0.  0.
</event>
<event>
 4    0  0.2193754E-002  0.2485846E+03  0.7546771E-02  0.1114203E+00
         21   -1    0    0  502  501  0.00000000000E+00  0.00000000000E+00  0.50791562424E+03  0.50791562424E+03  0.00000000000E+00 0.  1.
         21   -1    0    0  501  502 -0.00000000000E+00 -0.00000000000E+00 -0.12166257042E+03  0.12166257042E+03  0.00000000000E+00 0.  1.
         25    1    1    2    0    0  0.28183286708E+01  0.20270531330E+03  0.28331108310E+03  0.37011830112E+03  0.12500000000E+03 0.  0.
         25    1    1    2    0    0 -0.28183286708E+01 -0.20270531330E+03  0.10294197072E+03  0.25945989353E+03  0.12500000000E+03 0.  0.
</event>
<event>
 4    0  0.2193754E-002  0.3343640E+03  0.7546771E-02  0.1069222E+00
         21   -1    0    0  502  501  0.00000000000E+00  0.00000000000E+00  0.16620171512E+03  0.16620171512E+03  0.00000000000E+00 0. -1.
         21   -1    0    0  501  502 -0.00000000000E+00 -0.00000000000E+00 -0.67267226697E+03  0.67267226697E+03  0.00000000000E+00 0. -1.
         25    1    1    2    0    0  0.20818974308E+03  0.22942546759E+01  0.35082416497E+02  0.24536505186E+03  0.12500000000E+03 0.  0.
         25    1    1    2    0    0 -0.20818974308E+03 -0.22942546759E+01 -0.54155296836E+03  0.59350893023E+03  0.12500000000E+03 0.  0.
</event>
<event>
 4    0  0.2193754E-002  0.2387396E+03  0.7546771E-02  0.1120635E+00
         21   -1    0    0  502  501  0.00000000000E+00  0.00000000000E+00  0.80393471093E+02  0.80393471093E+02  0.00000000000E+00 0. -1.
         21   -1    0    0  501  502 -0.00000000000E+00 -0.00000000000E+00 -0.70897048017E+03  0.70897048017E+03  0.00000000000E+00 0. -1.
         25    1    1    2    0    0  0.46059117003E+02  0.54432333539E+02 -0.62920833912E+03  0.64545523099E+03  0.12500000000E+03 0.  0.
         25    1    1    2    0    0 -0.46059117003E+02 -0.54432333539E+02  0.63133004153E+00  0.14390872028E+03  0.12500000000E+03 0.  0.
</event>
<event>
 4    0  0.2193754E-002  0.2161723E+03  0.7546771E-02  0.1136769E+00
         21   -1    0    0  502  501  0.00000000000E+00  0.00000000000E+00  0.26541861547E+04  0.26541861547E+04  0.00000000000E+00 0. -1.
         21   -1    0    0  501  502 -0.00000000000E+00 -0.00000000000E+00 -0.17606329219E+02  0.17606329219E+02  0.00000000000E+00 0. -1.
         25    1    1    2    0    0  0.11086761152E+03  0.96084387758E+02  0.71337747031E+03  0.73895619086E+03  0.12500000000E+03 0.  0.
         25    1    1    2    0    0 -0.11086761152E+03 -0.96084387758E+02  0.19232023552E+04  0.19328362931E+04  0.12500000000E+03 0.  0.
</event>
<event>
 4    0  0.2193754E-002  0.2596180E+03  0.7546771E-02  0.1107373E+00
         21   -1    0    0  502  501  0.00000000000E+00  0.00000000000E+00  0.20140271637E+04  0.20140271637E+04  0.00000000000E+00 0.  1.
         21   -1    0    0  501  502 -0.00000000000E+00 -0.00000000000E+00 -0.33466033722E+02  0.33466033722E+02  0.00000000000E+00 0.  1.
         25    1    1    2    0    0  0.20314580655E+03  0.64865324597E+02  0.67727319215E+03  0.72097136272E+03  0.12500000000E+03 0.  0.
         25    1    1    2    0    0 -0.20314580655E+03 -0.64865324597E+02  0.13032879378E+04  0.13265218347E+04  0.12500000000E+03 0.  0.
</event>
<event>
 4    0  0.2193754E-002  0.2221799E+03  0.7546771E-02  0.1132268E+00
         21   -1    0    0  502  501  0.00000000000E+00  0.00000000000E+00  0.71966055697E+03  0.71966055697E+03  0.00000000000E+00 0. -1.
         21   -1    0    0  501  502 -0.00000000000E+00 -0.00000000000E+00 -0.68593345019E+02  0.68593345019E+02  0.00000000000E+00 0. -1.
         25    1    1    2    0    0  0.16776412555E+03 -0.24873755466E+02  0.45065919577E+03  0.49747584490E+03  0.12500000000E+03 0.  0.
         25    1    1    2    0    0 -0.16776412555E+03  0.24873755466E+02  0.20040801619E+03  0.29077805709E+03  0.12500000000E+03 0.  0.
</event>
<event>
 4    0  0.2193754E-002  0.1435949E+03  0.7546771E-02  0.1208572E+00
         21   -1    0    0  502  501  0.00000000000E+00  0.00000000000E+00  0.12733565749E+03  0.12733565749E+03  0.00000000000E+00 0. -1.
         21   -1    0    0  501  502 -0.00000000000E+00 -0.00000000000E+00 -0.16193026694E+03  0.16193026694E+03  0.00000000000E+00 0. -1.
         25    1    1    2    0    0  0.61129590107E+02  0.32206899685E+02 -0.32250020739E+02  0.14642122459E+03  0.12500000000E+03 0.  0.
         25    1    1    2    0    0 -0.61129590107E+02 -0.32206899685E+02 -0.23445887076E+01  0.14284469983E+03  0.12500000000E+03 0.  0.
</event>
<event>
 4    0  0.2193754E-002  0.4044731E+03  0.7546771E-02  0.1042242E+00
         21   -1    0    0  502  501  0.00000000000E+00  0.00000000000E+00  0.86700782118E+03  0.86700782118E+03  0.00000000000E+00 0.  1.
         21   -1    0    0  501  502 -0.00000000000E+00 -0.00000000000E+00 -0.18869316639E+03  0.18869316639E+03  0.00000000000E+00 0.  1.
         25    1    1    2    0    0 -0.35155851034E+03  0.52156619848E+02  0.53122225948E+03  0.65125708300E+03  0.12500000000E+03 0.  0.
         25    1    1    2    0    0  0.35155851034E+03 -0.52156619848E+02  0.14709239531E+03  0.40444390457E+03  0.12500000000E+03 0.  0.
</event>
<event>
 4    0  0.2193754E-002  0.1775708E+03  0.7546771E-02  0.1170175E+00
         21   -1    0    0  502  501  0.00000000000E+00  0.00000000000E+00  0.87283728982E+03  0.87283728982E+03  0.00000000000E+00 0.  1.
         21   -1    0    0  501  502 -0.00000000000E+00 -0.00000000000E+00 -0.36125151385E+02  0.36125151385E+02  0.00000000000E+00 0.  1.
         25    1    1    2    0    0  0.83343751696E+02  0.78110587174E+02  0.28150551581E+03  0.32850844769E+03  0.12500000000E+03 0.  0.
         25    1    1    2    0    0 -0.83343751696E+02 -0.78110587174E+02  0.55520662263E+03  0.58045399351E+03  0.12500000000E+03 0.  0.
</event>
<event>
 4    0  0.2193754E-002  0.1583495E+03  0.7546771E-02  0.1190573E+00
         21   -1    0    0  502  501  0.00000000000E+00  0.00000000000E+00  0.44684541429E+03  0.44684541429E+03  0.00000000000E+00 0.  1.
         21   -1    0    0  501  502 -0.00000000000E+00 -0.00000000000E+00 -0.56114657844E+02  0.56114657844E+02  0.00000000000E+00 0.  1.
         25    1    1    2    0    0  0.11242348945E+02 -0.65772265468E+02  0.83098950705E+02  0.16426447249E+03  0.12500000000E+03 0.  0.
         25    1    1    2    0    0 -0.11242348945E+02  0.65772265468E+02  0.30763180574E+03  0.33869559965E+03  0.12500000000E+03 0.  0.
</event>
<event>
 4    0  0.2193754E-002  0.1878343E+03  0.7546771E-02  0.1160429E+00
         21   -1    0    0  502  501  0.00000000000E+00  0.00000000000E+00  0.97954807039E+03  0.97954807039E+03  0.00000000000E+00 0.  1.
         21   -1    0    0  501  502 -0.00000000000E+00 -0.00000000000E+00 -0.36018370752E+02  0.36018370752E+02  0.00000000000E+00 0.  1.
         25    1    1    2    0    0  0.67322749520E+02 -0.37124668518E+02  0.78871699187E+03  0.80225313143E+03  0.12500000000E+03 0.  0.
         25    1    1    2    0    0 -0.67322749520E+02  0.37124668518E+02  0.15481270776E+03  0.21331330971E+03  0.12500000000E+03 0.  0.
</event>
<event>
 4    0  0.2193754E-002  0.2130483E+03  0.7546771E-02  0.1139175E+00
         21   -1    0    0  502  501  0.00000000000E+00  0.00000000000E+00  0.77356536596E+02  0.77356536596E+02  0.00000000000E+00 0.  1.
         21   -1    0    0  501  502 -0.00000000000E+00 -0.00000000000E+00 -0.58675794167E+03  0.58675794167E+03  0.00000000000E+00 0.  1.
         25    1    1    2    0    0 -0.95311780937E+02 -0.49798026624E+02 -0.46496968891E+03  0.49334165712E+03  0.12500000000E+03 0.  0.
         25    1    1    2    0    0  0.95311780937E+02  0.49798026624E+02 -0.44431716158E+02  0.17077282114E+03  0.12500000000E+03 0.  0.
</event>
<event>
 4    0  0.2193754E-002  0.2699255E+03  0.7546771E-02  0.1101322E+00
         21   -1    0    0  502  501  0.00000000000E+00  0.00000000000E+00  0.22475223184E+03  0.22475223184E+03  0.00000000000E+00 0. -1.
         21   -1    0    0  501  502 -0.00000000000E+00 -0.00000000000E+00 -0.32417816425E+03  0.32417816425E+03  0.00000000000E+00 0. -1.
         25    1    1    2    0    0  0.40508869633E+02  0.19304603470E+03  0.87941211054E+02  0.24953235588E+03  0.12500000000E+03 0.  0.
         25    1    1    2    0    0 -0.40508869633E+02 -0.19304603470E+03 -0.18736714347E+03  0.29939804021E+03  0.12500000000E+03 0.  0.
</event>
<event>
 4    0  0.2193754E-002  0.1862372E+03  0.7546771E-02  0.1161900E+00
         21   -1    0    0  502  501  0.00000000000E+00  0.00000000000E+00  0.86654190547E+02  0.86654190547E+02  0.00000000000E+00 0.  1.
         21   -1    0    0  501  502 -0.00000000000E+00 -0.00000000000E+00 -0.40026112723E+03  0.40026112723E+03  0.00000000000E+00 0.  1.
         25    1    1    2    0    0 -0.44721671077E+02 -0.47297651289E+02  0.23490099392E+01  0.14095252225E+03  0.12500000000E+03 0.  0.
         25    1    1    2    0    0  0.44721671077E+02  0.47297651289E+02 -0.31595594662E+03  0.34596279552E+03  0.12500000000E+03 0.  0.
</event>
<event>
 4    0  0.2193754E-002  0.2343440E+03  0.7546771E-02  0.1123619E+00
         21   -1    0    0  502  501  0.00000000000E+00  0.00000000000E+00  0.54037386609E+03  0.54037386609E+03  0.00000000000E+00 0.  1.
         21   -1    0    0  501  502 -0.00000000000E+00 -0.00000000000E+00 -0.10162801106E+03  0.10162801106E+03  0.00000000000E+00 0.  1.
         25    1    1    2    0    0 -0.13544208677E+03 -0.11007999141E+03  0.34808869071E+03  0.40896564645E+03  0.12500000000E+03 0.  0.
         25    1    1    2    0    0  0.13544208677E+03  0.11007999141E+03  0.90657164322E+02  0.23303623070E+03  0.12500000000E+03 0.  0.
</event>
<event>
 4    0  0.2193754E-002  0.2217520E+03  0.7546771E-02  0.1132584E+00
         21   -1    0    0  502  501  0.00000000000E+00  0.00000000000E+00  0.20134703810E+03  0.20134703810E+03  0.00000000000E+00 0.  1.
         21   -1    0    0  501  502 -0.00000000000E+00 -0.00000000000E+00 -0.24422490794E+03  0.24422490794E+03  0.00000000000E+00 0.  1.
         25    1    1    2    0    0 -0.13865698937E+03  0.10868846867E+03  0.28894741697E+02  0.21794230893E+03  0.12500000000E+03 0.  0.
         25    1    1    2    0    0  0.13865698937E+03 -0.10868846867E+03 -0.71772611546E+02  0.22762963711E+03  0.12500000000E+03 0.  0.
</event>
<event>
 4    0  0.2193754E-002  0.1967521E+03  0.7546771E-02  0.1152509E+00
         21   -1    0    0  502  501  0.00000000000E+00  0.00000000000E+00  0.55968376380E+03  0.55968376380E+03  0.00000000000E+00 0.  1.
         21   -1    0    0  501  502 -0.00000000000E+00 -0.00000000000E+00 -0.69166559826E+02  0.69166559826E+02  0.00000000000E+00 0.  1.
         25    1    1    2    0    0 -0.35620963603E+02  0.10249938310E+03  0.75294778983E+02  0.18184960909E+03  0.12500000000E+03 0.  0.
         25    1    1    2    0    0  0.35620963603E+02 -0.10249938310E+03  0.41522242499E+03  0.44700071454E+03  0.12500000000E+03 0.  0.
</event>
<event>
 4    0  0.2193754E-002  0.1823308E+03  0.7546771E-02  0.1165566E+00
         21   -1    0    0  502  501  0.00000000000E+00  0.00000000000E+00  0.16033228959E+02  0.16033228959E+02  0.00000000000E+00 0.  1.
         21   -1    0    0  501  502 -0.00000000000E+00 -0.00000000000E+00 -0.20734773041E+04  0.20734773041E+04  0.00000000000E+00 0.  1.
         25    1    1    2    0    0 -0.96730284239E+02  0.17242064489E+01 -0.15494844189E+04  0.15575258216E+04  0.12500000000E+03 0.  0.
         25    1    1    2    0    0  0.96730284239E+02 -0.17242064489E+01 -0.50795965625E+03  0.53198471139E+03  0.12500000000E+03 0.  0.
</event>
<event>
 4    0  0.2193754E-002  0.1681357E+03  0.7546771E-02  0.1179806E+00
         21   -1    0    0  502  501  0.00000000000E+00  0.00000000000E+00  0.12669074356E+03  0.12669074356E+03  0.00000000000E+00 0.  1.
         21   -1    0    0  501  502 -0.00000000000E+00 -0.00000000000E+00 -0.22313878792E+03  0.22313878792E+03  0.00000000000E+00 0.  1.
         25    1    1    2    0    0  0.33333167016E+02 -0.55022838955E+02  0.47722522920E+02  0.14846229159E+03  0.12500000000E+03 0.  0.
         25    1    1    2    0    0 -0.33333167016E+02  0.55022838955E+02 -0.14417056728E+03  0.20136723989E+03  0.12500000000E+03 0.  0.
</event>
<event>
 4    0  0.2193754E-002  0.2435422E+03  0.7546771E-02  0.1117455E+00
         21   -1    0    0  502  501  0.00000000000E+00  0.00000000000E+00  0.36880106638E+03  0.36880106638E+03  0.00000000000E+00 0. -1.
         21   -1    0    0  501  502 -0.00000000000E+00 -0.00000000000E+00 -0.16082595067E+03  0.16082595067E+03  0.00000000000E+00 0.  1.
         25    1    1    2    0    0  0.87707099308E+02  0.16589611266E+03  0.20408044408E+03  0.30411820584E+03  0.12500000000E+03 0.  0.
         25    1    1    2    0    0 -0.87707099308E+02 -0.16589611266E+03  0.38946716298E+01  0.22550881121E+03  0.12500000000E+03 0.  0.
</event>
<event>
 4    0  0.2193754E-002  0.2286997E+03  0.7546771E-02  0.1127558E+00
         21   -1    0    0  502  501  0.00000000000E+00  0.00000000000E+00  0.42345717469E+03  0.42345717469E+03  0.00000000000E+00 0.  1.
         21   -1    0    0  501  502 -0.00000000000E+00 -0.00000000000E+00 -0.12351555065E+03  0.12351555065E+03  0.00000000000E+00 0.  1.
         25    1    1    2    0    0 -0.11995609060E+02 -0.44437496723E+02  0.37227964858E+03  0.39539312399E+03  0.12500000000E+03 0.  0.
         25    1    1    2    0    0  0.11995609060E+02  0.44437496723E+02 -0.72338024538E+02  0.15157960135E+03  0.12500000000E+03 0.  0.
</event>
<event>
 4    0  0.2193754E-002  0.2220987E+03  0.7546771E-02  0.1132328E+00
         21   -1    0    0  502  501  0.00000000000E+00  0.00000000000E+00  0.26407044712E+03  0.26407044712E+03  0.00000000000E+00 0. -1.
         21   -1    0    0  501  502 -0.00000000000E+00 -0.00000000000E+00 -0.18679794616E+03  0.18679794616E+03  0.00000000000E+00 0.  1.
         25    1    1    2    0    0 -0.18126676367E+03 -0.29021636916E+02  0.36901150168E+02  0.22513682485E+03  0.12500000000E+03 0.  0.
         25    1    1    2    0    0  0.18126676367E+03  0.29021636916E+02  0.40371350794E+02  0.22573156843E+03  0.12500000000E+03 0.  0.
</event>
<event>
 4    0  0.2193754E-002  0.2216600E+03  0.7546771E-02  0.1132651E+00
         21   -1    0    0  502  501  0.00000000000E+00  0.00000000000E+00  0.53148668091E+02  0.53148668091E+02  0.00000000000E+00 0. -1.
         21   -1    0    0  501  502 -0.00000000000E+00 -0.00000000000E+00 -0.92444778763E+03  0.92444778763E+03  0.00000000000E+00 0. -1.
         25    1    1    2    0    0  0.14353589208E+03  0.11344662736E+03 -0.42251461435E+03  0.47709148904E+03  0.12500000000E+03 0.  0.
         25    1    1    2    0    0 -0.14353589208E+03 -0.11344662736E+03 -0.44878450519E+03  0.50050496668E+03  0.12500000000E+03 0.  0.
</event>
<event>
 4    0  0.2193754E-002  0.2594505E+03  0.7546771E-02  0.1107474E+00
         21   -1    0    0  502  501  0.00000000000E+00  0.00000000000E+00  0.68712352008E+03  0.68712352008E+03  0.00000000000E+00 0.  1.
         21   -1    0    0  501  502 -0.00000000000E+00 -0.00000000000E+00 -0.97965703477E+02  0.97965703477E+02  0.00000000000E+00 0. -1.
         25    1    1    2    0    0 -0.27823125318E+02 -0.22539136340E+03  0.31074350884E+03  0.40467508112E+03  0.12500000000E+03 0.  0.
         25    1    1    2    0    0  0.27823125318E+02  0.22539136340E+03  0.27841430777E+03  0.38041414243E+03  0.12500000000E+03 0.  0.
</event>
<event>
 4    0  0.2193754E-002  0.2258770E+03  0.7546771E-02  0.1129576E+00
         21   -1    0    0  502  501  0.00000000000E+00  0.00000000000E+00  0.10833848901E+04  0.10833848901E+04  0.00000000000E+00 0.  1.
         21   -1    0    0  501  502 -0.00000000000E+00 -0.00000000000E+00 -0.47093523902E+02  0.47093523902E+02  0.00000000000E+00 0.  1.
         25    1    1    2    0    0  0.66257181508E+02  0.17462324441E+03  0.57477566628E+03  0.61715100109E+03  0.12500000000E+03 0.  0.
         25    1    1    2    0    0 -0.66257181508E+02 -0.17462324441E+03  0.46151569994E+03  0.51332741294E+03  0.12500000000E+03 0.  0.
</event>
<event>
 4    0  0.2193754E-002  0.2394416E+03  0.7546771E-02  0.1120165E+00
         21   -1    0    0  502  501  0.00000000000E+00  0.00000000000E+00  0.20805215571E+03  0.20805215571E+03  0.00000000000E+00 0.  1.
         21   -1    0    0  501  502 -0.00000000000E+00 -0.00000000000E+00 -0.27556685814E+03  0.27556685814E+03  0.00000000000E+00 0.  1.
         25    1    1    2    0    0 -0.98189357242E+02 -0.11903008233E+03 -0.16886366310E+03  0.26067076378E+03  0.12500000000E+03 0.  0.
         25    1    1    2    0    0  0.98189357242E+02  0.11903008233E+03  0.10134896067E+03  0.22294825006E+03  0.12500000000E+03 0.  0.
</event>
<event>
 4    0  0.2193754E-002  0.2279549E+03  0.7546771E-02  0.1128088E+00
         21   -1    0    0  502  501  0.00000000000E+00  0.00000000000E+00  0.25618568276E+03  0.25618568276E+03  0.00000000000E+00 0. -1.
         21   -1    0    0  501  502 -0.00000000000E+00 -0.00000000000E+00 -0.20283509799E+03  0.20283509799E+03  0.00000000000E+00 0. -1.
         25    1    1    2    0    0 -0.13310635155E+03  0.65310554160E+02 -0.93957459958E+02  0.21548961365E+03  0.12500000000E+03 0.  0.
         25    1    1    2    0    0  0.13310635155E+03 -0.65310554160E+02  0.14730804474E+03  0.24353116710E+03  0.12500000000E+03 0.  0.
</event>
<event>
 4    0  0.2193754E-002  0.3033443E+03  0.7546771E-02  0.1083581E+00
         21   -1    0    0  502  501  0.00000000000E+00  0.00000000000E+00  0.32058633401E+02  0.32058633401E+02  0.00000000000E+00 0. -1.
         21   -1    0    0  501  502 -0.00000000000E+00 -0.00000000000E+00 -0.28702951605E+04  0.28702951605E+04  0.00000000000E+00 0. -1.
         25    1    1    2    0    0  0.27500547706E+03 -0.20155218737E+02 -0.15096969789E+04  0.15397545951E+04  0.12500000000E+03 0.  0.
         25    1    1    2    0    0 -0.27500547706E+03  0.20155218737E+02 -0.13285395483E+04  0.13625991988E+04  0.12500000000E+03 0.  0.
</event>
<event>
 4    0  0.2193754E-002  0.1908516E+03  0.7546771E-02  0.1157695E+00
         21   -1    0    0  502  501  0.00000000000E+00  0.00000000000E+00  0.26334245941E+03  0.26334245941E+03  0.00000000000E+00 0. -1.
         21   -1    0    0  501  502 -0.00000000000E+00 -0.00000000000E+00 -0.13831546332E+03  0.13831546332E+03  0.00000000000E+00 0. -1.
         25    1    1    2    0    0 -0.11219316474E+03  0.22542074312E+02 -0.29846809148E+02  0.17207929377E+03  0.12500000000E+03 0.  0.
         25    1    1    2    0    0  0.11219316474E+03 -0.22542074312E+02  0.15487380523E+03  0.22957862896E+03  0.12500000000E+03 0.  0.
</event>
<event>
 4    0  0.2193754E-002  0.2358957E+03  0.7546771E-02  0.1122558E+00
         21   -1    0    0  502  501  0.00000000000E+00  0.00000000000E+00  0.18435383874E+03  0.18435383874E+03  0.00000000000E+00 0.  1.
         21   -1    0    0  501  502 -0.00000000000E+00 -0.00000000000E+00 -0.30184777262E+03  0.30184777262E+03  0.00000000000E+00 0.  1.
         25    1    1    2    0    0 -0.16475296940E+03 -0.10527587652E+03 -0.15082504321E+02  0.23254899063E+03  0.12500000000E+03 0.  0.
         25    1    1    2    0    0  0.16475296940E+03  0.10527587652E+03 -0.10241142956E+03  0.25365262074E+03  0.12500000000E+03 0.  0.
</event>
<event>
 4    0  0.2193754E-002  0.3215367E+03  0.7546771E-02  0.1074944E+00
         21   -1    0    0  502  501  0.00000000000E+00  0.00000000000E+00  0.41992264229E+03  0.41992264229E+03  0.00000000000E+00 0.  1.
         21   -1    0    0  501  502 -0.00000000000E+00 -0.00000000000E+00 -0.24620218938E+03  0.24620218938E+03  0.00000000000E+00 0.  1.
         25    1    1    2    0    0  0.24013061955E+03 -0.84056193279E+02 -0.70345224580E+02  0.29206439135E+03  0.12500000000E+03 0.  0.
         25    1    1    2    0    0 -0.24013061955E+03  0.84056193279E+02  0.24406567749E+03  0.37406044031E+03  0.12500000000E+03 0.  0.
</event>
<event>
 4    0  0.2193754E-002  0.1815494E+03  0.7546771E-02  0.1166312E+00
         21   -1    0    0  502  501  0.00000000000E+00  0.00000000000E+00  0.42133269285E+03  0.42133269285E+03  0.00000000000E+00 0.  1.
         21   -1    0    0  501  502 -0.00000000000E+00 -0.00000000000E+00 -0.78228401876E+02  0.78228401876E+02  0.00000000000E+00 0.  1.
         25    1    1    2    0    0 -0.80209662896E+02  0.96661345474E+02  0.11724308782E+03  0.21248046351E+03  0.12500000000E+03 0.  0.
         25    1    1    2    0    0  0.80209662896E+02 -0.96661345474E+02  0.22586120315E+03  0.28708063122E+03  0.12500000000E+03 0.  0.
</event>
<event>
 4    0  0.2193754E-002  0.2061184E+03  0.7546771E-02  0.1144677E+00
         21   -1    0    0  502  501  0.00000000000E+00  0.00000000000E+00  0.24047840500E+03  0.24047840500E+03  0.00000000000E+00 0.  1.
         21   -1    0    0  501  502 -0.00000000000E+00 -0.00000000000E+00 -0.17666780416E+03  0.17666780416E+03  0.00000000000E+00 0.  1.
         25    1    1    2    0    0 -0.12137488420E+03 -0.10531480572E+03 -0.67630606976E+00  0.20358911614E+03  0.12500000000E+03 0.  0.
         25    1    1    2    0    0  0.12137488420E+03  0.10531480572E+03  0.64486906906E+02  0.21355709303E+03  0.12500000000E+03 0.  0.
</event>
<event>
 4    0  0.2193754E-002  0.2249740E+03  0.7546771E-02  0.1130228E+00
         21   -1    0    0  502  501  0.00000000000E+00  0.00000000000E+00  0.40981841486E+03  0.40981841486E+03  0.00000000000E+00 0.  1.
         21   -1    0    0  501  502 -0.00000000000E+00 -0.00000000000E+00 -0.12350178582E+03  0.12350178582E+03  0.00000000000E+00 0.  1.
         25    1    1    2    0    0 -0.11460847146E+03  0.14605016821E+03  0.17025341380E+03  0.28120629132E+03  0.12500000000E+03 0.  0.
         25    1    1    2    0    0  0.11460847146E+03 -0.14605016821E+03  0.11606321523E+03  0.25211390936E+03  0.12500000000E+03 0.  0.
</event>
<event>
 4    0  0.2193754E-002  0.1688708E+03  0.7546771E-02  0.1179031E+00
         21   -1    0    0  502  501  0.00000000000E+00  0.00000000000E+00  0.65666988004E+03  0.65666988004E+03  0.00000000000E+00 0.  1.
         21   -1    0    0  501  502 -0.00000000000E+00 -0.00000000000E+00 -0.43427240792E+02  0.43427240792E+02  0.00000000000E+00 0.  1.
         25    1    1    2    0    0  0.20020672320E+02  0.98132925447E+02  0.41750500913E+03  0.44717595086E+03  0.12500000000E+03 0.  0.
         25    1    1    2    0    0 -0.20020672320E+02 -0.98132925447E+02  0.19573763012E+03  0.25292116997E+03  0.12500000000E+03 0.  0.
</event>
<event>
 4    0  0.2193754E-002  0.1898019E+03  0.7546771E-02  0.1158640E+00
         21   -1    0    0  502  501  0.00000000000E+00  0.00000000000E+00  0.79360488948E+02  0.79360488948E+02  0.00000000000E+00 0. -1.
         21   -1    0    0  501  502 -0.00000000000E+00 -0.00000000000E+00 -0.45393819774E+03  0.45393819774E+03  0.00000000000E+00 0. -1.
         25    1    1    2    0    0  0.10374956272E+03  0.13118431746E+02 -0.50619767641E+02  0.17065586979E+03  0.12500000000E+03 0.  0.
         25    1    1    2    0    0 -0.10374956272E+03 -0.13118431746E+02 -0.32395794115E+03  0.36264281691E+03  0.12500000000E+03 0.  0.
</event>
<event>
 4    0  0.2193754E-002  0.2419237E+03  0.7546771E-02  0.1118518E+00
         21   -1    0    0  502  501  0.00000000000E+00  0.00000000000E+00  0.67432239506E+02  0.67432239506E+02  0.00000000000E+00 0.  1.
         21   -1    0    0  501  502 -0.00000000000E+00 -0.00000000000E+00 -0.86793932656E+03  0.86793932656E+03  0.00000000000E+00 0.  1.
         25    1    1    2    0    0  0.19393989491E+03 -0.33344175204E+02 -0.27530308432E+03  0.36075102924E+03  0.12500000000E+03 0.  0.
         25    1    1    2    0    0 -0.19393989491E+03  0.33344175204E+02 -0.52520400274E+03  0.57462053683E+03  0.12500000000E+03 0.  0.
</event>
<event>
 4    0  0.2193754E-002  0.2575608E+03  0.7546771E-02  0.1108618E+00
         21   -1    0    0  502  501  0.00000000000E+00  0.00000000000E+00  0.53883694850E+02  0.53883694850E+02  0.00000000000E+00 0.  1.
         21   -1    0    0  501  502 -0.00000000000E+00 -0.00000000000E+00 -0.12311251849E+04  0.12311251849E+04  0.00000000000E+00 0.  1.
         25    1    1    2    0    0 -0.20511898632E+03 -0.69069705509E+02 -0.74376941323E+03  0.78464155053E+03  0.12500000000E+03 0.  0.
         25    1    1    2    0    0  0.20511898632E+03  0.69069705509E+02 -0.43347207684E+03  0.50036732923E+03  0.12500000000E+03 0.  0.
</event>
<event>
 4    0  0.2193754E-002  0.3078081E+03  0.7546771E-02  0.1081401E+00
         21   -1    0    0  502  501  0.00000000000E+00  0.00000000000E+00  0.10473257416E+03  0.10473257416E+03  0.00000000000E+00 0.  1.
         21   -1    0    0  501  502 -0.00000000000E+00 -0.00000000000E+00 -0.90464520996E+03  0.90464520996E+03  0.00000000000E+00 0.  1.
         25    1    1    2    0    0  0.18604492114E+03  0.20904668930E+03 -0.35336131668E+03  0.46776324259E+03  0.12500000000E+03 0.  0.
         25    1    1    2    0    0 -0.18604492114E+03 -0.20904668930E+03 -0.44655131912E+03  0.54161454153E+03  0.12500000000E+03 0.  0.
</event>
<event>
 4    0  0.2193754E-002  0.2574982E+03  0.7546771E-02  0.1108656E+00
         21   -1    0    0  502  501  0.00000000000E+00  0.00000000000E+00  0.10461868954E+03  0.10461868954E+03  0.00000000000E+00 0. -1.
         21   -1    0    0  501  502 -0.00000000000E+00 -0.00000000000E+00 -0.63378089255E+03  0.63378089255E+03  0.00000000000E+00 0. -1.
         25    1    1    2    0    0 -0.20274879875E+03  0.50430298681E+02 -0.38479813659E+03  0.45535139875E+03  0.12500000000E+03 0.  0.
         25    1    1    2    0    0  0.20274879875E+03 -0.50430298681E+02 -0.14436406642E+03  0.28304818334E+03  0.12500000000E+03 0.  0.
</event>
<event>
 4    0  0.2193754E-002  0.2697119E+03  0.7546771E-02  0.1101445E+00
         21   -1    0    0  502  501  0.00000000000E+00  0.00000000000E+00  0.67986517072E+02  0.67986517072E+02  0.00000000000E+00 0. -1.
         21   -1    0    0  501  502 -0.00000000000E+00 -0.00000000000E+00 -0.10699840400E+04  0.10699840400E+04  0.00000000000E+00 0. -1.
         25    1    1    2    0    0 -0.18102464826E+03  0.10932981235E+03 -0.26611579379E+03  0.36216784348E+03  0.12500000000E+03 0.  0.
         25    1    1    2    0    0  0.18102464826E+03 -0.10932981235E+03 -0.73588172916E+03  0.77580271362E+03  0.12500000000E+03 0.  0.
</event>
<event>
 4    0  0.2193754E-002  0.2303948E+03  0.7546771E-02  0.1126362E+00
         21   -1    0    0  502  501  0.00000000000E+00  0.00000000000E+00  0.55482572572E+02  0.55482572572E+02  0.00000000000E+00 0. -1.
         21   -1    0    0  501  502 -0.00000000000E+00 -0.00000000000E+00 -0.95672833987E+03  0.95672833987E+03  0.00000000000E+00 0. -1.
         25    1    1    2    0    0  0.45990306746E+01 -0.10973826924E+03 -0.80066988231E+03  0.81777802567E+03  0.12500000000E+03 0.  0.
         25    1    1    2    0    0 -0.45990306746E+01  0.10973826924E+03 -0.10057588499E+03  0.19443288678E+03  0.12500000000E+03 0.  0.
</event>
<event>
 4    0  0.2193754E-002  0.1943994E+03  0.7546771E-02  0.1154552E+00
         21   -1    0    0  502  501  0.00000000000E+00  0.00000000000E+00  0.10696958663E+03  0.10696958663E+03  0.00000000000E+00 0.  1.
         21   -1    0    0  501  502 -0.00000000000E+00 -0.00000000000E+00 -0.35328836297E+03  0.35328836297E+03  0.00000000000E+00 0.  1.
         25    1    1    2    0    0 -0.31161879577E+02 -0.96961060698E+02 -0.25171755674E+03  0.29893015640E+03  0.12500000000E+03 0.  0.
         25    1    1    2    0    0  0.31161879577E+02  0.96961060698E+02  0.53987803970E+01  0.16132779320E+03  0.12500000000E+03 0.  0.
</event>
<event>
 4    0  0.2193754E-002  0.2028282E+03  0.7546771E-02  0.1147375E+00
         21   -1    0    0  502  501  0.00000000000E+00  0.00000000000E+00  0.86415959948E+02  0.86415959948E+02  0.00000000000E+00 0. -1.
         21   -1    0    0  501  502 -0.00000000000E+00 -0.00000000000E+00 -0.47606129657E+03  0.47606129657E+03  0.00000000000E+00 0. -1.
         25    1    1    2    0    0 -0.12986457855E+03 -0.71845628063E+02 -0.11293555748E+03  0.22451290203E+03  0.12500000000E+03 0.  0.
         25    1    1    2    0    0  0.12986457855E+03  0.71845628063E+02 -0.27670977914E+03  0.33796435449E+03  0.12500000000E+03 0.  0.
</event>
<event>
 4    0  0.2193754E-002  0.2720251E+03  0.7546771E-02  0.1100126E+00
         21   -1    0    0  502  501  0.00000000000E+00  0.00000000000E+00  0.10223059037E+04  0.10223059037E+04  0.00000000000E+00 0.  1.
         21   -1    0    0  501  502 -0.00000000000E+00 -0.00000000000E+00 -0.72383090267E+02  0.72383090267E+02  0.00000000000E+00 0.  1.
         25    1    1    2    0    0 -0.77634159535E+02 -0.17499494815E+03  0.77151645660E+03  0.80468188585E+03  0.12500000000E+03 0.  0.
         25    1    1    2    0    0  0.77634159535E+02  0.17499494815E+03  0.17840635685E+03  0.29000710814E+03  0.12500000000E+03 0.  0.
</event>
<event>
 4    0  0.2193754E-002  0.1916774E+03  0.7546771E-02  0.1156957E+00
         21   -1    0    0  502  501  0.00000000000E+00  0.00000000000E+00  0.59464844796E+02  0.59464844796E+02  0.00000000000E+00 0.  1.
         21   -1    0    0  501  502 -0.00000000000E+00 -0.00000000000E+00 -0.61784804225E+03  0.61784804225E+03  0.00000000000E+00 0.  1.
         25    1    1    2    0    0  0.13523246373E+03 -0.50983045410E+02 -0.25250480000E+03  0.31665559238E+03  0.12500000000E+03 0.  0.
         25    1    1    2    0    0 -0.13523246373E+03  0.50983045410E+02 -0.30587839745E+03  0.36065729466E+03  0.12500000000E+03 0.  0.
</event>
<event>
 4    0  0.2193754E-002  0.2240342E+03  0.7546771E-02  0.1130911E+00
         21   -1    0    0  502  501  0.00000000000E+00  0.00000000000E+00  0.41346692760E+03  0.41346692760E+03  0.00000000000E+00 0.  1.
         21   -1    0    0  501  502 -0.00000000000E+00 -0.00000000000E+00 -0.12139140238E+03  0.12139140238E+03  0.00000000000E+00 0.  1.
         25    1    1    2    0    0 -0.93422141877E+02 -0.14150547794E+03  0.55012267482E+02  0.21772194757E+03  0.12500000000E+03 0.  0.
         25    1    1    2    0    0  0.93422141877E+02  0.14150547794E+03  0.23706325774E+03  0.31713638241E+03  0.12500000000E+03 0.  0.
</event>
<event>
 4    0  0.2193754E-002  0.4492718E+03  0.7546771E-02  0.1027939E+00
         21   -1    0    0  502  501  0.00000000000E+00  0.00000000000E+00  0.29798598719E+03  0.29798598719E+03  0.00000000000E+00 0.  1.
         21   -1    0    0  501  502 -0.00000000000E+00 -0.00000000000E+00 -0.67736457767E+03  0.67736457767E+03  0.00000000000E+00 0.  1.
         25    1    1    2    0    0 -0.25019456168E+03  0.31664907975E+03 -0.35558021649E+03  0.55220127559E+03  0.12500000000E+03 0.  0.
         25    1    1    2    0    0  0.25019456168E+03 -0.31664907975E+03 -0.23798373983E+02  0.42314928927E+03  0.12500000000E+03 0.  0.
</event>
<event>
 4    0  0.2193754E-002  0.1811000E+03  0.7546771E-02  0.1166743E+00
         21   -1    0    0  502  501  0.00000000000E+00  0.00000000000E+00  0.35171170098E+03  0.35171170098E+03  0.00000000000E+00 0.  1.
         21   -1    0    0  501  502 -0.00000000000E+00 -0.00000000000E+00 -0.93250233104E+02  0.93250233104E+02  0.00000000000E+00 0.  1.
         25    1    1    2    0    0  0.51244473941E+01  0.12954581432E+03  0.10579827546E+03  0.20886994293E+03  0.12500000000E+03 0.  0.
         25    1    1    2    0    0 -0.51244473941E+01 -0.12954581432E+03  0.15266319242E+03  0.23609199116E+03  0.12500000000E+03 0.  0.
</event>
<event>
 4    0  0.2193754E-002  0.1942257E+03  0.7546771E-02  0.1154704E+00
         21   -1    0    0  502  501  0.00000000000E+00  0.00000000000E+00  0.52698601006E+03  0.52698601006E+03  0.00000000000E+00 0. -1.
         21   -1    0    0  501  502 -0.00000000000E+00 -0.00000000000E+00 -0.71583728511E+02  0.71583728511E+02  0.00000000000E+00 0. -1.
         25    1    1    2    0    0  0.84319087616E+02 -0.12175385136E+03  0.24748940198E+03  0.31434012303E+03  0.12500000000E+03 0.  0.
         25    1    1    2    0    0 -0.84319087616E+02  0.12175385136E+03  0.20791287958E+03  0.28422961554E+03  0.12500000000E+03 0.  0.
</event>
<event>
 4    0  0.2193754E-002  0.2162225E+03  0.7546771E-02  0.1136731E+00
         21   -1    0    0  502  501  0.00000000000E+00  0.00000000000E+00  0.60202135832E+02  0.60202135832E+02  0.00000000000E+00 0.  1.
         21   -1    0    0  501  502 -0.00000000000E+00 -0.00000000000E+00 -0.77658663503E+03  0.77658663503E+03  0.00000000000E+00 0.  1.
         25    1    1    2    0    0  0.13424724847E+03  0.11224347606E+03 -0.40173025313E+03  0.45566777143E+03  0.12500000000E+03 0.  0.
         25    1    1    2    0    0 -0.13424724847E+03 -0.11224347606E+03 -0.31465424607E+03  0.38112099943E+03  0.12500000000E+03 0.  0.
</event>
<event>
 4    0  0.2193754E-002  0.2063095E+03  0.7546771E-02  0.1144522E+00
         21   -1    0    0  502  501  0.00000000000E+00  0.00000000000E+00  0.12194137330E+04  0.12194137330E+04  0.00000000000E+00 0. -1.
         21   -1    0    0  501  502 -0.00000000000E+00 -0.00000000000E+00 -0.34904992032E+02  0.34904992032E+02  0.00000000000E+00 0. -1.
         25    1    1    2    0    0  0.17671644864E+02  0.32279694752E+02  0.10784889978E+04  0.10863322623E+04  0.12500000000E+03 0.  0.
         25    1    1    2    0    0 -0.17671644864E+02 -0.32279694752E+02  0.10601974320E+03  0.16798646277E+03  0.12500000000E+03 0.  0.
</event>
<event>
 4    0  0.2193754E-002  0.2198568E+03  0.7546771E-02  0.1133990E+00
         21   -1    0    0  502  501  0.00000000000E+00  0.00000000000E+00  0.14408188910E+04  0.14408188910E+04  0.00000000000E+00 0. -1.
         21   -1    0    0  501  502 -0.00000000000E+00 -0.00000000000E+00 -0.33548303255E+02  0.33548303255E+02  0.00000000000E+00 0. -1.
         25    1    1    2    0    0  0.15507225338E+03 -0.75906787452E+02  0.88428743653E+03  0.90961448678E+03  0.12500000000E+03 0.  0.
         25    1    1    2    0    0 -0.15507225338E+03  0.75906787452E+02  0.52298315120E+03  0.56475270747E+03  0.12500000000E+03 0.  0.
</event>
<event>
 4    0  0.2193754E-002  0.2637453E+03  0.7546771E-02  0.1104914E+00
         21   -1    0    0  502  501  0.00000000000E+00  0.00000000000E+00  0.64938794183E+02  0.64938794183E+02  0.00000000000E+00 0. -1.
         21   -1    0    0  501  502 -0.00000000000E+00 -0.00000000000E+00 -0.10711869404E+04  0.10711869404E+04  0.00000000000E+00 0. -1.
         25    1    1    2    0    0 -0.14670095063E+03 -0.18510806481E+02 -0.88885093818E+03  0.90969489895E+03  0.12500000000E+03 0.  0.
         25    1    1    2    0    0  0.14670095063E+03  0.18510806481E+02 -0.11739720805E+03  0.22643083565E+03  0.12500000000E+03 0.  0.
</event>
<event>
 4    0  0.2193754E-002  0.1711198E+03  0.7546771E-02  0.1176685E+00
         21   -1    0    0  502  501  0.00000000000E+00  0.00000000000E+00  0.28343525466E+03  0.28343525466E+03  0.00000000000E+00 0. -1.
         21   -1    0    0  501  502 -0.00000000000E+00 -0.00000000000E+00 -0.10331104962E+03  0.10331104962E+03  0.00000000000E+00 0. -1.
         25    1    1    2    0    0  0.80913383325E+01  0.11620466336E+03  0.10066287415E+03  0.19831038242E+03  0.12500000000E+03 0.  0.
         25    1    1    2    0    0 -0.80913383325E+01 -0.11620466336E+03  0.79461330888E+02  0.18843592187E+03  0.12500000000E+03 0.  0.
</event>
<event>
 4    0  0.2193754E-002  0.1925653E+03  0.7546771E-02  0.1156168E+00
         21   -1    0    0  502  501  0.00000000000E+00  0.00000000000E+00  0.84022679575E+03  0.84022679575E+03  0.00000000000E+00 0.  1.
         21   -1    0    0  501  502 -0.00000000000E+00 -0.00000000000E+00 -0.44132615381E+02  0.44132615381E+02  0.00000000000E+00 0.  1.
         25    1    1    2    0    0  0.12754245564E+03 -0.45729244475E+02  0.27023470879E+03  0.32712389033E+03  0.12500000000E+03 0.  0.
         25    1    1    2    0    0 -0.12754245564E+03  0.45729244475E+02  0.52585947158E+03  0.55723552080E+03  0.12500000000E+03 0.  0.
</event>
<event>
 4    0  0.2193754E-002  0.2166549E+03  0.7546771E-02  0.1136402E+00
         21   -1    0    0  502  501  0.00000000000E+00  0.00000000000E+00  0.12376622190E+03  0.12376622190E+03  0.00000000000E+00 0. -1.
         21   -1    0    0  501  502 -0.00000000000E+00 -0.00000000000E+00 -0.37925815051E+03  0.37925815051E+03  0.00000000000E+00 0. -1.
         25    1    1    2    0    0  0.94746620009E+02 -0.14932413202E+03 -0.13506324675E+03  0.25522871906E+03  0.12500000000E+03 0.  0.
         25    1    1    2    0    0 -0.94746620009E+02  0.14932413202E+03 -0.12042868186E+03  0.24779565335E+03  0.12500000000E+03 0.  0.
</event>
<event>
 4    0  0.2193754E-002  0.1505482E+03  0.7546771E-02  0.1199801E+00
         21   -1    0    0  502  501  0.00000000000E+00  0.00000000000E+00  0.10621532540E+03  0.10621532540E+03  0.00000000000E+00 0.  1.
         21   -1    0    0  501  502 -0.00000000000E+00 -0.00000000000E+00 -0.21338506681E+03  0.21338506681E+03  0.00000000000E+00 0.  1.
         25    1    1    2    0    0  0.36790877739E+02 -0.67403513853E+01 -0.13330548597E+03  0.18653244653E+03  0.12500000000E+03 0.  0.
         25    1    1    2    0    0 -0.36790877739E+02  0.67403513853E+01  0.26135744561E+02  0.13306794567E+03  0.12500000000E+03 0.  0.
</event>
<event>
 4    0  0.2193754E-002  0.2132131E+03  0.7546771E-02  0.1139047E+00
         21   -1    0    0  502  501  0.00000000000E+00  0.00000000000E+00  0.35546457804E+03  0.35546457804E+03  0.00000000000E+00 0. -1.
         21   -1    0    0  501  502 -0.00000000000E+00 -0.00000000000E+00 -0.12788852885E+03  0.12788852885E+03  0.00000000000E+00 0. -1.
         25    1    1    2    0    0 -0.16421531205E+03 -0.26845177409E+02  0.61260356222E+02  0.21694507025E+03  0.12500000000E+03 0.  0.
         25    1    1    2    0    0  0.16421531205E+03  0.26845177409E+02  0.16631569297E+03  0.26640803664E+03  0.12500000000E+03 0.  0.
</event>
<event>
 4    0  0.2193754E-002  0.2518862E+03  0.7546771E-02  0.1112119E+00
         21   -1    0    0  502  501  0.00000000000E+00  0.00000000000E+00  0.13359666753E+03  0.13359666753E+03  0.00000000000E+00 0. -1.
         21   -1    0    0  501  502 -0.00000000000E+00 -0.00000000000E+00 -0.47491215064E+03  0.47491215064E+03  0.00000000000E+00 0. -1.
         25    1    1    2    0    0  0.19738584059E+03  0.35542237288E+02 -0.27594138896E+03  0.36330850642E+03  0.12500000000E+03 0.  0.
         25    1    1    2    0    0 -0.19738584059E+03 -0.35542237288E+02 -0.65374094157E+02  0.24520031175E+03  0.12500000000E+03 0.  0.
</event>
<event>
 4    0  0.2193754E-002  0.2290419E+03  0.7546771E-02  0.1127316E+00
         21   -1    0    0  502  501  0.00000000000E+00  0.00000000000E+00  0.63804263750E+03  0.63804263750E+03  0.00000000000E+00 0.  1.
         21   -1    0    0  501  502 -0.00000000000E+00 -0.00000000000E+00 -0.82220538031E+02  0.82220538031E+02  0.00000000000E+00 0.  1.
         25    1    1    2    0    0  0.17110390276E+03 -0.14446295947E+02  0.14311134837E+03  0.25610759270E+03  0.12500000000E+03 0.  0.
         25    1    1    2    0    0 -0.17110390276E+03  0.14446295947E+02  0.41271075110E+03  0.46415558284E+03  0.12500000000E+03 0.  0.
</event>
<event>
 4    0  0.2193754E-002  0.2450336E+03  0.7546771E-02  0.1116484E+00
         21   -1    0    0  502  501  0.00000000000E+00  0.00000000000E+00  0.17938585914E+03  0.17938585914E+03  0.00000000000E+00 0. -1.
         21   -1    0    0  501  502 -0.00000000000E+00 -0.00000000000E+00 -0.33470565730E+03  0.33470565730E+03  0.00000000000E+00 0. -1.
         25    1    1    2    0    0  0.58190799671E+02  0.10863441364E+03  0.10168570165E+03  0.20286100392E+03  0.12500000000E+03 0.  0.
         25    1    1    2    0    0 -0.58190799671E+02 -0.10863441364E+03 -0.25700549981E+03  0.31123051252E+03  0.12500000000E+03 0.  0.
</event>
<event>
 4    0  0.2193754E-002  0.2197230E+03  0.7546771E-02  0.1134090E+00
         21   -1    0    0  502  501  0.00000000000E+00  0.00000000000E+00  0.20594783129E+03  0.20594783129E+03  0.00000000000E+00 0. -1.
         21   -1    0    0  501  502 -0.00000000000E+00 -0.00000000000E+00 -0.23441954113E+03  0.23441954113E+03  0.00000000000E+00 0. -1.
         25    1    1    2    0    0 -0.16051115443E+03  0.51452324558E+02 -0.79503233016E+02  0.22440351258E+03  0.12500000000E+03 0.  0.
         25    1    1    2    0    0  0.16051115443E+03 -0.51452324558E+02  0.51031523179E+02  0.21596385984E+03  0.12500000000E+03 0.  0.
</event>
<event>
 4    0  0.2193754E-002  0.2288029E+03  0.7546771E-02  0.1127485E+00
         21   -1    0    0  502  501  0.00000000000E+00  0.00000000000E+00  0.53346922204E+03  0.53346922204E+03  0.00000000000E+00 0. -1.
         21   -1    0    0  501  502 -0.00000000000E+00 -0.00000000000E+00 -0.98132723315E+02  0.98132723315E+02  0.00000000000E+00 0. -1.
         25    1    1    2    0    0  0.50025017447E+02 -0.44709724556E+01  0.47293005115E+03  0.49174213287E+03  0.12500000000E+03 0.  0.
         25    1    1    2    0    0 -0.50025017447E+02  0.44709724556E+01 -0.37593552417E+02  0.13985981249E+03  0.12500000000E+03 0.  0.
</event>
<event>
 4    0  0.2193754E-002  0.2632763E+03  0.7546771E-02  0.1105191E+00
         21   -1    0    0  502  501  0.00000000000E+00  0.00000000000E+00  0.84529141158E+03  0.84529141158E+03  0.00000000000E+00 0.  1.
         21   -1    0    0  501  502 -0.00000000000E+00 -0.00000000000E+00 -0.82000601128E+02  0.82000601128E+02  0.00000000000E+00 0.  1.
         25    1    1    2    0    0  0.16547952562E+03  0.60968374294E+02  0.64632547472E+03  0.68151466260E+03  0.12500000000E+03 0.  0.
         25    1    1    2    0    0 -0.16547952562E+03 -0.60968374294E+02  0.11696533573E+03  0.24577735011E+03  0.12500000000E+03 0.  0.
</event>
<event>
 4    0  0.2193754E-002  0.2243574E+03  0.7546771E-02  0.1130676E+00
         21   -1    0    0  502  501  0.00000000000E+00  0.00000000000E+00  0.34734247952E+03  0.34734247952E+03  0.00000000000E+00 0. -1.
         21   -1    0    0  501  502 -0.00000000000E+00 -0.00000000000E+00 -0.14491818649E+03  0.14491818649E+03  0.00000000000E+00 0. -1.
         25    1    1    2    0    0 -0.12266748566E+03 -0.21592418102E+02  0.25321415195E+03  0.30863562870E+03  0.12500000000E+03 0.  0.
         25    1    1    2    0    0  0.12266748566E+03  0.21592418102E+02 -0.50789858915E+02  0.18362503731E+03  0.12500000000E+03 0.  0.
</event>
<event>
 4    0  0.2193754E-002  0.2323422E+03  0.7546771E-02  0.1125002E+00
         21   -1    0    0  502  501  0.00000000000E+00  0.00000000000E+00  0.12219406743E+03  0.12219406743E+03  0.00000000000E+00 0. -1.
         21   -1    0    0  501  502 -0.00000000000E+00 -0.00000000000E+00 -0.44177990449E+03  0.44177990449E+03  0.00000000000E+00 0. -1.
         25    1    1    2    0    0  0.12664197209E+03  0.10487453635E+03 -0.30657932543E+02  0.20881035965E+03  0.12500000000E+03 0.  0.
         25    1    1    2    0    0 -0.12664197209E+03 -0.10487453635E+03 -0.28892790452E+03  0.35516361227E+03  0.12500000000E+03 0.  0.
</event>
<event>
 4    0  0.2193754E-002  0.2493315E+03  0.7546771E-02  0.1113728E+00
         21   -1    0    0  502  501  0.00000000000E+00  0.00000000000E+00  0.48720551835E+03  0.48720551835E+03  0.00000000000E+00 0.  1.
         21   -1    0    0  501  502 -0.00000000000E+00 -0.00000000000E+00 -0.12759747153E+03  0.12759747153E+03  0.00000000000E+00 0.  1.
         25    1    1    2    0    0 -0.10558899639E+01 -0.20170297751E+03  0.85456856279E+02  0.25221633636E+03  0.12500000000E+03 0.  0.
         25    1    1    2    0    0  0.10558899639E+01  0.20170297751E+03  0.27415119054E+03  0.36258665353E+03  0.12500000000E+03 0.  0.
</event>
<event>
 4    0  0.2193754E-002  0.2682443E+03  0.7546771E-02  0.1102289E+00
         21   -1    0    0  502  501  0.00000000000E+00  0.00000000000E+00  0.68529842338E+03  0.68529842338E+03  0.00000000000E+00 0. -1.
         21   -1    0    0  501  502 -0.00000000000E+00 -0.00000000000E+00 -0.10499803626E+03  0.10499803626E+03  0.00000000000E+00 0. -1.
         25    1    1    2    0    0  0.15977065168E+03 -0.77119184467E+02  0.52239437791E+03  0.56568093111E+03  0.12500000000E+03 0.  0.
         25    1    1    2    0    0 -0.15977065168E+03  0.77119184467E+02  0.57906009218E+02  0.22461552853E+03  0.12500000000E+03 0.  0.
</event>
<event>
 4    0  0.2193754E-002  0.2323429E+03  0.7546771E-02  0.1125002E+00
         21   -1    0    0  502  501  0.00000000000E+00  0.00000000000E+00  0.33318258837E+02  0.33318258837E+02  0.00000000000E+00 0.  1.
         21   -1    0    0  501  502 -0.00000000000E+00 -0.00000000000E+00 -0.16202288960E+04  0.16202288960E+04  0.00000000000E+00 0.  1.
         25    1    1    2    0    0 -0.12488351569E+02 -0.39548077415E+02 -0.11233427815E+03  0.17310112478E+03  0.12500000000E+03 0.  0.
         25    1    1    2    0    0  0.12488351569E+02  0.39548077415E+02 -0.14745763590E+04  0.14804460301E+04  0.12500000000E+03 0.  0.
</event>
<event>
 4    0  0.2193754E-002  0.2303309E+03  0.7546771E-02  0.1126407E+00
         21   -1    0    0  502  501  0.00000000000E+00  0.00000000000E+00  0.85636236250E+02  0.85636236250E+02  0.00000000000E+00 0.  1.
         21   -1    0    0  501  502 -0.00000000000E+00 -0.00000000000E+00 -0.61950765363E+03  0.61950765363E+03  0.00000000000E+00 0.  1.
         25    1    1    2    0    0 -0.58637947819E+02  0.24120027382E+02 -0.54671472601E+03  0.56439540775E+03  0.12500000000E+03 0.  0.
         25    1    1    2    0    0  0.58637947819E+02 -0.24120027382E+02  0.12843308637E+02  0.14074848213E+03  0.12500000000E+03 0.  0.
</event>
<event>
 4    0  0.2193754E-002  0.2122487E+03  0.7546771E-02  0.1139798E+00
         21   -1    0    0  502  501  0.00000000000E+00  0.00000000000E+00  0.12263665107E+03  0.12263665107E+03  0.00000000000E+00 0.  1.
         21   -1    0    0  501  502 -0.00000000000E+00 -0.00000000000E+00 -0.36734130461E+03  0.36734130461E+03  0.00000000000E+00 0.  1.
         25    1    1    2    0    0 -0.12351704990E+03 -0.77943046492E+02 -0.18514798524E+02  0.19313046853E+03  0.12500000000E+03 0.  0.
         25    1    1    2    0    0  0.12351704990E+03  0.77943046492E+02 -0.22618985502E+03  0.29684748715E+03  0.12500000000E+03 0.  0.
</event>
<event>
 4    0  0.2193754E-002  0.1668336E+03  0.7546771E-02  0.1181191E+00
         21   -1    0    0  502  501  0.00000000000E+00  0.00000000000E+00  0.71027582606E+03  0.71027582606E+03  0.00000000000E+00 0. -1.
         21   -1    0    0  501  502 -0.00000000000E+00 -0.00000000000E+00 -0.39186818287E+02  0.39186818287E+02  0.00000000000E+00 0. -1.
         25    1    1    2    0    0  0.33910513570E+02 -0.69595079170E+02  0.15846885102E+03  0.21617302033E+03  0.12500000000E+03 0.  0.
         25    1    1    2    0    0 -0.33910513570E+02  0.69595079170E+02  0.51262015675E+03  0.53328962402E+03  0.12500000000E+03 0.  0.
</event>
<event>
 4    0  0.2193754E-002  0.1741004E+03  0.7546771E-02  0.1173638E+00
         21   -1    0    0  502  501  0.00000000000E+00  0.00000000000E+00  0.96705919113E+02  0.96705919113E+02  0.00000000000E+00 0. -1.
         21   -1    0    0  501  502 -0.00000000000E+00 -0.00000000000E+00 -0.31343414280E+03  0.31343414280E+03  0.00000000000E+00 0. -1.
         25    1    1    2    0    0  0.10056931563E+03 -0.65200175112E+02 -0.87270883932E+02  0.19392384398E+03  0.12500000000E+03 0.  0.
         25    1    1    2    0    0 -0.10056931563E+03  0.65200175112E+02 -0.12945733975E+03  0.21621621793E+03  0.12500000000E+03 0.  0.
</event>
<event>
 4    0  0.2193754E-002  0.2019338E+03  0.7546771E-02  0.1148118E+00
         21   -1    0    0  502  501  0.00000000000E+00  0.00000000000E+00  0.28395752586E+03  0.28395752586E+03  0.00000000000E+00 0.  1.
         21   -1    0    0  501  502 -0.00000000000E+00 -0.00000000000E+00 -0.14360336151E+03  0.14360336151E+03  0.00000000000E+00 0.  1.
         25    1    1    2    0    0 -0.54924723390E+02  0.12056032730E+03  0.16247392506E+03  0.24407845887E+03  0.12500000000E+03 0.  0.
         25    1    1    2    0    0  0.54924723390E+02 -0.12056032730E+03 -0.22119760708E+02  0.18348242851E+03  0.12500000000E+03 0.  0.
</event>
<event>
 4    0  0.2193754E-002  0.1725120E+03  0.7546771E-02  0.1175253E+00
         21   -1    0    0  502  501  0.00000000000E+00  0.00000000000E+00  0.30934142599E+03  0.30934142599E+03  0.00000000000E+00 0.  1.
         21   -1    0    0  501  502 -0.00000000000E+00 -0.00000000000E+00 -0.96205626400E+02  0.96205626400E+02  0.00000000000E+00 0.  1.
         25    1    1    2    0    0 -0.36142153819E+02  0.81886787713E+02  0.14586847182E+02  0.15443276011E+03  0.12500000000E+03 0.  0.
         25    1    1    2    0    0  0.36142153819E+02 -0.81886787713E+02  0.19854895241E+03  0.25111429228E+03  0.12500000000E+03 0.  0.
</event>
<event>
 4    0  0.2193754E-002  0.1503659E+03  0.7546771E-02  0.1200024E+00
         21   -1    0    0  502  501  0.00000000000E+00  0.00000000000E+00  0.16273882842E+04  0.16273882842E+04  0.00000000000E+00 0. -1.
         21   -1    0    0  501  502 -0.00000000000E+00 -0.00000000000E+00 -0.13893370285E+02  0.13893370285E+02  0.00000000000E+00 0. -1.
         25    1    1    2    0    0  0.60624663845E+02  0.57220461034E+02  0.83920863182E+03  0.85255243754E+03  0.12500000000E+03 0.  0.
         25    1    1    2    0    0 -0.60624663845E+02 -0.57220461034E+02  0.77428628209E+03  0.78872921694E+03  0.12500000000E+03 0.  0.
</event>
<event>
 4    0  0.2193754E-002  0.1425863E+03  0.7546771E-02  0.1209891E+00
         21   -1    0    0  502  501  0.00000000000E+00  0.00000000000E+00  0.15131944348E+03  0.15131944348E+03  0.00000000000E+00 0.  1.
         21   -1    0    0  501  502 -0.00000000000E+00 -0.00000000000E+00 -0.13435723268E+03  0.13435723268E+03  0.00000000000E+00 0.  1.
         25    1    1    2    0    0  0.41509286845E+02  0.53516445052E+02  0.19401330025E+02  0.14348673246E+03  0.12500000000E+03 0.  0.
         25    1    1    2    0    0 -0.41509286845E+02 -0.53516445052E+02 -0.24391192274E+01  0.14218994369E+03  0.12500000000E+03 0.  0.
</event>
<event>
 4    0  0.2193754E-002  0.1625032E+03  0.7546771E-02  0.1185899E+00
         21   -1    0    0  502  501  0.00000000000E+00  0.00000000000E+00  0.50874901807E+03  0.50874901807E+03  0.00000000000E+00 0. -1.
         21   -1    0    0  501  502 -0.00000000000E+00 -0.00000000000E+00 -0.51906334401E+02  0.51906334401E+02  0.00000000000E+00 0. -1.
         25    1    1    2    0    0 -0.91828626985E+02  0.48434708762E+02  0.22502384604E+03  0.27755927121E+03  0.12500000000E+03 0.  0.
         25    1    1    2    0    0  0.91828626985E+02 -0.48434708762E+02  0.23181883762E+03  0.28309608126E+03  0.12500000000E+03 0.  0.
</event>
<event>
 4    0  0.2193754E-002  0.2719108E+03  0.7546771E-02  0.1100191E+00
         21   -1    0    0  502  501  0.00000000000E+00  0.00000000000E+00  0.28816314512E+04  0.28816314512E+04  0.00000000000E+00 0.  1.
         21   -1    0    0  501  502 -0.00000000000E+00 -0.00000000000E+00 -0.25657507835E+02  0.25657507835E+02  0.00000000000E+00 0.  1.
         25    1    1    2    0    0 -0.33321882972E+02  0.69725233048E+02  0.26510321286E+04  0.26551023150E+04  0.12500000000E+03 0.  0.
         25    1    1    2    0    0  0.33321882972E+02 -0.69725233048E+02  0.20494181472E+03  0.25218664403E+03  0.12500000000E+03 0.  0.
</event>
<event>
 4    0  0.2193754E-002  0.3568543E+03  0.7546771E-02  0.1059836E+00
         21   -1    0    0  502  501  0.00000000000E+00  0.00000000000E+00  0.84863280011E+03  0.84863280011E+03  0.00000000000E+00 0. -1.
         21   -1    0    0  501  502 -0.00000000000E+00 -0.00000000000E+00 -0.15005896523E+03  0.15005896523E+03  0.00000000000E+00 0. -1.
         25    1    1    2    0    0  0.10955814523E+03  0.13575922519E+03  0.74823791228E+03  0.77840768739E+03  0.12500000000E+03 0.  0.
         25    1    1    2    0    0 -0.10955814523E+03 -0.13575922519E+03 -0.49664077409E+02  0.22028407795E+03  0.12500000000E+03 0.  0.
</event>
<event>
 4    0  0.2193754E-002  0.1890292E+03  0.7546771E-02  0.1159340E+00
         21   -1    0    0  502  501  0.00000000000E+00  0.00000000000E+00  0.40128344827E+02  0.40128344827E+02  0.00000000000E+00 0. -1.
         21   -1    0    0  501  502 -0.00000000000E+00 -0.00000000000E+00 -0.89044365517E+03  0.89044365517E+03  0.00000000000E+00 0. -1.
         25    1    1    2    0    0 -0.10090197801E+03  0.60220077022E+02 -0.22979593773E+03  0.28677315049E+03  0.12500000000E+03 0.  0.
         25    1    1    2    0    0  0.10090197801E+03 -0.60220077022E+02 -0.62051937261E+03  0.64379884951E+03  0.12500000000E+03 0.  0.
</event>
<event>
 4    0  0.2193754E-002  0.2702104E+03  0.7546771E-02  0.1101159E+00
         21   -1    0    0  502  501  0.00000000000E+00  0.00000000000E+00  0.29202709928E+03  0.29202709928E+03  0.00000000000E+00 0. -1.
         21   -1    0    0  501  502 -0.00000000000E+00 -0.00000000000E+00 -0.25002354849E+03  0.25002354849E+03  0.00000000000E+00 0. -1.
         25    1    1    2    0    0  0.57153777294E+02  0.12224511612E+03 -0.17753009645E+03  0.25564107225E+03  0.12500000000E+03 0.  0.
         25    1    1    2    0    0 -0.57153777294E+02 -0.12224511612E+03  0.21953364725E+03  0.28640957552E+03  0.12500000000E+03 0.  0.
</event>
<event>
 4    0  0.2193754E-002  0.1669588E+03  0.7546771E-02  0.1181057E+00
         21   -1    0    0  502  501  0.00000000000E+00  0.00000000000E+00  0.72582097317E+03  0.72582097317E+03  0.00000000000E+00 0.  1.
         21   -1    0    0  501  502 -0.00000000000E+00 -0.00000000000E+00 -0.38405098616E+02  0.38405098616E+02  0.00000000000E+00 0.  1.
         25    1    1    2    0    0  0.91187842864E+02  0.59981132854E+02  0.30167694692E+03  0.34430646129E+03  0.12500000000E+03 0.  0.
         25    1    1    2    0    0 -0.91187842864E+02 -0.59981132854E+02  0.38573892764E+03  0.41991961050E+03  0.12500000000E+03 0.  0.
</event>
<event>
 4    0  0.2193754E-002  0.2076717E+03  0.7546771E-02  0.1143423E+00
         21   -1    0    0  502  501  0.00000000000E+00  0.00000000000E+00  0.17967425165E+02  0.17967425165E+02  0.00000000000E+00 0.  1.
         21   -1    0    0  501  502 -0.00000000000E+00 -0.00000000000E+00 -0.24003169839E+04  0.24003169839E+04  0.00000000000E+00 0.  1.
         25    1    1    2    0    0 -0.70545507350E+02  0.62931518207E+02 -0.19845034446E+04  0.19906822867E+04  0.12500000000E+03 0.  0.
         25    1    1    2    0    0  0.70545507350E+02 -0.62931518207E+02 -0.39784611404E+03  0.42760212236E+03  0.12500000000E+03 0.  0.
</event>
<event>
 4    0  0.2193754E-002  0.2972155E+03  0.7546771E-02  0.1086641E+00
         21   -1    0    0  502  501  0.00000000000E+00  0.00000000000E+00  0.63684460625E+03  0.63684460625E+03  0.00000000000E+00 0. -1.
         21   -1    0    0  501  502 -0.00000000000E+00 -0.00000000000E+00 -0.13871054690E+03  0.13871054690E+03  0.00000000000E+00 0. -1.
         25    1    1    2    0    0  0.23465591112E+03  0.11313946467E+03  0.15822260576E+03  0.32942879058E+03  0.12500000000E+03 0.  0.
         25    1    1    2    0    0 -0.23465591112E+03 -0.11313946467E+03  0.33991145360E+03  0.44612636257E+03  0.12500000000E+03 0.  0.
</event>
<event>
 4    0  0.2193754E-002  0.2430268E+03  0.7546771E-02  0.1117793E+00
         21   -1    0    0  502  501  0.00000000000E+00  0.00000000000E+00  0.40205728585E+03  0.40205728585E+03  0.00000000000E+00 0. -1.
         21   -1    0    0  501  502 -0.00000000000E+00 -0.00000000000E+00 -0.14689948042E+03  0.14689948042E+03  0.00000000000E+00 0. -1.
         25    1    1    2    0    0 -0.66699643021E+02 -0.19380279845E+03  0.17026784055E+03  0.29432041144E+03  0.12500000000E+03 0.  0.
         25    1    1    2    0    0  0.66699643021E+02  0.19380279845E+03  0.84889964885E+02  0.25463635483E+03  0.12500000000E+03 0.  0.
</event>
<event>
 4    0  0.2193754E-002  0.5452342E+03  0.7546771E-02  0.1002603E+00
         21   -1    0    0  502  501  0.00000000000E+00  0.00000000000E+00  0.26545090264E+03  0.26545090264E+03  0.00000000000E+00 0. -1.
         21   -1    0    0  501  502 -0.00000000000E+00 -0.00000000000E+00 -0.11199071807E+04  0.11199071807E+04  0.00000000000E+00 0.  1.
         25    1    1    2    0    0 -0.24179332207E+03  0.36398484301E+03 -0.44607948120E+02  0.45668790828E+03  0.12500000000E+03 0.  0.
         25    1    1    2    0    0  0.24179332207E+03 -0.36398484301E+03 -0.80984832996E+03  0.92867017508E+03  0.12500000000E+03 0.  0.
</event>
<event>
 4    0  0.2193754E-002  0.2035159E+03  0.7546771E-02  0.1146806E+00
         21   -1    0    0  502  501  0.00000000000E+00  0.00000000000E+00  0.12040307463E+03  0.12040307463E+03  0.00000000000E+00 0. -1.
         21   -1    0    0  501  502 -0.00000000000E+00 -0.00000000000E+00 -0.34400042278E+03  0.34400042278E+03  0.00000000000E+00 0. -1.
         25    1    1    2    0    0 -0.13309298225E+02  0.13939994034E+03 -0.22074401038E+02  0.18900201049E+03  0.12500000000E+03 0.  0.
         25    1    1    2    0    0  0.13309298225E+02 -0.13939994034E+03 -0.20152294711E+03  0.27540148692E+03  0.12500000000E+03 0.  0.
</event>
<event>
 4    0  0.2193754E-002  0.2001358E+03  0.7546771E-02  0.1149625E+00
         21   -1    0    0  502  501  0.00000000000E+00  0.00000000000E+00  0.92251569776E+02  0.92251569776E+02  0.00000000000E+00 0. -1.
         21   -1    0    0  501  502 -0.00000000000E+00 -0.00000000000E+00 -0.43418587586E+03  0.43418587586E+03  0.00000000000E+00 0.  1.
         25    1    1    2    0    0 -0.50558088219E+02  0.10178817427E+03 -0.31208259179E+03  0.35487673466E+03  0.12500000000E+03 0.  0.
         25    1    1    2    0    0  0.50558088219E+02 -0.10178817427E+03 -0.29851714297E+02  0.17156071098E+03  0.12500000000E+03 0.  0.
</event>
<event>
 4    0  0.2193754E-002  0.2854683E+03  0.7546771E-02  0.1092739E+00
         21   -1    0    0  502  501  0.00000000000E+00  0.00000000000E+00  0.12125928023E+03  0.12125928023E+03  0.00000000000E+00 0.  1.
         21   -1    0    0  501  502 -0.00000000000E+00 -0.00000000000E+00 -0.67204860016E+03  0.67204860016E+03  0.00000000000E+00 0.  1.
         25    1    1    2    0    0 -0.31784495065E+02 -0.23905857906E+03 -0.39738379821E+03  0.48135033128E+03  0.12500000000E+03 0.  0.
         25    1    1    2    0    0  0.31784495065E+02  0.23905857906E+03 -0.15340552173E+03  0.31195754911E+03  0.12500000000E+03 0.  0.
</event>
<event>
 4    0  0.2193754E-002  0.3370902E+03  0.7546771E-02  0.1068042E+00
         21   -1    0    0  502  501  0.00000000000E+00  0.00000000000E+00  0.62354442845E+03  0.62354442845E+03  0.00000000000E+00 0.  1.
         21   -1    0    0  501  502 -0.00000000000E+00 -0.00000000000E+00 -0.18223205059E+03  0.18223205059E+03  0.00000000000E+00 0.  1.
         25    1    1    2    0    0 -0.23516042727E+03  0.50810916760E+02  0.46006110463E+03  0.53400692487E+03  0.12500000000E+03 0.  0.
         25    1    1    2    0    0  0.23516042727E+03 -0.50810916760E+02 -0.18748726775E+02  0.27176955417E+03  0.12500000000E+03 0.  0.
</event>
<event>
 4    0  0.2193754E-002  0.1546737E+03  0.7546771E-02  0.1194845E+00
         21   -1    0    0  502  501  0.00000000000E+00  0.00000000000E+00  0.29617756388E+02  0.29617756388E+02  0.00000000000E+00 0. -1.
         21   -1    0    0  501  502 -0.00000000000E+00 -0.00000000000E+00 -0.80775694572E+03  0.80775694572E+03  0.00000000000E+00 0. -1.
         25    1    1    2    0    0  0.31127618997E+02  0.27995051351E+02 -0.17005590581E+03  0.21516659282E+03  0.12500000000E+03 0.  0.
         25    1    1    2    0    0 -0.31127618997E+02 -0.27995051351E+02 -0.60808328353E+03  0.62220810929E+03  0.12500000000E+03 0.  0.
</event>
<event>
 4    0  0.2193754E-002  0.4092417E+03  0.7546771E-02  0.1040626E+00
         21   -1    0    0  502  501  0.00000000000E+00  0.00000000000E+00  0.20616426818E+03  0.20616426818E+03  0.00000000000E+00 0. -1.
         21   -1    0    0  501  502 -0.00000000000E+00 -0.00000000000E+00 -0.81235597882E+03  0.81235597882E+03  0.00000000000E+00 0. -1.
         25    1    1    2    0    0 -0.29467646129E+03 -0.17917693637E+03 -0.77330172126E+02  0.37489138012E+03  0.12500000000E+03 0.  0.
         25    1    1    2    0    0  0.29467646129E+03  0.17917693637E+03 -0.52886153852E+03  0.64362886689E+03  0.12500000000E+03 0.  0.
</event>
<event>
 4    0  0.2193754E-002  0.3049389E+03  0.7546771E-02  0.1082797E+00
         21   -1    0    0  502  501  0.00000000000E+00  0.00000000000E+00  0.55420094290E+03  0.55420094290E+03  0.00000000000E+00 0.  1.
         21   -1    0    0  501  502 -0.00000000000E+00 -0.00000000000E+00 -0.16778699375E+03  0.16778699375E+03  0.00000000000E+00 0.  1.
         25    1    1    2    0    0 -0.18269154072E+03  0.12760055110E+03  0.39025096453E+03  0.46645355075E+03  0.12500000000E+03 0.  0.
         25    1    1    2    0    0  0.18269154072E+03 -0.12760055110E+03 -0.38370153802E+01  0.25553438590E+03  0.12500000000E+03 0.  0.
</event>
<event>
 4    0  0.2193754E-002  0.1860880E+03  0.7546771E-02  0.1162038E+00
         21   -1    0    0  502  501  0.00000000000E+00  0.00000000000E+00  0.12685465247E+04  0.12685465247E+04  0.00000000000E+00 0.  1.
         21   -1    0    0  501  502 -0.00000000000E+00 -0.00000000000E+00 -0.27297974734E+02  0.27297974734E+02  0.00000000000E+00 0.  1.
         25    1    1    2    0    0  0.87228237525E+02 -0.10490769247E+03  0.68932812087E+03  0.71373149544E+03  0.12500000000E+03 0.  0.
         25    1    1    2    0    0 -0.87228237525E+02  0.10490769247E+03  0.55192042905E+03  0.58211300395E+03  0.12500000000E+03 0.  0.
</event>
<event>
 4    0  0.2193754E-002  0.2526195E+03  0.7546771E-02  0.1111660E+00
         21   -1    0    0  502  501  0.00000000000E+00  0.00000000000E+00  0.25087407028E+03  0.25087407028E+03  0.00000000000E+00 0. -1.
         21   -1    0    0  501  502 -0.00000000000E+00 -0.00000000000E+00 -0.25437700920E+03  0.25437700920E+03  0.00000000000E+00 0. -1.
         25    1    1    2    0    0 -0.17014089383E+03  0.10800401735E+03 -0.88809889380E+02  0.25322912149E+03  0.12500000000E+03 0.  0.
         25    1    1    2    0    0  0.17014089383E+03 -0.10800401735E+03  0.85306950456E+02  0.25202195800E+03  0.12500000000E+03 0.  0.
</event>
<event>
 4    0  0.2193754E-002  0.1894706E+03  0.7546771E-02  0.1158940E+00
         21   -1    0    0  502  501  0.00000000000E+00  0.00000000000E+00  0.19718217011E+03  0.19718217011E+03  0.00000000000E+00 0.  1.
         21   -1    0    0  501  502 -0.00000000000E+00 -0.00000000000E+00 -0.18206071011E+03  0.18206071011E+03  0.00000000000E+00 0.  1.
         25    1    1    2    0    0  0.69922971839E+02 -0.12179716332E+03  0.31039045439E+02  0.19055758532E+03  0.12500000000E+03 0.  0.
         25    1    1    2    0    0 -0.69922971839E+02  0.12179716332E+03 -0.15917585432E+02  0.18868529489E+03  0.12500000000E+03 0.  0.
</event>
<event>
 4    0  0.2193754E-002  0.2257218E+03  0.7546771E-02  0.1129688E+00
         21   -1    0    0  502  501  0.00000000000E+00  0.00000000000E+00  0.46327042636E+03  0.46327042636E+03  0.00000000000E+00 0. -1.
         21   -1    0    0  501  502 -0.00000000000E+00 -0.00000000000E+00 -0.10997968513E+03  0.10997968513E+03  0.00000000000E+00 0. -1.
         25    1    1    2    0    0 -0.11075633749E+03 -0.58057478136E+02 -0.15260748074E+01  0.17681902037E+03  0.12500000000E+03 0.  0.
         25    1    1    2    0    0  0.11075633749E+03  0.58057478136E+02  0.35481681604E+03  0.39643109112E+03  0.12500000000E+03 0.  0.
</event>
<event>
 4    0  0.2193754E-002  0.1447278E+03  0.7546771E-02  0.1207105E+00
         21   -1    0    0  502  501  0.00000000000E+00  0.00000000000E+00  0.22770888546E+02  0.22770888546E+02  0.00000000000E+00 0.  1.
         21   -1    0    0  501  502 -0.00000000000E+00 -0.00000000000E+00 -0.91986441593E+03  0.91986441593E+03  0.00000000000E+00 0.  1.
         25    1    1    2    0    0 -0.35930437227E+02 -0.50211170247E+02 -0.32204329895E+03  0.35092598127E+03  0.12500000000E+03 0.  0.
         25    1    1    2    0    0  0.35930437227E+02  0.50211170247E+02 -0.57505022843E+03  0.59170932320E+03  0.12500000000E+03 0.  0.
</event>
<event>
 4    0  0.2193754E-002  0.1811299E+03  0.7546771E-02  0.1166714E+00
         21   -1    0    0  502  501  0.00000000000E+00  0.00000000000E+00  0.27512676096E+03  0.27512676096E+03  0.00000000000E+00 0.  1.
         21   -1    0    0  501  502 -0.00000000000E+00 -0.00000000000E+00 -0.11924695699E+03  0.11924695699E+03  0.00000000000E+00 0.  1.
         25    1    1    2    0    0  0.68560292633E+02  0.10044014913E+03  0.24670670285E+02  0.17613170997E+03  0.12500000000E+03 0.  0.
         25    1    1    2    0    0 -0.68560292633E+02 -0.10044014913E+03  0.13120913369E+03  0.21824200798E+03  0.12500000000E+03 0.  0.
</event>
<event>
 4    0  0.2193754E-002  0.2019556E+03  0.7546771E-02  0.1148099E+00
         21   -1    0    0  502  501  0.00000000000E+00  0.00000000000E+00  0.11773372621E+03  0.11773372621E+03  0.00000000000E+00 0.  1.
         21   -1    0    0  501  502 -0.00000000000E+00 -0.00000000000E+00 -0.34642630368E+03  0.34642630368E+03  0.00000000000E+00 0.  1.
         25    1    1    2    0    0  0.33914044541E+02 -0.60808954260E+02  0.49437420315E+02  0.15138345307E+03  0.12500000000E+03 0.  0.
         25    1    1    2    0    0 -0.33914044541E+02  0.60808954260E+02 -0.27812999779E+03  0.31277657681E+03  0.12500000000E+03 0.  0.
</event>
<event>
 4    0  0.2193754E-002  0.2548428E+03  0.7546771E-02  0.1110282E+00
         21   -1    0    0  502  501  0.00000000000E+00  0.00000000000E+00  0.47196055458E+02  0.47196055458E+02  0.00000000000E+00 0.  1.
         21   -1    0    0  501  502 -0.00000000000E+00 -0.00000000000E+00 -0.13760647639E+04  0.13760647639E+04  0.00000000000E+00 0.  1.
         25    1    1    2    0    0 -0.62528368733E+02 -0.19279513888E+03 -0.41095209667E+03  0.47495935429E+03  0.12500000000E+03 0.  0.
         25    1    1    2    0    0  0.62528368733E+02  0.19279513888E+03 -0.91791661175E+03  0.94830146504E+03  0.12500000000E+03 0.  0.
</event>
<event>
 4    0  0.2193754E-002  0.3571442E+03  0.7546771E-02  0.1059720E+00
         21   -1    0    0  502  501  0.00000000000E+00  0.00000000000E+00  0.26657147313E+03  0.26657147313E+03  0.00000000000E+00 0. -1.
         21   -1    0    0  501  502 -0.00000000000E+00 -0.00000000000E+00 -0.47849076406E+03  0.47849076406E+03  0.00000000000E+00 0. -1.
         25    1    1    2    0    0 -0.10940419470E+03 -0.29431455807E+03 -0.22641949964E+03  0.40679371520E+03  0.12500000000E+03 0.  0.
         25    1    1    2    0    0  0.10940419470E+03  0.29431455807E+03  0.14500208707E+02  0.33826852198E+03  0.12500000000E+03 0.  0.
</event>
<event>
 4    0  0.2193754E-002  0.1704147E+03  0.7546771E-02  0.1177416E+00
         21   -1    0    0  502  501  0.00000000000E+00  0.00000000000E+00  0.85188717619E+03  0.85188717619E+03  0.00000000000E+00 0. -1.
         21   -1    0    0  501  502 -0.00000000000E+00 -0.00000000000E+00 -0.34090382352E+02  0.34090382352E+02  0.00000000000E+00 0. -1.
         25    1    1    2    0    0 -0.10225659257E+03  0.21882428170E+02  0.53837493956E+03  0.56250140172E+03  0.12500000000E+03 0.  0.
         25    1    1    2    0    0  0.10225659257E+03 -0.21882428170E+02  0.27942185428E+03  0.32347615683E+03  0.12500000000E+03 0.  0.
</event>
<event>
 4    0  0.2193754E-002  0.1803517E+03  0.7546771E-02  0.1167463E+00
         21   -1    0    0  502  501  0.00000000000E+00  0.00000000000E+00  0.10750048435E+02  0.10750048435E+02  0.00000000000E+00 0. -1.
         21   -1    0    0  501  502 -0.00000000000E+00 -0.00000000000E+00 -0.30257277237E+04  0.30257277237E+04  0.00000000000E+00 0. -1.
         25    1    1    2    0    0 -0.56799060530E+02 -0.19045722130E+01 -0.24918066633E+04  0.24955871469E+04  0.12500000000E+03 0.  0.
         25    1    1    2    0    0  0.56799060530E+02  0.19045722130E+01 -0.52317101201E+03  0.54089062524E+03  0.12500000000E+03 0.  0.
</event>
<event>
 4    0  0.2193754E-002  0.1816103E+03  0.7546771E-02  0.1166254E+00
         21   -1    0    0  502  501  0.00000000000E+00  0.00000000000E+00  0.24919027353E+02  0.24919027353E+02  0.00000000000E+00 0. -1.
         21   -1    0    0  501  502 -0.00000000000E+00 -0.00000000000E+00 -0.13235795774E+04  0.13235795774E+04  0.00000000000E+00 0. -1.
         25    1    1    2    0    0  0.10755673854E+03  0.23638426004E+02 -0.38083635684E+03  0.41567843086E+03  0.12500000000E+03 0.  0.
         25    1    1    2    0    0 -0.10755673854E+03 -0.23638426004E+02 -0.91782419317E+03  0.93282017386E+03  0.12500000000E+03 0.  0.
</event>
<event>
 4    0  0.2193754E-002  0.2094264E+03  0.7546771E-02  0.1142021E+00
         21   -1    0    0  502  501  0.00000000000E+00  0.00000000000E+00  0.43918203282E+03  0.43918203282E+03  0.00000000000E+00 0.  1.
         21   -1    0    0  501  502 -0.00000000000E+00 -0.00000000000E+00 -0.99866103159E+02  0.99866103159E+02  0.00000000000E+00 0.  1.
         25    1    1    2    0    0 -0.14982731783E+03 -0.39773020431E+02  0.86210715033E+02  0.21699632649E+03  0.12500000000E+03 0.  0.
         25    1    1    2    0    0  0.14982731783E+03  0.39773020431E+02  0.25310521463E+03  0.32205180949E+03  0.12500000000E+03 0.  0.
</event>
<event>
 4    0  0.2193754E-002  0.1800524E+03  0.7546771E-02  0.1167752E+00
         21   -1    0    0  502  501  0.00000000000E+00  0.00000000000E+00  0.27920488183E+03  0.27920488183E+03  0.00000000000E+00 0.  1.
         21   -1    0    0  501  502 -0.00000000000E+00 -0.00000000000E+00 -0.11611144082E+03  0.11611144082E+03  0.00000000000E+00 0.  1.
         25    1    1    2    0    0 -0.45559722877E+02 -0.10415757956E+03  0.14983356907E+03  0.22583088395E+03  0.12500000000E+03 0.  0.
         25    1    1    2    0    0  0.45559722877E+02  0.10415757956E+03  0.13259871947E+02  0.16948543870E+03  0.12500000000E+03 0.  0.
</event>
<event>
 4    0  0.2193754E-002  0.3782585E+03  0.7546771E-02  0.1051579E+00
         21   -1    0    0  502  501  0.00000000000E+00  0.00000000000E+00  0.94830426113E+02  0.94830426113E+02  0.00000000000E+00 0. -1.
         21   -1    0    0  501  502 -0.00000000000E+00 -0.00000000000E+00 -0.15087927741E+04  0.15087927741E+04  0.00000000000E+00 0.  1.
         25    1    1    2    0    0  0.26572219921E+03  0.22243918877E+03 -0.88892129758E+03  0.96223362711E+03  0.12500000000E+03 0.  0.
         25    1    1    2    0    0 -0.26572219921E+03 -0.22243918877E+03 -0.52504105037E+03  0.64138957306E+03  0.12500000000E+03 0.  0.
</event>
<event>
 4    0  0.2193754E-002  0.2352490E+03  0.7546771E-02  0.1122999E+00
         21   -1    0    0  502  501  0.00000000000E+00  0.00000000000E+00  0.22098884524E+03  0.22098884524E+03  0.00000000000E+00 0.  1.
         21   -1    0    0  501  502 -0.00000000000E+00 -0.00000000000E+00 -0.25042926355E+03  0.25042926355E+03  0.00000000000E+00 0.  1.
         25    1    1    2    0    0  0.90573810606E+02 -0.15893336137E+03 -0.93954864214E+02  0.24065731868E+03  0.12500000000E+03 0.  0.
         25    1    1    2    0    0 -0.90573810606E+02  0.15893336137E+03  0.64514445912E+02  0.23076079011E+03  0.12500000000E+03 0.  0.
</event>
<event>
 4    0  0.2193754E-002  0.1687377E+03  0.7546771E-02  0.1179171E+00
         21   -1    0    0  502  501  0.00000000000E+00  0.00000000000E+00  0.17097913376E+03  0.17097913376E+03  0.00000000000E+00 0.  1.
         21   -1    0    0  501  502 -0.00000000000E+00 -0.00000000000E+00 -0.16652573126E+03  0.16652573126E+03  0.00000000000E+00 0.  1.
         25    1    1    2    0    0  0.11131523182E+03  0.10267893412E+02  0.20961052499E+02  0.16899963371E+03  0.12500000000E+03 0.  0.
         25    1    1    2    0    0 -0.11131523182E+03 -0.10267893412E+02 -0.16507649997E+02  0.16850523131E+03  0.12500000000E+03 0.  0.
</event>
<event>
 4    0  0.2193754E-002  0.2939420E+03  0.7546771E-02  0.1088309E+00
         21   -1    0    0  502  501  0.00000000000E+00  0.00000000000E+00  0.84341374272E+03  0.84341374272E+03  0.00000000000E+00 0. -1.
         21   -1    0    0  501  502 -0.00000000000E+00 -0.00000000000E+00 -0.10244308332E+03  0.10244308332E+03  0.00000000000E+00 0. -1.
         25    1    1    2    0    0  0.56228933922E+02  0.22090749927E+03  0.14979318395E+03  0.30004135415E+03  0.12500000000E+03 0.  0.
         25    1    1    2    0    0 -0.56228933922E+02 -0.22090749927E+03  0.59117747545E+03  0.64581547188E+03  0.12500000000E+03 0.  0.
</event>
<event>
 4    0  0.2193754E-002  0.1942517E+03  0.7546771E-02  0.1154682E+00
         21   -1    0    0  502  501  0.00000000000E+00  0.00000000000E+00  0.30908707036E+03  0.30908707036E+03  0.00000000000E+00 0.  1.
         21   -1    0    0  501  502 -0.00000000000E+00 -0.00000000000E+00 -0.12208114786E+03  0.12208114786E+03  0.00000000000E+00 0.  1.
         25    1    1    2    0    0 -0.41152227287E+02  0.91854824964E+02  0.21496545080E+03  0.26826471948E+03  0.12500000000E+03 0.  0.
         25    1    1    2    0    0  0.41152227287E+02 -0.91854824964E+02 -0.27959528304E+02  0.16290349874E+03  0.12500000000E+03 0.  0.
</event>
<event>
 4    0  0.2193754E-002  0.1900362E+03  0.7546771E-02  0.1158429E+00
         21   -1    0    0  502  501  0.00000000000E+00  0.00000000000E+00  0.25766677925E+03  0.25766677925E+03  0.00000000000E+00 0.  1.
         21   -1    0    0  501  502 -0.00000000000E+00 -0.00000000000E+00 -0.14015683112E+03  0.14015683112E+03  0.00000000000E+00 0.  1.
         25    1    1    2    0    0 -0.11867204314E+03 -0.79375458243E+02  0.48017085277E+02  0.19574002573E+03  0.12500000000E+03 0.  0.
         25    1    1    2    0    0  0.11867204314E+03  0.79375458243E+02  0.69492862854E+02  0.20208358464E+03  0.12500000000E+03 0.  0.
</event>
<event>
 4    0  0.2193754E-002  0.2439470E+03  0.7546771E-02  0.1117191E+00
         21   -1    0    0  502  501  0.00000000000E+00  0.00000000000E+00  0.14429571448E+04  0.14429571448E+04  0.00000000000E+00 0. -1.
         21   -1    0    0  501  502 -0.00000000000E+00 -0.00000000000E+00 -0.41241776653E+02  0.41241776653E+02  0.00000000000E+00 0. -1.
         25    1    1    2    0    0  0.85728241464E+02 -0.33556071208E+02  0.12732954790E+04  0.12827243344E+04  0.12500000000E+03 0.  0.
         25    1    1    2    0    0 -0.85728241464E+02  0.33556071208E+02  0.12841988923E+03  0.20147458711E+03  0.12500000000E+03 0.  0.
</event>
<event>
 4    0  0.2193754E-002  0.2283716E+03  0.7546771E-02  0.1127791E+00
         21   -1    0    0  502  501  0.00000000000E+00  0.00000000000E+00  0.29191194607E+02  0.29191194607E+02  0.00000000000E+00 0. -1.
         21   -1    0    0  501  502 -0.00000000000E+00 -0.00000000000E+00 -0.17866198277E+04  0.17866198277E+04  0.00000000000E+00 0. -1.
         25    1    1    2    0    0 -0.11957856588E+03  0.11979926457E+03 -0.12315703371E+04  0.12494164207E+04  0.12500000000E+03 0.  0.
         25    1    1    2    0    0  0.11957856588E+03 -0.11979926457E+03 -0.52585829597E+03  0.56639460154E+03  0.12500000000E+03 0.  0.
</event>
<event>
 4    0  0.2193754E-002  0.1969313E+03  0.7546771E-02  0.1152354E+00
         21   -1    0    0  502  501  0.00000000000E+00  0.00000000000E+00  0.47377175932E+03  0.47377175932E+03  0.00000000000E+00 0.  1.
         21   -1    0    0  501  502 -0.00000000000E+00 -0.00000000000E+00 -0.81857822196E+02  0.81857822196E+02  0.00000000000E+00 0.  1.
         25    1    1    2    0    0 -0.26204957049E+02  0.10172645032E+03  0.40637104777E+02  0.16825975381E+03  0.12500000000E+03 0.  0.
         25    1    1    2    0    0  0.26204957049E+02 -0.10172645032E+03  0.35127683235E+03  0.38736982770E+03  0.12500000000E+03 0.  0.
</event>
<event>
 4    0  0.2193754E-002  0.1900812E+03  0.7546771E-02  0.1158388E+00
         21   -1    0    0  502  501  0.00000000000E+00  0.00000000000E+00  0.49149507605E+03  0.49149507605E+03  0.00000000000E+00 0.  1.
         21   -1    0    0  501  502 -0.00000000000E+00 -0.00000000000E+00 -0.73512129546E+02  0.73512129546E+02  0.00000000000E+00 0.  1.
         25    1    1    2    0    0  0.69205654202E+02  0.24103034038E+00  0.39531213249E+03  0.42034053190E+03  0.12500000000E+03 0.  0.
         25    1    1    2    0    0 -0.69205654202E+02 -0.24103034038E+00  0.22670814017E+02  0.14466667369E+03  0.12500000000E+03 0.  0.
</event>
<event>
 4    0  0.2193754E-002  0.2630099E+03  0.7546771E-02  0.1105348E+00
         21   -1    0    0  502  501  0.00000000000E+00  0.00000000000E+00  0.70352994279E+02  0.70352994279E+02  0.00000000000E+00 0.  1.
         21   -1    0    0  501  502 -0.00000000000E+00 -0.00000000000E+00 -0.98324491061E+03  0.98324491061E+03  0.00000000000E+00 0.  1.
         25    1    1    2    0    0  0.38026370939E+01 -0.12053433698E+03 -0.60860986438E+02  0.18404359840E+03  0.12500000000E+03 0.  0.
         25    1    1    2    0    0 -0.38026370939E+01  0.12053433698E+03 -0.85203092989E+03  0.86955430649E+03  0.12500000000E+03 0.  0.
</event>
<event>
 4    0  0.2193754E-002  0.1932137E+03  0.7546771E-02  0.1155594E+00
         21   -1    0    0  502  501  0.00000000000E+00  0.00000000000E+00  0.25682014239E+03  0.25682014239E+03  0.00000000000E+00 0. -1.
         21   -1    0    0  501  502 -0.00000000000E+00 -0.00000000000E+00 -0.14536057792E+03  0.14536057792E+03  0.00000000000E+00 0. -1.
         25    1    1    2    0    0 -0.10404628175E+03  0.73622952690E+02  0.13263783918E+03  0.22240450601E+03  0.12500000000E+03 0.  0.
         25    1    1    2    0    0  0.10404628175E+03 -0.73622952690E+02 -0.21178274710E+02  0.17977621430E+03  0.12500000000E+03 0.  0.
</event>
<event>
 4    0  0.2193754E-002  0.2459502E+03  0.7546771E-02  0.1115891E+00
         21   -1    0    0  502  501  0.00000000000E+00  0.00000000000E+00  0.45374082781E+03  0.45374082781E+03  0.00000000000E+00 0. -1.
         21   -1    0    0  501  502 -0.00000000000E+00 -0.00000000000E+00 -0.13331726086E+03  0.13331726086E+03  0.00000000000E+00 0. -1.
         25    1    1    2    0    0 -0.77677292326E+02 -0.13445700045E+03 -0.11719640290E+02  0.19968674638E+03  0.12500000000E+03 0.  0.
         25    1    1    2    0    0  0.77677292326E+02  0.13445700045E+03  0.33214320723E+03  0.38737134229E+03  0.12500000000E+03 0.  0.
</event>
<event>
 4    0  0.2193754E-002  0.2487453E+03  0.7546771E-02  0.1114100E+00
         21   -1    0    0  502  501  0.00000000000E+00  0.00000000000E+00  0.22588510808E+03  0.22588510808E+03  0.00000000000E+00 0.  1.
         21   -1    0    0  501  502 -0.00000000000E+00 -0.00000000000E+00 -0.27391910934E+03  0.27391910934E+03  0.00000000000E+00 0.  1.
         25    1    1    2    0    0  0.16541186336E+03 -0.10580850046E+03 -0.11213305443E+03  0.25837055794E+03  0.12500000000E+03 0.  0.
         25    1    1    2    0    0 -0.16541186336E+03  0.10580850046E+03  0.64099053175E+02  0.24143365948E+03  0.12500000000E+03 0.  0.
</event>
<event>
 4    0  0.2193754E-002  0.2453328E+03  0.7546771E-02  0.1116290E+00
         21   -1    0    0  502  501  0.00000000000E+00  0.00000000000E+00  0.11097570861E+04  0.11097570861E+04  0.00000000000E+00 0. -1.
         21   -1    0    0  501  502 -0.00000000000E+00 -0.00000000000E+00 -0.54235452939E+02  0.54235452939E+02  0.00000000000E+00 0. -1.
         25    1    1    2    0    0  0.29624984135E+02  0.16677344469E+03  0.82663098798E+03  0.85301512990E+03  0.12500000000E+03 0.  0.
         25    1    1    2    0    0 -0.29624984135E+02 -0.16677344469E+03  0.22889064513E+03  0.31097740910E+03  0.12500000000E+03 0.  0.
</event>
<event>
 4    0  0.2193754E-002  0.1862190E+03  0.7546771E-02  0.1161916E+00
         21   -1    0    0  502  501  0.00000000000E+00  0.00000000000E+00  0.56230103805E+02  0.56230103805E+02  0.00000000000E+00 0. -1.
         21   -1    0    0  501  502 -0.00000000000E+00 -0.00000000000E+00 -0.61670729390E+03  0.61670729390E+03  0.00000000000E+00 0. -1.
         25    1    1    2    0    0  0.99406074448E+02 -0.12609721575E+02 -0.10871262340E+03  0.19360786968E+03  0.12500000000E+03 0.  0.
         25    1    1    2    0    0 -0.99406074448E+02  0.12609721575E+02 -0.45176456670E+03  0.47932952803E+03  0.12500000000E+03 0.  0.
</event>
<event>
 4    0  0.2193754E-002  0.2411563E+03  0.7546771E-02  0.1119025E+00
         21   -1    0    0  502  501  0.00000000000E+00  0.00000000000E+00  0.60474740839E+03  0.60474740839E+03  0.00000000000E+00 0.  1.
         21   -1    0    0  501  502 -0.00000000000E+00 -0.00000000000E+00 -0.96166358573E+02  0.96166358573E+02  0.00000000000E+00 0.  1.
         25    1    1    2    0    0  0.13389964497E+03  0.96091594066E+02  0.74132415732E+02  0.21973466826E+03  0.12500000000E+03 0.  0.
         25    1    1    2    0    0 -0.13389964497E+03 -0.96091594066E+02  0.43444863409E+03  0.48117909871E+03  0.12500000000E+03 0.  0.
</event>
<event>
 4    0  0.2193754E-002  0.1915204E+03  0.7546771E-02  0.1157097E+00
         21   -1    0    0  502  501  0.00000000000E+00  0.00000000000E+00  0.57413991849E+02  0.57413991849E+02  0.00000000000E+00 0. -1.
         21   -1    0    0  501  502 -0.00000000000E+00 -0.00000000000E+00 -0.63886975693E+03  0.63886975693E+03  0.00000000000E+00 0. -1.
         25    1    1    2    0    0 -0.32864710438E+02 -0.90428252535E+02 -0.93285677624E+02  0.18326094974E+03  0.12500000000E+03 0.  0.
         25    1    1    2    0    0  0.32864710438E+02  0.90428252535E+02 -0.48817008746E+03  0.51302279904E+03  0.12500000000E+03 0.  0.
</event>
<event>
 4    0  0.2193754E-002  0.1826341E+03  0.7546771E-02  0.1165278E+00
         21   -1    0    0  502  501  0.00000000000E+00  0.00000000000E+00  0.72576863675E+03  0.72576863675E+03  0.00000000000E+00 0. -1.
         21   -1    0    0  501  502 -0.00000000000E+00 -0.00000000000E+00 -0.45958475332E+02  0.45958475332E+02  0.00000000000E+00 0. -1.
         25    1    1    2    0    0  0.10991601278E+03  0.55249381268E+02  0.44755670707E+03  0.48069328062E+03  0.12500000000E+03 0.  0.
         25    1    1    2    0    0 -0.10991601278E+03 -0.55249381268E+02  0.23225345435E+03  0.29103383146E+03  0.12500000000E+03 0.  0.
</event>
<event>
 4    0  0.2193754E-002  0.1849388E+03  0.7546771E-02  0.1163107E+00
         21   -1    0    0  502  501  0.00000000000E+00  0.00000000000E+00  0.26512601982E+03  0.26512601982E+03  0.00000000000E+00 0. -1.
         21   -1    0    0  501  502 -0.00000000000E+00 -0.00000000000E+00 -0.12900415146E+03  0.12900415146E+03  0.00000000000E+00 0. -1.
         25    1    1    2    0    0  0.12833043072E+03  0.38643089833E+02  0.94494125931E+02  0.20619439293E+03  0.12500000000E+03 0.  0.
         25    1    1    2    0    0 -0.12833043072E+03 -0.38643089833E+02  0.41627742429E+02  0.18793577834E+03  0.12500000000E+03 0.  0.
</event>
<event>
 4    0  0.2193754E-002  0.2017445E+03  0.7546771E-02  0.1148275E+00
         21   -1    0    0  502  501  0.00000000000E+00  0.00000000000E+00  0.12043715729E+03  0.12043715729E+03  0.00000000000E+00 0.  1.
         21   -1    0    0  501  502 -0.00000000000E+00 -0.00000000000E+00 -0.33794262751E+03  0.33794262751E+03  0.00000000000E+00 0.  1.
         25    1    1    2    0    0 -0.10170416916E+02  0.15796811323E+03 -0.10386813099E+03  0.22687210233E+03  0.12500000000E+03 0.  0.
         25    1    1    2    0    0  0.10170416916E+02 -0.15796811323E+03 -0.11363733922E+03  0.23150768247E+03  0.12500000000E+03 0.  0.
</event>
<event>
 4    0  0.2193754E-002  0.2963184E+03  0.7546771E-02  0.1087096E+00
         21   -1    0    0  502  501  0.00000000000E+00  0.00000000000E+00  0.11000172434E+03  0.11000172434E+03  0.00000000000E+00 0.  1.
         21   -1    0    0  501  502 -0.00000000000E+00 -0.00000000000E+00 -0.79821098233E+03  0.79821098233E+03  0.00000000000E+00 0.  1.
         25    1    1    2    0    0  0.20180516115E+03  0.16666985022E+03 -0.25119673595E+03  0.38370426397E+03  0.12500000000E+03 0.  0.
         25    1    1    2    0    0 -0.20180516115E+03 -0.16666985022E+03 -0.43701252204E+03  0.52450844269E+03  0.12500000000E+03 0.  0.
</event>
<event>
 4    0  0.2193754E-002  0.2518400E+03  0.7546771E-02  0.1112148E+00
         21   -1    0    0  502  501  0.00000000000E+00  0.00000000000E+00  0.88191377401E+03  0.88191377401E+03  0.00000000000E+00 0. -1.
         21   -1    0    0  501  502 -0.00000000000E+00 -0.00000000000E+00 -0.71915606001E+02  0.71915606001E+02  0.00000000000E+00 0. -1.
         25    1    1    2    0    0 -0.17276237876E+03  0.12788936224E+03  0.48064928024E+03  0.54115733302E+03  0.12500000000E+03 0.  0.
         25    1    1    2    0    0  0.17276237876E+03 -0.12788936224E+03  0.32934888777E+03  0.41267204699E+03  0.12500000000E+03 0.  0.
</event>
<event>
 4    0  0.2193754E-002  0.1912705E+03  0.7546771E-02  0.1157320E+00
         21   -1    0    0  502  501  0.00000000000E+00  0.00000000000E+00  0.16963407782E+03  0.16963407782E+03  0.00000000000E+00 0. -1.
         21   -1    0    0  501  502 -0.00000000000E+00 -0.00000000000E+00 -0.21566653734E+03  0.21566653734E+03  0.00000000000E+00 0. -1.
         25    1    1    2    0    0 -0.12318442353E+03  0.48126163622E+02  0.36305722018E+02  0.18556302239E+03  0.12500000000E+03 0.  0.
         25    1    1    2    0    0  0.12318442353E+03 -0.48126163622E+02 -0.82338181535E+02  0.19973759277E+03  0.12500000000E+03 0.  0.
</event>
<event>
 4    0  0.2193754E-002  0.3170074E+03  0.7546771E-02  0.1077035E+00
         21   -1    0    0  502  501  0.00000000000E+00  0.00000000000E+00  0.81778248952E+02  0.81778248952E+02  0.00000000000E+00 0.  1.
         21   -1    0    0  501  502 -0.00000000000E+00 -0.00000000000E+00 -0.12288557335E+04  0.12288557335E+04  0.00000000000E+00 0.  1.
         25    1    1    2    0    0 -0.11149526461E+03 -0.22047968478E+03 -0.89262590084E+03  0.93458465870E+03  0.12500000000E+03 0.  0.
         25    1    1    2    0    0  0.11149526461E+03  0.22047968478E+03 -0.25445158366E+03  0.37604932371E+03  0.12500000000E+03 0.  0.
</event>
<event>
 4    0  0.2193754E-002  0.1918837E+03  0.7546771E-02  0.1156773E+00
         21   -1    0    0  502  501  0.00000000000E+00  0.00000000000E+00  0.93554129311E+02  0.93554129311E+02  0.00000000000E+00 0.  1.
         21   -1    0    0  501  502 -0.00000000000E+00 -0.00000000000E+00 -0.39356184217E+03  0.39356184217E+03  0.00000000000E+00 0.  1.
         25    1    1    2    0    0 -0.19121036397E+02  0.68063900949E+02 -0.31153960348E+03  0.34304552640E+03  0.12500000000E+03 0.  0.
         25    1    1    2    0    0  0.19121036397E+02 -0.68063900949E+02  0.11531890621E+02  0.14407044508E+03  0.12500000000E+03 0.  0.
</event>
<event>
 4    0  0.2193754E-002  0.2032038E+03  0.7546771E-02  0.1147064E+00
         21   -1    0    0  502  501  0.00000000000E+00  0.00000000000E+00  0.11738257548E+03  0.11738257548E+03  0.00000000000E+00 0.  1.
         21   -1    0    0  501  502 -0.00000000000E+00 -0.00000000000E+00 -0.35177093860E+03  0.35177093860E+03  0.00000000000E+00 0.  1.
         25    1    1    2    0    0 -0.10929774796E+02  0.73883518393E+02  0.46422438810E+02  0.15283414897E+03  0.12500000000E+03 0.  0.
         25    1    1    2    0    0  0.10929774796E+02 -0.73883518393E+02 -0.28081080193E+03  0.31631936512E+03  0.12500000000E+03 0.  0.
</event>
<event>
 4    0  0.2193754E-002  0.1851767E+03  0.7546771E-02  0.1162885E+00
         21   -1    0    0  502  501  0.00000000000E+00  0.00000000000E+00  0.87154747669E+03  0.87154747669E+03  0.00000000000E+00 0. -1.
         21   -1    0    0  501  502 -0.00000000000E+00 -0.00000000000E+00 -0.39344267053E+02  0.39344267053E+02  0.00000000000E+00 0. -1.
         25    1    1    2    0    0  0.79108407757E+02  0.65523655243E+02  0.63764843002E+03  0.65785409468E+03  0.12500000000E+03 0.  0.
         25    1    1    2    0    0 -0.79108407757E+02 -0.65523655243E+02  0.19455477962E+03  0.25303764907E+03  0.12500000000E+03 0.  0.
</event>
<event>
 4    0  0.2193754E-002  0.2402624E+03  0.7546771E-02  0.1119618E+00
         21   -1    0    0  502  501  0.00000000000E+00  0.00000000000E+00  0.68767479954E+02  0.68767479954E+02  0.00000000000E+00 0.  1.
         21   -1    0    0  501  502 -0.00000000000E+00 -0.00000000000E+00 -0.83943755826E+03  0.83943755826E+03  0.00000000000E+00 0.  1.
         25    1    1    2    0    0  0.28898824572E+02  0.84181708968E+02 -0.35913428797E+02  0.15759592810E+03  0.12500000000E+03 0.  0.
         25    1    1    2    0    0 -0.28898824572E+02 -0.84181708968E+02 -0.73475664951E+03  0.75060911012E+03  0.12500000000E+03 0.  0.
</event>
<event>
 4    0  0.2193754E-002  0.2233115E+03  0.7546771E-02  0.1131438E+00
         21   -1    0    0  502  501  0.00000000000E+00  0.00000000000E+00  0.25647678744E+03  0.25647678744E+03  0.00000000000E+00 0. -1.
         21   -1    0    0  501  502 -0.00000000000E+00 -0.00000000000E+00 -0.19443478541E+03  0.19443478541E+03  0.00000000000E+00 0. -1.
         25    1    1    2    0    0  0.81960964316E+02  0.76698295320E+02 -0.11750650988E+03  0.20501953088E+03  0.12500000000E+03 0.  0.
         25    1    1    2    0    0 -0.81960964316E+02 -0.76698295320E+02  0.17954851191E+03  0.24589204197E+03  0.12500000000E+03 0.  0.
</event>
<event>
 4    0  0.2193754E-002  0.3176567E+03  0.7546771E-02  0.1076733E+00
         21   -1    0    0  502  501  0.00000000000E+00  0.00000000000E+00  0.24871626388E+03  0.24871626388E+03  0.00000000000E+00 0.  1.
         21   -1    0    0  501  502 -0.00000000000E+00 -0.00000000000E+00 -0.40570632500E+03  0.40570632500E+03  0.00000000000E+00 0.  1.
         25    1    1    2    0    0 -0.44330779100E+02  0.15170069458E+03  0.17445675902E+03  0.26653044756E+03  0.12500000000E+03 0.  0.
         25    1    1    2    0    0  0.44330779100E+02 -0.15170069458E+03 -0.33144682014E+03  0.38789214132E+03  0.12500000000E+03 0.  0.
</event>
<event>
 4    0  0.2193754E-002  0.1676970E+03  0.7546771E-02  0.1180271E+00
         21   -1    0    0  502  501  0.00000000000E+00  0.00000000000E+00  0.18742817326E+03  0.18742817326E+03  0.00000000000E+00 0.  1.
         21   -1    0    0  501  502 -0.00000000000E+00 -0.00000000000E+00 -0.15004298896E+03  0.15004298896E+03  0.00000000000E+00 0.  1.
         25    1    1    2    0    0 -0.48349224193E+01 -0.28638834271E+02  0.12731357957E+03  0.18076865560E+03  0.12500000000E+03 0.  0.
         25    1    1    2    0    0  0.48349224193E+01  0.28638834271E+02 -0.89928395273E+02  0.15670250662E+03  0.12500000000E+03 0.  0.
</event>
<event>
 4    0  0.2193754E-002  0.2252364E+03  0.7546771E-02  0.1130038E+00
         21   -1    0    0  502  501  0.00000000000E+00  0.00000000000E+00  0.51055249397E+03  0.51055249397E+03  0.00000000000E+00 0. -1.
         21   -1    0    0  501  502 -0.00000000000E+00 -0.00000000000E+00 -0.99365794281E+02  0.99365794281E+02  0.00000000000E+00 0. -1.
         25    1    1    2    0    0 -0.92025479604E+02  0.92406631376E+02  0.23443989110E+02  0.18216008082E+03  0.12500000000E+03 0.  0.
         25    1    1    2    0    0  0.92025479604E+02 -0.92406631376E+02  0.38774271058E+03  0.42775820744E+03  0.12500000000E+03 0.  0.
</event>
<event>
 4    0  0.2193754E-002  0.2492600E+03  0.7546771E-02  0.1113773E+00
         21   -1    0    0  502  501  0.00000000000E+00  0.00000000000E+00  0.27843298146E+02  0.27843298146E+02  0.00000000000E+00 0. -1.
         21   -1    0    0  501  502 -0.00000000000E+00 -0.00000000000E+00 -0.22314365543E+04  0.22314365543E+04  0.00000000000E+00 0. -1.
         25    1    1    2    0    0 -0.45420982245E+02 -0.13020544235E+03 -0.35040364639E+03  0.39676723435E+03  0.12500000000E+03 0.  0.
         25    1    1    2    0    0  0.45420982245E+02  0.13020544235E+03 -0.18531896097E+04  0.18625126181E+04  0.12500000000E+03 0.  0.
</event>
<event>
 4    0  0.2193754E-002  0.2310349E+03  0.7546771E-02  0.1125913E+00
         21   -1    0    0  502  501  0.00000000000E+00  0.00000000000E+00  0.43341367666E+03  0.43341367666E+03  0.00000000000E+00 0. -1.
         21   -1    0    0  501  502 -0.00000000000E+00 -0.00000000000E+00 -0.12315515980E+03  0.12315515980E+03  0.00000000000E+00 0. -1.
         25    1    1    2    0    0  0.78915572731E+02 -0.15176848123E+03  0.44138873950E+02  0.21641298415E+03  0.12500000000E+03 0.  0.
         25    1    1    2    0    0 -0.78915572731E+02  0.15176848123E+03  0.26611964291E+03  0.34015585231E+03  0.12500000000E+03 0.  0.
</event>
<event>
 4    0  0.2193754E-002  0.2339481E+03  0.7546771E-02  0.1123891E+00
         21   -1    0    0  502  501  0.00000000000E+00  0.00000000000E+00  0.48289594546E+03  0.48289594546E+03  0.00000000000E+00 0.  1.
         21   -1    0    0  501  502 -0.00000000000E+00 -0.00000000000E+00 -0.11334061044E+03  0.11334061044E+03  0.00000000000E+00 0.  1.
         25    1    1    2    0    0  0.10727546030E+03 -0.19714064090E+02 -0.25422830613E+02  0.16783321787E+03  0.12500000000E+03 0.  0.
         25    1    1    2    0    0 -0.10727546030E+03  0.19714064090E+02  0.39497816564E+03  0.42840333803E+03  0.12500000000E+03 0.  0.
</event>
<event>
 4    0  0.2193754E-002  0.4021645E+03  0.7546771E-02  0.1043033E+00
         21   -1    0    0  502  501  0.00000000000E+00  0.00000000000E+00  0.94429870182E+03  0.94429870182E+03  0.00000000000E+00 0. -1.
         21   -1    0    0  501  502 -0.00000000000E+00 -0.00000000000E+00 -0.17127665277E+03  0.17127665277E+03  0.00000000000E+00 0. -1.
         25    1    1    2    0    0  0.91775489297E+02 -0.16858182318E+03  0.84498334591E+03  0.87547954083E+03  0.12500000000E+03 0.  0.
         25    1    1    2    0    0 -0.91775489297E+02  0.16858182318E+03 -0.71961296862E+02  0.24009581377E+03  0.12500000000E+03 0.  0.
</event>
<event>
 4    0  0.2193754E-002  0.2423581E+03  0.7546771E-02  0.1118232E+00
         21   -1    0    0  502  501  0.00000000000E+00  0.00000000000E+00  0.80147501679E+03  0.80147501679E+03  0.00000000000E+00 0. -1.
         21   -1    0    0  501  502 -0.00000000000E+00 -0.00000000000E+00 -0.73286670793E+02  0.73286670793E+02  0.00000000000E+00 0. -1.
         25    1    1    2    0    0  0.14068639379E+03  0.15267472131E+03  0.36985895382E+03  0.44217968932E+03  0.12500000000E+03 0.  0.
         25    1    1    2    0    0 -0.14068639379E+03 -0.15267472131E+03  0.35832939218E+03  0.43258199827E+03  0.12500000000E+03 0.  0.
</event>
<event>
 4    0  0.2193754E-002  0.2267903E+03  0.7546771E-02  0.1128920E+00
         21   -1    0    0  502  501  0.00000000000E+00  0.00000000000E+00  0.12549042982E+03  0.12549042982E+03  0.00000000000E+00 0.  1.
         21   -1    0    0  501  502 -0.00000000000E+00 -0.00000000000E+00 -0.40986250998E+03  0.40986250998E+03  0.00000000000E+00 0.  1.
         25    1    1    2    0    0  0.75431200440E+02 -0.24793513114E+02 -0.34492069788E+03  0.37536631724E+03  0.12500000000E+03 0.  0.
         25    1    1    2    0    0 -0.75431200440E+02  0.24793513114E+02  0.60548617712E+02  0.15998662256E+03  0.12500000000E+03 0.  0.
</event>
<event>
 4    0  0.2193754E-002  0.2593022E+03  0.7546771E-02  0.1107563E+00
         21   -1    0    0  502  501  0.00000000000E+00  0.00000000000E+00  0.31112439829E+03  0.31112439829E+03  0.00000000000E+00 0. -1.
         21   -1    0    0  501  502 -0.00000000000E+00 -0.00000000000E+00 -0.21611172679E+03  0.21611172679E+03  0.00000000000E+00 0. -1.
         25    1    1    2    0    0  0.13377788672E+03 -0.10838370544E+03 -0.10318035702E+03  0.23646297100E+03  0.12500000000E+03 0.  0.
         25    1    1    2    0    0 -0.13377788672E+03  0.10838370544E+03  0.19819302852E+03  0.29077315408E+03  0.12500000000E+03 0.  0.
</event>
<event>
 4    0  0.2193754E-002  0.1980248E+03  0.7546771E-02  0.1151416E+00
         21   -1    0    0  502  501  0.00000000000E+00  0.00000000000E+00  0.52689298217E+02  0.52689298217E+02  0.00000000000E+00 0. -1.
         21   -1    0    0  501  502 -0.00000000000E+00 -0.00000000000E+00 -0.74424608506E+03  0.74424608506E+03  0.00000000000E+00 0. -1.
         25    1    1    2    0    0 -0.95495109461E+02 -0.82779639670E+02 -0.52139523166E+03  0.55086275267E+03  0.12500000000E+03 0.  0.
         25    1    1    2    0    0  0.95495109461E+02  0.82779639670E+02 -0.17016155518E+03  0.24607263061E+03  0.12500000000E+03 0.  0.
</event>
<event>
 4    0  0.2193754E-002  0.1321523E+03  0.7546771E-02  0.1224297E+00
         21   -1    0    0  502  501  0.00000000000E+00  0.00000000000E+00  0.11724494297E+03  0.11724494297E+03  0.00000000000E+00 0.  1.
         21   -1    0    0  501  502 -0.00000000000E+00 -0.00000000000E+00 -0.14895504109E+03  0.14895504109E+03  0.00000000000E+00 0.  1.
         25    1    1    2    0    0 -0.31401770532E+02  0.23308286439E+02 -0.33584637747E+02  0.13521196434E+03  0.12500000000E+03 0.  0.
         25    1    1    2    0    0  0.31401770532E+02 -0.23308286439E+02  0.18745396260E+01  0.13098801971E+03  0.12500000000E+03 0.  0.
</event>
<event>
 4    0  0.2193754E-002  0.1800222E+03  0.7546771E-02  0.1167782E+00
         21   -1    0    0  502  501  0.00000000000E+00  0.00000000000E+00  0.32579749528E+03  0.32579749528E+03  0.00000000000E+00 0. -1.
         21   -1    0    0  501  502 -0.00000000000E+00 -0.00000000000E+00 -0.99472842397E+02  0.99472842397E+02  0.00000000000E+00 0. -1.
         25    1    1    2    0    0 -0.12349401587E+03  0.27983584111E+01  0.15927905072E+03  0.23717803179E+03  0.12500000000E+03 0.  0.
         25    1    1    2    0    0  0.12349401587E+03 -0.27983584111E+01  0.67045602156E+02  0.18809230588E+03  0.12500000000E+03 0.  0.
</event>
<event>
 4    0  0.2193754E-002  0.2205202E+03  0.7546771E-02  0.1133496E+00
         21   -1    0    0  502  501  0.00000000000E+00  0.00000000000E+00  0.75432298324E+02  0.75432298324E+02  0.00000000000E+00 0.  1.
         21   -1    0    0  501  502 -0.00000000000E+00 -0.00000000000E+00 -0.64467302495E+03  0.64467302495E+03  0.00000000000E+00 0.  1.
         25    1    1    2    0    0 -0.86194079761E+01 -0.13379946153E+03 -0.48477336126E+03  0.51827290290E+03  0.12500000000E+03 0.  0.
         25    1    1    2    0    0  0.86194079761E+01  0.13379946153E+03 -0.84467365371E+02  0.20183242037E+03  0.12500000000E+03 0.  0.
</event>
<event>
 4    0  0.2193754E-002  0.1900148E+03  0.7546771E-02  0.1158448E+00
         21   -1    0    0  502  501  0.00000000000E+00  0.00000000000E+00  0.61624216863E+03  0.61624216863E+03  0.00000000000E+00 0.  1.
         21   -1    0    0  501  502 -0.00000000000E+00 -0.00000000000E+00 -0.58589965229E+02  0.58589965229E+02  0.00000000000E+00 0.  1.
         25    1    1    2    0    0  0.41200728029E+02  0.45927013361E+02  0.50812181906E+03  0.52689616961E+03  0.12500000000E+03 0.  0.
         25    1    1    2    0    0 -0.41200728029E+02 -0.45927013361E+02  0.49530384349E+02  0.14793596426E+03  0.12500000000E+03 0.  0.
</event>
<event>
 4    0  0.2193754E-002  0.2002555E+03  0.7546771E-02  0.1149524E+00
         21   -1    0    0  502  501  0.00000000000E+00  0.00000000000E+00  0.37414150286E+02  0.37414150286E+02  0.00000000000E+00 0. -1.
         21   -1    0    0  501  502 -0.00000000000E+00 -0.00000000000E+00 -0.10718472853E+04  0.10718472853E+04  0.00000000000E+00 0. -1.
         25    1    1    2    0    0 -0.14761594295E+03 -0.40556680608E+02 -0.60661744984E+03  0.63800081615E+03  0.12500000000E+03 0.  0.
         25    1    1    2    0    0  0.14761594295E+03  0.40556680608E+02 -0.42781568517E+03  0.47126061944E+03  0.12500000000E+03 0.  0.
</event>
<event>
 4    0  0.2193754E-002  0.2608581E+03  0.7546771E-02  0.1106629E+00
         21   -1    0    0  502  501  0.00000000000E+00  0.00000000000E+00  0.46951399060E+03  0.46951399060E+03  0.00000000000E+00 0.  1.
         21   -1    0    0  501  502 -0.00000000000E+00 -0.00000000000E+00 -0.14493058220E+03  0.14493058220E+03  0.00000000000E+00 0.  1.
         25    1    1    2    0    0 -0.46172105156E+01  0.91329007845E+02  0.40950330734E+03  0.43781304803E+03  0.12500000000E+03 0.  0.
         25    1    1    2    0    0  0.46172105156E+01 -0.91329007845E+02 -0.84919898932E+02  0.17663152477E+03  0.12500000000E+03 0.  0.
</event>
<event>
 4    0  0.2193754E-002  0.2068290E+03  0.7546771E-02  0.1144102E+00
         21   -1    0    0  502  501  0.00000000000E+00  0.00000000000E+00  0.11264957399E+03  0.11264957399E+03  0.00000000000E+00 0.  1.
         21   -1    0    0  501  502 -0.00000000000E+00 -0.00000000000E+00 -0.37974622327E+03  0.37974622327E+03  0.00000000000E+00 0.  1.
         25    1    1    2    0    0 -0.81065815299E+02 -0.23315642683E+02  0.34951571139E+02  0.15479631110E+03  0.12500000000E+03 0.  0.
         25    1    1    2    0    0  0.81065815299E+02  0.23315642683E+02 -0.30204822041E+03  0.33759948616E+03  0.12500000000E+03 0.  0.
</event>
<event>
 4    0  0.2193754E-002  0.2246691E+03  0.7546771E-02  0.1130449E+00
         21   -1    0    0  502  501  0.00000000000E+00  0.00000000000E+00  0.63237611396E+02  0.63237611396E+02  0.00000000000E+00 0. -1.
         21   -1    0    0  501  502 -0.00000000000E+00 -0.00000000000E+00 -0.79819891749E+03  0.79819891749E+03  0.00000000000E+00 0. -1.
         25    1    1    2    0    0  0.83250428484E+02  0.40486401320E+02 -0.67827587002E+03  0.69588284817E+03  0.12500000000E+03 0.  0.
         25    1    1    2    0    0 -0.83250428484E+02 -0.40486401320E+02 -0.56685436079E+02  0.16555368071E+03  0.12500000000E+03 0.  0.
</event>
<event>
 4    0  0.2193754E-002  0.2493389E+03  0.7546771E-02  0.1113723E+00
         21   -1    0    0  502  501  0.00000000000E+00  0.00000000000E+00  0.72174657262E+03  0.72174657262E+03  0.00000000000E+00 0. -1.
         21   -1    0    0  501  502 -0.00000000000E+00 -0.00000000000E+00 -0.86138139374E+02  0.86138139374E+02  0.00000000000E+00 0. -1.
         25    1    1    2    0    0  0.20342800521E+03 -0.60891640286E+02  0.37958247171E+03  0.45254679094E+03  0.12500000000E+03 0.  0.
         25    1    1    2    0    0 -0.20342800521E+03  0.60891640286E+02  0.25602596154E+03  0.35533792106E+03  0.12500000000E+03 0.  0.
</event>
<event>
 4    0  0.2193754E-002  0.1871772E+03  0.7546771E-02  0.1161032E+00
         21   -1    0    0  502  501  0.00000000000E+00  0.00000000000E+00  0.28870843953E+02  0.28870843953E+02  0.00000000000E+00 0.  1.
         21   -1    0    0  501  502 -0.00000000000E+00 -0.00000000000E+00 -0.12135190970E+04  0.12135190970E+04  0.00000000000E+00 0.  1.
         25    1    1    2    0    0  0.10487600558E+03 -0.91122806148E+02 -0.55783812888E+03  0.58831175442E+03  0.12500000000E+03 0.  0.
         25    1    1    2    0    0 -0.10487600558E+03  0.91122806148E+02 -0.62681012412E+03  0.65407818649E+03  0.12500000000E+03 0.  0.
</event>
<event>
 4    0  0.2193754E-002  0.2543299E+03  0.7546771E-02  0.1110599E+00
         21   -1    0    0  502  501  0.00000000000E+00  0.00000000000E+00  0.13624060858E+03  0.13624060858E+03  0.00000000000E+00 0. -1.
         21   -1    0    0  501  502 -0.00000000000E+00 -0.00000000000E+00 -0.47477556939E+03  0.47477556939E+03  0.00000000000E+00 0. -1.
         25    1    1    2    0    0  0.51694510516E+02  0.64866285819E+02  0.77434208712E+02  0.16882243374E+03  0.12500000000E+03 0.  0.
         25    1    1    2    0    0 -0.51694510516E+02 -0.64866285819E+02 -0.41596916952E+03  0.44219374424E+03  0.12500000000E+03 0.  0.
</event>
<event>
 4    0  0.2193754E-002  0.2771792E+03  0.7546771E-02  0.1097240E+00
         21   -1    0    0  502  501  0.00000000000E+00  0.00000000000E+00  0.74917581180E+03  0.74917581180E+03  0.00000000000E+00 0.  1.
         21   -1    0    0  501  502 -0.00000000000E+00 -0.00000000000E+00 -0.10255046146E+03  0.10255046146E+03  0.00000000000E+00 0.  1.
         25    1    1    2    0    0 -0.11874644742E+03  0.20371149187E+03  0.20829422380E+03  0.33854183547E+03  0.12500000000E+03 0.  0.
         25    1    1    2    0    0  0.11874644742E+03 -0.20371149187E+03  0.43833112654E+03  0.51318443779E+03  0.12500000000E+03 0.  0.
</event>
<event>
 4    0  0.2193754E-002  0.2006424E+03  0.7546771E-02  0.1149198E+00
         21   -1    0    0  502  501  0.00000000000E+00  0.00000000000E+00  0.50523071258E+03  0.50523071258E+03  0.00000000000E+00 0. -1.
         21   -1    0    0  501  502 -0.00000000000E+00 -0.00000000000E+00 -0.79681193475E+02  0.79681193475E+02  0.00000000000E+00 0. -1.
         25    1    1    2    0    0 -0.12261293992E+03 -0.97844256834E+02  0.20549340196E+03  0.28715844038E+03  0.12500000000E+03 0.  0.
         25    1    1    2    0    0  0.12261293992E+03  0.97844256834E+02  0.22005611714E+03  0.29775346567E+03  0.12500000000E+03 0.  0.
</event>
<event>
 4    0  0.2193754E-002  0.2652521E+03  0.7546771E-02  0.1104028E+00
         21   -1    0    0  502  501  0.00000000000E+00  0.00000000000E+00  0.35886554259E+03  0.35886554259E+03  0.00000000000E+00 0. -1.
         21   -1    0    0  501  502 -0.00000000000E+00 -0.00000000000E+00 -0.19605859589E+03  0.19605859589E+03  0.00000000000E+00 0. -1.
         25    1    1    2    0    0 -0.19540267261E+03  0.74518606850E+02 -0.28297500499E+02  0.24527734458E+03  0.12500000000E+03 0.  0.
         25    1    1    2    0    0  0.19540267261E+03 -0.74518606850E+02  0.19110444720E+03  0.30964679390E+03  0.12500000000E+03 0.  0.
</event>
<event>
 4    0  0.2193754E-002  0.2396275E+03  0.7546771E-02  0.1120041E+00
         21   -1    0    0  502  501  0.00000000000E+00  0.00000000000E+00  0.86904029597E+02  0.86904029597E+02  0.00000000000E+00 0.  1.
         21   -1    0    0  501  502 -0.00000000000E+00 -0.00000000000E+00 -0.66074428212E+03  0.66074428212E+03  0.00000000000E+00 0.  1.
         25    1    1    2    0    0 -0.60115430196E+02  0.13475736507E+03 -0.66173287479E+02  0.20439500083E+03  0.12500000000E+03 0.  0.
         25    1    1    2    0    0  0.60115430196E+02 -0.13475736507E+03 -0.50766696505E+03  0.54325331089E+03  0.12500000000E+03 0.  0.
</event>
<event>
 4    0  0.2193754E-002  0.2156805E+03  0.7546771E-02  0.1137145E+00
         21   -1    0    0  502  501  0.00000000000E+00  0.00000000000E+00  0.30358319619E+03  0.30358319619E+03  0.00000000000E+00 0.  1.
         21   -1    0    0  501  502 -0.00000000000E+00 -0.00000000000E+00 -0.15323005225E+03  0.15323005225E+03  0.00000000000E+00 0.  1.
         25    1    1    2    0    0  0.23300338729E+02  0.12585274400E+03  0.20274707521E+03  0.27039451818E+03  0.12500000000E+03 0.  0.
         25    1    1    2    0    0 -0.23300338729E+02 -0.12585274400E+03 -0.52393931278E+02  0.18641873026E+03  0.12500000000E+03 0.  0.
</event>
<event>
 4    0  0.2193754E-002  0.3818444E+03  0.7546771E-02  0.1050254E+00
         21   -1    0    0  502  501  0.00000000000E+00  0.00000000000E+00  0.98672091518E+03  0.98672091518E+03  0.00000000000E+00 0.  1.
         21   -1    0    0  501  502 -0.00000000000E+00 -0.00000000000E+00 -0.14776738376E+03  0.14776738376E+03  0.00000000000E+00 0.  1.
         25    1    1    2    0    0  0.48541411554E+01  0.36072301759E+03  0.41062440550E+03  0.56069783351E+03  0.12500000000E+03 0.  0.
         25    1    1    2    0    0 -0.48541411554E+01 -0.36072301759E+03  0.42832912592E+03  0.57379046543E+03  0.12500000000E+03 0.  0.
</event>
<event>
 4    0  0.2193754E-002  0.1712127E+03  0.7546771E-02  0.1176589E+00
         21   -1    0    0  502  501  0.00000000000E+00  0.00000000000E+00  0.56423652861E+03  0.56423652861E+03  0.00000000000E+00 0. -1.
         21   -1    0    0  501  502 -0.00000000000E+00 -0.00000000000E+00 -0.51953041944E+02  0.51953041944E+02  0.00000000000E+00 0. -1.
         25    1    1    2    0    0 -0.88075215501E+02  0.76862311580E+02  0.24737296668E+03  0.30080465949E+03  0.12500000000E+03 0.  0.
         25    1    1    2    0    0  0.88075215501E+02 -0.76862311580E+02  0.26491051999E+03  0.31538491107E+03  0.12500000000E+03 0.  0.
</event>
<event>
 4    0  0.2193754E-002  0.2768530E+03  0.7546771E-02  0.1097420E+00
         21   -1    0    0  502  501  0.00000000000E+00  0.00000000000E+00  0.19858809620E+04  0.19858809620E+04  0.00000000000E+00 0. -1.
         21   -1    0    0  501  502 -0.00000000000E+00 -0.00000000000E+00 -0.38596270292E+02  0.38596270292E+02  0.00000000000E+00 0. -1.
         25    1    1    2    0    0  0.45265827027E+02  0.17909499753E+03  0.15732930444E+04  0.15890248635E+04  0.12500000000E+03 0.  0.
         25    1    1    2    0    0 -0.45265827027E+02 -0.17909499753E+03  0.37399164729E+03  0.43545236878E+03  0.12500000000E+03 0.  0.
</event>
<event>
 4    0  0.2193754E-002  0.2225894E+03  0.7546771E-02  0.1131967E+00
         21   -1    0    0  502  501  0.00000000000E+00  0.00000000000E+00  0.10063285546E+04  0.10063285546E+04  0.00000000000E+00 0.  1.
         21   -1    0    0  501  502 -0.00000000000E+00 -0.00000000000E+00 -0.49234450794E+02  0.49234450794E+02  0.00000000000E+00 0.  1.
         25    1    1    2    0    0  0.17040909200E+03 -0.61680560068E+02  0.55637126491E+03  0.59834583189E+03  0.12500000000E+03 0.  0.
         25    1    1    2    0    0 -0.17040909200E+03  0.61680560068E+02  0.40072283886E+03  0.45721717346E+03  0.12500000000E+03 0.  0.
</event>
<event>
 4    0  0.2193754E-002  0.2382918E+03  0.7546771E-02  0.1120936E+00
         21   -1    0    0  502  501  0.00000000000E+00  0.00000000000E+00  0.41034191253E+03  0.41034191253E+03  0.00000000000E+00 0. -1.
         21   -1    0    0  501  502 -0.00000000000E+00 -0.00000000000E+00 -0.13837962155E+03  0.13837962155E+03  0.00000000000E+00 0. -1.
         25    1    1    2    0    0 -0.14373252095E+03 -0.30532878938E+02  0.29703510144E+03  0.35418377400E+03  0.12500000000E+03 0.  0.
         25    1    1    2    0    0  0.14373252095E+03  0.30532878938E+02 -0.25072810455E+02  0.19453776009E+03  0.12500000000E+03 0.  0.
</event>
<event>
 4    0  0.2193754E-002  0.3197945E+03  0.7546771E-02  0.1075744E+00
         21   -1    0    0  502  501  0.00000000000E+00  0.00000000000E+00  0.38043629908E+03  0.38043629908E+03  0.00000000000E+00 0. -1.
         21   -1    0    0  501  502 -0.00000000000E+00 -0.00000000000E+00 -0.26881909155E+03  0.26881909155E+03  0.00000000000E+00 0. -1.
         25    1    1    2    0    0  0.14997743895E+03  0.23981840692E+03 -0.26893172605E+02  0.31040995993E+03  0.12500000000E+03 0.  0.
         25    1    1    2    0    0 -0.14997743895E+03 -0.23981840692E+03  0.13851038013E+03  0.33884543069E+03  0.12500000000E+03 0.  0.
</event>
<event>
 4    0  0.2193754E-002  0.2232703E+03  0.7546771E-02  0.1131468E+00
         21   -1    0    0  502  501  0.00000000000E+00  0.00000000000E+00  0.46676698700E+03  0.46676698700E+03  0.00000000000E+00 0.  1.
         21   -1    0    0  501  502 -0.00000000000E+00 -0.00000000000E+00 -0.10679770056E+03  0.10679770056E+03  0.00000000000E+00 0.  1.
         25    1    1    2    0    0 -0.95511899392E+02 -0.13627343141E+03  0.76176002152E+02  0.22163202462E+03  0.12500000000E+03 0.  0.
         25    1    1    2    0    0  0.95511899392E+02  0.13627343141E+03  0.28379328429E+03  0.35193266294E+03  0.12500000000E+03 0.  0.
</event>
<event>
 4    0  0.2193754E-002  0.2090913E+03  0.7546771E-02  0.1142288E+00
         21   -1    0    0  502  501  0.00000000000E+00  0.00000000000E+00  0.34053249906E+03  0.34053249906E+03  0.00000000000E+00 0.  1.
         21   -1    0    0  501  502 -0.00000000000E+00 -0.00000000000E+00 -0.12838473943E+03  0.12838473943E+03  0.00000000000E+00 0.  1.
         25    1    1    2    0    0 -0.10481757699E+03  0.97165933240E+02  0.20425347324E+03  0.27887707751E+03  0.12500000000E+03 0.  0.
         25    1    1    2    0    0  0.10481757699E+03 -0.97165933240E+02  0.78942863931E+01  0.19004016098E+03  0.12500000000E+03 0.  0.
</event>
<event>
 4    0  0.2193754E-002  0.1594655E+03  0.7546771E-02  0.1189301E+00
         21   -1    0    0  502  501  0.00000000000E+00  0.00000000000E+00  0.16813614113E+03  0.16813614113E+03  0.00000000000E+00 0.  1.
         21   -1    0    0  501  502 -0.00000000000E+00 -0.00000000000E+00 -0.15124208912E+03  0.15124208912E+03  0.00000000000E+00 0.  1.
         25    1    1    2    0    0  0.28400603485E+02  0.57257357642E+02 -0.67284801521E+02  0.15568315194E+03  0.12500000000E+03 0.  0.
         25    1    1    2    0    0 -0.28400603485E+02 -0.57257357642E+02  0.84178853527E+02  0.16369507831E+03  0.12500000000E+03 0.  0.
</event>
<event>
 4    0  0.2193754E-002  0.1912662E+03  0.7546771E-02  0.1157324E+00
         21   -1    0    0  502  501  0.00000000000E+00  0.00000000000E+00  0.23963517638E+03  0.23963517638E+03  0.00000000000E+00 0. -1.
         21   -1    0    0  501  502 -0.00000000000E+00 -0.00000000000E+00 -0.15266019223E+03  0.15266019223E+03  0.00000000000E+00 0. -1.
         25    1    1    2    0    0  0.12115542678E+03  0.72465487883E+02  0.76366114428E+02  0.20343713477E+03  0.12500000000E+03 0.  0.
         25    1    1    2    0    0 -0.12115542678E+03 -0.72465487883E+02  0.10608869717E+02  0.18885823384E+03  0.12500000000E+03 0.  0.
</event>
<event>
 4    0  0.2193754E-002  0.3335017E+03  0.7546771E-02  0.1069598E+00
         21   -1    0    0  502  501  0.00000000000E+00  0.00000000000E+00  0.15642781862E+03  0.15642781862E+03  0.00000000000E+00 0. -1.
         21   -1    0    0  501  502 -0.00000000000E+00 -0.00000000000E+00 -0.71102051489E+03  0.71102051489E+03  0.00000000000E+00 0. -1.
         25    1    1    2    0    0  0.21275979835E+03  0.22355754521E+03 -0.25283834416E+03  0.41808723503E+03  0.12500000000E+03 0.  0.
         25    1    1    2    0    0 -0.21275979835E+03 -0.22355754521E+03 -0.30175435211E+03  0.44936109848E+03  0.12500000000E+03 0.  0.
</event>
<event>
 4    0  0.2193754E-002  0.1962132E+03  0.7546771E-02  0.1152974E+00
         21   -1    0    0  502  501  0.00000000000E+00  0.00000000000E+00  0.80624505019E+03  0.80624505019E+03  0.00000000000E+00 0. -1.
         21   -1    0    0  501  502 -0.00000000000E+00 -0.00000000000E+00 -0.47751748497E+02  0.47751748497E+02  0.00000000000E+00 0. -1.
         25    1    1    2    0    0  0.55141052415E+02  0.45603459207E+02  0.66921531886E+03  0.68453951979E+03  0.12500000000E+03 0.  0.
         25    1    1    2    0    0 -0.55141052415E+02 -0.45603459207E+02  0.89277982831E+02  0.16945727890E+03  0.12500000000E+03 0.  0.
</event>
<event>
 4    0  0.2193754E-002  0.2365321E+03  0.7546771E-02  0.1122125E+00
         21   -1    0    0  502  501  0.00000000000E+00  0.00000000000E+00  0.78679612700E+03  0.78679612700E+03  0.00000000000E+00 0.  1.
         21   -1    0    0  501  502 -0.00000000000E+00 -0.00000000000E+00 -0.71107943948E+02  0.71107943948E+02  0.00000000000E+00 0.  1.
         25    1    1    2    0    0  0.44795196243E+02 -0.19555130786E+03  0.37360502741E+03  0.44210026025E+03  0.12500000000E+03 0.  0.
         25    1    1    2    0    0 -0.44795196243E+02  0.19555130786E+03  0.34208315564E+03  0.41580381069E+03  0.12500000000E+03 0.  0.
</event>
<event>
 4    0  0.2193754E-002  0.1790313E+03  0.7546771E-02  0.1168744E+00
         21   -1    0    0  502  501  0.00000000000E+00  0.00000000000E+00  0.24140237737E+03  0.24140237737E+03  0.00000000000E+00 0. -1.
         21   -1    0    0  501  502 -0.00000000000E+00 -0.00000000000E+00 -0.13277504894E+03  0.13277504894E+03  0.00000000000E+00 0. -1.
         25    1    1    2    0    0 -0.21949728152E+02  0.56193816631E+02 -0.63858287463E+02  0.15278225182E+03  0.12500000000E+03 0.  0.
         25    1    1    2    0    0  0.21949728152E+02 -0.56193816631E+02  0.17248561589E+03  0.22139517448E+03  0.12500000000E+03 0.  0.
</event>
<event>
 4    0  0.2193754E-002  0.1470194E+03  0.7546771E-02  0.1204184E+00
         21   -1    0    0  502  501  0.00000000000E+00  0.00000000000E+00  0.20293676804E+03  0.20293676804E+03  0.00000000000E+00 0. -1.
         21   -1    0    0  501  502 -0.00000000000E+00 -0.00000000000E+00 -0.10650950664E+03  0.10650950664E+03  0.00000000000E+00 0. -1.
         25    1    1    2    0    0  0.11831578335E+02  0.55666089343E+02  0.10341192156E+03  0.17192360300E+03  0.12500000000E+03 0.  0.
         25    1    1    2    0    0 -0.11831578335E+02 -0.55666089343E+02 -0.69846601516E+01  0.13752267168E+03  0.12500000000E+03 0.  0.
</event>
<event>
 4    0  0.2193754E-002  0.2160755E+03  0.7546771E-02  0.1136843E+00
         21   -1    0    0  502  501  0.00000000000E+00  0.00000000000E+00  0.40668412770E+02  0.40668412770E+02  0.00000000000E+00 0.  1.
         21   -1    0    0  501  502 -0.00000000000E+00 -0.00000000000E+00 -0.11480320354E+04  0.11480320354E+04  0.00000000000E+00 0.  1.
         25    1    1    2    0    0  0.16557011269E+02  0.16554209343E+03 -0.71372484216E+03  0.74344231090E+03  0.12500000000E+03 0.  0.
         25    1    1    2    0    0 -0.16557011269E+02 -0.16554209343E+03 -0.39363878050E+03  0.44525813730E+03  0.12500000000E+03 0.  0.
</event>
<event>
 4    0  0.2193754E-002  0.1438580E+03  0.7546771E-02  0.1208230E+00
         21   -1    0    0  502  501  0.00000000000E+00  0.00000000000E+00  0.36852398584E+03  0.36852398584E+03  0.00000000000E+00 0. -1.
         21   -1    0    0  501  502 -0.00000000000E+00 -0.00000000000E+00 -0.56156811461E+02  0.56156811461E+02  0.00000000000E+00 0. -1.
         25    1    1    2    0    0  0.69831235197E+02  0.81831183814E+01  0.13956470143E+03  0.20011664279E+03  0.12500000000E+03 0.  0.
         25    1    1    2    0    0 -0.69831235197E+02 -0.81831183814E+01  0.17280247295E+03  0.22456415451E+03  0.12500000000E+03 0.  0.
</event>
<event>
 4    0  0.2193754E-002  0.2547124E+03  0.7546771E-02  0.1110362E+00
         21   -1    0    0  502  501  0.00000000000E+00  0.00000000000E+00  0.15249736933E+04  0.15249736933E+04  0.00000000000E+00 0. -1.
         21   -1    0    0  501  502 -0.00000000000E+00 -0.00000000000E+00 -0.42543958628E+02  0.42543958628E+02  0.00000000000E+00 0. -1.
         25    1    1    2    0    0 -0.14160294099E+03 -0.16203530380E+03  0.57418589193E+03  0.62579650931E+03  0.12500000000E+03 0.  0.
         25    1    1    2    0    0  0.14160294099E+03  0.16203530380E+03  0.90824384270E+03  0.94172114258E+03  0.12500000000E+03 0.  0.
</event>
<event>
 4    0  0.2193754E-002  0.2549466E+03  0.7546771E-02  0.1110218E+00
         21   -1    0    0  502  501  0.00000000000E+00  0.00000000000E+00  0.44034783768E+02  0.44034783768E+02  0.00000000000E+00 0. -1.
         21   -1    0    0  501  502 -0.00000000000E+00 -0.00000000000E+00 -0.14760554165E+04  0.14760554165E+04  0.00000000000E+00 0. -1.
         25    1    1    2    0    0  0.25064498388E+02 -0.80107841369E+02 -0.13293489315E+04  0.13378486749E+04  0.12500000000E+03 0.  0.
         25    1    1    2    0    0 -0.25064498388E+02  0.80107841369E+02 -0.10267170126E+03  0.18224152536E+03  0.12500000000E+03 0.  0.
</event>
<event>
 4    0  0.2193754E-002  0.1850438E+03  0.7546771E-02  0.1163009E+00
         21   -1    0    0  502  501  0.00000000000E+00  0.00000000000E+00  0.57779264224E+02  0.57779264224E+02  0.00000000000E+00 0. -1.
         21   -1    0    0  501  502 -0.00000000000E+00 -0.00000000000E+00 -0.59262078614E+03  0.59262078614E+03  0.00000000000E+00 0. -1.
         25    1    1    2    0    0  0.41490741662E+02  0.59573389900E+02 -0.47044466414E+03  0.49215206232E+03  0.12500000000E+03 0.  0.
         25    1    1    2    0    0 -0.41490741662E+02 -0.59573389900E+02 -0.64396857770E+02  0.15824798804E+03  0.12500000000E+03 0.  0.
</event>
<event>
 4    0  0.2193754E-002  0.2384781E+03  0.7546771E-02  0.1120811E+00
         21   -1    0    0  502  501  0.00000000000E+00  0.00000000000E+00  0.71848670831E+03  0.71848670831E+03  0.00000000000E+00 0.  1.
         21   -1    0    0  501  502 -0.00000000000E+00 -0.00000000000E+00 -0.79154969466E+02  0.79154969466E+02  0.00000000000E+00 0.  1.
         25    1    1    2    0    0 -0.59245898874E+02  0.16195154927E+01 -0.51942089195E+01  0.13843655287E+03  0.12500000000E+03 0.  0.
         25    1    1    2    0    0  0.59245898874E+02 -0.16195154927E+01  0.64452594776E+03  0.65920512491E+03  0.12500000000E+03 0.  0.
</event>
<event>
 4    0  0.2193754E-002  0.2591197E+03  0.7546771E-02  0.1107673E+00
         21   -1    0    0  502  501  0.00000000000E+00  0.00000000000E+00  0.23685085148E+02  0.23685085148E+02  0.00000000000E+00 0. -1.
         21   -1    0    0  501  502 -0.00000000000E+00 -0.00000000000E+00 -0.28348235868E+04  0.28348235868E+04  0.00000000000E+00 0. -1.
         25    1    1    2    0    0  0.85704250591E+02  0.21013270084E+03 -0.13827818926E+04  0.14068446016E+04  0.12500000000E+03 0.  0.
         25    1    1    2    0    0 -0.85704250591E+02 -0.21013270084E+03 -0.14283566090E+04  0.14516640703E+04  0.12500000000E+03 0.  0.
</event>
<event>
 4    0  0.2193754E-002  0.2025732E+03  0.7546771E-02  0.1147586E+00
         21   -1    0    0  502  501  0.00000000000E+00  0.00000000000E+00  0.17105244104E+03  0.17105244104E+03  0.00000000000E+00 0.  1.
         21   -1    0    0  501  502 -0.00000000000E+00 -0.00000000000E+00 -0.23990254438E+03  0.23990254438E+03  0.00000000000E+00 0.  1.
         25    1    1    2    0    0 -0.18626593118E+02 -0.62742506361E+02 -0.18186142580E+03  0.23017851826E+03  0.12500000000E+03 0.  0.
         25    1    1    2    0    0  0.18626593118E+02  0.62742506361E+02  0.11301132246E+03  0.18077646716E+03  0.12500000000E+03 0.  0.
</event>
<event>
 4    0  0.2193754E-002  0.2244544E+03  0.7546771E-02  0.1130605E+00
         21   -1    0    0  502  501  0.00000000000E+00  0.00000000000E+00  0.30464037985E+03  0.30464037985E+03  0.00000000000E+00 0. -1.
         21   -1    0    0  501  502 -0.00000000000E+00 -0.00000000000E+00 -0.16537452871E+03  0.16537452871E+03  0.00000000000E+00 0. -1.
         25    1    1    2    0    0  0.15306134103E+03  0.91961443492E+02  0.13540987387E+02  0.21838736123E+03  0.12500000000E+03 0.  0.
         25    1    1    2    0    0 -0.15306134103E+03 -0.91961443492E+02  0.12572486376E+03  0.25162754732E+03  0.12500000000E+03 0.  0.
</event>
<event>
 4    0  0.2193754E-002  0.2511350E+03  0.7546771E-02  0.1112590E+00
         21   -1    0    0  502  501  0.00000000000E+00  0.00000000000E+00  0.37356949990E+03  0.37356949990E+03  0.00000000000E+00 0. -1.
         21   -1    0    0  501  502 -0.00000000000E+00 -0.00000000000E+00 -0.16882743503E+03  0.16882743503E+03  0.00000000000E+00 0. -1.
         25    1    1    2    0    0 -0.19777355206E+03 -0.24828227580E+02  0.19721082636E+03  0.30699825539E+03  0.12500000000E+03 0.  0.
         25    1    1    2    0    0  0.19777355206E+03  0.24828227580E+02  0.75312385077E+01  0.23539867955E+03  0.12500000000E+03 0.  0.
</event>
<event>
 4    0  0.2193754E-002  0.1972780E+03  0.7546771E-02  0.1152056E+00
         21   -1    0    0  502  501  0.00000000000E+00  0.00000000000E+00  0.56602436817E+03  0.56602436817E+03  0.00000000000E+00 0.  1.
         21   -1    0    0  501  502 -0.00000000000E+00 -0.00000000000E+00 -0.68757812492E+02  0.68757812492E+02  0.00000000000E+00 0.  1.
         25    1    1    2    0    0 -0.45309797292E+02  0.12379234692E+03  0.37237978742E+03  0.41432985526E+03  0.12500000000E+03 0.  0.
         25    1    1    2    0    0  0.45309797292E+02 -0.12379234692E+03  0.12488676826E+03  0.22045232540E+03  0.12500000000E+03 0.  0.
</event>
<event>
 4    0  0.2193754E-002  0.1381596E+03  0.7546771E-02  0.1215827E+00
         21   -1    0    0  502  501  0.00000000000E+00  0.00000000000E+00  0.56726567298E+02  0.56726567298E+02  0.00000000000E+00 0.  1.
         21   -1    0    0  501  502 -0.00000000000E+00 -0.00000000000E+00 -0.33649272550E+03  0.33649272550E+03  0.00000000000E+00 0.  1.
         25    1    1    2    0    0  0.27515580972E+02 -0.44072138089E+02 -0.10055873975E+03  0.16863131587E+03  0.12500000000E+03 0.  0.
         25    1    1    2    0    0 -0.27515580972E+02  0.44072138089E+02 -0.17920741845E+03  0.22458797693E+03  0.12500000000E+03 0.  0.
</event>
<event>
 4    0  0.2193754E-002  0.2347766E+03  0.7546771E-02  0.1123322E+00
         21   -1    0    0  502  501  0.00000000000E+00  0.00000000000E+00  0.76036530130E+02  0.76036530130E+02  0.00000000000E+00 0. -1.
         21   -1    0    0  501  502 -0.00000000000E+00 -0.00000000000E+00 -0.72491511039E+03  0.72491511039E+03  0.00000000000E+00 0. -1.
         25    1    1    2    0    0  0.66746344112E+02 -0.17297086804E+03 -0.20237168966E+03  0.30158464221E+03  0.12500000000E+03 0.  0.
         25    1    1    2    0    0 -0.66746344112E+02  0.17297086804E+03 -0.44650689061E+03  0.49936699831E+03  0.12500000000E+03 0.  0.
</event>
<event>
 4    0  0.2193754E-002  0.2250451E+03  0.7546771E-02  0.1130177E+00
         21   -1    0    0  502  501  0.00000000000E+00  0.00000000000E+00  0.56078495850E+02  0.56078495850E+02  0.00000000000E+00 0. -1.
         21   -1    0    0  501  502 -0.00000000000E+00 -0.00000000000E+00 -0.90311447544E+03  0.90311447544E+03  0.00000000000E+00 0. -1.
         25    1    1    2    0    0  0.12568055982E+02 -0.96617238571E+02 -0.76401254215E+03  0.78027752203E+03  0.12500000000E+03 0.  0.
         25    1    1    2    0    0 -0.12568055982E+02  0.96617238571E+02 -0.83023437440E+02  0.17891544926E+03  0.12500000000E+03 0.  0.
</event>
<event>
 4    0  0.2193754E-002  0.1978814E+03  0.7546771E-02  0.1151539E+00
         21   -1    0    0  502  501  0.00000000000E+00  0.00000000000E+00  0.17876936225E+03  0.17876936225E+03  0.00000000000E+00 0.  1.
         21   -1    0    0  501  502 -0.00000000000E+00 -0.00000000000E+00 -0.21903666390E+03  0.21903666390E+03  0.00000000000E+00 0.  1.
         25    1    1    2    0    0  0.13371138744E+03 -0.34186847451E+02 -0.87446312842E+02  0.20571663350E+03  0.12500000000E+03 0.  0.
         25    1    1    2    0    0 -0.13371138744E+03  0.34186847451E+02  0.47179011201E+02  0.19208939265E+03  0.12500000000E+03 0.  0.
</event>
<event>
 4    0  0.2193754E-002  0.2403001E+03  0.7546771E-02  0.1119593E+00
         21   -1    0    0  502  501  0.00000000000E+00  0.00000000000E+00  0.64887083021E+03  0.64887083021E+03  0.00000000000E+00 0. -1.
         21   -1    0    0  501  502 -0.00000000000E+00 -0.00000000000E+00 -0.88991735219E+02  0.88991735219E+02  0.00000000000E+00 0. -1.
         25    1    1    2    0    0  0.12804127520E+03 -0.16037826832E+03  0.28276382552E+03  0.37107430270E+03  0.12500000000E+03 0.  0.
         25    1    1    2    0    0 -0.12804127520E+03  0.16037826832E+03  0.27711526948E+03  0.36678826273E+03  0.12500000000E+03 0.  0.
</event>
<event>
 4    0  0.2193754E-002  0.2802843E+03  0.7546771E-02  0.1095534E+00
         21   -1    0    0  502  501  0.00000000000E+00  0.00000000000E+00  0.36418919365E+02  0.36418919365E+02  0.00000000000E+00 0. -1.
         21   -1    0    0  501  502 -0.00000000000E+00 -0.00000000000E+00 -0.21571006539E+04  0.21571006539E+04  0.00000000000E+00 0. -1.
         25    1    1    2    0    0 -0.15798171761E+03  0.87638376516E+02 -0.17414274510E+04  0.17552302628E+04  0.12500000000E+03 0.  0.
         25    1    1    2    0    0  0.15798171761E+03 -0.87638376516E+02 -0.37925428350E+03  0.43828931049E+03  0.12500000000E+03 0.  0.
</event>
<event>
 4    0  0.2193754E-002  0.2721432E+03  0.7546771E-02  0.1100059E+00
         21   -1    0    0  502  501  0.00000000000E+00  0.00000000000E+00  0.89111693667E+03  0.89111693667E+03  0.00000000000E+00 0. -1.
         21   -1    0    0  501  502 -0.00000000000E+00 -0.00000000000E+00 -0.83111336288E+02  0.83111336288E+02  0.00000000000E+00 0. -1.
         25    1    1    2    0    0  0.21947199796E+01 -0.96295164781E+02  0.71437482575E+01  0.15796711270E+03  0.12500000000E+03 0.  0.
         25    1    1    2    0    0 -0.21947199796E+01  0.96295164781E+02  0.80086185212E+03  0.81626116026E+03  0.12500000000E+03 0.  0.
</event>
<event>
 4    0  0.2193754E-002  0.2427618E+03  0.7546771E-02  0.1117967E+00
         21   -1    0    0  502  501  0.00000000000E+00  0.00000000000E+00  0.53918589092E+02  0.53918589092E+02  0.00000000000E+00 0. -1.
         21   -1    0    0  501  502 -0.00000000000E+00 -0.00000000000E+00 -0.10930052003E+04  0.10930052003E+04  0.00000000000E+00 0. -1.
         25    1    1    2    0    0 -0.26303878376E+02 -0.13221715389E+03 -0.89405370542E+03  0.91275971535E+03  0.12500000000E+03 0.  0.
         25    1    1    2    0    0  0.26303878376E+02  0.13221715389E+03 -0.14503290575E+03  0.23416407400E+03  0.12500000000E+03 0.  0.
</event>
<event>
 4    0  0.2193754E-002  0.2622889E+03  0.7546771E-02  0.1105776E+00
         21   -1    0    0  502  501  0.00000000000E+00  0.00000000000E+00  0.10024008553E+03  0.10024008553E+03  0.00000000000E+00 0. -1.
         21   -1    0    0  501  502 -0.00000000000E+00 -0.00000000000E+00 -0.68630672443E+03  0.68630672443E+03  0.00000000000E+00 0. -1.
         25    1    1    2    0    0  0.11079207312E+03  0.46412202667E+02  0.20894907499E+01  0.17337341778E+03  0.12500000000E+03 0.  0.
         25    1    1    2    0    0 -0.11079207312E+03 -0.46412202667E+02 -0.58815612966E+03  0.61317339218E+03  0.12500000000E+03 0.  0.
</event>
<event>
 4    0  0.2193754E-002  0.1946149E+03  0.7546771E-02  0.1154364E+00
         21   -1    0    0  502  501  0.00000000000E+00  0.00000000000E+00  0.29494672084E+02  0.29494672084E+02  0.00000000000E+00 0.  1.
         21   -1    0    0  501  502 -0.00000000000E+00 -0.00000000000E+00 -0.12841290293E+04  0.12841290293E+04  0.00000000000E+00 0.  1.
         25    1    1    2    0    0  0.69237721546E+02  0.13077428703E+03 -0.56380134094E+03  0.59614824354E+03  0.12500000000E+03 0.  0.
         25    1    1    2    0    0 -0.69237721546E+02 -0.13077428703E+03 -0.69083301633E+03  0.71747545789E+03  0.12500000000E+03 0.  0.
</event>
<event>
 4    0  0.2193754E-002  0.4198107E+03  0.7546771E-02  0.1037128E+00
         21   -1    0    0  502  501  0.00000000000E+00  0.00000000000E+00  0.32310451075E+03  0.32310451075E+03  0.00000000000E+00 0.  1.
         21   -1    0    0  501  502 -0.00000000000E+00 -0.00000000000E+00 -0.54546122938E+03  0.54546122938E+03  0.00000000000E+00 0. -1.
         25    1    1    2    0    0 -0.24055542459E+03 -0.15615623807E+03  0.17840818363E+03  0.36014741840E+03  0.12500000000E+03 0.  0.
         25    1    1    2    0    0  0.24055542459E+03  0.15615623807E+03 -0.40076490226E+03  0.50841832173E+03  0.12500000000E+03 0.  0.
</event>
<event>
 4    0  0.2193754E-002  0.1642437E+03  0.7546771E-02  0.1183987E+00
         21   -1    0    0  502  501  0.00000000000E+00  0.00000000000E+00  0.18633839810E+03  0.18633839810E+03  0.00000000000E+00 0. -1.
         21   -1    0    0  501  502 -0.00000000000E+00 -0.00000000000E+00 -0.14476882873E+03  0.14476882873E+03  0.00000000000E+00 0. -1.
         25    1    1    2    0    0 -0.71440137163E+01 -0.76286471111E+02 -0.53834876370E+02  0.15618532748E+03  0.12500000000E+03 0.  0.
         25    1    1    2    0    0  0.71440137163E+01  0.76286471111E+02  0.95404445734E+02  0.17492189935E+03  0.12500000000E+03 0.  0.
</event>
<event>
 4    0  0.2193754E-002  0.1907769E+03  0.7546771E-02  0.1157762E+00
         21   -1    0    0  502  501  0.00000000000E+00  0.00000000000E+00  0.14833273034E+03  0.14833273034E+03  0.00000000000E+00 0.  1.
         21   -1    0    0  501  502 -0.00000000000E+00 -0.00000000000E+00 -0.24536623295E+03  0.24536623295E+03  0.00000000000E+00 0.  1.
         25    1    1    2    0    0  0.73940208289E+02  0.60403033271E+02 -0.15991222581E+03  0.22430470524E+03  0.12500000000E+03 0.  0.
         25    1    1    2    0    0 -0.73940208289E+02 -0.60403033271E+02  0.62878723192E+02  0.16939425805E+03  0.12500000000E+03 0.  0.
</event>
<event>
 4    0  0.2193754E-002  0.2213182E+03  0.7546771E-02  0.1132904E+00
         21   -1    0    0  502  501  0.00000000000E+00  0.00000000000E+00  0.71026207300E+03  0.71026207300E+03  0.00000000000E+00 0.  1.
         21   -1    0    0  501  502 -0.00000000000E+00 -0.00000000000E+00 -0.68962938437E+02  0.68962938437E+02  0.00000000000E+00 0.  1.
         25    1    1    2    0    0 -0.12858189058E+03 -0.45507150916E+02  0.53447006522E+03  0.56558593864E+03  0.12500000000E+03 0.  0.
         25    1    1    2    0    0  0.12858189058E+03  0.45507150916E+02  0.10682906935E+03  0.21363907280E+03  0.12500000000E+03 0.  0.
</event>
<event>
 4    0  0.2193754E-002  0.1917395E+03  0.7546771E-02  0.1156902E+00
         21   -1    0    0  502  501  0.00000000000E+00  0.00000000000E+00  0.52646358171E+02  0.52646358171E+02  0.00000000000E+00 0. -1.
         21   -1    0    0  501  502 -0.00000000000E+00 -0.00000000000E+00 -0.69832088448E+03  0.69832088448E+03  0.00000000000E+00 0. -1.
         25    1    1    2    0    0 -0.12466251305E+03  0.57140196601E+01 -0.46893302625E+03  0.50109537544E+03  0.12500000000E+03 0.  0.
         25    1    1    2    0    0  0.12466251305E+03 -0.57140196601E+01 -0.17674150007E+03  0.24987186722E+03  0.12500000000E+03 0.  0.
</event>
<event>
 4    0  0.2193754E-002  0.1843613E+03  0.7546771E-02  0.1163648E+00
         21   -1    0    0  502  501  0.00000000000E+00  0.00000000000E+00  0.35200269354E+02  0.35200269354E+02  0.00000000000E+00 0.  1.
         21   -1    0    0  501  502 -0.00000000000E+00 -0.00000000000E+00 -0.96559206982E+03  0.96559206982E+03  0.00000000000E+00 0.  1.
         25    1    1    2    0    0 -0.66813708458E+02 -0.43029805296E+02 -0.16726880575E+03  0.22342669751E+03  0.12500000000E+03 0.  0.
         25    1    1    2    0    0  0.66813708458E+02  0.43029805296E+02 -0.76312299472E+03  0.77736564167E+03  0.12500000000E+03 0.  0.
</event>
<event>
 4    0  0.2193754E-002  0.2524674E+03  0.7546771E-02  0.1111755E+00
         21   -1    0    0  502  501  0.00000000000E+00  0.00000000000E+00  0.81864652263E+03  0.81864652263E+03  0.00000000000E+00 0. -1.
         21   -1    0    0  501  502 -0.00000000000E+00 -0.00000000000E+00 -0.77859969189E+02  0.77859969189E+02  0.00000000000E+00 0. -1.
         25    1    1    2    0    0 -0.97607307381E+02 -0.19605911070E+03  0.34876203593E+03  0.43037927348E+03  0.12500000000E+03 0.  0.
         25    1    1    2    0    0  0.97607307381E+02  0.19605911070E+03  0.39202451751E+03  0.46612721834E+03  0.12500000000E+03 0.  0.
</event>
<event>
 4    0  0.2193754E-002  0.2267337E+03  0.7546771E-02  0.1128960E+00
         21   -1    0    0  502  501  0.00000000000E+00  0.00000000000E+00  0.36324702716E+03  0.36324702716E+03  0.00000000000E+00 0.  1.
         21   -1    0    0  501  502 -0.00000000000E+00 -0.00000000000E+00 -0.14152405668E+03  0.14152405668E+03  0.00000000000E+00 0.  1.
         25    1    1    2    0    0  0.62683337329E+01  0.16143239289E+02 -0.98820096894E+02  0.16028196322E+03  0.12500000000E+03 0.  0.
         25    1    1    2    0    0 -0.62683337329E+01 -0.16143239289E+02  0.32054306737E+03  0.34448912062E+03  0.12500000000E+03 0.  0.
</event>
<event>
 4    0  0.2193754E-002  0.2747121E+03  0.7546771E-02  0.1098613E+00
         21   -1    0    0  502  501  0.00000000000E+00  0.00000000000E+00  0.84662297613E+02  0.84662297613E+02  0.00000000000E+00 0. -1.
         21   -1    0    0  501  502 -0.00000000000E+00 -0.00000000000E+00 -0.89138510717E+03  0.89138510717E+03  0.00000000000E+00 0. -1.
         25    1    1    2    0    0  0.53635080571E+02  0.18726284429E+03 -0.14047893509E+03  0.27074605431E+03  0.12500000000E+03 0.  0.
         25    1    1    2    0    0 -0.53635080571E+02 -0.18726284429E+03 -0.66624387447E+03  0.70530135048E+03  0.12500000000E+03 0.  0.
</event>
<event>
 4    0  0.2193754E-002  0.3244479E+03  0.7546771E-02  0.1073620E+00
         21   -1    0    0  502  501  0.00000000000E+00  0.00000000000E+00  0.51318193721E+03  0.51318193721E+03  0.00000000000E+00 0. -1.
         21   -1    0    0  501  502 -0.00000000000E+00 -0.00000000000E+00 -0.20512503939E+03  0.20512503939E+03  0.00000000000E+00 0. -1.
         25    1    1    2    0    0  0.35453644601E+02  0.29576269997E+03  0.18740182654E+03  0.37346617009E+03  0.12500000000E+03 0.  0.
         25    1    1    2    0    0 -0.35453644601E+02 -0.29576269997E+03  0.12065507128E+03  0.34484080651E+03  0.12500000000E+03 0.  0.
</event>
<event>
 4    0  0.2193754E-002  0.2152101E+03  0.7546771E-02  0.1137505E+00
         21   -1    0    0  502  501  0.00000000000E+00  0.00000000000E+00  0.47372583047E+03  0.47372583047E+03  0.00000000000E+00 0.  1.
         21   -1    0    0  501  502 -0.00000000000E+00 -0.00000000000E+00 -0.97768366164E+02  0.97768366164E+02  0.00000000000E+00 0.  1.
         25    1    1    2    0    0 -0.15798204570E+03  0.53827187740E+02  0.11728624728E+03  0.23924204627E+03  0.12500000000E+03 0.  0.
         25    1    1    2    0    0  0.15798204570E+03 -0.53827187740E+02  0.25867121703E+03  0.33225215037E+03  0.12500000000E+03 0.  0.
</event>
<event>
 4    0  0.2193754E-002  0.4769925E+03  0.7546771E-02  0.1019965E+00
         21   -1    0    0  502  501  0.00000000000E+00  0.00000000000E+00  0.54575225300E+03  0.54575225300E+03  0.00000000000E+00 0.  1.
         21   -1    0    0  501  502 -0.00000000000E+00 -0.00000000000E+00 -0.41689579287E+03  0.41689579287E+03  0.00000000000E+00 0.  1.
         25    1    1    2    0    0 -0.28751841737E+02  0.39022063989E+03  0.30911320247E+03  0.51407663645E+03  0.12500000000E+03 0.  0.
         25    1    1    2    0    0  0.28751841737E+02 -0.39022063989E+03 -0.18025674233E+03  0.44857140943E+03  0.12500000000E+03 0.  0.
</event>
<event>
 4    0  0.2193754E-002  0.2278175E+03  0.7546771E-02  0.1128185E+00
         21   -1    0    0  502  501  0.00000000000E+00  0.00000000000E+00  0.24828910328E+03  0.24828910328E+03  0.00000000000E+00 0.  1.
         21   -1    0    0  501  502 -0.00000000000E+00 -0.00000000000E+00 -0.20903377553E+03  0.20903377553E+03  0.00000000000E+00 0.  1.
         25    1    1    2    0    0  0.10002324516E+03 -0.37954172887E+01  0.18226729761E+03  0.24262197456E+03  0.12500000000E+03 0.  0.
         25    1    1    2    0    0 -0.10002324516E+03  0.37954172887E+01 -0.14301196985E+03  0.21470090425E+03  0.12500000000E+03 0.  0.
</event>
<event>
 4    0  0.2193754E-002  0.2421200E+03  0.7546771E-02  0.1118389E+00
         21   -1    0    0  502  501  0.00000000000E+00  0.00000000000E+00  0.43582641036E+02  0.43582641036E+02  0.00000000000E+00 0. -1.
         21   -1    0    0  501  502 -0.00000000000E+00 -0.00000000000E+00 -0.13450785394E+04  0.13450785394E+04  0.00000000000E+00 0. -1.
         25    1    1    2    0    0  0.19851081359E+03 -0.49864907893E+02 -0.74603299905E+03  0.78363466476E+03  0.12500000000E+03 0.  0.
         25    1    1    2    0    0 -0.19851081359E+03  0.49864907893E+02 -0.55546289932E+03  0.60502651567E+03  0.12500000000E+03 0.  0.
</event>
<event>
 4    0  0.2193754E-002  0.1797794E+03  0.7546771E-02  0.1168017E+00
         21   -1    0    0  502  501  0.00000000000E+00  0.00000000000E+00  0.62074714997E+03  0.62074714997E+03  0.00000000000E+00 0. -1.
         21   -1    0    0  501  502 -0.00000000000E+00 -0.00000000000E+00 -0.52067288075E+02  0.52067288075E+02  0.00000000000E+00 0. -1.
         25    1    1    2    0    0  0.86383724101E+01 -0.11031295940E+03  0.15948506104E+03  0.23087670992E+03  0.12500000000E+03 0.  0.
         25    1    1    2    0    0 -0.86383724101E+01  0.11031295940E+03  0.40919480085E+03  0.44193772812E+03  0.12500000000E+03 0.  0.
</event>
<event>
 4    0  0.2193754E-002  0.1586446E+03  0.7546771E-02  0.1190236E+00
         21   -1    0    0  502  501  0.00000000000E+00  0.00000000000E+00  0.10858474000E+03  0.10858474000E+03  0.00000000000E+00 0.  1.
         21   -1    0    0  501  502 -0.00000000000E+00 -0.00000000000E+00 -0.23178300039E+03  0.23178300039E+03  0.00000000000E+00 0.  1.
         25    1    1    2    0    0 -0.80197365724E+02  0.55582005314E+02 -0.56553838655E+02  0.16835769495E+03  0.12500000000E+03 0.  0.
         25    1    1    2    0    0  0.80197365724E+02 -0.55582005314E+02 -0.66644421736E+02  0.17201004544E+03  0.12500000000E+03 0.  0.
</event>
<event>
 4    0  0.2193754E-002  0.1896921E+03  0.7546771E-02  0.1158739E+00
         21   -1    0    0  502  501  0.00000000000E+00  0.00000000000E+00  0.10752770645E+03  0.10752770645E+03  0.00000000000E+00 0.  1.
         21   -1    0    0  501  502 -0.00000000000E+00 -0.00000000000E+00 -0.33464007161E+03  0.33464007161E+03  0.00000000000E+00 0.  1.
         25    1    1    2    0    0 -0.10379180100E+03  0.64914390515E+02 -0.28137230365E+02  0.17720981853E+03  0.12500000000E+03 0.  0.
         25    1    1    2    0    0  0.10379180100E+03 -0.64914390515E+02 -0.19897513480E+03  0.26495795953E+03  0.12500000000E+03 0.  0.
</event>
<event>
 4    0  0.2193754E-002  0.2068112E+03  0.7546771E-02  0.1144116E+00
         21   -1    0    0  502  501  0.00000000000E+00  0.00000000000E+00  0.84909529950E+03  0.84909529950E+03  0.00000000000E+00 0. -1.
         21   -1    0    0  501  502 -0.00000000000E+00 -0.00000000000E+00 -0.50372265457E+02  0.50372265457E+02  0.00000000000E+00 0. -1.
         25    1    1    2    0    0  0.12902596457E+02  0.16424659524E+03  0.39596969341E+03  0.44672185882E+03  0.12500000000E+03 0.  0.
         25    1    1    2    0    0 -0.12902596457E+02 -0.16424659524E+03  0.40275334063E+03  0.45274570614E+03  0.12500000000E+03 0.  0.
</event>
<event>
 4    0  0.2193754E-002  0.2551067E+03  0.7546771E-02  0.1110119E+00
         21   -1    0    0  502  501  0.00000000000E+00  0.00000000000E+00  0.39175641890E+03  0.39175641890E+03  0.00000000000E+00 0.  1.
         21   -1    0    0  501  502 -0.00000000000E+00 -0.00000000000E+00 -0.16612217882E+03  0.16612217882E+03  0.00000000000E+00 0.  1.
         25    1    1    2    0    0 -0.15879370829E+03  0.10693421082E+03  0.23654333585E+03  0.32898042034E+03  0.12500000000E+03 0.  0.
         25    1    1    2    0    0  0.15879370829E+03 -0.10693421082E+03 -0.10909095770E+02  0.22889817738E+03  0.12500000000E+03 0.  0.
</event>
<event>
 4    0  0.2193754E-002  0.2231891E+03  0.7546771E-02  0.1131528E+00
         21   -1    0    0  502  501  0.00000000000E+00  0.00000000000E+00  0.22069259544E+03  0.22069259544E+03  0.00000000000E+00 0.  1.
         21   -1    0    0  501  502 -0.00000000000E+00 -0.00000000000E+00 -0.22571393939E+03  0.22571393939E+03  0.00000000000E+00 0.  1.
         25    1    1    2    0    0 -0.97733360399E+02  0.11502061687E+03 -0.10932025259E+03  0.22440470064E+03  0.12500000000E+03 0.  0.
         25    1    1    2    0    0  0.97733360399E+02 -0.11502061687E+03  0.10429890864E+03  0.22200183419E+03  0.12500000000E+03 0.  0.
</event>
<event>
 4    0  0.2193754E-002  0.2039585E+03  0.7546771E-02  0.1146442E+00
         21   -1    0    0  502  501  0.00000000000E+00  0.00000000000E+00  0.41638928002E+03  0.41638928002E+03  0.00000000000E+00 0. -1.
         21   -1    0    0  501  502 -0.00000000000E+00 -0.00000000000E+00 -0.99904259630E+02  0.99904259630E+02  0.00000000000E+00 0. -1.
         25    1    1    2    0    0 -0.10681306414E+03 -0.12004083494E+03  0.14247319732E+03  0.24848027020E+03  0.12500000000E+03 0.  0.
         25    1    1    2    0    0  0.10681306414E+03  0.12004083494E+03  0.17401182307E+03  0.26781326945E+03  0.12500000000E+03 0.  0.
</event>
<event>
 4    0  0.2193754E-002  0.1980615E+03  0.7546771E-02  0.1151385E+00
         21   -1    0    0  502  501  0.00000000000E+00  0.00000000000E+00  0.94611404686E+03  0.94611404686E+03  0.00000000000E+00 0. -1.
         21   -1    0    0  501  502 -0.00000000000E+00 -0.00000000000E+00 -0.41462607605E+02  0.41462607605E+02  0.00000000000E+00 0. -1.
         25    1    1    2    0    0  0.12720238912E+03 -0.59347668443E+02  0.29661608312E+03  0.35115337719E+03  0.12500000000E+03 0.  0.
         25    1    1    2    0    0 -0.12720238912E+03  0.59347668443E+02  0.60803535614E+03  0.63642327728E+03  0.12500000000E+03 0.  0.
</event>
<event>
 4    0  0.2193754E-002  0.2453028E+03  0.7546771E-02  0.1116310E+00
         21   -1    0    0  502  501  0.00000000000E+00  0.00000000000E+00  0.10528888858E+03  0.10528888858E+03  0.00000000000E+00 0. -1.
         21   -1    0    0  501  502 -0.00000000000E+00 -0.00000000000E+00 -0.57150837194E+03  0.57150837194E+03  0.00000000000E+00 0. -1.
         25    1    1    2    0    0 -0.14727052855E+03  0.29642307403E+02 -0.43763727889E+03  0.47928974831E+03  0.12500000000E+03 0.  0.
         25    1    1    2    0    0  0.14727052855E+03 -0.29642307403E+02 -0.28582204479E+02  0.19750751221E+03  0.12500000000E+03 0.  0.
</event>
<event>
 4    0  0.2193754E-002  0.1832363E+03  0.7546771E-02  0.1164707E+00
         21   -1    0    0  502  501  0.00000000000E+00  0.00000000000E+00  0.40496630935E+02  0.40496630935E+02  0.00000000000E+00 0. -1.
         21   -1    0    0  501  502 -0.00000000000E+00 -0.00000000000E+00 -0.82909491937E+03  0.82909491937E+03  0.00000000000E+00 0. -1.
         25    1    1    2    0    0  0.88279287541E+02 -0.98127648150E+02 -0.33976015722E+03  0.38533651835E+03  0.12500000000E+03 0.  0.
         25    1    1    2    0    0 -0.88279287541E+02  0.98127648150E+02 -0.44883813121E+03  0.48425503195E+03  0.12500000000E+03 0.  0.
</event>
<event>
 4    0  0.2193754E-002  0.2947220E+03  0.7546771E-02  0.1087909E+00
         21   -1    0    0  502  501  0.00000000000E+00  0.00000000000E+00  0.19200619640E+03  0.19200619640E+03  0.00000000000E+00 0. -1.
         21   -1    0    0  501  502 -0.00000000000E+00 -0.00000000000E+00 -0.45238685861E+03  0.45238685861E+03  0.00000000000E+00 0. -1.
         25    1    1    2    0    0 -0.42886850058E+02  0.17995789779E+01 -0.41817397714E+03  0.43856241922E+03  0.12500000000E+03 0.  0.
         25    1    1    2    0    0  0.42886850058E+02 -0.17995789779E+01  0.15779331493E+03  0.20583063579E+03  0.12500000000E+03 0.  0.
</event>
<event>
 4    0  0.2193754E-002  0.2107331E+03  0.7546771E-02  0.1140987E+00
         21   -1    0    0  502  501  0.00000000000E+00  0.00000000000E+00  0.20496843401E+03  0.20496843401E+03  0.00000000000E+00 0. -1.
         21   -1    0    0  501  502 -0.00000000000E+00 -0.00000000000E+00 -0.21665987382E+03  0.21665987382E+03  0.00000000000E+00 0. -1.
         25    1    1    2    0    0  0.14804580485E+03 -0.22602097494E+02 -0.85594764506E+02  0.21302553569E+03  0.12500000000E+03 0.  0.
         25    1    1    2    0    0 -0.14804580485E+03  0.22602097494E+02  0.73903324702E+02  0.20860277214E+03  0.12500000000E+03 0.  0.
</event>
<event>
 4    0  0.2193754E-002  0.2520144E+03  0.7546771E-02  0.1112038E+00
         21   -1    0    0  502  501  0.00000000000E+00  0.00000000000E+00  0.13631604194E+04  0.13631604194E+04  0.00000000000E+00 0.  1.
         21   -1    0    0  501  502 -0.00000000000E+00 -0.00000000000E+00 -0.46591186382E+02  0.46591186382E+02  0.00000000000E+00 0.  1.
         25    1    1    2    0    0 -0.50156697506E+02  0.91103560676E+02  0.11968056551E+04  0.12078014444E+04  0.12500000000E+03 0.  0.
         25    1    1    2    0    0  0.50156697506E+02 -0.91103560676E+02  0.11976357789E+03  0.20195016133E+03  0.12500000000E+03 0.  0.
</event>
<event>
 4    0  0.2193754E-002  0.4164411E+03  0.7546771E-02  0.1038231E+00
         21   -1    0    0  502  501  0.00000000000E+00  0.00000000000E+00  0.20825804915E+04  0.20825804915E+04  0.00000000000E+00 0.  1.
         21   -1    0    0  501  502 -0.00000000000E+00 -0.00000000000E+00 -0.83273237830E+02  0.83273237830E+02  0.00000000000E+00 0.  1.
         25    1    1    2    0    0  0.22821954170E+03 -0.32074060372E+03  0.86108386654E+03  0.95501262783E+03  0.12500000000E+03 0.  0.
         25    1    1    2    0    0 -0.22821954170E+03  0.32074060372E+03  0.11382233871E+04  0.12108411015E+04  0.12500000000E+03 0.  0.
</event>
<event>
 4    0  0.2193754E-002  0.3412208E+03  0.7546771E-02  0.1066277E+00
         21   -1    0    0  502  501  0.00000000000E+00  0.00000000000E+00  0.48785919465E+03  0.48785919465E+03  0.00000000000E+00 0.  1.
         21   -1    0    0  501  502 -0.00000000000E+00 -0.00000000000E+00 -0.23865831554E+03  0.23865831554E+03  0.00000000000E+00 0.  1.
         25    1    1    2    0    0  0.17364915157E+03  0.12782934655E+03 -0.12350117502E+03  0.27815806641E+03  0.12500000000E+03 0.  0.
         25    1    1    2    0    0 -0.17364915157E+03 -0.12782934655E+03  0.37270205412E+03  0.44835944378E+03  0.12500000000E+03 0.  0.
</event>
<event>
 4    0  0.2193754E-002  0.2827004E+03  0.7546771E-02  0.1094223E+00
         21   -1    0    0  502  501  0.00000000000E+00  0.00000000000E+00  0.76492503145E+02  0.76492503145E+02  0.00000000000E+00 0.  1.
         21   -1    0    0  501  502 -0.00000000000E+00 -0.00000000000E+00 -0.10448019595E+04  0.10448019595E+04  0.00000000000E+00 0.  1.
         25    1    1    2    0    0  0.11870614778E+03  0.68952036108E+02 -0.90694535195E+03  0.92575396528E+03  0.12500000000E+03 0.  0.
         25    1    1    2    0    0 -0.11870614778E+03 -0.68952036108E+02 -0.61364104421E+02  0.19554049738E+03  0.12500000000E+03 0.  0.
</event>
<event>
 4    0  0.2193754E-002  0.2039803E+03  0.7546771E-02  0.1146424E+00
         21   -1    0    0  502  501  0.00000000000E+00  0.00000000000E+00  0.15456100069E+03  0.15456100069E+03  0.00000000000E+00 0.  1.
         21   -1    0    0  501  502 -0.00000000000E+00 -0.00000000000E+00 -0.26920098121E+03  0.26920098121E+03  0.00000000000E+00 0.  1.
         25    1    1    2    0    0 -0.84368799148E+01 -0.11538175868E+03  0.59272083831E+02  0.18033943301E+03  0.12500000000E+03 0.  0.
         25    1    1    2    0    0  0.84368799148E+01  0.11538175868E+03 -0.17391206436E+03  0.24342254889E+03  0.12500000000E+03 0.  0.
</event>
<event>
 4    0  0.2193754E-002  0.2037979E+03  0.7546771E-02  0.1146574E+00
         21   -1    0    0  502  501  0.00000000000E+00  0.00000000000E+00  0.29640353387E+04  0.29640353387E+04  0.00000000000E+00 0. -1.
         21   -1    0    0  501  502 -0.00000000000E+00 -0.00000000000E+00 -0.14012519129E+02  0.14012519129E+02  0.00000000000E+00 0. -1.
         25    1    1    2    0    0  0.68575302081E+02  0.12691068693E+03  0.95324693367E+03  0.97216953823E+03  0.12500000000E+03 0.  0.
         25    1    1    2    0    0 -0.68575302081E+02 -0.12691068693E+03  0.19967758859E+04  0.20058783196E+04  0.12500000000E+03 0.  0.
</event>
<event>
 4    0  0.2193754E-002  0.3343311E+03  0.7546771E-02  0.1069236E+00
         21   -1    0    0  502  501  0.00000000000E+00  0.00000000000E+00  0.61736177851E+02  0.61736177851E+02  0.00000000000E+00 0. -1.
         21   -1    0    0  501  502 -0.00000000000E+00 -0.00000000000E+00 -0.18105641501E+04  0.18105641501E+04  0.00000000000E+00 0. -1.
         25    1    1    2    0    0 -0.25832594445E+03  0.42643140996E+02 -0.13396096483E+04  0.13706676260E+04  0.12500000000E+03 0.  0.
         25    1    1    2    0    0  0.25832594445E+03 -0.42643140996E+02 -0.40921832396E+03  0.50163270200E+03  0.12500000000E+03 0.  0.
</event>
<event>
 4    0  0.2193754E-002  0.3045976E+03  0.7546771E-02  0.1082965E+00
         21   -1    0    0  502  501  0.00000000000E+00  0.00000000000E+00  0.59631011781E+03  0.59631011781E+03  0.00000000000E+00 0.  1.
         21   -1    0    0  501  502 -0.00000000000E+00 -0.00000000000E+00 -0.15558969074E+03  0.15558969074E+03  0.00000000000E+00 0.  1.
         25    1    1    2    0    0  0.37954698313E+02 -0.26975652869E+03  0.15337366021E+03  0.33668623902E+03  0.12500000000E+03 0.  0.
         25    1    1    2    0    0 -0.37954698313E+02  0.26975652869E+03  0.28734676686E+03  0.41521356953E+03  0.12500000000E+03 0.  0.
</event>
<event>
 4    0  0.2193754E-002  0.2537118E+03  0.7546771E-02  0.1110981E+00
         21   -1    0    0  502  501  0.00000000000E+00  0.00000000000E+00  0.54961600216E+02  0.54961600216E+02  0.00000000000E+00 0.  1.
         21   -1    0    0  501  502 -0.00000000000E+00 -0.00000000000E+00 -0.11711756195E+04  0.11711756195E+04  0.00000000000E+00 0.  1.
         25    1    1    2    0    0  0.16145283797E+03  0.73185165975E+02 -0.87613282268E+03  0.90258340910E+03  0.12500000000E+03 0.  0.
         25    1    1    2    0    0 -0.16145283797E+03 -0.73185165975E+02 -0.24008119665E+03  0.32355381066E+03  0.12500000000E+03 0.  0.
</event>
<event>
 4    0  0.2193754E-002  0.1725593E+03  0.7546771E-02  0.1175205E+00
         21   -1    0    0  502  501  0.00000000000E+00  0.00000000000E+00  0.49923292765E+02  0.49923292765E+02  0.00000000000E+00 0.  1.
         21   -1    0    0  501  502 -0.00000000000E+00 -0.00000000000E+00 -0.59644923846E+03  0.59644923846E+03  0.00000000000E+00 0.  1.
         25    1    1    2    0    0  0.92010201881E+02  0.64540693517E+02 -0.20023593254E+03  0.26143987273E+03  0.12500000000E+03 0.  0.
         25    1    1    2    0    0 -0.92010201881E+02 -0.64540693517E+02 -0.34629001315E+03  0.38493265850E+03  0.12500000000E+03 0.  0.
</event>
<event>
 4    0  0.2193754E-002  0.3081159E+03  0.7546771E-02  0.1081252E+00
         21   -1    0    0  502  501  0.00000000000E+00  0.00000000000E+00  0.33238359546E+03  0.33238359546E+03  0.00000000000E+00 0. -1.
         21   -1    0    0  501  502 -0.00000000000E+00 -0.00000000000E+00 -0.28562010187E+03  0.28562010187E+03  0.00000000000E+00 0. -1.
         25    1    1    2    0    0  0.24884842540E+03  0.10570567678E+03  0.10241956076E+03  0.31498253182E+03  0.12500000000E+03 0.  0.
         25    1    1    2    0    0 -0.24884842540E+03 -0.10570567678E+03 -0.55656067172E+02  0.30302116550E+03  0.12500000000E+03 0.  0.
</event>
<event>
 4    0  0.2193754E-002  0.2371359E+03  0.7546771E-02  0.1121716E+00
         21   -1    0    0  502  501  0.00000000000E+00  0.00000000000E+00  0.71219065424E+03  0.71219065424E+03  0.00000000000E+00 0.  1.
         21   -1    0    0  501  502 -0.00000000000E+00 -0.00000000000E+00 -0.78958412616E+02  0.78958412616E+02  0.00000000000E+00 0.  1.
         25    1    1    2    0    0  0.18935793542E+03 -0.11433185661E+02  0.43001610050E+03  0.48633937958E+03  0.12500000000E+03 0.  0.
         25    1    1    2    0    0 -0.18935793542E+03  0.11433185661E+02  0.20321614112E+03  0.30480968727E+03  0.12500000000E+03 0.  0.
</event>
<event>
 4    0  0.2193754E-002  0.2727269E+03  0.7546771E-02  0.1099729E+00
         21   -1    0    0  502  501  0.00000000000E+00  0.00000000000E+00  0.59516847698E+03  0.59516847698E+03  0.00000000000E+00 0. -1.
         21   -1    0    0  501  502 -0.00000000000E+00 -0.00000000000E+00 -0.12497295043E+03  0.12497295043E+03  0.00000000000E+00 0. -1.
         25    1    1    2    0    0 -0.20930992584E+03 -0.73929427988E+02  0.36363693027E+03  0.44399664687E+03  0.12500000000E+03 0.  0.
         25    1    1    2    0    0  0.20930992584E+03  0.73929427988E+02  0.10655859628E+03  0.27614478054E+03  0.12500000000E+03 0.  0.
</event>
<event>
 4    0  0.2193754E-002  0.2137304E+03  0.7546771E-02  0.1138646E+00
         21   -1    0    0  502  501  0.00000000000E+00  0.00000000000E+00  0.20140908371E+03  0.20140908371E+03  0.00000000000E+00 0.  1.
         21   -1    0    0  501  502 -0.00000000000E+00 -0.00000000000E+00 -0.22680545014E+03  0.22680545014E+03  0.00000000000E+00 0.  1.
         25    1    1    2    0    0  0.79393859783E+02  0.19218610022E+02  0.14048626490E+03  0.20502226847E+03  0.12500000000E+03 0.  0.
         25    1    1    2    0    0 -0.79393859783E+02 -0.19218610022E+02 -0.16588263134E+03  0.22319226537E+03  0.12500000000E+03 0.  0.
</event>
<event>
 4    0  0.2193754E-002  0.2236880E+03  0.7546771E-02  0.1131163E+00
         21   -1    0    0  502  501  0.00000000000E+00  0.00000000000E+00  0.50908216059E+03  0.50908216059E+03  0.00000000000E+00 0.  1.
         21   -1    0    0  501  502 -0.00000000000E+00 -0.00000000000E+00 -0.98287277739E+02  0.98287277739E+02  0.00000000000E+00 0.  1.
         25    1    1    2    0    0 -0.88856003603E+02  0.13734822302E+03  0.32415195313E+03  0.38400444328E+03  0.12500000000E+03 0.  0.
         25    1    1    2    0    0  0.88856003603E+02 -0.13734822302E+03  0.86642929728E+02  0.22336499505E+03  0.12500000000E+03 0.  0.
</event>
<event>
 4    0  0.2193754E-002  0.1859317E+03  0.7546771E-02  0.1162183E+00
         21   -1    0    0  502  501  0.00000000000E+00  0.00000000000E+00  0.16920766976E+03  0.16920766976E+03  0.00000000000E+00 0.  1.
         21   -1    0    0  501  502 -0.00000000000E+00 -0.00000000000E+00 -0.20430874024E+03  0.20430874024E+03  0.00000000000E+00 0.  1.
         25    1    1    2    0    0 -0.71401726346E+02  0.10779734332E+03 -0.64952810079E+02  0.19121281675E+03  0.12500000000E+03 0.  0.
         25    1    1    2    0    0  0.71401726346E+02 -0.10779734332E+03  0.29851739597E+02  0.18230359324E+03  0.12500000000E+03 0.  0.
</event>
<event>
 4    0  0.2193754E-002  0.2549349E+03  0.7546771E-02  0.1110225E+00
         21   -1    0    0  502  501  0.00000000000E+00  0.00000000000E+00  0.35871538688E+02  0.35871538688E+02  0.00000000000E+00 0. -1.
         21   -1    0    0  501  502 -0.00000000000E+00 -0.00000000000E+00 -0.18117929945E+04  0.18117929945E+04  0.00000000000E+00 0. -1.
         25    1    1    2    0    0 -0.20509166408E+03 -0.82188174751E+02 -0.97289341467E+03  0.10054670970E+04  0.12500000000E+03 0.  0.
         25    1    1    2    0    0  0.20509166408E+03  0.82188174751E+02 -0.80302804117E+03  0.84219743626E+03  0.12500000000E+03 0.  0.
</event>
<event>
 4    0  0.2193754E-002  0.2150371E+03  0.7546771E-02  0.1137638E+00
         21   -1    0    0  502  501  0.00000000000E+00  0.00000000000E+00  0.16137202825E+03  0.16137202825E+03  0.00000000000E+00 0. -1.
         21   -1    0    0  501  502 -0.00000000000E+00 -0.00000000000E+00 -0.28654868874E+03  0.28654868874E+03  0.00000000000E+00 0. -1.
         25    1    1    2    0    0  0.13913197727E+03 -0.67889263508E+02  0.22338565586E+02  0.20022654847E+03  0.12500000000E+03 0.  0.
         25    1    1    2    0    0 -0.13913197727E+03  0.67889263508E+02 -0.14751522608E+03  0.24769416853E+03  0.12500000000E+03 0.  0.
</event>
<event>
 4    0  0.2193754E-002  0.2183768E+03  0.7546771E-02  0.1135099E+00
         21   -1    0    0  502  501  0.00000000000E+00  0.00000000000E+00  0.48728344062E+03  0.48728344062E+03  0.00000000000E+00 0. -1.
         21   -1    0    0  501  502 -0.00000000000E+00 -0.00000000000E+00 -0.97865912797E+02  0.97865912797E+02  0.00000000000E+00 0. -1.
         25    1    1    2    0    0  0.17776967243E+03  0.22741195886E+01  0.16609250268E+03  0.27353052390E+03  0.12500000000E+03 0.  0.
         25    1    1    2    0    0 -0.17776967243E+03 -0.22741195886E+01  0.22332502515E+03  0.31161882952E+03  0.12500000000E+03 0.  0.
</event>
<event>
 4    0  0.2193754E-002  0.1877137E+03  0.7546771E-02  0.1160540E+00
         21   -1    0    0  502  501  0.00000000000E+00  0.00000000000E+00  0.13194572743E+03  0.13194572743E+03  0.00000000000E+00 0.  1.
         21   -1    0    0  501  502 -0.00000000000E+00 -0.00000000000E+00 -0.26705234817E+03  0.26705234817E+03  0.00000000000E+00 0.  1.
         25    1    1    2    0    0  0.98832453228E+02  0.36487577360E+02 -0.16560754160E+03  0.23270164363E+03  0.12500000000E+03 0.  0.
         25    1    1    2    0    0 -0.98832453228E+02 -0.36487577360E+02  0.30500920864E+02  0.16629643197E+03  0.12500000000E+03 0.  0.
</event>
<event>
 4    0  0.2193754E-002  0.2024363E+03  0.7546771E-02  0.1147700E+00
         21   -1    0    0  502  501  0.00000000000E+00  0.00000000000E+00  0.80189885552E+03  0.80189885552E+03  0.00000000000E+00 0.  1.
         21   -1    0    0  501  502 -0.00000000000E+00 -0.00000000000E+00 -0.51104288011E+02  0.51104288011E+02  0.00000000000E+00 0.  1.
         25    1    1    2    0    0 -0.84776367622E+02  0.13404631289E+03  0.34560026957E+03  0.40027489658E+03  0.12500000000E+03 0.  0.
         25    1    1    2    0    0  0.84776367622E+02 -0.13404631289E+03  0.40519429793E+03  0.45272824695E+03  0.12500000000E+03 0.  0.
</event>
<event>
 4    0  0.2193754E-002  0.1956670E+03  0.7546771E-02  0.1153447E+00
         21   -1    0    0  502  501  0.00000000000E+00  0.00000000000E+00  0.14291333108E+03  0.14291333108E+03  0.00000000000E+00 0.  1.
         21   -1    0    0  501  502 -0.00000000000E+00 -0.00000000000E+00 -0.26789376334E+03  0.26789376334E+03  0.00000000000E+00 0.  1.
         25    1    1    2    0    0  0.14063404489E+03 -0.52423354904E+02 -0.74662341762E+02  0.20910669047E+03  0.12500000000E+03 0.  0.
         25    1    1    2    0    0 -0.14063404489E+03  0.52423354904E+02 -0.50318090489E+02  0.20170040395E+03  0.12500000000E+03 0.  0.
</event>
<event>
 4    0  0.2193754E-002  0.2032554E+03  0.7546771E-02  0.1147021E+00
         21   -1    0    0  502  501  0.00000000000E+00  0.00000000000E+00  0.60595763247E+03  0.60595763247E+03  0.00000000000E+00 0. -1.
         21   -1    0    0  501  502 -0.00000000000E+00 -0.00000000000E+00 -0.68177633139E+02  0.68177633139E+02  0.00000000000E+00 0. -1.
         25    1    1    2    0    0  0.10830542124E+03  0.76761233028E+02  0.41782201895E+03  0.45587563072E+03  0.12500000000E+03 0.  0.
         25    1    1    2    0    0 -0.10830542124E+03 -0.76761233028E+02  0.11995798038E+03  0.21825963489E+03  0.12500000000E+03 0.  0.
</event>
<event>
 4    0  0.2193754E-002  0.1726190E+03  0.7546771E-02  0.1175144E+00
         21   -1    0    0  502  501  0.00000000000E+00  0.00000000000E+00  0.75640437003E+02  0.75640437003E+02  0.00000000000E+00 0. -1.
         21   -1    0    0  501  502 -0.00000000000E+00 -0.00000000000E+00 -0.39393363353E+03  0.39393363353E+03  0.00000000000E+00 0. -1.
         25    1    1    2    0    0  0.58648619912E+02  0.66739322797E+02 -0.26692060089E+03  0.30783990158E+03  0.12500000000E+03 0.  0.
         25    1    1    2    0    0 -0.58648619912E+02 -0.66739322797E+02 -0.51372595639E+02  0.16173416896E+03  0.12500000000E+03 0.  0.
</event>
<event>
 4    0  0.2193754E-002  0.2011146E+03  0.7546771E-02  0.1148802E+00
         21   -1    0    0  502  501  0.00000000000E+00  0.00000000000E+00  0.14845892529E+04  0.14845892529E+04  0.00000000000E+00 0.  1.
         21   -1    0    0  501  502 -0.00000000000E+00 -0.00000000000E+00 -0.27244633076E+02  0.27244633076E+02  0.00000000000E+00 0.  1.
         25    1    1    2    0    0  0.10863547285E+03 -0.72853054474E+02  0.10587666304E+04  0.10741140588E+04  0.12500000000E+03 0.  0.
         25    1    1    2    0    0 -0.10863547285E+03  0.72853054474E+02  0.39857798934E+03  0.43771982716E+03  0.12500000000E+03 0.  0.
</event>
<event>
 4    0  0.2193754E-002  0.1926878E+03  0.7546771E-02  0.1156059E+00
         21   -1    0    0  502  501  0.00000000000E+00  0.00000000000E+00  0.56937966889E+03  0.56937966889E+03  0.00000000000E+00 0.  1.
         21   -1    0    0  501  502 -0.00000000000E+00 -0.00000000000E+00 -0.65208848105E+02  0.65208848105E+02  0.00000000000E+00 0.  1.
         25    1    1    2    0    0  0.71482684119E+02  0.12141699365E+03  0.18516204914E+03  0.26412467684E+03  0.12500000000E+03 0.  0.
         25    1    1    2    0    0 -0.71482684119E+02 -0.12141699365E+03  0.31900877164E+03  0.37046384015E+03  0.12500000000E+03 0.  0.
</event>
<event>
 4    0  0.2193754E-002  0.1534543E+03  0.7546771E-02  0.1196292E+00
         21   -1    0    0  502  501  0.00000000000E+00  0.00000000000E+00  0.22140858495E+03  0.22140858495E+03  0.00000000000E+00 0.  1.
         21   -1    0    0  501  502 -0.00000000000E+00 -0.00000000000E+00 -0.10635639575E+03  0.10635639575E+03  0.00000000000E+00 0.  1.
         25    1    1    2    0    0 -0.17379045337E+02 -0.67660451378E+02 -0.13884358851E+01  0.14320228927E+03  0.12500000000E+03 0.  0.
         25    1    1    2    0    0  0.17379045337E+02  0.67660451378E+02  0.11644062509E+03  0.18456269143E+03  0.12500000000E+03 0.  0.
</event>
<event>
 4    0  0.2193754E-002  0.1755078E+03  0.7546771E-02  0.1172223E+00
         21   -1    0    0  502  501  0.00000000000E+00  0.00000000000E+00  0.45464534848E+02  0.45464534848E+02  0.00000000000E+00 0. -1.
         21   -1    0    0  501  502 -0.00000000000E+00 -0.00000000000E+00 -0.67751701797E+03  0.67751701797E+03  0.00000000000E+00 0. -1.
         25    1    1    2    0    0  0.38040172722E+01 -0.12065338175E+03 -0.26531084010E+03  0.31715382852E+03  0.12500000000E+03 0.  0.
         25    1    1    2    0    0 -0.38040172722E+01  0.12065338175E+03 -0.36674164303E+03  0.40582772429E+03  0.12500000000E+03 0.  0.
</event>
<event>
 4    0  0.2193754E-002  0.2687936E+03  0.7546771E-02  0.1101972E+00
         21   -1    0    0  502  501  0.00000000000E+00  0.00000000000E+00  0.11695574863E+03  0.11695574863E+03  0.00000000000E+00 0. -1.
         21   -1    0    0  501  502 -0.00000000000E+00 -0.00000000000E+00 -0.61775487897E+03  0.61775487897E+03  0.00000000000E+00 0. -1.
         25    1    1    2    0    0  0.27132755874E+01  0.12173787357E+03  0.29010898755E+02  0.17690139619E+03  0.12500000000E+03 0.  0.
         25    1    1    2    0    0 -0.27132755874E+01 -0.12173787357E+03 -0.52981002910E+03  0.55780923142E+03  0.12500000000E+03 0.  0.
</event>
<event>
 4    0  0.2193754E-002  0.3407867E+03  0.7546771E-02  0.1066461E+00
         21   -1    0    0  502  501  0.00000000000E+00  0.00000000000E+00  0.16707326564E+03  0.16707326564E+03  0.00000000000E+00 0. -1.
         21   -1    0    0  501  502 -0.00000000000E+00 -0.00000000000E+00 -0.69511757708E+03  0.69511757708E+03  0.00000000000E+00 0. -1.
         25    1    1    2    0    0 -0.30954255179E+03  0.66134531159E+02 -0.24138620381E+03  0.41723214997E+03  0.12500000000E+03 0.  0.
         25    1    1    2    0    0  0.30954255179E+03 -0.66134531159E+02 -0.28665810763E+03  0.44495869274E+03  0.12500000000E+03 0.  0.
</event>
<event>
 4    0  0.2193754E-002  0.2724029E+03  0.7546771E-02  0.1099912E+00
         21   -1    0    0  502  501  0.00000000000E+00  0.00000000000E+00  0.15047469077E+03  0.15047469077E+03  0.00000000000E+00 0. -1.
         21   -1    0    0  501  502 -0.00000000000E+00 -0.00000000000E+00 -0.49312820885E+03  0.49312820885E+03  0.00000000000E+00 0. -1.
         25    1    1    2    0    0  0.46691943494E+02  0.17479277434E+03 -0.36124653251E+03  0.42291454077E+03  0.12500000000E+03 0.  0.
         25    1    1    2    0    0 -0.46691943494E+02 -0.17479277434E+03  0.18593014430E+02  0.22068835885E+03  0.12500000000E+03 0.  0.
</event>
<event>
 4    0  0.2193754E-002  0.1725391E+03  0.7546771E-02  0.1175226E+00
         21   -1    0    0  502  501  0.00000000000E+00  0.00000000000E+00  0.16628904724E+03  0.16628904724E+03  0.00000000000E+00 0.  1.
         21   -1    0    0  501  502 -0.00000000000E+00 -0.00000000000E+00 -0.17902403172E+03  0.17902403172E+03  0.00000000000E+00 0.  1.
         25    1    1    2    0    0 -0.57398325694E+01  0.28422759404E+02  0.10905371926E+03  0.16839985931E+03  0.12500000000E+03 0.  0.
         25    1    1    2    0    0  0.57398325694E+01 -0.28422759404E+02 -0.12178870373E+03  0.17691321965E+03  0.12500000000E+03 0.  0.
</event>
<event>
 4    0  0.2193754E-002  0.2079129E+03  0.7546771E-02  0.1143229E+00
         21   -1    0    0  502  501  0.00000000000E+00  0.00000000000E+00  0.22976709166E+03  0.22976709166E+03  0.00000000000E+00 0.  1.
         21   -1    0    0  501  502 -0.00000000000E+00 -0.00000000000E+00 -0.18813734097E+03  0.18813734097E+03  0.00000000000E+00 0.  1.
         25    1    1    2    0    0 -0.83345994449E+02  0.13514851314E+03 -0.28328379512E+02  0.20405678739E+03  0.12500000000E+03 0.  0.
         25    1    1    2    0    0  0.83345994449E+02 -0.13514851314E+03  0.69958130203E+02  0.21384764525E+03  0.12500000000E+03 0.  0.
</event>
<event>
 4    0  0.2193754E-002  0.2885572E+03  0.7546771E-02  0.1091105E+00
         21   -1    0    0  502  501  0.00000000000E+00  0.00000000000E+00  0.15479207764E+03  0.15479207764E+03  0.00000000000E+00 0. -1.
         21   -1    0    0  501  502 -0.00000000000E+00 -0.00000000000E+00 -0.53791687656E+03  0.53791687656E+03  0.00000000000E+00 0. -1.
         25    1    1    2    0    0  0.61435909302E+02  0.22088497454E+03 -0.44185979488E+02  0.26484324366E+03  0.12500000000E+03 0.  0.
         25    1    1    2    0    0 -0.61435909302E+02 -0.22088497454E+03 -0.33893881943E+03  0.42786571053E+03  0.12500000000E+03 0.  0.
</event>
<event>
 4    0  0.2193754E-002  0.2085669E+03  0.7546771E-02  0.1142706E+00
         21   -1    0    0  502  501  0.00000000000E+00  0.00000000000E+00  0.13346347598E+04  0.13346347598E+04  0.00000000000E+00 0.  1.
         21   -1    0    0  501  502 -0.00000000000E+00 -0.00000000000E+00 -0.32593308499E+02  0.32593308499E+02  0.00000000000E+00 0.  1.
         25    1    1    2    0    0 -0.25869294921E+02  0.75885327523E+02  0.11310331098E+04  0.11407404170E+04  0.12500000000E+03 0.  0.
         25    1    1    2    0    0  0.25869294921E+02 -0.75885327523E+02  0.17100834144E+03  0.22648765130E+03  0.12500000000E+03 0.  0.
</event>
<event>
 4    0  0.2193754E-002  0.2676221E+03  0.7546771E-02  0.1102648E+00
         21   -1    0    0  502  501  0.00000000000E+00  0.00000000000E+00  0.42098410678E+02  0.42098410678E+02  0.00000000000E+00 0.  1.
         21   -1    0    0  501  502 -0.00000000000E+00 -0.00000000000E+00 -0.17012892821E+04  0.17012892821E+04  0.00000000000E+00 0.  1.
         25    1    1    2    0    0  0.23251184740E+03  0.39420542856E+02 -0.76603141962E+03  0.81119965127E+03  0.12500000000E+03 0.  0.
         25    1    1    2    0    0 -0.23251184740E+03 -0.39420542856E+02 -0.89315945176E+03  0.93218804147E+03  0.12500000000E+03 0.  0.
</event>
<event>
 4    0  0.2193754E-002  0.1879603E+03  0.7546771E-02  0.1160314E+00
         21   -1    0    0  502  501  0.00000000000E+00  0.00000000000E+00  0.18697727851E+03  0.18697727851E+03  0.00000000000E+00 0.  1.
         21   -1    0    0  501  502 -0.00000000000E+00 -0.00000000000E+00 -0.18894839095E+03  0.18894839095E+03  0.00000000000E+00 0.  1.
         25    1    1    2    0    0  0.24021467746E+02  0.36814043639E+02  0.13232700810E+03  0.18726382938E+03  0.12500000000E+03 0.  0.
         25    1    1    2    0    0 -0.24021467746E+02 -0.36814043639E+02 -0.13429812054E+03  0.18866184008E+03  0.12500000000E+03 0.  0.
</event>
<event>
 4    0  0.2193754E-002  0.2579269E+03  0.7546771E-02  0.1108395E+00
         21   -1    0    0  502  501  0.00000000000E+00  0.00000000000E+00  0.19595586177E+04  0.19595586177E+04  0.00000000000E+00 0.  1.
         21   -1    0    0  501  502 -0.00000000000E+00 -0.00000000000E+00 -0.33949637667E+02  0.33949637667E+02  0.00000000000E+00 0.  1.
         25    1    1    2    0    0 -0.11849450861E+03  0.15596167564E+03  0.53011510473E+03  0.57880222624E+03  0.12500000000E+03 0.  0.
         25    1    1    2    0    0  0.11849450861E+03 -0.15596167564E+03  0.13954938753E+04  0.14147060291E+04  0.12500000000E+03 0.  0.
</event>
<event>
 4    0  0.2193754E-002  0.2674126E+03  0.7546771E-02  0.1102770E+00
         21   -1    0    0  502  501  0.00000000000E+00  0.00000000000E+00  0.25336517390E+03  0.25336517390E+03  0.00000000000E+00 0. -1.
         21   -1    0    0  501  502 -0.00000000000E+00 -0.00000000000E+00 -0.28223892730E+03  0.28223892730E+03  0.00000000000E+00 0. -1.
         25    1    1    2    0    0 -0.36634540496E+02  0.12912356621E+03  0.18044746197E+03  0.25729607739E+03  0.12500000000E+03 0.  0.
         25    1    1    2    0    0  0.36634540496E+02 -0.12912356621E+03 -0.20932121538E+03  0.27830802381E+03  0.12500000000E+03 0.  0.
</event>
<event>
 4    0  0.2193754E-002  0.2142962E+03  0.7546771E-02  0.1138208E+00
         21   -1    0    0  502  501  0.00000000000E+00  0.00000000000E+00  0.22430034545E+03  0.22430034545E+03  0.00000000000E+00 0. -1.
         21   -1    0    0  501  502 -0.00000000000E+00 -0.00000000000E+00 -0.20473825886E+03  0.20473825886E+03  0.00000000000E+00 0. -1.
         25    1    1    2    0    0  0.14144394779E+03 -0.10104199333E+03  0.71692671292E+00  0.21410602225E+03  0.12500000000E+03 0.  0.
         25    1    1    2    0    0 -0.14144394779E+03  0.10104199333E+03  0.18845159877E+02  0.21493258206E+03  0.12500000000E+03 0.  0.
</event>
<event>
 4    0  0.2193754E-002  0.2350750E+03  0.7546771E-02  0.1123118E+00
         21   -1    0    0  502  501  0.00000000000E+00  0.00000000000E+00  0.10154660818E+04  0.10154660818E+04  0.00000000000E+00 0. -1.
         21   -1    0    0  501  502 -0.00000000000E+00 -0.00000000000E+00 -0.54418631528E+02  0.54418631528E+02  0.00000000000E+00 0. -1.
         25    1    1    2    0    0  0.74869019093E+02  0.18425132369E+03  0.45999837593E+03  0.51650501078E+03  0.12500000000E+03 0.  0.
         25    1    1    2    0    0 -0.74869019093E+02 -0.18425132369E+03  0.50104907438E+03  0.55337970259E+03  0.12500000000E+03 0.  0.
</event>
<event>
 4    0  0.2193754E-002  0.2592261E+03  0.7546771E-02  0.1107609E+00
         21   -1    0    0  502  501  0.00000000000E+00  0.00000000000E+00  0.32769204820E+03  0.32769204820E+03  0.00000000000E+00 0.  1.
         21   -1    0    0  501  502 -0.00000000000E+00 -0.00000000000E+00 -0.20506494045E+03  0.20506494045E+03  0.00000000000E+00 0.  1.
         25    1    1    2    0    0  0.99534815387E+02 -0.12118869650E+03  0.23009923601E+03  0.30522866517E+03  0.12500000000E+03 0.  0.
         25    1    1    2    0    0 -0.99534815387E+02  0.12118869650E+03 -0.10747212825E+03  0.22752832348E+03  0.12500000000E+03 0.  0.
</event>
<event>
 4    0  0.2193754E-002  0.1865399E+03  0.7546771E-02  0.1161620E+00
         21   -1    0    0  502  501  0.00000000000E+00  0.00000000000E+00  0.61314819161E+03  0.61314819161E+03  0.00000000000E+00 0. -1.
         21   -1    0    0  501  502 -0.00000000000E+00 -0.00000000000E+00 -0.56751571395E+02  0.56751571395E+02  0.00000000000E+00 0. -1.
         25    1    1    2    0    0 -0.67475807930E+01 -0.13410032873E+03  0.33892272467E+03  0.38538557486E+03  0.12500000000E+03 0.  0.
         25    1    1    2    0    0  0.67475807930E+01  0.13410032873E+03  0.21747389555E+03  0.28451418815E+03  0.12500000000E+03 0.  0.
</event>
<event>
 4    0  0.2193754E-002  0.1642831E+03  0.7546771E-02  0.1183944E+00
         21   -1    0    0  502  501  0.00000000000E+00  0.00000000000E+00  0.26332282795E+02  0.26332282795E+02  0.00000000000E+00 0.  1.
         21   -1    0    0  501  502 -0.00000000000E+00 -0.00000000000E+00 -0.10249377938E+04  0.10249377938E+04  0.00000000000E+00 0.  1.
         25    1    1    2    0    0  0.90196762453E+02  0.55715592083E+02 -0.53497021143E+03  0.55951569261E+03  0.12500000000E+03 0.  0.
         25    1    1    2    0    0 -0.90196762453E+02 -0.55715592083E+02 -0.46363529958E+03  0.49175438400E+03  0.12500000000E+03 0.  0.
</event>
<event>
 4    0  0.2193754E-002  0.2522687E+03  0.7546771E-02  0.1111879E+00
         21   -1    0    0  502  501  0.00000000000E+00  0.00000000000E+00  0.16560258854E+04  0.16560258854E+04  0.00000000000E+00 0.  1.
         21   -1    0    0  501  502 -0.00000000000E+00 -0.00000000000E+00 -0.38429045670E+02  0.38429045670E+02  0.00000000000E+00 0.  1.
         25    1    1    2    0    0 -0.60672469718E+02  0.29353855314E+02  0.10856962966E+03  0.17876006793E+03  0.12500000000E+03 0.  0.
         25    1    1    2    0    0  0.60672469718E+02 -0.29353855314E+02  0.15090272100E+04  0.15156948631E+04  0.12500000000E+03 0.  0.
</event>
<event>
 4    0  0.2193754E-002  0.2253681E+03  0.7546771E-02  0.1129943E+00
         21   -1    0    0  502  501  0.00000000000E+00  0.00000000000E+00  0.15868333510E+03  0.15868333510E+03  0.00000000000E+00 0.  1.
         21   -1    0    0  501  502 -0.00000000000E+00 -0.00000000000E+00 -0.32007623984E+03  0.32007623984E+03  0.00000000000E+00 0.  1.
         25    1    1    2    0    0  0.14642544373E+03 -0.11001379330E+03 -0.37914228941E+02  0.22495762722E+03  0.12500000000E+03 0.  0.
         25    1    1    2    0    0 -0.14642544373E+03  0.11001379330E+03 -0.12347867580E+03  0.25380194771E+03  0.12500000000E+03 0.  0.
</event>
<event>
 4    0  0.2193754E-002  0.1390433E+03  0.7546771E-02  0.1214622E+00
         21   -1    0    0  502  501  0.00000000000E+00  0.00000000000E+00  0.76200899095E+03  0.76200899095E+03  0.00000000000E+00 0.  1.
         21   -1    0    0  501  502 -0.00000000000E+00 -0.00000000000E+00 -0.25371157562E+02  0.25371157562E+02  0.00000000000E+00 0.  1.
         25    1    1    2    0    0  0.13541163895E+02 -0.57983331921E+02  0.40442593439E+03  0.42747019347E+03  0.12500000000E+03 0.  0.
         25    1    1    2    0    0 -0.13541163895E+02  0.57983331921E+02  0.33221189900E+03  0.35990995504E+03  0.12500000000E+03 0.  0.
</event>
<event>
 4    0  0.2193754E-002  0.1802887E+03  0.7546771E-02  0.1167524E+00
         21   -1    0    0  502  501  0.00000000000E+00  0.00000000000E+00  0.74300471351E+02  0.74300471351E+02  0.00000000000E+00 0. -1.
         21   -1    0    0  501  502 -0.00000000000E+00 -0.00000000000E+00 -0.43746727008E+03  0.43746727008E+03  0.00000000000E+00 0. -1.
         25    1    1    2    0    0  0.80057683852E+02  0.57073026000E+02 -0.61047588752E+02  0.17034779462E+03  0.12500000000E+03 0.  0.
         25    1    1    2    0    0 -0.80057683852E+02 -0.57073026000E+02 -0.30211920998E+03  0.34141994681E+03  0.12500000000E+03 0.  0.
</event>
<event>
 4    0  0.2193754E-002  0.2020585E+03  0.7546771E-02  0.1148014E+00
         21   -1    0    0  502  501  0.00000000000E+00  0.00000000000E+00  0.16005010301E+03  0.16005010301E+03  0.00000000000E+00 0. -1.
         21   -1    0    0  501  502 -0.00000000000E+00 -0.00000000000E+00 -0.25509291300E+03  0.25509291300E+03  0.00000000000E+00 0. -1.
         25    1    1    2    0    0  0.92942448042E+02 -0.12865585337E+03 -0.51082948477E+02  0.20838688750E+03  0.12500000000E+03 0.  0.
         25    1    1    2    0    0 -0.92942448042E+02  0.12865585337E+03 -0.43959861509E+02  0.20675612852E+03  0.12500000000E+03 0.  0.
</event>
<event>
 4    0  0.2193754E-002  0.2512557E+03  0.7546771E-02  0.1112514E+00
         21   -1    0    0  502  501  0.00000000000E+00  0.00000000000E+00  0.64669907402E+03  0.64669907402E+03  0.00000000000E+00 0.  1.
         21   -1    0    0  501  502 -0.00000000000E+00 -0.00000000000E+00 -0.97617925432E+02  0.97617925432E+02  0.00000000000E+00 0.  1.
         25    1    1    2    0    0  0.75535821645E+02  0.89678372086E+02  0.24013949690E+01  0.17140197627E+03  0.12500000000E+03 0.  0.
         25    1    1    2    0    0 -0.75535821645E+02 -0.89678372086E+02  0.54667975362E+03  0.57291502319E+03  0.12500000000E+03 0.  0.
</event>
<event>
 4    0  0.2193754E-002  0.1847835E+03  0.7546771E-02  0.1163252E+00
         21   -1    0    0  502  501  0.00000000000E+00  0.00000000000E+00  0.76699210760E+02  0.76699210760E+02  0.00000000000E+00 0.  1.
         21   -1    0    0  501  502 -0.00000000000E+00 -0.00000000000E+00 -0.44518005879E+03  0.44518005879E+03  0.00000000000E+00 0.  1.
         25    1    1    2    0    0  0.26332245254E+02 -0.97687989071E+02 -0.31276526235E+03  0.35168656455E+03  0.12500000000E+03 0.  0.
         25    1    1    2    0    0 -0.26332245254E+02  0.97687989071E+02 -0.55715585679E+02  0.17019270500E+03  0.12500000000E+03 0.  0.
</event>
<event>
 4    0  0.2193754E-002  0.3376984E+03  0.7546771E-02  0.1067780E+00
         21   -1    0    0  502  501  0.00000000000E+00  0.00000000000E+00  0.23252492443E+03  0.23252492443E+03  0.00000000000E+00 0.  1.
         21   -1    0    0  501  502 -0.00000000000E+00 -0.00000000000E+00 -0.49044295054E+03  0.49044295054E+03  0.00000000000E+00 0.  1.
         25    1    1    2    0    0 -0.16973135191E+03 -0.12886062906E+03 -0.37539477881E+03  0.44939963674E+03  0.12500000000E+03 0.  0.
         25    1    1    2    0    0  0.16973135191E+03  0.12886062906E+03  0.11747675270E+03  0.27356823823E+03  0.12500000000E+03 0.  0.
</event>
<event>
 4    0  0.2193754E-002  0.1852171E+03  0.7546771E-02  0.1162847E+00
         21   -1    0    0  502  501  0.00000000000E+00  0.00000000000E+00  0.18206210368E+03  0.18206210368E+03  0.00000000000E+00 0.  1.
         21   -1    0    0  501  502 -0.00000000000E+00 -0.00000000000E+00 -0.18842685932E+03  0.18842685932E+03  0.00000000000E+00 0.  1.
         25    1    1    2    0    0 -0.12226854711E+03  0.11850668088E+02 -0.63110788321E+02  0.18627401201E+03  0.12500000000E+03 0.  0.
         25    1    1    2    0    0  0.12226854711E+03 -0.11850668088E+02  0.56746032677E+02  0.18421495100E+03  0.12500000000E+03 0.  0.
</event>
<event>
 4    0  0.2193754E-002  0.5288593E+03  0.7546771E-02  0.1006509E+00
         21   -1    0    0  502  501  0.00000000000E+00  0.00000000000E+00  0.63044127826E+03  0.63044127826E+03  0.00000000000E+00 0. -1.
         21   -1    0    0  501  502 -0.00000000000E+00 -0.00000000000E+00 -0.44364506403E+03  0.44364506403E+03  0.00000000000E+00 0.  1.
         25    1    1    2    0    0 -0.26007644531E+02  0.48580222649E+03 -0.74652841489E+02  0.50781713990E+03  0.12500000000E+03 0.  0.
         25    1    1    2    0    0  0.26007644531E+02 -0.48580222649E+03  0.26144905573E+03  0.56626920239E+03  0.12500000000E+03 0.  0.
</event>
<event>
 4    0  0.2193754E-002  0.2215091E+03  0.7546771E-02  0.1132763E+00
         21   -1    0    0  502  501  0.00000000000E+00  0.00000000000E+00  0.50116261548E+03  0.50116261548E+03  0.00000000000E+00 0. -1.
         21   -1    0    0  501  502 -0.00000000000E+00 -0.00000000000E+00 -0.97904923112E+02  0.97904923112E+02  0.00000000000E+00 0. -1.
         25    1    1    2    0    0 -0.20922004839E+02 -0.15908067181E+03  0.82994066648E+02  0.21967568261E+03  0.12500000000E+03 0.  0.
         25    1    1    2    0    0  0.20922004839E+02  0.15908067181E+03  0.32026362572E+03  0.37939185598E+03  0.12500000000E+03 0.  0.
</event>
<event>
 4    0  0.2193754E-002  0.1638540E+03  0.7546771E-02  0.1184413E+00
         21   -1    0    0  502  501  0.00000000000E+00  0.00000000000E+00  0.92840248471E+03  0.92840248471E+03  0.00000000000E+00 0. -1.
         21   -1    0    0  501  502 -0.00000000000E+00 -0.00000000000E+00 -0.28918641898E+02  0.28918641898E+02  0.00000000000E+00 0. -1.
         25    1    1    2    0    0  0.15837342617E+02  0.10444953948E+03  0.47285707726E+03  0.50037919944E+03  0.12500000000E+03 0.  0.
         25    1    1    2    0    0 -0.15837342617E+02 -0.10444953948E+03  0.42662676556E+03  0.45694192717E+03  0.12500000000E+03 0.  0.
</event>
<event>
 4    0  0.2193754E-002  0.2068176E+03  0.7546771E-02  0.1144111E+00
         21   -1    0    0  502  501  0.00000000000E+00  0.00000000000E+00  0.67575053575E+03  0.67575053575E+03  0.00000000000E+00 0. -1.
         21   -1    0    0  501  502 -0.00000000000E+00 -0.00000000000E+00 -0.63297804850E+02  0.63297804850E+02  0.00000000000E+00 0. -1.
         25    1    1    2    0    0  0.15339121330E+03 -0.59449368004E+02  0.28971167813E+03  0.35583837359E+03  0.12500000000E+03 0.  0.
         25    1    1    2    0    0 -0.15339121330E+03  0.59449368004E+02  0.32274105278E+03  0.38320996702E+03  0.12500000000E+03 0.  0.
</event>
<event>
 4    0  0.2193754E-002  0.2417315E+03  0.7546771E-02  0.1118645E+00
         21   -1    0    0  502  501  0.00000000000E+00  0.00000000000E+00  0.22968670415E+02  0.22968670415E+02  0.00000000000E+00 0. -1.
         21   -1    0    0  501  502 -0.00000000000E+00 -0.00000000000E+00 -0.25440795606E+04  0.25440795606E+04  0.00000000000E+00 0. -1.
         25    1    1    2    0    0 -0.45536331447E+02 -0.19584468277E+02 -0.23271598657E+04  0.23310416447E+04  0.12500000000E+03 0.  0.
         25    1    1    2    0    0  0.45536331447E+02  0.19584468277E+02 -0.19395102451E+03  0.23600658632E+03  0.12500000000E+03 0.  0.
</event>
<event>
 4    0  0.2193754E-002  0.1460567E+03  0.7546771E-02  0.1205404E+00
         21   -1    0    0  502  501  0.00000000000E+00  0.00000000000E+00  0.36817701730E+02  0.36817701730E+02  0.00000000000E+00 0. -1.
         21   -1    0    0  501  502 -0.00000000000E+00 -0.00000000000E+00 -0.57941075043E+03  0.57941075043E+03  0.00000000000E+00 0. -1.
         25    1    1    2    0    0  0.21672812148E+02 -0.56768490877E+02 -0.36599635437E+03  0.39149802522E+03  0.12500000000E+03 0.  0.
         25    1    1    2    0    0 -0.21672812148E+02  0.56768490877E+02 -0.17659669434E+03  0.22473042694E+03  0.12500000000E+03 0.  0.
</event>
<event>
 4    0  0.2193754E-002  0.1806198E+03  0.7546771E-02  0.1167205E+00
         21   -1    0    0  502  501  0.00000000000E+00  0.00000000000E+00  0.10976395806E+03  0.10976395806E+03  0.00000000000E+00 0.  1.
         21   -1    0    0  501  502 -0.00000000000E+00 -0.00000000000E+00 -0.29721518146E+03  0.29721518146E+03  0.00000000000E+00 0.  1.
         25    1    1    2    0    0  0.25227394418E+02 -0.10679348656E+03 -0.14403010091E+02  0.16695423595E+03  0.12500000000E+03 0.  0.
         25    1    1    2    0    0 -0.25227394418E+02  0.10679348656E+03 -0.17304821331E+03  0.24002490357E+03  0.12500000000E+03 0.  0.
</event>
<event>
 4    0  0.2193754E-002  0.2201949E+03  0.7546771E-02  0.1133738E+00
         21   -1    0    0  502  501  0.00000000000E+00  0.00000000000E+00  0.19136622623E+03  0.19136622623E+03  0.00000000000E+00 0.  1.
         21   -1    0    0  501  502 -0.00000000000E+00 -0.00000000000E+00 -0.25336641769E+03  0.25336641769E+03  0.00000000000E+00 0.  1.
         25    1    1    2    0    0 -0.26859835797E+01  0.79797733163E+01  0.15186540539E+03  0.19687303686E+03  0.12500000000E+03 0.  0.
         25    1    1    2    0    0  0.26859835797E+01 -0.79797733163E+01 -0.21386559685E+03  0.24785960705E+03  0.12500000000E+03 0.  0.
</event>
<event>
 4    0  0.2193754E-002  0.1957144E+03  0.7546771E-02  0.1153406E+00
         21   -1    0    0  502  501  0.00000000000E+00  0.00000000000E+00  0.87522713410E+03  0.87522713410E+03  0.00000000000E+00 0. -1.
         21   -1    0    0  501  502 -0.00000000000E+00 -0.00000000000E+00 -0.43764778684E+02  0.43764778684E+02  0.00000000000E+00 0. -1.
         25    1    1    2    0    0  0.82052166190E+02 -0.48103020135E+02  0.68985658707E+03  0.70751223964E+03  0.12500000000E+03 0.  0.
         25    1    1    2    0    0 -0.82052166190E+02  0.48103020135E+02  0.14160576835E+03  0.21147967314E+03  0.12500000000E+03 0.  0.
</event>
<event>
 4    0  0.2193754E-002  0.3058451E+03  0.7546771E-02  0.1082355E+00
         21   -1    0    0  502  501  0.00000000000E+00  0.00000000000E+00  0.84644259553E+02  0.84644259553E+02  0.00000000000E+00 0.  1.
         21   -1    0    0  501  502 -0.00000000000E+00 -0.00000000000E+00 -0.11051100338E+04  0.11051100338E+04  0.00000000000E+00 0.  1.
         25    1    1    2    0    0 -0.11479124100E+03 -0.10039989413E+03 -0.55499523403E+02  0.20484717437E+03  0.12500000000E+03 0.  0.
         25    1    1    2    0    0  0.11479124100E+03  0.10039989413E+03 -0.96496625083E+03  0.98490711897E+03  0.12500000000E+03 0.  0.
</event>
<event>
 4    0  0.2193754E-002  0.1583364E+03  0.7546771E-02  0.1190588E+00
         21   -1    0    0  502  501  0.00000000000E+00  0.00000000000E+00  0.74374622423E+03  0.74374622423E+03  0.00000000000E+00 0.  1.
         21   -1    0    0  501  502 -0.00000000000E+00 -0.00000000000E+00 -0.33708312576E+02  0.33708312576E+02  0.00000000000E+00 0.  1.
         25    1    1    2    0    0 -0.63564469215E+02 -0.43080129969E+02  0.20875993143E+03  0.25515103040E+03  0.12500000000E+03 0.  0.
         25    1    1    2    0    0  0.63564469215E+02  0.43080129969E+02  0.50127798023E+03  0.52230350641E+03  0.12500000000E+03 0.  0.
</event>
<event>
 4    0  0.2193754E-002  0.2473124E+03  0.7546771E-02  0.1115015E+00
         21   -1    0    0  502  501  0.00000000000E+00  0.00000000000E+00  0.12865777573E+03  0.12865777573E+03  0.00000000000E+00 0.  1.
         21   -1    0    0  501  502 -0.00000000000E+00 -0.00000000000E+00 -0.47539608989E+03  0.47539608989E+03  0.00000000000E+00 0.  1.
         25    1    1    2    0    0 -0.63057893495E+01  0.84744182896E+02 -0.41242312809E+03  0.43924842185E+03  0.12500000000E+03 0.  0.
         25    1    1    2    0    0  0.63057893495E+01 -0.84744182896E+02  0.65684813932E+02  0.16480544377E+03  0.12500000000E+03 0.  0.
</event>
<event>
 4    0  0.2193754E-002  0.2850818E+03  0.7546771E-02  0.1092945E+00
         21   -1    0    0  502  501  0.00000000000E+00  0.00000000000E+00  0.32287063920E+04  0.32287063920E+04  0.00000000000E+00 0.  1.
         21   -1    0    0  501  502 -0.00000000000E+00 -0.00000000000E+00 -0.25171582299E+02  0.25171582299E+02  0.00000000000E+00 0.  1.
         25    1    1    2    0    0  0.15134325184E+02  0.13967796565E+03  0.28245361854E+04  0.28307894031E+04  0.12500000000E+03 0.  0.
         25    1    1    2    0    0 -0.15134325184E+02 -0.13967796565E+03  0.37899862433E+03  0.42308857126E+03  0.12500000000E+03 0.  0.
</event>
<event>
 4    0  0.2193754E-002  0.5180305E+03  0.7546771E-02  0.1009177E+00
         21   -1    0    0  502  501  0.00000000000E+00  0.00000000000E+00  0.53382448073E+03  0.53382448073E+03  0.00000000000E+00 0. -1.
         21   -1    0    0  501  502 -0.00000000000E+00 -0.00000000000E+00 -0.50270384384E+03  0.50270384384E+03  0.00000000000E+00 0.  1.
         25    1    1    2    0    0 -0.16504764373E+03  0.46363337651E+03 -0.87121180162E+02  0.51518126184E+03  0.12500000000E+03 0.  0.
         25    1    1    2    0    0  0.16504764373E+03 -0.46363337651E+03  0.11824181705E+03  0.52134706273E+03  0.12500000000E+03 0.  0.
</event>
<event>
 4    0  0.2193754E-002  0.2471902E+03  0.7546771E-02  0.1115094E+00
         21   -1    0    0  502  501  0.00000000000E+00  0.00000000000E+00  0.21029082593E+03  0.21029082593E+03  0.00000000000E+00 0. -1.
         21   -1    0    0  501  502 -0.00000000000E+00 -0.00000000000E+00 -0.29056431571E+03  0.29056431571E+03  0.00000000000E+00 0. -1.
         25    1    1    2    0    0  0.17476624261E+03  0.64224816520E+02  0.65195792755E+02  0.23354562297E+03  0.12500000000E+03 0.  0.
         25    1    1    2    0    0 -0.17476624261E+03 -0.64224816520E+02 -0.14546928253E+03  0.26730951867E+03  0.12500000000E+03 0.  0.
</event>
<event>
 4    0  0.2193754E-002  0.3428523E+03  0.7546771E-02  0.1065588E+00
         21   -1    0    0  502  501  0.00000000000E+00  0.00000000000E+00  0.27153630575E+03  0.27153630575E+03  0.00000000000E+00 0. -1.
         21   -1    0    0  501  502 -0.00000000000E+00 -0.00000000000E+00 -0.43289864694E+03  0.43289864694E+03  0.00000000000E+00 0.  1.
         25    1    1    2    0    0 -0.82724291855E+02  0.28651124328E+03  0.36408904256E+02  0.32539608065E+03  0.12500000000E+03 0.  0.
         25    1    1    2    0    0  0.82724291855E+02 -0.28651124328E+03 -0.19777124545E+03  0.37903887204E+03  0.12500000000E+03 0.  0.
</event>
<event>
 4    0  0.2193754E-002  0.1516398E+03  0.7546771E-02  0.1198472E+00
         21   -1    0    0  502  501  0.00000000000E+00  0.00000000000E+00  0.10838644901E+03  0.10838644901E+03  0.00000000000E+00 0.  1.
         21   -1    0    0  501  502 -0.00000000000E+00 -0.00000000000E+00 -0.21215407266E+03  0.21215407266E+03  0.00000000000E+00 0.  1.
         25    1    1    2    0    0 -0.31273052775E+02 -0.14652602530E+00  0.32613832310E+02  0.13291609142E+03  0.12500000000E+03 0.  0.
         25    1    1    2    0    0  0.31273052775E+02  0.14652602530E+00 -0.13638145596E+03  0.18762443026E+03  0.12500000000E+03 0.  0.
</event>
<event>
 4    0  0.2193754E-002  0.1699016E+03  0.7546771E-02  0.1177950E+00
         21   -1    0    0  502  501  0.00000000000E+00  0.00000000000E+00  0.36249969285E+02  0.36249969285E+02  0.00000000000E+00 0.  1.
         21   -1    0    0  501  502 -0.00000000000E+00 -0.00000000000E+00 -0.79631976558E+03  0.79631976558E+03  0.00000000000E+00 0.  1.
         25    1    1    2    0    0 -0.94437276454E+02 -0.32597717861E+02 -0.51994173242E+03  0.54400865388E+03  0.12500000000E+03 0.  0.
         25    1    1    2    0    0  0.94437276454E+02  0.32597717861E+02 -0.24012806388E+03  0.28856108098E+03  0.12500000000E+03 0.  0.
</event>
<event>
 4    0  0.2193754E-002  0.2998128E+03  0.7546771E-02  0.1085334E+00
         21   -1    0    0  502  501  0.00000000000E+00  0.00000000000E+00  0.64231709998E+03  0.64231709998E+03  0.00000000000E+00 0.  1.
         21   -1    0    0  501  502 -0.00000000000E+00 -0.00000000000E+00 -0.13994290817E+03  0.13994290817E+03  0.00000000000E+00 0.  1.
         25    1    1    2    0    0  0.12333915042E+03  0.23977368258E+03  0.30269338944E+03  0.42420779448E+03  0.12500000000E+03 0.  0.
         25    1    1    2    0    0 -0.12333915042E+03 -0.23977368258E+03  0.19968080237E+03  0.35805221368E+03  0.12500000000E+03 0.  0.
</event>
<event>
 4    0  0.2193754E-002  0.1888247E+03  0.7546771E-02  0.1159526E+00
         21   -1    0    0  502  501  0.00000000000E+00  0.00000000000E+00  0.57623870693E+02  0.57623870693E+02  0.00000000000E+00 0.  1.
         21   -1    0    0  501  502 -0.00000000000E+00 -0.00000000000E+00 -0.61874980617E+03  0.61874980617E+03  0.00000000000E+00 0.  1.
         25    1    1    2    0    0  0.35403418134E+02 -0.10192268652E+03 -0.11653030324E+03  0.20210380406E+03  0.12500000000E+03 0.  0.
         25    1    1    2    0    0 -0.35403418134E+02  0.10192268652E+03 -0.44459563223E+03  0.47426987280E+03  0.12500000000E+03 0.  0.
</event>
<event>
 4    0  0.2193754E-002  0.3289305E+03  0.7546771E-02  0.1071611E+00
         21   -1    0    0  502  501  0.00000000000E+00  0.00000000000E+00  0.53999482482E+02  0.53999482482E+02  0.00000000000E+00 0. -1.
         21   -1    0    0  501  502 -0.00000000000E+00 -0.00000000000E+00 -0.20036353594E+04  0.20036353594E+04  0.00000000000E+00 0. -1.
         25    1    1    2    0    0  0.22215566630E+03 -0.11886220832E+03 -0.44136283413E+03  0.52336174487E+03  0.12500000000E+03 0.  0.
         25    1    1    2    0    0 -0.22215566630E+03  0.11886220832E+03 -0.15082730428E+04  0.15342730970E+04  0.12500000000E+03 0.  0.
</event>
<event>
 4    0  0.2193754E-002  0.2086538E+03  0.7546771E-02  0.1142636E+00
         21   -1    0    0  502  501  0.00000000000E+00  0.00000000000E+00  0.35258016738E+03  0.35258016738E+03  0.00000000000E+00 0.  1.
         21   -1    0    0  501  502 -0.00000000000E+00 -0.00000000000E+00 -0.12347945037E+03  0.12347945037E+03  0.00000000000E+00 0.  1.
         25    1    1    2    0    0 -0.46907374691E+02  0.77848590456E+02 -0.45366438223E+02  0.16107084948E+03  0.12500000000E+03 0.  0.
         25    1    1    2    0    0  0.46907374691E+02 -0.77848590456E+02  0.27446715523E+03  0.31498876827E+03  0.12500000000E+03 0.  0.
</event>
<event>
 4    0  0.2193754E-002  0.1906071E+03  0.7546771E-02  0.1157915E+00
         21   -1    0    0  502  501  0.00000000000E+00  0.00000000000E+00  0.50318270845E+02  0.50318270845E+02  0.00000000000E+00 0.  1.
         21   -1    0    0  501  502 -0.00000000000E+00 -0.00000000000E+00 -0.72202507060E+03  0.72202507060E+03  0.00000000000E+00 0.  1.
         25    1    1    2    0    0 -0.19747802372E+02 -0.12850794968E+03 -0.21093248664E+03  0.27752798553E+03  0.12500000000E+03 0.  0.
         25    1    1    2    0    0  0.19747802372E+02  0.12850794968E+03 -0.46077431311E+03  0.49481535592E+03  0.12500000000E+03 0.  0.
</event>
<event>
 4    0  0.2193754E-002  0.1817986E+03  0.7546771E-02  0.1166074E+00
         21   -1    0    0  502  501  0.00000000000E+00  0.00000000000E+00  0.34631417926E+03  0.34631417926E+03  0.00000000000E+00 0.  1.
         21   -1    0    0  501  502 -0.00000000000E+00 -0.00000000000E+00 -0.95435692381E+02  0.95435692381E+02  0.00000000000E+00 0.  1.
         25    1    1    2    0    0  0.10726930961E+03 -0.20937904911E+02  0.35495441901E+02  0.16979407246E+03  0.12500000000E+03 0.  0.
         25    1    1    2    0    0 -0.10726930961E+03  0.20937904911E+02  0.21538304498E+03  0.27195579919E+03  0.12500000000E+03 0.  0.
</event>
<event>
 4    0  0.2193754E-002  0.2532444E+03  0.7546771E-02  0.1111271E+00
         21   -1    0    0  502  501  0.00000000000E+00  0.00000000000E+00  0.14486398256E+03  0.14486398256E+03  0.00000000000E+00 0.  1.
         21   -1    0    0  501  502 -0.00000000000E+00 -0.00000000000E+00 -0.44270979803E+03  0.44270979803E+03  0.00000000000E+00 0.  1.
         25    1    1    2    0    0  0.15421133322E+02  0.16764374751E+03  0.15816225797E+02  0.21027931527E+03  0.12500000000E+03 0.  0.
         25    1    1    2    0    0 -0.15421133322E+02 -0.16764374751E+03 -0.31366204127E+03  0.37729446532E+03  0.12500000000E+03 0.  0.
</event>
<event>
 4    0  0.2193754E-002  0.2227801E+03  0.7546771E-02  0.1131827E+00
         21   -1    0    0  502  501  0.00000000000E+00  0.00000000000E+00  0.12208255461E+04  0.12208255461E+04  0.00000000000E+00 0.  1.
         21   -1    0    0  501  502 -0.00000000000E+00 -0.00000000000E+00 -0.40653602096E+02  0.40653602096E+02  0.00000000000E+00 0.  1.
         25    1    1    2    0    0  0.16086240112E+03  0.38972599826E+02  0.82027625374E+03  0.84609320295E+03  0.12500000000E+03 0.  0.
         25    1    1    2    0    0 -0.16086240112E+03 -0.38972599826E+02  0.35989569023E+03  0.41538594521E+03  0.12500000000E+03 0.  0.
</event>
<event>
 4    0  0.2193754E-002  0.2227465E+03  0.7546771E-02  0.1131852E+00
         21   -1    0    0  502  501  0.00000000000E+00  0.00000000000E+00  0.20336285856E+03  0.20336285856E+03  0.00000000000E+00 0. -1.
         21   -1    0    0  501  502 -0.00000000000E+00 -0.00000000000E+00 -0.24397769758E+03  0.24397769758E+03  0.00000000000E+00 0. -1.
         25    1    1    2    0    0 -0.92595778853E+02 -0.96628143003E+02  0.10702551972E+03  0.21210949567E+03  0.12500000000E+03 0.  0.
         25    1    1    2    0    0  0.92595778853E+02  0.96628143003E+02 -0.14764035874E+03  0.23523106047E+03  0.12500000000E+03 0.  0.
</event>
<event>
 4    0  0.2193754E-002  0.2753871E+03  0.7546771E-02  0.1098235E+00
         21   -1    0    0  502  501  0.00000000000E+00  0.00000000000E+00  0.66724473148E+03  0.66724473148E+03  0.00000000000E+00 0.  1.
         21   -1    0    0  501  502 -0.00000000000E+00 -0.00000000000E+00 -0.11365851498E+03  0.11365851498E+03  0.00000000000E+00 0.  1.
         25    1    1    2    0    0 -0.17053037558E+03 -0.15405275857E+03  0.15482538325E+03  0.30398809305E+03  0.12500000000E+03 0.  0.
         25    1    1    2    0    0  0.17053037558E+03  0.15405275857E+03  0.39876083325E+03  0.47691515341E+03  0.12500000000E+03 0.  0.
</event>
<event>
 4    0  0.2193754E-002  0.2473404E+03  0.7546771E-02  0.1114997E+00
         21   -1    0    0  502  501  0.00000000000E+00  0.00000000000E+00  0.16638522869E+04  0.16638522869E+04  0.00000000000E+00 0. -1.
         21   -1    0    0  501  502 -0.00000000000E+00 -0.00000000000E+00 -0.36768465109E+02  0.36768465109E+02  0.00000000000E+00 0. -1.
         25    1    1    2    0    0 -0.55279281445E+02 -0.19668325381E+03  0.60128110393E+03  0.64722798705E+03  0.12500000000E+03 0.  0.
         25    1    1    2    0    0  0.55279281445E+02  0.19668325381E+03  0.10258027179E+04  0.10533927650E+04  0.12500000000E+03 0.  0.
</event>
<event>
 4    0  0.2193754E-002  0.2382129E+03  0.7546771E-02  0.1120989E+00
         21   -1    0    0  502  501  0.00000000000E+00  0.00000000000E+00  0.26655720252E+03  0.26655720252E+03  0.00000000000E+00 0. -1.
         21   -1    0    0  501  502 -0.00000000000E+00 -0.00000000000E+00 -0.21288253754E+03  0.21288253754E+03  0.00000000000E+00 0. -1.
         25    1    1    2    0    0 -0.75586303211E+02 -0.18102229955E+03 -0.24849170066E+02  0.23393341664E+03  0.12500000000E+03 0.  0.
         25    1    1    2    0    0  0.75586303211E+02  0.18102229955E+03  0.78523835053E+02  0.24550632342E+03  0.12500000000E+03 0.  0.
</event>
<event>
 4    0  0.2193754E-002  0.1451240E+03  0.7546771E-02  0.1206596E+00
         21   -1    0    0  502  501  0.00000000000E+00  0.00000000000E+00  0.26947604204E+03  0.26947604204E+03  0.00000000000E+00 0.  1.
         21   -1    0    0  501  502 -0.00000000000E+00 -0.00000000000E+00 -0.78155285223E+02  0.78155285223E+02  0.00000000000E+00 0.  1.
         25    1    1    2    0    0  0.15564826155E+02 -0.52912539675E+01  0.18174288549E+03  0.22119163096E+03  0.12500000000E+03 0.  0.
         25    1    1    2    0    0 -0.15564826155E+02  0.52912539675E+01  0.95778713285E+01  0.12643969630E+03  0.12500000000E+03 0.  0.
</event>
<event>
 4    0  0.2193754E-002  0.1991713E+03  0.7546771E-02  0.1150440E+00
         21   -1    0    0  502  501  0.00000000000E+00  0.00000000000E+00  0.27543558151E+03  0.27543558151E+03  0.00000000000E+00 0.  1.
         21   -1    0    0  501  502 -0.00000000000E+00 -0.00000000000E+00 -0.14402348399E+03  0.14402348399E+03  0.00000000000E+00 0.  1.
         25    1    1    2    0    0  0.11610991384E+03 -0.13193692986E+02  0.17303368348E+03  0.24335414778E+03  0.12500000000E+03 0.  0.
         25    1    1    2    0    0 -0.11610991384E+03  0.13193692986E+02 -0.41621585956E+02  0.17610491772E+03  0.12500000000E+03 0.  0.
</event>
<event>
 4    0  0.2193754E-002  0.1801518E+03  0.7546771E-02  0.1167656E+00
         21   -1    0    0  502  501  0.00000000000E+00  0.00000000000E+00  0.17517013845E+04  0.17517013845E+04  0.00000000000E+00 0.  1.
         21   -1    0    0  501  502 -0.00000000000E+00 -0.00000000000E+00 -0.18527519143E+02  0.18527519143E+02  0.00000000000E+00 0.  1.
         25    1    1    2    0    0 -0.97927896998E+02 -0.16434878390E+02  0.12767607045E+04  0.12867023256E+04  0.12500000000E+03 0.  0.
         25    1    1    2    0    0  0.97927896998E+02  0.16434878390E+02  0.45641316088E+03  0.48352657803E+03  0.12500000000E+03 0.  0.
</event>
<event>
 4    0  0.2193754E-002  0.2412952E+03  0.7546771E-02  0.1118933E+00
         21   -1    0    0  502  501  0.00000000000E+00  0.00000000000E+00  0.13413843939E+03  0.13413843939E+03  0.00000000000E+00 0. -1.
         21   -1    0    0  501  502 -0.00000000000E+00 -0.00000000000E+00 -0.43405451440E+03  0.43405451440E+03  0.00000000000E+00 0. -1.
         25    1    1    2    0    0  0.17297119373E+03 -0.11217253675E+03 -0.13838112250E+03  0.27798569554E+03  0.12500000000E+03 0.  0.
         25    1    1    2    0    0 -0.17297119373E+03  0.11217253675E+03 -0.16153495251E+03  0.29020725825E+03  0.12500000000E+03 0.  0.
</event>
<event>
 4    0  0.2193754E-002  0.1960804E+03  0.7546771E-02  0.1153089E+00
         21   -1    0    0  502  501  0.00000000000E+00  0.00000000000E+00  0.46413236608E+03  0.46413236608E+03  0.00000000000E+00 0. -1.
         21   -1    0    0  501  502 -0.00000000000E+00 -0.00000000000E+00 -0.82837424448E+02  0.82837424448E+02  0.00000000000E+00 0. -1.
         25    1    1    2    0    0 -0.12801775312E+02  0.81793719767E+02  0.36689793004E+03  0.39634983173E+03  0.12500000000E+03 0.  0.
         25    1    1    2    0    0  0.12801775312E+02 -0.81793719767E+02  0.14397011587E+02  0.15061995879E+03  0.12500000000E+03 0.  0.
</event>
<event>
 4    0  0.2193754E-002  0.2173118E+03  0.7546771E-02  0.1135903E+00
         21   -1    0    0  502  501  0.00000000000E+00  0.00000000000E+00  0.14464577966E+03  0.14464577966E+03  0.00000000000E+00 0. -1.
         21   -1    0    0  501  502 -0.00000000000E+00 -0.00000000000E+00 -0.32648311681E+03  0.32648311681E+03  0.00000000000E+00 0. -1.
         25    1    1    2    0    0 -0.15204483422E+03  0.41516644738E+02 -0.18058578443E+01  0.20117038680E+03  0.12500000000E+03 0.  0.
         25    1    1    2    0    0  0.15204483422E+03 -0.41516644738E+02 -0.18003147930E+03  0.26995850967E+03  0.12500000000E+03 0.  0.
</event>
<event>
 4    0  0.2193754E-002  0.1848964E+03  0.7546771E-02  0.1163147E+00
         21   -1    0    0  502  501  0.00000000000E+00  0.00000000000E+00  0.36353533675E+03  0.36353533675E+03  0.00000000000E+00 0.  1.
         21   -1    0    0  501  502 -0.00000000000E+00 -0.00000000000E+00 -0.94039446038E+02  0.94039446038E+02  0.00000000000E+00 0.  1.
         25    1    1    2    0    0 -0.11449518531E+03  0.30848998831E+02  0.51733976475E+02  0.17989500412E+03  0.12500000000E+03 0.  0.
         25    1    1    2    0    0  0.11449518531E+03 -0.30848998831E+02  0.21776191424E+03  0.27767977867E+03  0.12500000000E+03 0.  0.
</event>
<event>
 4    0  0.2193754E-002  0.1698150E+03  0.7546771E-02  0.1178041E+00
         21   -1    0    0  502  501  0.00000000000E+00  0.00000000000E+00  0.18915765210E+02  0.18915765210E+02  0.00000000000E+00 0.  1.
         21   -1    0    0  501  502 -0.00000000000E+00 -0.00000000000E+00 -0.15245020640E+04  0.15245020640E+04  0.00000000000E+00 0.  1.
         25    1    1    2    0    0  0.24687745240E+02  0.85518835903E+02 -0.10832929434E+04  0.10941076535E+04  0.12500000000E+03 0.  0.
         25    1    1    2    0    0 -0.24687745240E+02 -0.85518835903E+02 -0.42229335539E+03  0.44931017578E+03  0.12500000000E+03 0.  0.
</event>
<event>
 4    0  0.2193754E-002  0.1739929E+03  0.7546771E-02  0.1173747E+00
         21   -1    0    0  502  501  0.00000000000E+00  0.00000000000E+00  0.97496617582E+02  0.97496617582E+02  0.00000000000E+00 0. -1.
         21   -1    0    0  501  502 -0.00000000000E+00 -0.00000000000E+00 -0.31050833849E+03  0.31050833849E+03  0.00000000000E+00 0. -1.
         25    1    1    2    0    0  0.40728357682E+02 -0.17925285425E+02 -0.23847271945E+03  0.27289989539E+03  0.12500000000E+03 0.  0.
         25    1    1    2    0    0 -0.40728357682E+02  0.17925285425E+02  0.25460998544E+02  0.13510506069E+03  0.12500000000E+03 0.  0.
</event>
<event>
 4    0  0.2193754E-002  0.1828441E+03  0.7546771E-02  0.1165079E+00
         21   -1    0    0  502  501  0.00000000000E+00  0.00000000000E+00  0.26622141099E+03  0.26622141099E+03  0.00000000000E+00 0. -1.
         21   -1    0    0  501  502 -0.00000000000E+00 -0.00000000000E+00 -0.12557955336E+03  0.12557955336E+03  0.00000000000E+00 0. -1.
         25    1    1    2    0    0  0.12468858748E+03 -0.38984388922E+02  0.99465162507E+02  0.20636216945E+03  0.12500000000E+03 0.  0.
         25    1    1    2    0    0 -0.12468858748E+03  0.38984388922E+02  0.41176695124E+02  0.18543879489E+03  0.12500000000E+03 0.  0.
</event>
<event>
 4    0  0.2193754E-002  0.2137393E+03  0.7546771E-02  0.1138639E+00
         21   -1    0    0  502  501  0.00000000000E+00  0.00000000000E+00  0.16219850955E+03  0.16219850955E+03  0.00000000000E+00 0.  1.
         21   -1    0    0  501  502 -0.00000000000E+00 -0.00000000000E+00 -0.28165782347E+03  0.28165782347E+03  0.00000000000E+00 0.  1.
         25    1    1    2    0    0 -0.77092049553E+02  0.13991733724E+03  0.10226981050E+02  0.20310006525E+03  0.12500000000E+03 0.  0.
         25    1    1    2    0    0  0.77092049553E+02 -0.13991733724E+03 -0.12968629497E+03  0.24075626776E+03  0.12500000000E+03 0.  0.
</event>
<event>
 4    0  0.2193754E-002  0.2116448E+03  0.7546771E-02  0.1140270E+00
         21   -1    0    0  502  501  0.00000000000E+00  0.00000000000E+00  0.24347330465E+02  0.24347330465E+02  0.00000000000E+00 0. -1.
         21   -1    0    0  501  502 -0.00000000000E+00 -0.00000000000E+00 -0.18397718731E+04  0.18397718731E+04  0.00000000000E+00 0. -1.
         25    1    1    2    0    0  0.17902845805E+01 -0.87693306592E+02 -0.15530763050E+04  0.15605653881E+04  0.12500000000E+03 0.  0.
         25    1    1    2    0    0 -0.17902845805E+01  0.87693306592E+02 -0.26234823763E+03  0.30355381554E+03  0.12500000000E+03 0.  0.
</event>
<event>
 4    0  0.2193754E-002  0.2074879E+03  0.7546771E-02  0.1143571E+00
         21   -1    0    0  502  501  0.00000000000E+00  0.00000000000E+00  0.21642875175E+03  0.21642875175E+03  0.00000000000E+00 0. -1.
         21   -1    0    0  501  502 -0.00000000000E+00 -0.00000000000E+00 -0.19891645754E+03  0.19891645754E+03  0.00000000000E+00 0. -1.
         25    1    1    2    0    0 -0.16544263553E+03 -0.12762832294E+01  0.14458076582E+01  0.20736437715E+03  0.12500000000E+03 0.  0.
         25    1    1    2    0    0  0.16544263553E+03  0.12762832294E+01  0.16066486548E+02  0.20798083215E+03  0.12500000000E+03 0.  0.
</event>
<event>
 4    0  0.2193754E-002  0.1859225E+03  0.7546771E-02  0.1162191E+00
         21   -1    0    0  502  501  0.00000000000E+00  0.00000000000E+00  0.14929528493E+03  0.14929528493E+03  0.00000000000E+00 0.  1.
         21   -1    0    0  501  502 -0.00000000000E+00 -0.00000000000E+00 -0.23153556832E+03  0.23153556832E+03  0.00000000000E+00 0.  1.
         25    1    1    2    0    0 -0.63208626120E+01  0.34980554723E+02  0.95053755695E+02  0.16100872332E+03  0.12500000000E+03 0.  0.
         25    1    1    2    0    0  0.63208626120E+01 -0.34980554723E+02 -0.17729403909E+03  0.21982212994E+03  0.12500000000E+03 0.  0.
</event>
<event>
 4    0  0.2193754E-002  0.2427933E+03  0.7546771E-02  0.1117946E+00
         21   -1    0    0  502  501  0.00000000000E+00  0.00000000000E+00  0.60400973519E+03  0.60400973519E+03  0.00000000000E+00 0.  1.
         21   -1    0    0  501  502 -0.00000000000E+00 -0.00000000000E+00 -0.97595405336E+02  0.97595405336E+02  0.00000000000E+00 0.  1.
         25    1    1    2    0    0  0.27018001046E+02  0.19406510901E+03  0.15173371193E+03  0.27755964810E+03  0.12500000000E+03 0.  0.
         25    1    1    2    0    0 -0.27018001046E+02 -0.19406510901E+03  0.35468061793E+03  0.42404549243E+03  0.12500000000E+03 0.  0.
</event>
<event>
 4    0  0.2193754E-002  0.2332211E+03  0.7546771E-02  0.1124393E+00
         21   -1    0    0  502  501  0.00000000000E+00  0.00000000000E+00  0.43077295142E+02  0.43077295142E+02  0.00000000000E+00 0. -1.
         21   -1    0    0  501  502 -0.00000000000E+00 -0.00000000000E+00 -0.12626628117E+04  0.12626628117E+04  0.00000000000E+00 0. -1.
         25    1    1    2    0    0  0.13006972922E+03 -0.10086519243E+03 -0.91226852003E+03  0.93538803399E+03  0.12500000000E+03 0.  0.
         25    1    1    2    0    0 -0.13006972922E+03  0.10086519243E+03 -0.30731699649E+03  0.37035207281E+03  0.12500000000E+03 0.  0.
</event>
<event>
 4    0  0.2193754E-002  0.1865641E+03  0.7546771E-02  0.1161597E+00
         21   -1    0    0  502  501  0.00000000000E+00  0.00000000000E+00  0.80720830090E+02  0.80720830090E+02  0.00000000000E+00 0.  1.
         21   -1    0    0  501  502 -0.00000000000E+00 -0.00000000000E+00 -0.43119198508E+03  0.43119198508E+03  0.00000000000E+00 0.  1.
         25    1    1    2    0    0 -0.25374563114E+01  0.12233290127E+03 -0.26424742771E+03  0.31689664004E+03  0.12500000000E+03 0.  0.
         25    1    1    2    0    0  0.25374563114E+01 -0.12233290127E+03 -0.86223727283E+02  0.19501617513E+03  0.12500000000E+03 0.  0.
</event>
<event>
 4    0  0.2193754E-002  0.2096849E+03  0.7546771E-02  0.1141816E+00
         21   -1    0    0  502  501  0.00000000000E+00  0.00000000000E+00  0.10099992819E+03  0.10099992819E+03  0.00000000000E+00 0. -1.
         21   -1    0    0  501  502 -0.00000000000E+00 -0.00000000000E+00 -0.43532446107E+03  0.43532446107E+03  0.00000000000E+00 0. -1.
         25    1    1    2    0    0 -0.98325689696E+02  0.54857265467E+02 -0.32722945438E+03  0.36794208327E+03  0.12500000000E+03 0.  0.
         25    1    1    2    0    0  0.98325689696E+02 -0.54857265467E+02 -0.70950784983E+01  0.16838230598E+03  0.12500000000E+03 0.  0.
</event>
<event>
 4    0  0.2193754E-002  0.2233181E+03  0.7546771E-02  0.1131433E+00
         21   -1    0    0  502  501  0.00000000000E+00  0.00000000000E+00  0.96089289846E+03  0.96089289846E+03  0.00000000000E+00 0.  1.
         21   -1    0    0  501  502 -0.00000000000E+00 -0.00000000000E+00 -0.51900640442E+02  0.51900640442E+02  0.00000000000E+00 0.  1.
         25    1    1    2    0    0 -0.20795476398E+02  0.16730448274E+02  0.86974374431E+03  0.87908562752E+03  0.12500000000E+03 0.  0.
         25    1    1    2    0    0  0.20795476398E+02 -0.16730448274E+02  0.39248513704E+02  0.13370791138E+03  0.12500000000E+03 0.  0.
</event>
<event>
 4    0  0.2193754E-002  0.2014443E+03  0.7546771E-02  0.1148526E+00
         21   -1    0    0  502  501  0.00000000000E+00  0.00000000000E+00  0.78390420305E+03  0.78390420305E+03  0.00000000000E+00 0.  1.
         21   -1    0    0  501  502 -0.00000000000E+00 -0.00000000000E+00 -0.51766299074E+02  0.51766299074E+02  0.00000000000E+00 0.  1.
         25    1    1    2    0    0 -0.75547692846E+02 -0.72987116547E+02  0.61079121627E+03  0.63223847001E+03  0.12500000000E+03 0.  0.
         25    1    1    2    0    0  0.75547692846E+02  0.72987116547E+02  0.12134668770E+03  0.20343203212E+03  0.12500000000E+03 0.  0.
</event>
<event>
 4    0  0.2193754E-002  0.2176727E+03  0.7546771E-02  0.1135630E+00
         21   -1    0    0  502  501  0.00000000000E+00  0.00000000000E+00  0.11724501504E+03  0.11724501504E+03  0.00000000000E+00 0. -1.
         21   -1    0    0  501  502 -0.00000000000E+00 -0.00000000000E+00 -0.40412309337E+03  0.40412309337E+03  0.00000000000E+00 0. -1.
         25    1    1    2    0    0 -0.60435056265E+02  0.15173678007E+03 -0.58081657301E+02  0.21371692813E+03  0.12500000000E+03 0.  0.
         25    1    1    2    0    0  0.60435056265E+02 -0.15173678007E+03 -0.22879642103E+03  0.30765118028E+03  0.12500000000E+03 0.  0.
</event>
<event>
 4    0  0.2193754E-002  0.3021486E+03  0.7546771E-02  0.1084171E+00
         21   -1    0    0  502  501  0.00000000000E+00  0.00000000000E+00  0.50710557447E+02  0.50710557447E+02  0.00000000000E+00 0.  1.
         21   -1    0    0  501  502 -0.00000000000E+00 -0.00000000000E+00 -0.18002914260E+04  0.18002914260E+04  0.00000000000E+00 0.  1.
         25    1    1    2    0    0  0.77096379945E+02  0.20247701802E+02 -0.16812261983E+04  0.16877500855E+04  0.12500000000E+03 0.  0.
         25    1    1    2    0    0 -0.77096379945E+02 -0.20247701802E+02 -0.68354670191E+02  0.16325189789E+03  0.12500000000E+03 0.  0.
</event>
<event>
 4    0  0.2193754E-002  0.1931394E+03  0.7546771E-02  0.1155660E+00
         21   -1    0    0  502  501  0.00000000000E+00  0.00000000000E+00  0.32530682970E+03  0.32530682970E+03  0.00000000000E+00 0. -1.
         21   -1    0    0  501  502 -0.00000000000E+00 -0.00000000000E+00 -0.11466970309E+03  0.11466970309E+03  0.00000000000E+00 0. -1.
         25    1    1    2    0    0  0.16225133085E+01  0.10435053801E+03  0.22361242730E+03  0.27662101326E+03  0.12500000000E+03 0.  0.
         25    1    1    2    0    0 -0.16225133085E+01 -0.10435053801E+03 -0.12975300686E+02  0.16335551953E+03  0.12500000000E+03 0.  0.
</event>
<event>
 4    0  0.2193754E-002  0.1710369E+03  0.7546771E-02  0.1176771E+00
         21   -1    0    0  502  501  0.00000000000E+00  0.00000000000E+00  0.10569005266E+03  0.10569005266E+03  0.00000000000E+00 0.  1.
         21   -1    0    0  501  502 -0.00000000000E+00 -0.00000000000E+00 -0.27678696356E+03  0.27678696356E+03  0.00000000000E+00 0.  1.
         25    1    1    2    0    0 -0.31895367767E+02 -0.11192798764E+03 -0.95761899996E+02  0.19580738084E+03  0.12500000000E+03 0.  0.
         25    1    1    2    0    0  0.31895367767E+02  0.11192798764E+03 -0.75335010902E+02  0.18666963537E+03  0.12500000000E+03 0.  0.
</event>
<event>
 4    0  0.2193754E-002  0.2927957E+03  0.7546771E-02  0.1088898E+00
         21   -1    0    0  502  501  0.00000000000E+00  0.00000000000E+00  0.13764665916E+03  0.13764665916E+03  0.00000000000E+00 0. -1.
         21   -1    0    0  501  502 -0.00000000000E+00 -0.00000000000E+00 -0.62282149128E+03  0.62282149128E+03  0.00000000000E+00 0. -1.
         25    1    1    2    0    0  0.19403924664E+03 -0.83611696275E+02 -0.35366323389E+02  0.24802806660E+03  0.12500000000E+03 0.  0.
         25    1    1    2    0    0 -0.19403924664E+03  0.83611696275E+02 -0.44980850874E+03  0.51244008384E+03  0.12500000000E+03 0.  0.
</event>
<event>
 4    0  0.2193754E-002  0.1882942E+03  0.7546771E-02  0.1160009E+00
         21   -1    0    0  502  501  0.00000000000E+00  0.00000000000E+00  0.79581823666E+02  0.79581823666E+02  0.00000000000E+00 0. -1.
         21   -1    0    0  501  502 -0.00000000000E+00 -0.00000000000E+00 -0.44551249033E+03  0.44551249033E+03  0.00000000000E+00 0. -1.
         25    1    1    2    0    0  0.64298311868E+02 -0.11017536731E+03 -0.26612273061E+03  0.32049834979E+03  0.12500000000E+03 0.  0.
         25    1    1    2    0    0 -0.64298311868E+02  0.11017536731E+03 -0.99807936050E+02  0.20459596420E+03  0.12500000000E+03 0.  0.
</event>
<event>
 4    0  0.2193754E-002  0.2619216E+03  0.7546771E-02  0.1105994E+00
         21   -1    0    0  502  501  0.00000000000E+00  0.00000000000E+00  0.33179674748E+03  0.33179674748E+03  0.00000000000E+00 0. -1.
         21   -1    0    0  501  502 -0.00000000000E+00 -0.00000000000E+00 -0.20676181801E+03  0.20676181801E+03  0.00000000000E+00 0. -1.
         25    1    1    2    0    0  0.15114255614E+03  0.16702312262E+03  0.11114415312E+03  0.28056874120E+03  0.12500000000E+03 0.  0.
         25    1    1    2    0    0 -0.15114255614E+03 -0.16702312262E+03  0.13890776353E+02  0.25798982429E+03  0.12500000000E+03 0.  0.
</event>
<event>
 4    0  0.2193754E-002  0.1821800E+03  0.7546771E-02  0.1165710E+00
         21   -1    0    0  502  501  0.00000000000E+00  0.00000000000E+00  0.98702559548E+03  0.98702559548E+03  0.00000000000E+00 0. -1.
         21   -1    0    0  501  502 -0.00000000000E+00 -0.00000000000E+00 -0.33625818575E+02  0.33625818575E+02  0.00000000000E+00 0. -1.
         25    1    1    2    0    0  0.10274027878E+03 -0.81198013837E+02  0.53382420833E+03  0.56368605423E+03  0.12500000000E+03 0.  0.
         25    1    1    2    0    0 -0.10274027878E+03  0.81198013837E+02  0.41957556858E+03  0.45696535983E+03  0.12500000000E+03 0.  0.
</event>
<event>
 4    0  0.2193754E-002  0.3573869E+03  0.7546771E-02  0.1059623E+00
         21   -1    0    0  502  501  0.00000000000E+00  0.00000000000E+00  0.18222081772E+03  0.18222081772E+03  0.00000000000E+00 0. -1.
         21   -1    0    0  501  502 -0.00000000000E+00 -0.00000000000E+00 -0.70093754343E+03  0.70093754343E+03  0.00000000000E+00 0. -1.
         25    1    1    2    0    0 -0.10868825975E+03  0.28205768099E+03 -0.81457798510E+02  0.33709056075E+03  0.12500000000E+03 0.  0.
         25    1    1    2    0    0  0.10868825975E+03 -0.28205768099E+03 -0.43725892720E+03  0.54606780039E+03  0.12500000000E+03 0.  0.
</event>
<event>
 4    0  0.2193754E-002  0.1572876E+03  0.7546771E-02  0.1191794E+00
         21   -1    0    0  502  501  0.00000000000E+00  0.00000000000E+00  0.25101491625E+03  0.25101491625E+03  0.00000000000E+00 0. -1.
         21   -1    0    0  501  502 -0.00000000000E+00 -0.00000000000E+00 -0.98557422505E+02  0.98557422505E+02  0.00000000000E+00 0. -1.
         25    1    1    2    0    0 -0.79526519519E+01  0.75372898439E+02  0.14073944592E+03  0.20292094552E+03  0.12500000000E+03 0.  0.
         25    1    1    2    0    0  0.79526519519E+01 -0.75372898439E+02  0.11718047819E+02  0.14665139323E+03  0.12500000000E+03 0.  0.
</event>
<event>
 4    0  0.2193754E-002  0.2445173E+03  0.7546771E-02  0.1116820E+00
         21   -1    0    0  502  501  0.00000000000E+00  0.00000000000E+00  0.93647008415E+03  0.93647008415E+03  0.00000000000E+00 0. -1.
         21   -1    0    0  501  502 -0.00000000000E+00 -0.00000000000E+00 -0.63844786770E+02  0.63844786770E+02  0.00000000000E+00 0. -1.
         25    1    1    2    0    0  0.10737964063E+03 -0.30500378227E+02  0.80051918209E+03  0.81787323051E+03  0.12500000000E+03 0.  0.
         25    1    1    2    0    0 -0.10737964063E+03  0.30500378227E+02  0.72106115294E+02  0.18244164041E+03  0.12500000000E+03 0.  0.
</event>
<event>
 4    0  0.2193754E-002  0.3114964E+03  0.7546771E-02  0.1079631E+00
         21   -1    0    0  502  501  0.00000000000E+00  0.00000000000E+00  0.14570209457E+03  0.14570209457E+03  0.00000000000E+00 0. -1.
         21   -1    0    0  501  502 -0.00000000000E+00 -0.00000000000E+00 -0.66594803482E+03  0.66594803482E+03  0.00000000000E+00 0. -1.
         25    1    1    2    0    0  0.80664820083E+02 -0.26822541032E+03 -0.18932146452E+03  0.36044320062E+03  0.12500000000E+03 0.  0.
         25    1    1    2    0    0 -0.80664820083E+02  0.26822541032E+03 -0.33092447573E+03  0.45120692878E+03  0.12500000000E+03 0.  0.
</event>
<event>
 4    0  0.2193754E-002  0.3903740E+03  0.7546771E-02  0.1047165E+00
         21   -1    0    0  502  501  0.00000000000E+00  0.00000000000E+00  0.75188430124E+02  0.75188430124E+02  0.00000000000E+00 0.  1.
         21   -1    0    0  501  502 -0.00000000000E+00 -0.00000000000E+00 -0.20267993792E+04  0.20267993792E+04  0.00000000000E+00 0.  1.
         25    1    1    2    0    0 -0.79689994504E+02  0.23899188849E+02 -0.19459406514E+04  0.19517253099E+04  0.12500000000E+03 0.  0.
         25    1    1    2    0    0  0.79689994504E+02 -0.23899188849E+02 -0.56702976348E+01  0.15026249940E+03  0.12500000000E+03 0.  0.
</event>
<event>
 4    0  0.2193754E-002  0.2128804E+03  0.7546771E-02  0.1139305E+00
         21   -1    0    0  502  501  0.00000000000E+00  0.00000000000E+00  0.44426699555E+03  0.44426699555E+03  0.00000000000E+00 0.  1.
         21   -1    0    0  501  502 -0.00000000000E+00 -0.00000000000E+00 -0.10200636751E+03  0.10200636751E+03  0.00000000000E+00 0.  1.
         25    1    1    2    0    0  0.14159562295E+02 -0.80966600401E+02  0.36544806214E+03  0.39488399525E+03  0.12500000000E+03 0.  0.
         25    1    1    2    0    0 -0.14159562295E+02  0.80966600401E+02 -0.23187434099E+02  0.15138936781E+03  0.12500000000E+03 0.  0.
</event>
<event>
 4    0  0.2193754E-002  0.2051957E+03  0.7546771E-02  0.1145428E+00
         21   -1    0    0  502  501  0.00000000000E+00  0.00000000000E+00  0.39828388577E+03  0.39828388577E+03  0.00000000000E+00 0.  1.
         21   -1    0    0  501  502 -0.00000000000E+00 -0.00000000000E+00 -0.10571677495E+03  0.10571677495E+03  0.00000000000E+00 0.  1.
         25    1    1    2    0    0 -0.10014057069E+03 -0.60037055085E+02  0.28548559062E+03  0.33280565550E+03  0.12500000000E+03 0.  0.
         25    1    1    2    0    0  0.10014057069E+03  0.60037055085E+02  0.70815201947E+01  0.17119500521E+03  0.12500000000E+03 0.  0.
</event>
<event>
 4    0  0.2193754E-002  0.1738449E+03  0.7546771E-02  0.1173896E+00
         21   -1    0    0  502  501  0.00000000000E+00  0.00000000000E+00  0.17431401750E+03  0.17431401750E+03  0.00000000000E+00 0.  1.
         21   -1    0    0  501  502 -0.00000000000E+00 -0.00000000000E+00 -0.17337710326E+03  0.17337710326E+03  0.00000000000E+00 0.  1.
         25    1    1    2    0    0  0.49882253271E+02 -0.64365198436E+02 -0.88783989876E+02  0.17360505413E+03  0.12500000000E+03 0.  0.
         25    1    1    2    0    0 -0.49882253271E+02  0.64365198436E+02  0.89720904114E+02  0.17408606663E+03  0.12500000000E+03 0.  0.
</event>
<event>
 4    0  0.2193754E-002  0.2319415E+03  0.7546771E-02  0.1125281E+00
         21   -1    0    0  502  501  0.00000000000E+00  0.00000000000E+00  0.15644607804E+03  0.15644607804E+03  0.00000000000E+00 0.  1.
         21   -1    0    0  501  502 -0.00000000000E+00 -0.00000000000E+00 -0.34386842503E+03  0.34386842503E+03  0.00000000000E+00 0.  1.
         25    1    1    2    0    0  0.11005392581E+02  0.73930122972E+02 -0.28840134782E+03  0.32308995523E+03  0.12500000000E+03 0.  0.
         25    1    1    2    0    0 -0.11005392581E+02 -0.73930122972E+02  0.10097900082E+03  0.17722454784E+03  0.12500000000E+03 0.  0.
</event>
<event>
 4    0  0.2193754E-002  0.1654109E+03  0.7546771E-02  0.1182720E+00
         21   -1    0    0  502  501  0.00000000000E+00  0.00000000000E+00  0.28246192523E+03  0.28246192523E+03  0.00000000000E+00 0. -1.
         21   -1    0    0  501  502 -0.00000000000E+00 -0.00000000000E+00 -0.96865370938E+02  0.96865370938E+02  0.00000000000E+00 0. -1.
         25    1    1    2    0    0 -0.10659066918E+02  0.10775409360E+03  0.96638818443E+02  0.19154274099E+03  0.12500000000E+03 0.  0.
         25    1    1    2    0    0  0.10659066918E+02 -0.10775409360E+03  0.88957735845E+02  0.18778455517E+03  0.12500000000E+03 0.  0.
</event>
<event>
 4    0  0.2193754E-002  0.2494331E+03  0.7546771E-02  0.1113664E+00
         21   -1    0    0  502  501  0.00000000000E+00  0.00000000000E+00  0.27541112440E+02  0.27541112440E+02  0.00000000000E+00 0.  1.
         21   -1    0    0  501  502 -0.00000000000E+00 -0.00000000000E+00 -0.22590551390E+04  0.22590551390E+04  0.00000000000E+00 0.  1.
         25    1    1    2    0    0 -0.13371383629E+03 -0.16094959332E+03 -0.87288190533E+03  0.90627367956E+03  0.12500000000E+03 0.  0.
         25    1    1    2    0    0  0.13371383629E+03  0.16094959332E+03 -0.13586321212E+04  0.13803225719E+04  0.12500000000E+03 0.  0.
</event>
<event>
 4    0  0.2193754E-002  0.1954844E+03  0.7546771E-02  0.1153606E+00
         21   -1    0    0  502  501  0.00000000000E+00  0.00000000000E+00  0.17249527152E+03  0.17249527152E+03  0.00000000000E+00 0. -1.
         21   -1    0    0  501  502 -0.00000000000E+00 -0.00000000000E+00 -0.22153731152E+03  0.22153731152E+03  0.00000000000E+00 0. -1.
         25    1    1    2    0    0 -0.45277029660E+02 -0.63867015637E+02  0.10478143782E+03  0.18092306324E+03  0.12500000000E+03 0.  0.
         25    1    1    2    0    0  0.45277029660E+02  0.63867015637E+02 -0.15382347782E+03  0.21310951980E+03  0.12500000000E+03 0.  0.
</event>
<event>
 4    0  0.2193754E-002  0.1934808E+03  0.7546771E-02  0.1155359E+00
         21   -1    0    0  502  501  0.00000000000E+00  0.00000000000E+00  0.64433819221E+02  0.64433819221E+02  0.00000000000E+00 0.  1.
         21   -1    0    0  501  502 -0.00000000000E+00 -0.00000000000E+00 -0.58098110934E+03  0.58098110934E+03  0.00000000000E+00 0.  1.
         25    1    1    2    0    0 -0.27991258648E+02  0.11394777743E+03 -0.10869858574E+03  0.20299751005E+03  0.12500000000E+03 0.  0.
         25    1    1    2    0    0  0.27991258648E+02 -0.11394777743E+03 -0.40784870437E+03  0.44241741851E+03  0.12500000000E+03 0.  0.
</event>
<event>
 4    0  0.2193754E-002  0.3976009E+03  0.7546771E-02  0.1044614E+00
         21   -1    0    0  502  501  0.00000000000E+00  0.00000000000E+00  0.66003619061E+03  0.66003619061E+03  0.00000000000E+00 0.  1.
         21   -1    0    0  501  502 -0.00000000000E+00 -0.00000000000E+00 -0.23951186857E+03  0.23951186857E+03  0.00000000000E+00 0.  1.
         25    1    1    2    0    0  0.78700715066E+02  0.29043920059E+03 -0.47479178194E+02  0.32928407819E+03  0.12500000000E+03 0.  0.
         25    1    1    2    0    0 -0.78700715066E+02 -0.29043920059E+03  0.46800350023E+03  0.57026398100E+03  0.12500000000E+03 0.  0.
</event>
<event>
 4    0  0.2193754E-002  0.1927191E+03  0.7546771E-02  0.1156032E+00
         21   -1    0    0  502  501  0.00000000000E+00  0.00000000000E+00  0.50607789337E+02  0.50607789337E+02  0.00000000000E+00 0. -1.
         21   -1    0    0  501  502 -0.00000000000E+00 -0.00000000000E+00 -0.73389186365E+03  0.73389186365E+03  0.00000000000E+00 0. -1.
         25    1    1    2    0    0 -0.51048058439E+02 -0.12587545293E+02 -0.62931322454E+02  0.14949816692E+03  0.12500000000E+03 0.  0.
         25    1    1    2    0    0  0.51048058439E+02  0.12587545293E+02 -0.62035275186E+03  0.63500148606E+03  0.12500000000E+03 0.  0.
</event>
<event>
 4    0  0.2193754E-002  0.2242157E+03  0.7546771E-02  0.1130779E+00
         21   -1    0    0  502  501  0.00000000000E+00  0.00000000000E+00  0.25852853751E+03  0.25852853751E+03  0.00000000000E+00 0. -1.
         21   -1    0    0  501  502 -0.00000000000E+00 -0.00000000000E+00 -0.19445697530E+03  0.19445697530E+03  0.00000000000E+00 0. -1.
         25    1    1    2    0    0  0.54133275946E+02 -0.13559764762E+03 -0.84594747201E+02  0.20999620201E+03  0.12500000000E+03 0.  0.
         25    1    1    2    0    0 -0.54133275946E+02  0.13559764762E+03  0.14866630941E+03  0.24298931079E+03  0.12500000000E+03 0.  0.
</event>
<event>
 4    0  0.2193754E-002  0.1910426E+03  0.7546771E-02  0.1157524E+00
         21   -1    0    0  502  501  0.00000000000E+00  0.00000000000E+00  0.62949087286E+02  0.62949087286E+02  0.00000000000E+00 0.  1.
         21   -1    0    0  501  502 -0.00000000000E+00 -0.00000000000E+00 -0.57979029878E+03  0.57979029878E+03  0.00000000000E+00 0.  1.
         25    1    1    2    0    0  0.64930427558E+02 -0.14857333287E+02 -0.42761845819E+02  0.14795362866E+03  0.12500000000E+03 0.  0.
         25    1    1    2    0    0 -0.64930427558E+02  0.14857333287E+02 -0.47407936568E+03  0.49478575741E+03  0.12500000000E+03 0.  0.
</event>
<event>
 4    0  0.2193754E-002  0.1889477E+03  0.7546771E-02  0.1159414E+00
         21   -1    0    0  502  501  0.00000000000E+00  0.00000000000E+00  0.27799234902E+03  0.27799234902E+03  0.00000000000E+00 0. -1.
         21   -1    0    0  501  502 -0.00000000000E+00 -0.00000000000E+00 -0.12842527523E+03  0.12842527523E+03  0.00000000000E+00 0. -1.
         25    1    1    2    0    0 -0.26989708460E+02  0.13912816558E+02 -0.74061119262E+02  0.14843200535E+03  0.12500000000E+03 0.  0.
         25    1    1    2    0    0  0.26989708460E+02 -0.13912816558E+02  0.22362819306E+03  0.25798561890E+03  0.12500000000E+03 0.  0.
</event>
<event>
 4    0  0.2193754E-002  0.2376495E+03  0.7546771E-02  0.1121369E+00
         21   -1    0    0  502  501  0.00000000000E+00  0.00000000000E+00  0.37637038971E+03  0.37637038971E+03  0.00000000000E+00 0.  1.
         21   -1    0    0  501  502 -0.00000000000E+00 -0.00000000000E+00 -0.15005777930E+03  0.15005777930E+03  0.00000000000E+00 0.  1.
         25    1    1    2    0    0  0.80073694884E+01  0.85815441181E+02  0.31564495502E+03  0.35026439377E+03  0.12500000000E+03 0.  0.
         25    1    1    2    0    0 -0.80073694884E+01 -0.85815441181E+02 -0.89332344615E+02  0.17616377524E+03  0.12500000000E+03 0.  0.
</event>
<event>
 4    0  0.2193754E-002  0.1899230E+03  0.7546771E-02  0.1158531E+00
         21   -1    0    0  502  501  0.00000000000E+00  0.00000000000E+00  0.28758990173E+03  0.28758990173E+03  0.00000000000E+00 0. -1.
         21   -1    0    0  501  502 -0.00000000000E+00 -0.00000000000E+00 -0.12542424913E+03  0.12542424913E+03  0.00000000000E+00 0. -1.
         25    1    1    2    0    0 -0.68908406878E+02  0.13821495107E+02  0.21648077643E+03  0.25966965327E+03  0.12500000000E+03 0.  0.
         25    1    1    2    0    0  0.68908406878E+02 -0.13821495107E+02 -0.54315123821E+02  0.15334449759E+03  0.12500000000E+03 0.  0.
</event>
<event>
 4    0  0.2193754E-002  0.2411030E+03  0.7546771E-02  0.1119060E+00
         21   -1    0    0  502  501  0.00000000000E+00  0.00000000000E+00  0.87828383552E+03  0.87828383552E+03  0.00000000000E+00 0. -1.
         21   -1    0    0  501  502 -0.00000000000E+00 -0.00000000000E+00 -0.66186616159E+02  0.66186616159E+02  0.00000000000E+00 0. -1.
         25    1    1    2    0    0  0.59085772565E+02 -0.19718400666E+03  0.42863461224E+03  0.49165566387E+03  0.12500000000E+03 0.  0.
         25    1    1    2    0    0 -0.59085772565E+02  0.19718400666E+03  0.38346260712E+03  0.45281478781E+03  0.12500000000E+03 0.  0.
</event>
<event>
 4    0  0.2193754E-002  0.3373844E+03  0.7546771E-02  0.1067915E+00
         21   -1    0    0  502  501  0.00000000000E+00  0.00000000000E+00  0.24091344353E+03  0.24091344353E+03  0.00000000000E+00 0. -1.
         21   -1    0    0  501  502 -0.00000000000E+00 -0.00000000000E+00 -0.47248594356E+03  0.47248594356E+03  0.00000000000E+00 0. -1.
         25    1    1    2    0    0  0.30250972948E+03  0.81693028028E+02 -0.12018731011E+03  0.35812829652E+03  0.12500000000E+03 0.  0.
         25    1    1    2    0    0 -0.30250972948E+03 -0.81693028028E+02 -0.11138518993E+03  0.35527109057E+03  0.12500000000E+03 0.  0.
</event>
<event>
 4    0  0.2193754E-002  0.1814131E+03  0.7546771E-02  0.1166442E+00
         21   -1    0    0  502  501  0.00000000000E+00  0.00000000000E+00  0.15046364010E+03  0.15046364010E+03  0.00000000000E+00 0. -1.
         21   -1    0    0  501  502 -0.00000000000E+00 -0.00000000000E+00 -0.21872857489E+03  0.21872857489E+03  0.00000000000E+00 0. -1.
         25    1    1    2    0    0 -0.11872226124E+03  0.49595469202E+02 -0.66208478854E+01  0.17950911260E+03  0.12500000000E+03 0.  0.
         25    1    1    2    0    0  0.11872226124E+03 -0.49595469202E+02 -0.61644086903E+02  0.18968310238E+03  0.12500000000E+03 0.  0.
</event>
<event>
 4    0  0.2193754E-002  0.1673077E+03  0.7546771E-02  0.1180685E+00
         21   -1    0    0  502  501  0.00000000000E+00  0.00000000000E+00  0.27810213417E+03  0.27810213417E+03  0.00000000000E+00 0.  1.
         21   -1    0    0  501  502 -0.00000000000E+00 -0.00000000000E+00 -0.10065320764E+03  0.10065320764E+03  0.00000000000E+00 0.  1.
         25    1    1    2    0    0 -0.21106939298E+02  0.30120675604E+02  0.20751656917E+03  0.24503241514E+03  0.12500000000E+03 0.  0.
         25    1    1    2    0    0  0.21106939298E+02 -0.30120675604E+02 -0.30067642637E+02  0.13372292668E+03  0.12500000000E+03 0.  0.
</event>
<event>
 4    0  0.2193754E-002  0.1949066E+03  0.7546771E-02  0.1154109E+00
         21   -1    0    0  502  501  0.00000000000E+00  0.00000000000E+00  0.19605188964E+03  0.19605188964E+03  0.00000000000E+00 0. -1.
         21   -1    0    0  501  502 -0.00000000000E+00 -0.00000000000E+00 -0.19376801756E+03  0.19376801756E+03  0.00000000000E+00 0. -1.
         25    1    1    2    0    0 -0.24054479293E+02  0.13583082352E+03 -0.56608127855E+02  0.19457160823E+03  0.12500000000E+03 0.  0.
         25    1    1    2    0    0  0.24054479293E+02 -0.13583082352E+03  0.58891999934E+02  0.19524829896E+03  0.12500000000E+03 0.  0.
</event>
<event>
 4    0  0.2193754E-002  0.2193693E+03  0.7546771E-02  0.1134354E+00
         21   -1    0    0  502  501  0.00000000000E+00  0.00000000000E+00  0.11591543052E+03  0.11591543052E+03  0.00000000000E+00 0.  1.
         21   -1    0    0  501  502 -0.00000000000E+00 -0.00000000000E+00 -0.41515520993E+03  0.41515520993E+03  0.00000000000E+00 0.  1.
         25    1    1    2    0    0 -0.68923657673E+02  0.16338245966E+03 -0.18891002439E+03  0.28767394047E+03  0.12500000000E+03 0.  0.
         25    1    1    2    0    0  0.68923657673E+02 -0.16338245966E+03 -0.11032975502E+03  0.24339669997E+03  0.12500000000E+03 0.  0.
</event>
<event>
 4    0  0.2193754E-002  0.1945418E+03  0.7546771E-02  0.1154428E+00
         21   -1    0    0  502  501  0.00000000000E+00  0.00000000000E+00  0.39339316032E+03  0.39339316032E+03  0.00000000000E+00 0. -1.
         21   -1    0    0  501  502 -0.00000000000E+00 -0.00000000000E+00 -0.96205301120E+02  0.96205301120E+02  0.00000000000E+00 0. -1.
         25    1    1    2    0    0  0.78759842451E+02 -0.75313252236E+02  0.20599856166E+02  0.16710641166E+03  0.12500000000E+03 0.  0.
         25    1    1    2    0    0 -0.78759842451E+02  0.75313252236E+02  0.27658800303E+03  0.32249204977E+03  0.12500000000E+03 0.  0.
</event>
<event>
 4    0  0.2193754E-002  0.1857515E+03  0.7546771E-02  0.1162350E+00
         21   -1    0    0  502  501  0.00000000000E+00  0.00000000000E+00  0.25060193805E+03  0.25060193805E+03  0.00000000000E+00 0. -1.
         21   -1    0    0  501  502 -0.00000000000E+00 -0.00000000000E+00 -0.13768294973E+03  0.13768294973E+03  0.00000000000E+00 0. -1.
         25    1    1    2    0    0  0.94378076111E+02 -0.96798297542E+02  0.30826481369E+02  0.18668798465E+03  0.12500000000E+03 0.  0.
         25    1    1    2    0    0 -0.94378076111E+02  0.96798297542E+02  0.82092506952E+02  0.20159690314E+03  0.12500000000E+03 0.  0.
</event>
<event>
 4    0  0.2193754E-002  0.1833616E+03  0.7546771E-02  0.1164589E+00
         21   -1    0    0  502  501  0.00000000000E+00  0.00000000000E+00  0.38940467489E+03  0.38940467489E+03  0.00000000000E+00 0.  1.
         21   -1    0    0  501  502 -0.00000000000E+00 -0.00000000000E+00 -0.86340746647E+02  0.86340746647E+02  0.00000000000E+00 0.  1.
         25    1    1    2    0    0 -0.78938229369E+02  0.41521695554E+02  0.21536306775E+02  0.15506162571E+03  0.12500000000E+03 0.  0.
         25    1    1    2    0    0  0.78938229369E+02 -0.41521695554E+02  0.28152762147E+03  0.32068379583E+03  0.12500000000E+03 0.  0.
</event>
<event>
 4    0  0.2193754E-002  0.2004036E+03  0.7546771E-02  0.1149399E+00
         21   -1    0    0  502  501  0.00000000000E+00  0.00000000000E+00  0.25040821241E+03  0.25040821241E+03  0.00000000000E+00 0.  1.
         21   -1    0    0  501  502 -0.00000000000E+00 -0.00000000000E+00 -0.16038450456E+03  0.16038450456E+03  0.00000000000E+00 0.  1.
         25    1    1    2    0    0  0.24587291982E+02 -0.12086968963E+03  0.14397085854E+03  0.22708285912E+03  0.12500000000E+03 0.  0.
         25    1    1    2    0    0 -0.24587291982E+02  0.12086968963E+03 -0.53947150692E+02  0.18370985784E+03  0.12500000000E+03 0.  0.
</event>
<event>
 4    0  0.2193754E-002  0.2342629E+03  0.7546771E-02  0.1123675E+00
         21   -1    0    0  502  501  0.00000000000E+00  0.00000000000E+00  0.30798521486E+02  0.30798521486E+02  0.00000000000E+00 0. -1.
         21   -1    0    0  501  502 -0.00000000000E+00 -0.00000000000E+00 -0.17818752856E+04  0.17818752856E+04  0.00000000000E+00 0. -1.
         25    1    1    2    0    0  0.14001045613E+03  0.71883598416E+00 -0.14178824147E+04  0.14302513718E+04  0.12500000000E+03 0.  0.
         25    1    1    2    0    0 -0.14001045613E+03 -0.71883598416E+00 -0.33319434945E+03  0.38242243534E+03  0.12500000000E+03 0.  0.
</event>
<event>
 4    0  0.2193754E-002  0.1742062E+03  0.7546771E-02  0.1173531E+00
         21   -1    0    0  502  501  0.00000000000E+00  0.00000000000E+00  0.63798063057E+02  0.63798063057E+02  0.00000000000E+00 0.  1.
         21   -1    0    0  501  502 -0.00000000000E+00 -0.00000000000E+00 -0.47568553303E+03  0.47568553303E+03  0.00000000000E+00 0.  1.
         25    1    1    2    0    0 -0.36686561580E+02  0.82428432625E+02 -0.80317940991E+02  0.17382842676E+03  0.12500000000E+03 0.  0.
         25    1    1    2    0    0  0.36686561580E+02 -0.82428432625E+02 -0.33156952899E+03  0.36565516933E+03  0.12500000000E+03 0.  0.
</event>
<event>
 4    0  0.2193754E-002  0.4398981E+03  0.7546771E-02  0.1030778E+00
         21   -1    0    0  502  501  0.00000000000E+00  0.00000000000E+00  0.55421915904E+03  0.55421915904E+03  0.00000000000E+00 0.  1.
         21   -1    0    0  501  502 -0.00000000000E+00 -0.00000000000E+00 -0.34915850264E+03  0.34915850264E+03  0.00000000000E+00 0.  1.
         25    1    1    2    0    0  0.11775305434E+03 -0.16463177422E+03 -0.27740900959E+03  0.36544515524E+03  0.12500000000E+03 0.  0.
         25    1    1    2    0    0 -0.11775305434E+03  0.16463177422E+03  0.48246966599E+03  0.53793250644E+03  0.12500000000E+03 0.  0.
</event>
<event>
 4    0  0.2193754E-002  0.4023317E+03  0.7546771E-02  0.1042975E+00
         21   -1    0    0  502  501  0.00000000000E+00  0.00000000000E+00  0.20290418996E+03  0.20290418996E+03  0.00000000000E+00 0.  1.
         21   -1    0    0  501  502 -0.00000000000E+00 -0.00000000000E+00 -0.79776977729E+03  0.79776977729E+03  0.00000000000E+00 0.  1.
         25    1    1    2    0    0  0.37635953139E+03 -0.55239659677E+02 -0.34636014002E+03  0.52942257551E+03  0.12500000000E+03 0.  0.
         25    1    1    2    0    0 -0.37635953139E+03  0.55239659677E+02 -0.24850544731E+03  0.47125139173E+03  0.12500000000E+03 0.  0.
</event>
<event>
 4    0  0.2193754E-002  0.2326509E+03  0.7546771E-02  0.1124788E+00
         21   -1    0    0  502  501  0.00000000000E+00  0.00000000000E+00  0.11177049229E+03  0.11177049229E+03  0.00000000000E+00 0. -1.
         21   -1    0    0  501  502 -0.00000000000E+00 -0.00000000000E+00 -0.48426424853E+03  0.48426424853E+03  0.00000000000E+00 0. -1.
         25    1    1    2    0    0  0.77200246816E+02 -0.10888474144E+03 -0.20120294273E+01  0.18287923143E+03  0.12500000000E+03 0.  0.
         25    1    1    2    0    0 -0.77200246816E+02  0.10888474144E+03 -0.37048172682E+03  0.41315550938E+03  0.12500000000E+03 0.  0.
</event>
<event>
 4    0  0.2193754E-002  0.1793154E+03  0.7546771E-02  0.1168467E+00
         21   -1    0    0  502  501  0.00000000000E+00  0.00000000000E+00  0.15161041105E+04  0.15161041105E+04  0.00000000000E+00 0. -1.
         21   -1    0    0  501  502 -0.00000000000E+00 -0.00000000000E+00 -0.21208310542E+02  0.21208310542E+02  0.00000000000E+00 0. -1.
         25    1    1    2    0    0 -0.56524264409E+02  0.86736493691E+02  0.42068528160E+03  0.45090943432E+03  0.12500000000E+03 0.  0.
         25    1    1    2    0    0  0.56524264409E+02 -0.86736493691E+02  0.10742105183E+04  0.10864029867E+04  0.12500000000E+03 0.  0.
</event>
<event>
 4    0  0.2193754E-002  0.3785890E+03  0.7546771E-02  0.1051457E+00
         21   -1    0    0  502  501  0.00000000000E+00  0.00000000000E+00  0.44193201526E+03  0.44193201526E+03  0.00000000000E+00 0. -1.
         21   -1    0    0  501  502 -0.00000000000E+00 -0.00000000000E+00 -0.32432506858E+03  0.32432506858E+03  0.00000000000E+00 0. -1.
         25    1    1    2    0    0 -0.27525246873E+03  0.13227172156E+03  0.24662224134E+03  0.41195540995E+03  0.12500000000E+03 0.  0.
         25    1    1    2    0    0  0.27525246873E+03 -0.13227172156E+03 -0.12901529466E+03  0.35430167389E+03  0.12500000000E+03 0.  0.
</event>
<event>
 4    0  0.2193754E-002  0.2738870E+03  0.7546771E-02  0.1099075E+00
         21   -1    0    0  502  501  0.00000000000E+00  0.00000000000E+00  0.96098256653E+03  0.96098256653E+03  0.00000000000E+00 0. -1.
         21   -1    0    0  501  502 -0.00000000000E+00 -0.00000000000E+00 -0.78059761549E+02  0.78059761549E+02  0.00000000000E+00 0. -1.
         25    1    1    2    0    0 -0.12261307685E+03 -0.21058553076E+03  0.44710036879E+03  0.52431285713E+03  0.12500000000E+03 0.  0.
         25    1    1    2    0    0  0.12261307685E+03  0.21058553076E+03  0.43582243619E+03  0.51472947095E+03  0.12500000000E+03 0.  0.
</event>
<event>
 4    0  0.2193754E-002  0.1834157E+03  0.7546771E-02  0.1164538E+00
         21   -1    0    0  502  501  0.00000000000E+00  0.00000000000E+00  0.50372189097E+03  0.50372189097E+03  0.00000000000E+00 0.  1.
         21   -1    0    0  501  502 -0.00000000000E+00 -0.00000000000E+00 -0.66785530769E+02  0.66785530769E+02  0.00000000000E+00 0.  1.
         25    1    1    2    0    0  0.34835438430E+02 -0.12712023338E+03  0.17902316385E+03  0.25504382898E+03  0.12500000000E+03 0.  0.
         25    1    1    2    0    0 -0.34835438430E+02  0.12712023338E+03  0.25791319635E+03  0.31546359276E+03  0.12500000000E+03 0.  0.
</event>
<event>
 4    0  0.2193754E-002  0.2911684E+03  0.7546771E-02  0.1089741E+00
         21   -1    0    0  502  501  0.00000000000E+00  0.00000000000E+00  0.42239530089E+03  0.42239530089E+03  0.00000000000E+00 0.  1.
         21   -1    0    0  501  502 -0.00000000000E+00 -0.00000000000E+00 -0.20071013009E+03  0.20071013009E+03  0.00000000000E+00 0.  1.
         25    1    1    2    0    0  0.20861650392E+03 -0.22021878088E+02  0.28052657574E+03  0.37192199252E+03  0.12500000000E+03 0.  0.
         25    1    1    2    0    0 -0.20861650392E+03  0.22021878088E+02 -0.58841404942E+02  0.25118343846E+03  0.12500000000E+03 0.  0.
</event>
<event>
 4    0  0.2193754E-002  0.2693921E+03  0.7546771E-02  0.1101628E+00
         21   -1    0    0  502  501  0.00000000000E+00  0.00000000000E+00  0.31035429782E+03  0.31035429782E+03  0.00000000000E+00 0.  1.
         21   -1    0    0  501  502 -0.00000000000E+00 -0.00000000000E+00 -0.23383622455E+03  0.23383622455E+03  0.00000000000E+00 0.  1.
         25    1    1    2    0    0 -0.41192785261E+02 -0.22659972011E+03  0.10135829712E+03  0.28096758372E+03  0.12500000000E+03 0.  0.
         25    1    1    2    0    0  0.41192785261E+02  0.22659972011E+03 -0.24840223842E+02  0.26322293865E+03  0.12500000000E+03 0.  0.
</event>
<event>
 4    0  0.2193754E-002  0.1958524E+03  0.7546771E-02  0.1153286E+00
         21   -1    0    0  502  501  0.00000000000E+00  0.00000000000E+00  0.75569994512E+02  0.75569994512E+02  0.00000000000E+00 0.  1.
         21   -1    0    0  501  502 -0.00000000000E+00 -0.00000000000E+00 -0.50758466855E+03  0.50758466855E+03  0.00000000000E+00 0.  1.
         25    1    1    2    0    0  0.58092025387E+02 -0.37707917757E+02 -0.41539343630E+03  0.43928723791E+03  0.12500000000E+03 0.  0.
         25    1    1    2    0    0 -0.58092025387E+02  0.37707917757E+02 -0.16621237742E+02  0.14386742515E+03  0.12500000000E+03 0.  0.
</event>
<event>
 4    0  0.2193754E-002  0.2401493E+03  0.7546771E-02  0.1119693E+00
         21   -1    0    0  502  501  0.00000000000E+00  0.00000000000E+00  0.41509942494E+03  0.41509942494E+03  0.00000000000E+00 0. -1.
         21   -1    0    0  501  502 -0.00000000000E+00 -0.00000000000E+00 -0.13893460001E+03  0.13893460001E+03  0.00000000000E+00 0. -1.
         25    1    1    2    0    0  0.18373145212E+03 -0.56049489915E+02  0.22084601890E+03  0.31827151284E+03  0.12500000000E+03 0.  0.
         25    1    1    2    0    0 -0.18373145212E+03  0.56049489915E+02  0.55318806023E+02  0.23576251211E+03  0.12500000000E+03 0.  0.
</event>
<event>
 4    0  0.2193754E-002  0.1890610E+03  0.7546771E-02  0.1159311E+00
         21   -1    0    0  502  501  0.00000000000E+00  0.00000000000E+00  0.20670038690E+03  0.20670038690E+03  0.00000000000E+00 0. -1.
         21   -1    0    0  501  502 -0.00000000000E+00 -0.00000000000E+00 -0.17292696758E+03  0.17292696758E+03  0.00000000000E+00 0. -1.
         25    1    1    2    0    0 -0.63627846989E+02  0.80393182426E+02  0.11529479709E+03  0.19856851948E+03  0.12500000000E+03 0.  0.
         25    1    1    2    0    0  0.63627846989E+02 -0.80393182426E+02 -0.81521377774E+02  0.18105883499E+03  0.12500000000E+03 0.  0.
</event>
<event>
 4    0  0.2193754E-002  0.2055962E+03  0.7546771E-02  0.1145102E+00
         21   -1    0    0  502  501  0.00000000000E+00  0.00000000000E+00  0.74240054373E+02  0.74240054373E+02  0.00000000000E+00 0.  1.
         21   -1    0    0  501  502 -0.00000000000E+00 -0.00000000000E+00 -0.56936655121E+03  0.56936655121E+03  0.00000000000E+00 0.  1.
         25    1    1    2    0    0 -0.12681561305E+02 -0.11654748793E+02 -0.50163152006E+03  0.51725799857E+03  0.12500000000E+03 0.  0.
         25    1    1    2    0    0  0.12681561305E+02  0.11654748793E+02  0.65050232248E+01  0.12634860701E+03  0.12500000000E+03 0.  0.
</event>
<event>
 4    0  0.2193754E-002  0.2363696E+03  0.7546771E-02  0.1122235E+00
         21   -1    0    0  502  501  0.00000000000E+00  0.00000000000E+00  0.15553186947E+04  0.15553186947E+04  0.00000000000E+00 0. -1.
         21   -1    0    0  501  502 -0.00000000000E+00 -0.00000000000E+00 -0.35922271908E+02  0.35922271908E+02  0.00000000000E+00 0. -1.
         25    1    1    2    0    0  0.78467117151E+02 -0.12276241880E+03  0.12238878323E+04  0.12388519387E+04  0.12500000000E+03 0.  0.
         25    1    1    2    0    0 -0.78467117151E+02  0.12276241880E+03  0.29550859050E+03  0.35238902793E+03  0.12500000000E+03 0.  0.
</event>
<event>
 4    0  0.2193754E-002  0.2282075E+03  0.7546771E-02  0.1127908E+00
         21   -1    0    0  502  501  0.00000000000E+00  0.00000000000E+00  0.56846879166E+03  0.56846879166E+03  0.00000000000E+00 0. -1.
         21   -1    0    0  501  502 -0.00000000000E+00 -0.00000000000E+00 -0.91612189725E+02  0.91612189725E+02  0.00000000000E+00 0. -1.
         25    1    1    2    0    0  0.59771262105E+02 -0.31840871660E+02  0.49660046086E+03  0.51654957420E+03  0.12500000000E+03 0.  0.
         25    1    1    2    0    0 -0.59771262105E+02  0.31840871660E+02 -0.19743858927E+02  0.14353140718E+03  0.12500000000E+03 0.  0.
</event>
<event>
 4    0  0.2193754E-002  0.2270969E+03  0.7546771E-02  0.1128700E+00
         21   -1    0    0  502  501  0.00000000000E+00  0.00000000000E+00  0.69431206183E+02  0.69431206183E+02  0.00000000000E+00 0. -1.
         21   -1    0    0  501  502 -0.00000000000E+00 -0.00000000000E+00 -0.74279256801E+03  0.74279256801E+03  0.00000000000E+00 0. -1.
         25    1    1    2    0    0 -0.57552785486E+02 -0.13805430076E+03 -0.54504877371E+03  0.57885618145E+03  0.12500000000E+03 0.  0.
         25    1    1    2    0    0  0.57552785486E+02  0.13805430076E+03 -0.12831258812E+03  0.23336759275E+03  0.12500000000E+03 0.  0.
</event>
<event>
 4    0  0.2193754E-002  0.2248546E+03  0.7546771E-02  0.1130315E+00
         21   -1    0    0  502  501  0.00000000000E+00  0.00000000000E+00  0.77815931913E+02  0.77815931913E+02  0.00000000000E+00 0.  1.
         21   -1    0    0  501  502 -0.00000000000E+00 -0.00000000000E+00 -0.64973290429E+03  0.64973290429E+03  0.00000000000E+00 0.  1.
         25    1    1    2    0    0 -0.87798967297E+02 -0.84335975569E+02 -0.56516584801E+02  0.18341303059E+03  0.12500000000E+03 0.  0.
         25    1    1    2    0    0  0.87798967297E+02  0.84335975569E+02 -0.51540038758E+03  0.54413580561E+03  0.12500000000E+03 0.  0.
</event>
<event>
 4    0  0.2193754E-002  0.2056203E+03  0.7546771E-02  0.1145082E+00
         21   -1    0    0  502  501  0.00000000000E+00  0.00000000000E+00  0.24249498746E+03  0.24249498746E+03  0.00000000000E+00 0.  1.
         21   -1    0    0  501  502 -0.00000000000E+00 -0.00000000000E+00 -0.17435292577E+03  0.17435292577E+03  0.00000000000E+00 0.  1.
         25    1    1    2    0    0  0.46614288173E+02 -0.30131894136E+02  0.18970243578E+03  0.23386499748E+03  0.12500000000E+03 0.  0.
         25    1    1    2    0    0 -0.46614288173E+02  0.30131894136E+02 -0.12156037410E+03  0.18298291575E+03  0.12500000000E+03 0.  0.
</event>
<event>
 4    0  0.2193754E-002  0.2010299E+03  0.7546771E-02  0.1148873E+00
         21   -1    0    0  502  501  0.00000000000E+00  0.00000000000E+00  0.35454864740E+03  0.35454864740E+03  0.00000000000E+00 0. -1.
         21   -1    0    0  501  502 -0.00000000000E+00 -0.00000000000E+00 -0.11398437628E+03  0.11398437628E+03  0.00000000000E+00 0. -1.
         25    1    1    2    0    0 -0.16470082980E+02 -0.40427730366E+02  0.29656084474E+03  0.32477530641E+03  0.12500000000E+03 0.  0.
         25    1    1    2    0    0  0.16470082980E+02  0.40427730366E+02 -0.55996573629E+02  0.14375771727E+03  0.12500000000E+03 0.  0.
</event>
<event>
 4    0  0.2193754E-002  0.2198906E+03  0.7546771E-02  0.1133965E+00
         21   -1    0    0  502  501  0.00000000000E+00  0.00000000000E+00  0.11611999289E+03  0.11611999289E+03  0.00000000000E+00 0.  1.
         21   -1    0    0  501  502 -0.00000000000E+00 -0.00000000000E+00 -0.41639591315E+03  0.41639591315E+03  0.00000000000E+00 0.  1.
         25    1    1    2    0    0  0.58417854212E+01  0.18035632880E+03 -0.13461436961E+03  0.25750448599E+03  0.12500000000E+03 0.  0.
         25    1    1    2    0    0 -0.58417854212E+01 -0.18035632880E+03 -0.16566155065E+03  0.27501142005E+03  0.12500000000E+03 0.  0.
</event>
<event>
 4    0  0.2193754E-002  0.2151361E+03  0.7546771E-02  0.1137562E+00
         21   -1    0    0  502  501  0.00000000000E+00  0.00000000000E+00  0.16903138066E+04  0.16903138066E+04  0.00000000000E+00 0.  1.
         21   -1    0    0  501  502 -0.00000000000E+00 -0.00000000000E+00 -0.27381623833E+02  0.27381623833E+02  0.00000000000E+00 0.  1.
         25    1    1    2    0    0  0.14695207526E+03  0.86689120819E+02  0.98856581763E+03  0.10109388171E+04  0.12500000000E+03 0.  0.
         25    1    1    2    0    0 -0.14695207526E+03 -0.86689120819E+02  0.67436636515E+03  0.70675661337E+03  0.12500000000E+03 0.  0.
</event>
<event>
 4    0  0.2193754E-002  0.2374501E+03  0.7546771E-02  0.1121503E+00
         21   -1    0    0  502  501  0.00000000000E+00  0.00000000000E+00  0.11309228951E+04  0.11309228951E+04  0.00000000000E+00 0.  1.
         21   -1    0    0  501  502 -0.00000000000E+00 -0.00000000000E+00 -0.49855332233E+02  0.49855332233E+02  0.00000000000E+00 0.  1.
         25    1    1    2    0    0  0.39307017478E+02  0.19683218653E+03  0.48665431058E+03  0.54105948775E+03  0.12500000000E+03 0.  0.
         25    1    1    2    0    0 -0.39307017478E+02 -0.19683218653E+03  0.59441325227E+03  0.63971873956E+03  0.12500000000E+03 0.  0.
</event>
<event>
 4    0  0.2193754E-002  0.1815516E+03  0.7546771E-02  0.1166310E+00
         21   -1    0    0  502  501  0.00000000000E+00  0.00000000000E+00  0.16602712926E+02  0.16602712926E+02  0.00000000000E+00 0.  1.
         21   -1    0    0  501  502 -0.00000000000E+00 -0.00000000000E+00 -0.19852760683E+04  0.19852760683E+04  0.00000000000E+00 0.  1.
         25    1    1    2    0    0 -0.77677345140E+02  0.63470821887E+01 -0.39925851852E+03  0.42556599960E+03  0.12500000000E+03 0.  0.
         25    1    1    2    0    0  0.77677345140E+02 -0.63470821887E+01 -0.15694148369E+04  0.15763127816E+04  0.12500000000E+03 0.  0.
</event>
<event>
 4    0  0.2193754E-002  0.1903956E+03  0.7546771E-02  0.1158105E+00
         21   -1    0    0  502  501  0.00000000000E+00  0.00000000000E+00  0.15111813584E+02  0.15111813584E+02  0.00000000000E+00 0.  1.
         21   -1    0    0  501  502 -0.00000000000E+00 -0.00000000000E+00 -0.23988181797E+04  0.23988181797E+04  0.00000000000E+00 0.  1.
         25    1    1    2    0    0 -0.13758520543E+03 -0.16244806309E+02 -0.95197227826E+03  0.97008752237E+03  0.12500000000E+03 0.  0.
         25    1    1    2    0    0  0.13758520543E+03  0.16244806309E+02 -0.14317340879E+04  0.14438424710E+04  0.12500000000E+03 0.  0.
</event>
<event>
 4    0  0.2193754E-002  0.1958372E+03  0.7546771E-02  0.1153299E+00
         21   -1    0    0  502  501  0.00000000000E+00  0.00000000000E+00  0.31646573332E+03  0.31646573332E+03  0.00000000000E+00 0. -1.
         21   -1    0    0  501  502 -0.00000000000E+00 -0.00000000000E+00 -0.12118918755E+03  0.12118918755E+03  0.00000000000E+00 0. -1.
         25    1    1    2    0    0 -0.13463090127E+03 -0.49897358459E+02  0.14898980517E+03  0.24173991810E+03  0.12500000000E+03 0.  0.
         25    1    1    2    0    0  0.13463090127E+03  0.49897358459E+02  0.46286740600E+02  0.19591500278E+03  0.12500000000E+03 0.  0.
</event>
<event>
 4    0  0.2193754E-002  0.2093858E+03  0.7546771E-02  0.1142053E+00
         21   -1    0    0  502  501  0.00000000000E+00  0.00000000000E+00  0.38095974700E+03  0.38095974700E+03  0.00000000000E+00 0.  1.
         21   -1    0    0  501  502 -0.00000000000E+00 -0.00000000000E+00 -0.11508412893E+03  0.11508412893E+03  0.00000000000E+00 0.  1.
         25    1    1    2    0    0 -0.11946767838E+03 -0.21553375225E+02 -0.45908985529E+01  0.17430763182E+03  0.12500000000E+03 0.  0.
         25    1    1    2    0    0  0.11946767838E+03  0.21553375225E+02  0.27046651662E+03  0.32173624411E+03  0.12500000000E+03 0.  0.
</event>
<event>
 4    0  0.2193754E-002  0.1488560E+03  0.7546771E-02  0.1201886E+00
         21   -1    0    0  502  501  0.00000000000E+00  0.00000000000E+00  0.58659473422E+02  0.58659473422E+02  0.00000000000E+00 0. -1.
         21   -1    0    0  501  502 -0.00000000000E+00 -0.00000000000E+00 -0.37774157208E+03  0.37774157208E+03  0.00000000000E+00 0. -1.
         25    1    1    2    0    0  0.72757296518E+02 -0.10820800349E+02 -0.20865045195E+03  0.25410770357E+03  0.12500000000E+03 0.  0.
         25    1    1    2    0    0 -0.72757296518E+02  0.10820800349E+02 -0.11043164671E+03  0.18229334193E+03  0.12500000000E+03 0.  0.
</event>
<event>
 4    0  0.2193754E-002  0.3042177E+03  0.7546771E-02  0.1083151E+00
         21   -1    0    0  502  501  0.00000000000E+00  0.00000000000E+00  0.29943847438E+03  0.29943847438E+03  0.00000000000E+00 0. -1.
         21   -1    0    0  501  502 -0.00000000000E+00 -0.00000000000E+00 -0.30907328917E+03  0.30907328917E+03  0.00000000000E+00 0. -1.
         25    1    1    2    0    0 -0.17258097985E+03  0.19259146995E+03 -0.10506851636E+03  0.30584319845E+03  0.12500000000E+03 0.  0.
         25    1    1    2    0    0  0.17258097985E+03 -0.19259146995E+03  0.95433701576E+02  0.30266856510E+03  0.12500000000E+03 0.  0.
</event>
<event>
 4    0  0.2193754E-002  0.2687043E+03  0.7546771E-02  0.1102023E+00
         21   -1    0    0  502  501  0.00000000000E+00  0.00000000000E+00  0.17798545239E+03  0.17798545239E+03  0.00000000000E+00 0. -1.
         21   -1    0    0  501  502 -0.00000000000E+00 -0.00000000000E+00 -0.40566239153E+03  0.40566239153E+03  0.00000000000E+00 0. -1.
         25    1    1    2    0    0  0.21394903086E+03  0.51977658752E+02 -0.21158904383E+03  0.32995573685E+03  0.12500000000E+03 0.  0.
         25    1    1    2    0    0 -0.21394903086E+03 -0.51977658752E+02 -0.16087895316E+02  0.25369210707E+03  0.12500000000E+03 0.  0.
</event>
<event>
 4    0  0.2193754E-002  0.2075759E+03  0.7546771E-02  0.1143500E+00
         21   -1    0    0  502  501  0.00000000000E+00  0.00000000000E+00  0.23769785783E+03  0.23769785783E+03  0.00000000000E+00 0. -1.
         21   -1    0    0  501  502 -0.00000000000E+00 -0.00000000000E+00 -0.18127117412E+03  0.18127117412E+03  0.00000000000E+00 0. -1.
         25    1    1    2    0    0  0.36843242472E+02  0.11864258208E+03 -0.82473192706E+02  0.19457727081E+03  0.12500000000E+03 0.  0.
         25    1    1    2    0    0 -0.36843242472E+02 -0.11864258208E+03  0.13889987642E+03  0.22439176114E+03  0.12500000000E+03 0.  0.
</event>
<event>
 4    0  0.2193754E-002  0.3788474E+03  0.7546771E-02  0.1051361E+00
         21   -1    0    0  502  501  0.00000000000E+00  0.00000000000E+00  0.10674496110E+03  0.10674496110E+03  0.00000000000E+00 0.  1.
         21   -1    0    0  501  502 -0.00000000000E+00 -0.00000000000E+00 -0.13445629525E+04  0.13445629525E+04  0.00000000000E+00 0.  1.
         25    1    1    2    0    0  0.21505290779E+03  0.27629262895E+03 -0.75855062305E+03  0.84475405752E+03  0.12500000000E+03 0.  0.
         25    1    1    2    0    0 -0.21505290779E+03 -0.27629262895E+03 -0.47926736837E+03  0.60655385610E+03  0.12500000000E+03 0.  0.
</event>
<event>
 4    0  0.2193754E-002  0.2606083E+03  0.7546771E-02  0.1106778E+00
         21   -1    0    0  502  501  0.00000000000E+00  0.00000000000E+00  0.53909047164E+03  0.53909047164E+03  0.00000000000E+00 0. -1.
         21   -1    0    0  501  502 -0.00000000000E+00 -0.00000000000E+00 -0.12598388007E+03  0.12598388007E+03  0.00000000000E+00 0. -1.
         25    1    1    2    0    0 -0.19958995150E+03 -0.63457154674E+02  0.89405674262E+02  0.25977169555E+03  0.12500000000E+03 0.  0.
         25    1    1    2    0    0  0.19958995150E+03  0.63457154674E+02  0.32370091731E+03  0.40530265616E+03  0.12500000000E+03 0.  0.
</event>
<event>
 4    0  0.2193754E-002  0.2648030E+03  0.7546771E-02  0.1104291E+00
         21   -1    0    0  502  501  0.00000000000E+00  0.00000000000E+00  0.33834577863E+03  0.33834577863E+03  0.00000000000E+00 0.  1.
         21   -1    0    0  501  502 -0.00000000000E+00 -0.00000000000E+00 -0.20724547551E+03  0.20724547551E+03  0.00000000000E+00 0.  1.
         25    1    1    2    0    0 -0.11614903415E+03  0.18561451954E+03 -0.17839247351E+02  0.25275796079E+03  0.12500000000E+03 0.  0.
         25    1    1    2    0    0  0.11614903415E+03 -0.18561451954E+03  0.14893955047E+03  0.29283329335E+03  0.12500000000E+03 0.  0.
</event>
<event>
 4    0  0.2193754E-002  0.2352798E+03  0.7546771E-02  0.1122978E+00
         21   -1    0    0  502  501  0.00000000000E+00  0.00000000000E+00  0.16617736505E+03  0.16617736505E+03  0.00000000000E+00 0. -1.
         21   -1    0    0  501  502 -0.00000000000E+00 -0.00000000000E+00 -0.33311751536E+03  0.33311751536E+03  0.00000000000E+00 0. -1.
         25    1    1    2    0    0  0.14907756413E+03  0.10725296664E+03 -0.12509925025E+01  0.22215734055E+03  0.12500000000E+03 0.  0.
         25    1    1    2    0    0 -0.14907756413E+03 -0.10725296664E+03 -0.16568915781E+03  0.27713753985E+03  0.12500000000E+03 0.  0.
</event>
<event>
 4    0  0.2193754E-002  0.1738269E+03  0.7546771E-02  0.1173915E+00
         21   -1    0    0  502  501  0.00000000000E+00  0.00000000000E+00  0.11849252216E+04  0.11849252216E+04  0.00000000000E+00 0.  1.
         21   -1    0    0  501  502 -0.00000000000E+00 -0.00000000000E+00 -0.25500172700E+02  0.25500172700E+02  0.00000000000E+00 0.  1.
         25    1    1    2    0    0  0.70560112169E+02  0.73032593938E+02  0.80744609272E+03  0.82335088623E+03  0.12500000000E+03 0.  0.
         25    1    1    2    0    0 -0.70560112169E+02 -0.73032593938E+02  0.35197895621E+03  0.38707450810E+03  0.12500000000E+03 0.  0.
</event>
<event>
 4    0  0.2193754E-002  0.4040495E+03  0.7546771E-02  0.1042386E+00
         21   -1    0    0  502  501  0.00000000000E+00  0.00000000000E+00  0.22399582178E+03  0.22399582178E+03  0.00000000000E+00 0. -1.
         21   -1    0    0  501  502 -0.00000000000E+00 -0.00000000000E+00 -0.72883486857E+03  0.72883486857E+03  0.00000000000E+00 0. -1.
         25    1    1    2    0    0 -0.27916850230E+02 -0.35925718919E+03 -0.95170131724E+02  0.39309977421E+03  0.12500000000E+03 0.  0.
         25    1    1    2    0    0  0.27916850230E+02  0.35925718919E+03 -0.40966891506E+03  0.55973091614E+03  0.12500000000E+03 0.  0.
</event>
<event>
 4    0  0.2193754E-002  0.2575465E+03  0.7546771E-02  0.1108626E+00
         21   -1    0    0  502  501  0.00000000000E+00  0.00000000000E+00  0.64487511304E+02  0.64487511304E+02  0.00000000000E+00 0.  1.
         21   -1    0    0  501  502 -0.00000000000E+00 -0.00000000000E+00 -0.10285740047E+04  0.10285740047E+04  0.00000000000E+00 0.  1.
         25    1    1    2    0    0  0.10662563574E+03  0.18185888754E+01 -0.90290232950E+03  0.91773087018E+03  0.12500000000E+03 0.  0.
         25    1    1    2    0    0 -0.10662563574E+03 -0.18185888754E+01 -0.61184163928E+02  0.17533064586E+03  0.12500000000E+03 0.  0.
</event>
<event>
 4    0  0.2193754E-002  0.2977516E+03  0.7546771E-02  0.1086370E+00
         21   -1    0    0  502  501  0.00000000000E+00  0.00000000000E+00  0.10238074043E+03  0.10238074043E+03  0.00000000000E+00 0.  1.
         21   -1    0    0  501  502 -0.00000000000E+00 -0.00000000000E+00 -0.86594433278E+03  0.86594433278E+03  0.00000000000E+00 0.  1.
         25    1    1    2    0    0 -0.48013824778E+02  0.17065496988E+03 -0.71344490863E+03  0.74569235196E+03  0.12500000000E+03 0.  0.
         25    1    1    2    0    0  0.48013824778E+02 -0.17065496988E+03 -0.50118683709E+02  0.22263272125E+03  0.12500000000E+03 0.  0.
</event>
<event>
 4    0  0.2193754E-002  0.2223561E+03  0.7546771E-02  0.1132139E+00
         21   -1    0    0  502  501  0.00000000000E+00  0.00000000000E+00  0.27586408483E+03  0.27586408483E+03  0.00000000000E+00 0.  1.
         21   -1    0    0  501  502 -0.00000000000E+00 -0.00000000000E+00 -0.17922671397E+03  0.17922671397E+03  0.00000000000E+00 0.  1.
         25    1    1    2    0    0 -0.10164349953E+03 -0.84345187882E+02  0.17925678050E+03  0.25534977006E+03  0.12500000000E+03 0.  0.
         25    1    1    2    0    0  0.10164349953E+03  0.84345187882E+02 -0.82619409632E+02  0.19974102874E+03  0.12500000000E+03 0.  0.
</event>
<event>
 4    0  0.2193754E-002  0.1429810E+03  0.7546771E-02  0.1209373E+00
         21   -1    0    0  502  501  0.00000000000E+00  0.00000000000E+00  0.13349670156E+03  0.13349670156E+03  0.00000000000E+00 0.  1.
         21   -1    0    0  501  502 -0.00000000000E+00 -0.00000000000E+00 -0.15313902207E+03  0.15313902207E+03  0.00000000000E+00 0.  1.
         25    1    1    2    0    0 -0.50296263317E+02 -0.43806709836E+02  0.94546592355E+01  0.14199694543E+03  0.12500000000E+03 0.  0.
         25    1    1    2    0    0  0.50296263317E+02  0.43806709836E+02 -0.29096979749E+02  0.14463877821E+03  0.12500000000E+03 0.  0.
</event>
<event>
 4    0  0.2193754E-002  0.1659597E+03  0.7546771E-02  0.1182128E+00
         21   -1    0    0  502  501  0.00000000000E+00  0.00000000000E+00  0.31984559753E+02  0.31984559753E+02  0.00000000000E+00 0. -1.
         21   -1    0    0  501  502 -0.00000000000E+00 -0.00000000000E+00 -0.86112284733E+03  0.86112284733E+03  0.00000000000E+00 0. -1.
         25    1    1    2    0    0 -0.95892108003E+02 -0.40165367433E+02 -0.32495990492E+03  0.36336275666E+03  0.12500000000E+03 0.  0.
         25    1    1    2    0    0  0.95892108003E+02  0.40165367433E+02 -0.50417838265E+03  0.52974465042E+03  0.12500000000E+03 0.  0.
</event>
<event>
 4    0  0.2193754E-002  0.2115066E+03  0.7546771E-02  0.1140378E+00
         21   -1    0    0  502  501  0.00000000000E+00  0.00000000000E+00  0.46808543670E+02  0.46808543670E+02  0.00000000000E+00 0. -1.
         21   -1    0    0  501  502 -0.00000000000E+00 -0.00000000000E+00 -0.95570243100E+03  0.95570243100E+03  0.00000000000E+00 0. -1.
         25    1    1    2    0    0  0.12468509611E+02 -0.10663340724E+03 -0.14018432133E+03  0.21633952764E+03  0.12500000000E+03 0.  0.
         25    1    1    2    0    0 -0.12468509611E+02  0.10663340724E+03 -0.76870956600E+03  0.78617144703E+03  0.12500000000E+03 0.  0.
</event>
<event>
 4    0  0.2193754E-002  0.2055292E+03  0.7546771E-02  0.1145156E+00
         21   -1    0    0  502  501  0.00000000000E+00  0.00000000000E+00  0.44851272165E+02  0.44851272165E+02  0.00000000000E+00 0.  1.
         21   -1    0    0  501  502 -0.00000000000E+00 -0.00000000000E+00 -0.94182987684E+03  0.94182987684E+03  0.00000000000E+00 0.  1.
         25    1    1    2    0    0 -0.71347885361E+02 -0.99107131405E+02 -0.18880236942E+03  0.25726266527E+03  0.12500000000E+03 0.  0.
         25    1    1    2    0    0  0.71347885361E+02  0.99107131405E+02 -0.70817623525E+03  0.72941848374E+03  0.12500000000E+03 0.  0.
</event>
<event>
 4    0  0.2193754E-002  0.1537274E+03  0.7546771E-02  0.1195966E+00
         21   -1    0    0  502  501  0.00000000000E+00  0.00000000000E+00  0.31337911948E+03  0.31337911948E+03  0.00000000000E+00 0.  1.
         21   -1    0    0  501  502 -0.00000000000E+00 -0.00000000000E+00 -0.75410599974E+02  0.75410599974E+02  0.00000000000E+00 0.  1.
         25    1    1    2    0    0 -0.21568385578E+02  0.78720410018E+02  0.72607950874E+02  0.16600907427E+03  0.12500000000E+03 0.  0.
         25    1    1    2    0    0  0.21568385578E+02 -0.78720410018E+02  0.16536056863E+03  0.22278064518E+03  0.12500000000E+03 0.  0.
</event>
<event>
 4    0  0.2193754E-002  0.1582721E+03  0.7546771E-02  0.1190661E+00
         21   -1    0    0  502  501  0.00000000000E+00  0.00000000000E+00  0.38374519991E+02  0.38374519991E+02  0.00000000000E+00 0.  1.
         21   -1    0    0  501  502 -0.00000000000E+00 -0.00000000000E+00 -0.65277849246E+03  0.65277849246E+03  0.00000000000E+00 0.  1.
         25    1    1    2    0    0  0.49168108821E+02  0.28943978795E+02 -0.47870648384E+03  0.49803629838E+03  0.12500000000E+03 0.  0.
         25    1    1    2    0    0 -0.49168108821E+02 -0.28943978795E+02 -0.13569748863E+03  0.19311671407E+03  0.12500000000E+03 0.  0.
</event>
<event>
 4    0  0.2193754E-002  0.3178988E+03  0.7546771E-02  0.1076620E+00
         21   -1    0    0  502  501  0.00000000000E+00  0.00000000000E+00  0.57216462339E+03  0.57216462339E+03  0.00000000000E+00 0. -1.
         21   -1    0    0  501  502 -0.00000000000E+00 -0.00000000000E+00 -0.17662685645E+03  0.17662685645E+03  0.00000000000E+00 0. -1.
         25    1    1    2    0    0 -0.25401175382E+03  0.30014042657E+02  0.31164902180E+02  0.28638970820E+03  0.12500000000E+03 0.  0.
         25    1    1    2    0    0  0.25401175382E+03 -0.30014042657E+02  0.36437286476E+03  0.46240177164E+03  0.12500000000E+03 0.  0.
</event>
<event>
 4    0  0.2193754E-002  0.2913971E+03  0.7546771E-02  0.1089622E+00
         21   -1    0    0  502  501  0.00000000000E+00  0.00000000000E+00  0.14451898702E+04  0.14451898702E+04  0.00000000000E+00 0. -1.
         21   -1    0    0  501  502 -0.00000000000E+00 -0.00000000000E+00 -0.58755092063E+02  0.58755092063E+02  0.00000000000E+00 0. -1.
         25    1    1    2    0    0  0.12729153529E+03 -0.22184426063E+03  0.53269696500E+03  0.60399426111E+03  0.12500000000E+03 0.  0.
         25    1    1    2    0    0 -0.12729153529E+03  0.22184426063E+03  0.85373781317E+03  0.89995070119E+03  0.12500000000E+03 0.  0.
</event>
<event>
 4    0  0.2193754E-002  0.3774147E+03  0.7546771E-02  0.1051893E+00
         21   -1    0    0  502  501  0.00000000000E+00  0.00000000000E+00  0.62280595615E+03  0.62280595615E+03  0.00000000000E+00 0. -1.
         21   -1    0    0  501  502 -0.00000000000E+00 -0.00000000000E+00 -0.22870989443E+03  0.22870989443E+03  0.00000000000E+00 0. -1.
         25    1    1    2    0    0 -0.22992504523E+03  0.23418949895E+03  0.41115758489E+02  0.35358980958E+03  0.12500000000E+03 0.  0.
         25    1    1    2    0    0  0.22992504523E+03 -0.23418949895E+03  0.35298030322E+03  0.49792604100E+03  0.12500000000E+03 0.  0.
</event>
<event>
 4    0  0.2193754E-002  0.2056823E+03  0.7546771E-02  0.1145031E+00
         21   -1    0    0  502  501  0.00000000000E+00  0.00000000000E+00  0.76141390228E+02  0.76141390228E+02  0.00000000000E+00 0. -1.
         21   -1    0    0  501  502 -0.00000000000E+00 -0.00000000000E+00 -0.55561402768E+03  0.55561402768E+03  0.00000000000E+00 0. -1.
         25    1    1    2    0    0 -0.41840348464E+02 -0.15689584362E+03 -0.21255284575E+03  0.29524673198E+03  0.12500000000E+03 0.  0.
         25    1    1    2    0    0  0.41840348464E+02  0.15689584362E+03 -0.26691979170E+03  0.33650868593E+03  0.12500000000E+03 0.  0.
</event>
<event>
 4    0  0.2193754E-002  0.1540250E+03  0.7546771E-02  0.1195613E+00
         21   -1    0    0  502  501  0.00000000000E+00  0.00000000000E+00  0.51003462862E+03  0.51003462862E+03  0.00000000000E+00 0.  1.
         21   -1    0    0  501  502 -0.00000000000E+00 -0.00000000000E+00 -0.46513902555E+02  0.46513902555E+02  0.00000000000E+00 0.  1.
         25    1    1    2    0    0 -0.87818076138E+02  0.50695629828E+01  0.26608666620E+03  0.30686288289E+03  0.12500000000E+03 0.  0.
         25    1    1    2    0    0  0.87818076138E+02 -0.50695629828E+01  0.19743405987E+03  0.24968564829E+03  0.12500000000E+03 0.  0.
</event>
<event>
 4    0  0.2193754E-002  0.1446477E+03  0.7546771E-02  0.1207208E+00
         21   -1    0    0  502  501  0.00000000000E+00  0.00000000000E+00  0.17397946761E+03  0.17397946761E+03  0.00000000000E+00 0. -1.
         21   -1    0    0  501  502 -0.00000000000E+00 -0.00000000000E+00 -0.12026107798E+03  0.12026107798E+03  0.00000000000E+00 0. -1.
         25    1    1    2    0    0 -0.67769866971E+02 -0.19288459218E+02  0.45423838445E+02  0.15050954995E+03  0.12500000000E+03 0.  0.
         25    1    1    2    0    0  0.67769866971E+02  0.19288459218E+02  0.82945511829E+01  0.14373099564E+03  0.12500000000E+03 0.  0.
</event>
<event>
 4    0  0.2193754E-002  0.2139274E+03  0.7546771E-02  0.1138493E+00
         21   -1    0    0  502  501  0.00000000000E+00  0.00000000000E+00  0.51772738645E+02  0.51772738645E+02  0.00000000000E+00 0. -1.
         21   -1    0    0  501  502 -0.00000000000E+00 -0.00000000000E+00 -0.88395836775E+03  0.88395836775E+03  0.00000000000E+00 0. -1.
         25    1    1    2    0    0 -0.18008148863E+01 -0.12780073818E+03 -0.15914085015E+03  0.23934719927E+03  0.12500000000E+03 0.  0.
         25    1    1    2    0    0  0.18008148863E+01  0.12780073818E+03 -0.67304477896E+03  0.69638390712E+03  0.12500000000E+03 0.  0.
</event>
<event>
 4    0  0.2193754E-002  0.2540641E+03  0.7546771E-02  0.1110763E+00
         21   -1    0    0  502  501  0.00000000000E+00  0.00000000000E+00  0.28413131702E+02  0.28413131702E+02  0.00000000000E+00 0.  1.
         21   -1    0    0  501  502 -0.00000000000E+00 -0.00000000000E+00 -0.22717871803E+04  0.22717871803E+04  0.00000000000E+00 0.  1.
         25    1    1    2    0    0  0.10062751792E+03  0.19620691183E+03 -0.10432100017E+04  0.10735619019E+04  0.12500000000E+03 0.  0.
         25    1    1    2    0    0 -0.10062751792E+03 -0.19620691183E+03 -0.12001640469E+04  0.12266384101E+04  0.12500000000E+03 0.  0.
</event>
<event>
 4    0  0.2193754E-002  0.2375076E+03  0.7546771E-02  0.1121464E+00
         21   -1    0    0  502  501  0.00000000000E+00  0.00000000000E+00  0.70357623471E+03  0.70357623471E+03  0.00000000000E+00 0.  1.
         21   -1    0    0  501  502 -0.00000000000E+00 -0.00000000000E+00 -0.80175921059E+02  0.80175921059E+02  0.00000000000E+00 0.  1.
         25    1    1    2    0    0 -0.54175663978E+02 -0.15893924773E+03  0.12658040383E+03  0.24463091724E+03  0.12500000000E+03 0.  0.
         25    1    1    2    0    0  0.54175663978E+02  0.15893924773E+03  0.49681990983E+03  0.53912123853E+03  0.12500000000E+03 0.  0.
</event>
<event>
 4    0  0.2193754E-002  0.1761582E+03  0.7546771E-02  0.1171574E+00
         21   -1    0    0  502  501  0.00000000000E+00  0.00000000000E+00  0.15638775039E+03  0.15638775039E+03  0.00000000000E+00 0.  1.
         21   -1    0    0  501  502 -0.00000000000E+00 -0.00000000000E+00 -0.19842802383E+03  0.19842802383E+03  0.00000000000E+00 0.  1.
         25    1    1    2    0    0 -0.22398454228E+02  0.11903966422E+03  0.62752693800E+01  0.17417379658E+03  0.12500000000E+03 0.  0.
         25    1    1    2    0    0  0.22398454228E+02 -0.11903966422E+03 -0.48315542821E+02  0.18064197764E+03  0.12500000000E+03 0.  0.
</event>
<event>
 4    0  0.2193754E-002  0.2735167E+03  0.7546771E-02  0.1099284E+00
         21   -1    0    0  502  501  0.00000000000E+00  0.00000000000E+00  0.12169148456E+04  0.12169148456E+04  0.00000000000E+00 0.  1.
         21   -1    0    0  501  502 -0.00000000000E+00 -0.00000000000E+00 -0.61476291054E+02  0.61476291054E+02  0.00000000000E+00 0.  1.
         25    1    1    2    0    0  0.10861555098E+03 -0.18428919047E+02  0.70813665612E+02  0.18104291814E+03  0.12500000000E+03 0.  0.
         25    1    1    2    0    0 -0.10861555098E+03  0.18428919047E+02  0.10846248890E+04  0.10973482185E+04  0.12500000000E+03 0.  0.
</event>
<event>
 4    0  0.2193754E-002  0.1729226E+03  0.7546771E-02  0.1174834E+00
         21   -1    0    0  502  501  0.00000000000E+00  0.00000000000E+00  0.16970494755E+03  0.16970494755E+03  0.00000000000E+00 0.  1.
         21   -1    0    0  501  502 -0.00000000000E+00 -0.00000000000E+00 -0.17620124789E+03  0.17620124789E+03  0.00000000000E+00 0.  1.
         25    1    1    2    0    0 -0.72046350449E+02 -0.35256783201E+02 -0.91827344120E+02  0.17461666158E+03  0.12500000000E+03 0.  0.
         25    1    1    2    0    0  0.72046350449E+02  0.35256783201E+02  0.85331043777E+02  0.17128953385E+03  0.12500000000E+03 0.  0.
</event>
<event>
 4    0  0.2193754E-002  0.2019544E+03  0.7546771E-02  0.1148100E+00
         21   -1    0    0  502  501  0.00000000000E+00  0.00000000000E+00  0.40344784459E+03  0.40344784459E+03  0.00000000000E+00 0. -1.
         21   -1    0    0  501  502 -0.00000000000E+00 -0.00000000000E+00 -0.10109258554E+03  0.10109258554E+03  0.00000000000E+00 0. -1.
         25    1    1    2    0    0 -0.57271647408E+02 -0.10712911681E+03  0.23765540430E+02  0.17591614530E+03  0.12500000000E+03 0.  0.
         25    1    1    2    0    0  0.57271647408E+02  0.10712911681E+03  0.27858971862E+03  0.32862428483E+03  0.12500000000E+03 0.  0.
</event>
<event>
 4    0  0.2193754E-002  0.2260908E+03  0.7546771E-02  0.1129422E+00
         21   -1    0    0  502  501  0.00000000000E+00  0.00000000000E+00  0.45607513838E+02  0.45607513838E+02  0.00000000000E+00 0.  1.
         21   -1    0    0  501  502 -0.00000000000E+00 -0.00000000000E+00 -0.11208033809E+04  0.11208033809E+04  0.00000000000E+00 0.  1.
         25    1    1    2    0    0  0.15555907826E+03  0.10574512965E+03 -0.51037253169E+03  0.55810911153E+03  0.12500000000E+03 0.  0.
         25    1    1    2    0    0 -0.15555907826E+03 -0.10574512965E+03 -0.56482333540E+03  0.60830178324E+03  0.12500000000E+03 0.  0.
</event>
<event>
 4    0  0.2193754E-002  0.2560599E+03  0.7546771E-02  0.1109534E+00
         21   -1    0    0  502  501  0.00000000000E+00  0.00000000000E+00  0.97092943102E+03  0.97092943102E+03  0.00000000000E+00 0.  1.
         21   -1    0    0  501  502 -0.00000000000E+00 -0.00000000000E+00 -0.67529792181E+02  0.67529792181E+02  0.00000000000E+00 0.  1.
         25    1    1    2    0    0  0.20438422628E+03  0.75981100171E+02  0.55094905366E+03  0.60557072193E+03  0.12500000000E+03 0.  0.
         25    1    1    2    0    0 -0.20438422628E+03 -0.75981100171E+02  0.35245058518E+03  0.43288850127E+03  0.12500000000E+03 0.  0.
</event>
<event>
 4    0  0.2193754E-002  0.2976528E+03  0.7546771E-02  0.1086420E+00
         21   -1    0    0  502  501  0.00000000000E+00  0.00000000000E+00  0.21369718491E+04  0.21369718491E+04  0.00000000000E+00 0. -1.
         21   -1    0    0  501  502 -0.00000000000E+00 -0.00000000000E+00 -0.41459212280E+02  0.41459212280E+02  0.00000000000E+00 0. -1.
         25    1    1    2    0    0 -0.61910449886E+02  0.11912052614E+03  0.19055563041E+04  0.19143647593E+04  0.12500000000E+03 0.  0.
         25    1    1    2    0    0  0.61910449886E+02 -0.11912052614E+03  0.18995633271E+03  0.26406630207E+03  0.12500000000E+03 0.  0.
</event>
<event>
 4    0  0.2193754E-002  0.2163121E+03  0.7546771E-02  0.1136663E+00
         21   -1    0    0  502  501  0.00000000000E+00  0.00000000000E+00  0.12991468270E+03  0.12991468270E+03  0.00000000000E+00 0. -1.
         21   -1    0    0  501  502 -0.00000000000E+00 -0.00000000000E+00 -0.36016659488E+03  0.36016659488E+03  0.00000000000E+00 0. -1.
         25    1    1    2    0    0 -0.13475173585E+03  0.42188611555E+02 -0.23516122347E+03  0.30143607993E+03  0.12500000000E+03 0.  0.
         25    1    1    2    0    0  0.13475173585E+03 -0.42188611555E+02  0.49093112853E+01  0.18864519765E+03  0.12500000000E+03 0.  0.
</event>
<event>
 4    0  0.2193754E-002  0.2707025E+03  0.7546771E-02  0.1100878E+00
         21   -1    0    0  502  501  0.00000000000E+00  0.00000000000E+00  0.78618710345E+02  0.78618710345E+02  0.00000000000E+00 0.  1.
         21   -1    0    0  501  502 -0.00000000000E+00 -0.00000000000E+00 -0.93209185936E+03  0.93209185936E+03  0.00000000000E+00 0.  1.
         25    1    1    2    0    0  0.10666824910E+02  0.23895000628E+03 -0.46607191360E+03  0.53857117942E+03  0.12500000000E+03 0.  0.
         25    1    1    2    0    0 -0.10666824910E+02 -0.23895000628E+03 -0.38740123541E+03  0.47213939028E+03  0.12500000000E+03 0.  0.
</event>
<event>
 4    0  0.2193754E-002  0.1771762E+03  0.7546771E-02  0.1170564E+00
         21   -1    0    0  502  501  0.00000000000E+00  0.00000000000E+00  0.19806787474E+03  0.19806787474E+03  0.00000000000E+00 0.  1.
         21   -1    0    0  501  502 -0.00000000000E+00 -0.00000000000E+00 -0.15848813277E+03  0.15848813277E+03  0.00000000000E+00 0.  1.
         25    1    1    2    0    0 -0.57997849209E+02 -0.32489672987E+02  0.12697496481E+03  0.19017615795E+03  0.12500000000E+03 0.  0.
         25    1    1    2    0    0  0.57997849209E+02  0.32489672987E+02 -0.87395222844E+02  0.16637984956E+03  0.12500000000E+03 0.  0.
</event>
<event>
 4    0  0.2193754E-002  0.2000158E+03  0.7546771E-02  0.1149726E+00
         21   -1    0    0  502  501  0.00000000000E+00  0.00000000000E+00  0.68283731102E+03  0.68283731102E+03  0.00000000000E+00 0.  1.
         21   -1    0    0  501  502 -0.00000000000E+00 -0.00000000000E+00 -0.58588338373E+02  0.58588338373E+02  0.00000000000E+00 0.  1.
         25    1    1    2    0    0  0.41114723346E+01 -0.15579301728E+03  0.29425701732E+03  0.35566917308E+03  0.12500000000E+03 0.  0.
         25    1    1    2    0    0 -0.41114723346E+01  0.15579301728E+03  0.32999195532E+03  0.38575647631E+03  0.12500000000E+03 0.  0.
</event>
<event>
 4    0  0.2193754E-002  0.2345304E+03  0.7546771E-02  0.1123491E+00
         21   -1    0    0  502  501  0.00000000000E+00  0.00000000000E+00  0.44340068463E+03  0.44340068463E+03  0.00000000000E+00 0.  1.
         21   -1    0    0  501  502 -0.00000000000E+00 -0.00000000000E+00 -0.12405143679E+03  0.12405143679E+03  0.00000000000E+00 0.  1.
         25    1    1    2    0    0 -0.17660569405E+03 -0.77316631438E+02  0.10277642290E+03  0.25170503724E+03  0.12500000000E+03 0.  0.
         25    1    1    2    0    0  0.17660569405E+03  0.77316631438E+02  0.21657282494E+03  0.31574708418E+03  0.12500000000E+03 0.  0.
</event>
<event>
 4    0  0.2193754E-002  0.2001735E+03  0.7546771E-02  0.1149593E+00
         21   -1    0    0  502  501  0.00000000000E+00  0.00000000000E+00  0.20039916679E+03  0.20039916679E+03  0.00000000000E+00 0. -1.
         21   -1    0    0  501  502 -0.00000000000E+00 -0.00000000000E+00 -0.19994799676E+03  0.19994799676E+03  0.00000000000E+00 0. -1.
         25    1    1    2    0    0 -0.93453126064E+02 -0.11029627594E+02 -0.12463150247E+03  0.20003287446E+03  0.12500000000E+03 0.  0.
         25    1    1    2    0    0  0.93453126064E+02  0.11029627594E+02  0.12508267249E+03  0.20031428909E+03  0.12500000000E+03 0.  0.
</event>
<event>
 4    0  0.2193754E-002  0.1608114E+03  0.7546771E-02  0.1187784E+00
         21   -1    0    0  502  501  0.00000000000E+00  0.00000000000E+00  0.98422598156E+02  0.98422598156E+02  0.00000000000E+00 0.  1.
         21   -1    0    0  501  502 -0.00000000000E+00 -0.00000000000E+00 -0.26274754631E+03  0.26274754631E+03  0.00000000000E+00 0.  1.
         25    1    1    2    0    0 -0.72923469884E+01 -0.21434195741E+02 -0.19289071195E+03  0.23096413104E+03  0.12500000000E+03 0.  0.
         25    1    1    2    0    0  0.72923469884E+01  0.21434195741E+02  0.28565763791E+02  0.13020601343E+03  0.12500000000E+03 0.  0.
</event>
<event>
 4    0  0.2193754E-002  0.2271589E+03  0.7546771E-02  0.1128656E+00
         21   -1    0    0  502  501  0.00000000000E+00  0.00000000000E+00  0.39509303022E+03  0.39509303022E+03  0.00000000000E+00 0.  1.
         21   -1    0    0  501  502 -0.00000000000E+00 -0.00000000000E+00 -0.13060506392E+03  0.13060506392E+03  0.00000000000E+00 0.  1.
         25    1    1    2    0    0 -0.62814639644E+02 -0.15464523554E+03  0.28005133514E+02  0.21040464665E+03  0.12500000000E+03 0.  0.
         25    1    1    2    0    0  0.62814639644E+02  0.15464523554E+03  0.23648283278E+03  0.31529344749E+03  0.12500000000E+03 0.  0.
</event>
<event>
 4    0  0.2193754E-002  0.3388081E+03  0.7546771E-02  0.1067305E+00
         21   -1    0    0  502  501  0.00000000000E+00  0.00000000000E+00  0.10334700729E+04  0.10334700729E+04  0.00000000000E+00 0.  1.
         21   -1    0    0  501  502 -0.00000000000E+00 -0.00000000000E+00 -0.11107327192E+03  0.11107327192E+03  0.00000000000E+00 0.  1.
         25    1    1    2    0    0 -0.63997914788E+02 -0.92521341301E+02 -0.35601609911E+02  0.17189649886E+03  0.12500000000E+03 0.  0.
         25    1    1    2    0    0  0.63997914788E+02  0.92521341301E+02  0.95799841091E+03  0.97264684599E+03  0.12500000000E+03 0.  0.
</event>
<event>
 4    0  0.2193754E-002  0.3098626E+03  0.7546771E-02  0.1080412E+00
         21   -1    0    0  502  501  0.00000000000E+00  0.00000000000E+00  0.58149339893E+02  0.58149339893E+02  0.00000000000E+00 0. -1.
         21   -1    0    0  501  502 -0.00000000000E+00 -0.00000000000E+00 -0.16511766383E+04  0.16511766383E+04  0.00000000000E+00 0. -1.
         25    1    1    2    0    0  0.20397606540E+03 -0.88044047035E+02 -0.12823941981E+04  0.13074853226E+04  0.12500000000E+03 0.  0.
         25    1    1    2    0    0 -0.20397606540E+03  0.88044047035E+02 -0.31063310024E+03  0.40184065553E+03  0.12500000000E+03 0.  0.
</event>
<event>
 4    0  0.2193754E-002  0.2155695E+03  0.7546771E-02  0.1137230E+00
         21   -1    0    0  502  501  0.00000000000E+00  0.00000000000E+00  0.29697243477E+03  0.29697243477E+03  0.00000000000E+00 0. -1.
         21   -1    0    0  501  502 -0.00000000000E+00 -0.00000000000E+00 -0.15647981637E+03  0.15647981637E+03  0.00000000000E+00 0. -1.
         25    1    1    2    0    0  0.11002691787E+03  0.13518774678E+03  0.47601997491E+02  0.21971026307E+03  0.12500000000E+03 0.  0.
         25    1    1    2    0    0 -0.11002691787E+03 -0.13518774678E+03  0.92890620912E+02  0.23374198807E+03  0.12500000000E+03 0.  0.
</event>
<event>
 4    0  0.2193754E-002  0.2228205E+03  0.7546771E-02  0.1131798E+00
         21   -1    0    0  502  501  0.00000000000E+00  0.00000000000E+00  0.24477037524E+04  0.24477037524E+04  0.00000000000E+00 0. -1.
         21   -1    0    0  501  502 -0.00000000000E+00 -0.00000000000E+00 -0.20283890479E+02  0.20283890479E+02  0.00000000000E+00 0. -1.
         25    1    1    2    0    0 -0.81281050137E+02  0.16363545782E+03  0.10735211336E+04  0.10961093908E+04  0.12500000000E+03 0.  0.
         25    1    1    2    0    0  0.81281050137E+02 -0.16363545782E+03  0.13538987283E+04  0.13718782521E+04  0.12500000000E+03 0.  0.
</event>
<event>
 4    0  0.2193754E-002  0.1881501E+03  0.7546771E-02  0.1160140E+00
         21   -1    0    0  502  501  0.00000000000E+00  0.00000000000E+00  0.35243295822E+03  0.35243295822E+03  0.00000000000E+00 0.  1.
         21   -1    0    0  501  502 -0.00000000000E+00 -0.00000000000E+00 -0.10044597036E+03  0.10044597036E+03  0.00000000000E+00 0.  1.
         25    1    1    2    0    0  0.14196943684E+02 -0.10070081633E+03  0.91031679200E+01  0.16140035714E+03  0.12500000000E+03 0.  0.
         25    1    1    2    0    0 -0.14196943684E+02  0.10070081633E+03  0.24288381993E+03  0.29147857143E+03  0.12500000000E+03 0.  0.
</event>
<event>
 4    0  0.2193754E-002  0.2303488E+03  0.7546771E-02  0.1126394E+00
         21   -1    0    0  502  501  0.00000000000E+00  0.00000000000E+00  0.35377326756E+02  0.35377326756E+02  0.00000000000E+00 0. -1.
         21   -1    0    0  501  502 -0.00000000000E+00 -0.00000000000E+00 -0.14998471123E+04  0.14998471123E+04  0.00000000000E+00 0. -1.
         25    1    1    2    0    0 -0.12801148480E+01  0.16462816864E+03 -0.39351730177E+03  0.44450527488E+03  0.12500000000E+03 0.  0.
         25    1    1    2    0    0  0.12801148480E+01 -0.16462816864E+03 -0.10709524838E+04  0.10907191642E+04  0.12500000000E+03 0.  0.
</event>
<event>
 4    0  0.2193754E-002  0.3649431E+03  0.7546771E-02  0.1056644E+00
         21   -1    0    0  502  501  0.00000000000E+00  0.00000000000E+00  0.25719960097E+03  0.25719960097E+03  0.00000000000E+00 0. -1.
         21   -1    0    0  501  502 -0.00000000000E+00 -0.00000000000E+00 -0.51782132207E+03  0.51782132207E+03  0.00000000000E+00 0. -1.
         25    1    1    2    0    0 -0.29040910973E+03  0.90886643965E+02 -0.29806987646E+03  0.44392396231E+03  0.12500000000E+03 0.  0.
         25    1    1    2    0    0  0.29040910973E+03 -0.90886643965E+02  0.37448155360E+02  0.33109696073E+03  0.12500000000E+03 0.  0.
</event>
<event>
 4    0  0.2193754E-002  0.2891545E+03  0.7546771E-02  0.1090791E+00
         21   -1    0    0  502  501  0.00000000000E+00  0.00000000000E+00  0.30344268631E+03  0.30344268631E+03  0.00000000000E+00 0.  1.
         21   -1    0    0  501  502 -0.00000000000E+00 -0.00000000000E+00 -0.27553918223E+03  0.27553918223E+03  0.00000000000E+00 0.  1.
         25    1    1    2    0    0 -0.23056281361E+02  0.18546346917E+03  0.19597927340E+03  0.29826358495E+03  0.12500000000E+03 0.  0.
         25    1    1    2    0    0  0.23056281361E+02 -0.18546346917E+03 -0.16807576932E+03  0.28071828358E+03  0.12500000000E+03 0.  0.
</event>
<event>
 4    0  0.2193754E-002  0.1962248E+03  0.7546771E-02  0.1152964E+00
         21   -1    0    0  502  501  0.00000000000E+00  0.00000000000E+00  0.57282604527E+03  0.57282604527E+03  0.00000000000E+00 0.  1.
         21   -1    0    0  501  502 -0.00000000000E+00 -0.00000000000E+00 -0.67217943807E+02  0.67217943807E+02  0.00000000000E+00 0.  1.
         25    1    1    2    0    0 -0.13466220316E+03  0.42598982150E+02  0.16451545575E+03  0.25027768063E+03  0.12500000000E+03 0.  0.
         25    1    1    2    0    0  0.13466220316E+03 -0.42598982150E+02  0.34109264572E+03  0.38976630845E+03  0.12500000000E+03 0.  0.
</event>
<event>
 4    0  0.2193754E-002  0.2181531E+03  0.7546771E-02  0.1135268E+00
         21   -1    0    0  502  501  0.00000000000E+00  0.00000000000E+00  0.11337981928E+03  0.11337981928E+03  0.00000000000E+00 0. -1.
         21   -1    0    0  501  502 -0.00000000000E+00 -0.00000000000E+00 -0.41974635544E+03  0.41974635544E+03  0.00000000000E+00 0. -1.
         25    1    1    2    0    0 -0.43103722093E+02  0.17261873327E+03 -0.17471827297E+03  0.27893840331E+03  0.12500000000E+03 0.  0.
         25    1    1    2    0    0  0.43103722093E+02 -0.17261873327E+03 -0.13164826318E+03  0.25418777140E+03  0.12500000000E+03 0.  0.
</event>
<event>
 4    0  0.2193754E-002  0.2894846E+03  0.7546771E-02  0.1090619E+00
         21   -1    0    0  502  501  0.00000000000E+00  0.00000000000E+00  0.85064596034E+03  0.85064596034E+03  0.00000000000E+00 0. -1.
         21   -1    0    0  501  502 -0.00000000000E+00 -0.00000000000E+00 -0.98514906799E+02  0.98514906799E+02  0.00000000000E+00 0. -1.
         25    1    1    2    0    0 -0.14437264118E+03 -0.10676365695E+03  0.68683578324E+03  0.72084001769E+03  0.12500000000E+03 0.  0.
         25    1    1    2    0    0  0.14437264118E+03  0.10676365695E+03  0.65295270296E+02  0.22832084944E+03  0.12500000000E+03 0.  0.
</event>
<event>
 4    0  0.2193754E-002  0.2609240E+03  0.7546771E-02  0.1106589E+00
         21   -1    0    0  502  501  0.00000000000E+00  0.00000000000E+00  0.29218358172E+03  0.29218358172E+03  0.00000000000E+00 0.  1.
         21   -1    0    0  501  502 -0.00000000000E+00 -0.00000000000E+00 -0.23300884533E+03  0.23300884533E+03  0.00000000000E+00 0.  1.
         25    1    1    2    0    0 -0.12555668661E+03 -0.18894293012E+03  0.61292380543E+02  0.26616849609E+03  0.12500000000E+03 0.  0.
         25    1    1    2    0    0  0.12555668661E+03  0.18894293012E+03 -0.21176441519E+01  0.25902393096E+03  0.12500000000E+03 0.  0.
</event>
<event>
 4    0  0.2193754E-002  0.2285728E+03  0.7546771E-02  0.1127648E+00
         21   -1    0    0  502  501  0.00000000000E+00  0.00000000000E+00  0.23158565470E+02  0.23158565470E+02  0.00000000000E+00 0. -1.
         21   -1    0    0  501  502 -0.00000000000E+00 -0.00000000000E+00 -0.22559911002E+04  0.22559911002E+04  0.00000000000E+00 0. -1.
         25    1    1    2    0    0 -0.34851177210E+02  0.67868861134E+02 -0.24144903046E+03  0.28238877664E+03  0.12500000000E+03 0.  0.
         25    1    1    2    0    0  0.34851177210E+02 -0.67868861134E+02 -0.19913835042E+04  0.19967608890E+04  0.12500000000E+03 0.  0.
</event>
<event>
 4    0  0.2193754E-002  0.2382325E+03  0.7546771E-02  0.1120976E+00
         21   -1    0    0  502  501  0.00000000000E+00  0.00000000000E+00  0.61996314613E+03  0.61996314613E+03  0.00000000000E+00 0. -1.
         21   -1    0    0  501  502 -0.00000000000E+00 -0.00000000000E+00 -0.91545309352E+02  0.91545309352E+02  0.00000000000E+00 0. -1.
         25    1    1    2    0    0 -0.72734427363E+02 -0.19385705277E+02 -0.17007446254E+02  0.14690253817E+03  0.12500000000E+03 0.  0.
         25    1    1    2    0    0  0.72734427363E+02  0.19385705277E+02  0.54542528303E+03  0.56460591731E+03  0.12500000000E+03 0.  0.
</event>
<event>
 4    0  0.2193754E-002  0.1985606E+03  0.7546771E-02  0.1150959E+00
         21   -1    0    0  502  501  0.00000000000E+00  0.00000000000E+00  0.16220298921E+03  0.16220298921E+03  0.00000000000E+00 0. -1.
         21   -1    0    0  501  502 -0.00000000000E+00 -0.00000000000E+00 -0.24306777277E+03  0.24306777277E+03  0.00000000000E+00 0. -1.
         25    1    1    2    0    0  0.15113044006E+03  0.23285899481E+02 -0.19550908408E+02  0.19846884150E+03  0.12500000000E+03 0.  0.
         25    1    1    2    0    0 -0.15113044006E+03 -0.23285899481E+02 -0.61313875154E+02  0.20680192048E+03  0.12500000000E+03 0.  0.
</event>
<event>
 4    0  0.2193754E-002  0.1869655E+03  0.7546771E-02  0.1161227E+00
         21   -1    0    0  502  501  0.00000000000E+00  0.00000000000E+00  0.27300304445E+03  0.27300304445E+03  0.00000000000E+00 0. -1.
         21   -1    0    0  501  502 -0.00000000000E+00 -0.00000000000E+00 -0.12804288501E+03  0.12804288501E+03  0.00000000000E+00 0. -1.
         25    1    1    2    0    0  0.70452875458E+02  0.11874538063E+03  0.54954270587E+02  0.19418816889E+03  0.12500000000E+03 0.  0.
         25    1    1    2    0    0 -0.70452875458E+02 -0.11874538063E+03  0.90005888848E+02  0.20685776057E+03  0.12500000000E+03 0.  0.
</event>
<event>
 4    0  0.2193754E-002  0.1866790E+03  0.7546771E-02  0.1161491E+00
         21   -1    0    0  502  501  0.00000000000E+00  0.00000000000E+00  0.10022742078E+04  0.10022742078E+04  0.00000000000E+00 0.  1.
         21   -1    0    0  501  502 -0.00000000000E+00 -0.00000000000E+00 -0.34769987858E+02  0.34769987858E+02  0.00000000000E+00 0.  1.
         25    1    1    2    0    0  0.95378466151E+02  0.82940863307E+02  0.32545684378E+03  0.37084146987E+03  0.12500000000E+03 0.  0.
         25    1    1    2    0    0 -0.95378466151E+02 -0.82940863307E+02  0.64204737614E+03  0.66620272577E+03  0.12500000000E+03 0.  0.
</event>
<event>
 4    0  0.2193754E-002  0.1889092E+03  0.7546771E-02  0.1159449E+00
         21   -1    0    0  502  501  0.00000000000E+00  0.00000000000E+00  0.14654803529E+04  0.14654803529E+04  0.00000000000E+00 0. -1.
         21   -1    0    0  501  502 -0.00000000000E+00 -0.00000000000E+00 -0.24351536089E+02  0.24351536089E+02  0.00000000000E+00 0. -1.
         25    1    1    2    0    0 -0.10704636049E+03 -0.77194167945E+02  0.51780955909E+03  0.54878921486E+03  0.12500000000E+03 0.  0.
         25    1    1    2    0    0  0.10704636049E+03  0.77194167945E+02  0.92331925772E+03  0.94104267413E+03  0.12500000000E+03 0.  0.
</event>
<event>
 4    0  0.2193754E-002  0.1579127E+03  0.7546771E-02  0.1191074E+00
         21   -1    0    0  502  501  0.00000000000E+00  0.00000000000E+00  0.23335316106E+04  0.23335316106E+04  0.00000000000E+00 0. -1.
         21   -1    0    0  501  502 -0.00000000000E+00 -0.00000000000E+00 -0.10686125227E+02  0.10686125227E+02  0.00000000000E+00 0. -1.
         25    1    1    2    0    0  0.12577156333E+02  0.91412995853E+02  0.95189079055E+03  0.96448722013E+03  0.12500000000E+03 0.  0.
         25    1    1    2    0    0 -0.12577156333E+02 -0.91412995853E+02  0.13709546948E+04  0.13797305157E+04  0.12500000000E+03 0.  0.
</event>
<event>
 4    0  0.2193754E-002  0.2307796E+03  0.7546771E-02  0.1126092E+00
         21   -1    0    0  502  501  0.00000000000E+00  0.00000000000E+00  0.74167695920E+03  0.74167695920E+03  0.00000000000E+00 0.  1.
         21   -1    0    0  501  502 -0.00000000000E+00 -0.00000000000E+00 -0.71809163231E+02  0.71809163231E+02  0.00000000000E+00 0.  1.
         25    1    1    2    0    0 -0.16930713737E+03  0.92504982589E+02  0.29915422319E+03  0.37728017152E+03  0.12500000000E+03 0.  0.
         25    1    1    2    0    0  0.16930713737E+03 -0.92504982589E+02  0.37071357279E+03  0.43620595092E+03  0.12500000000E+03 0.  0.
</event>
<event>
 4    0  0.2193754E-002  0.1651451E+03  0.7546771E-02  0.1183007E+00
         21   -1    0    0  502  501  0.00000000000E+00  0.00000000000E+00  0.55151678118E+03  0.55151678118E+03  0.00000000000E+00 0. -1.
         21   -1    0    0  501  502 -0.00000000000E+00 -0.00000000000E+00 -0.49450703697E+02  0.49450703697E+02  0.00000000000E+00 0. -1.
         25    1    1    2    0    0  0.24347047370E+02  0.23163656974E+02  0.43764243331E+03  0.45638277044E+03  0.12500000000E+03 0.  0.
         25    1    1    2    0    0 -0.24347047370E+02 -0.23163656974E+02  0.64423644171E+02  0.14458471444E+03  0.12500000000E+03 0.  0.
</event>
<event>
 4    0  0.2193754E-002  0.2598193E+03  0.7546771E-02  0.1107252E+00
         21   -1    0    0  502  501  0.00000000000E+00  0.00000000000E+00  0.11497492245E+03  0.11497492245E+03  0.00000000000E+00 0. -1.
         21   -1    0    0  501  502 -0.00000000000E+00 -0.00000000000E+00 -0.58713718554E+03  0.58713718554E+03  0.00000000000E+00 0. -1.
         25    1    1    2    0    0  0.17066580820E+03 -0.12381348648E+03 -0.11965850412E+03  0.27276318507E+03  0.12500000000E+03 0.  0.
         25    1    1    2    0    0 -0.17066580820E+03  0.12381348648E+03 -0.35250375897E+03  0.42934892291E+03  0.12500000000E+03 0.  0.
</event>
<event>
 4    0  0.2193754E-002  0.1699746E+03  0.7546771E-02  0.1177874E+00
         21   -1    0    0  502  501  0.00000000000E+00  0.00000000000E+00  0.37139238972E+03  0.37139238972E+03  0.00000000000E+00 0.  1.
         21   -1    0    0  501  502 -0.00000000000E+00 -0.00000000000E+00 -0.77792002196E+02  0.77792002196E+02  0.00000000000E+00 0.  1.
         25    1    1    2    0    0  0.38144173884E+02  0.10477237829E+03  0.10863854535E+03  0.19964859826E+03  0.12500000000E+03 0.  0.
         25    1    1    2    0    0 -0.38144173884E+02 -0.10477237829E+03  0.18496184218E+03  0.24953579365E+03  0.12500000000E+03 0.  0.
</event>
<event>
 4    0  0.2193754E-002  0.1683142E+03  0.7546771E-02  0.1179617E+00
         21   -1    0    0  502  501  0.00000000000E+00  0.00000000000E+00  0.22293662883E+03  0.22293662883E+03  0.00000000000E+00 0.  1.
         21   -1    0    0  501  502 -0.00000000000E+00 -0.00000000000E+00 -0.12707492655E+03  0.12707492655E+03  0.00000000000E+00 0.  1.
         25    1    1    2    0    0 -0.18407154959E+02 -0.11100334364E+03  0.54834873497E+02  0.17689666193E+03  0.12500000000E+03 0.  0.
         25    1    1    2    0    0  0.18407154959E+02  0.11100334364E+03  0.41026828778E+02  0.17311489344E+03  0.12500000000E+03 0.  0.
</event>
<event>
 4    0  0.2193754E-002  0.1841716E+03  0.7546771E-02  0.1163826E+00
         21   -1    0    0  502  501  0.00000000000E+00  0.00000000000E+00  0.10891348233E+04  0.10891348233E+04  0.00000000000E+00 0. -1.
         21   -1    0    0  501  502 -0.00000000000E+00 -0.00000000000E+00 -0.31143216251E+02  0.31143216251E+02  0.00000000000E+00 0. -1.
         25    1    1    2    0    0  0.42287390509E+01 -0.12261664476E+03  0.35583798659E+03  0.39660861880E+03  0.12500000000E+03 0.  0.
         25    1    1    2    0    0 -0.42287390509E+01  0.12261664476E+03  0.70215362046E+03  0.72366942075E+03  0.12500000000E+03 0.  0.
</event>
<event>
 4    0  0.2193754E-002  0.2767843E+03  0.7546771E-02  0.1097458E+00
         21   -1    0    0  502  501  0.00000000000E+00  0.00000000000E+00  0.41519351218E+03  0.41519351218E+03  0.00000000000E+00 0. -1.
         21   -1    0    0  501  502 -0.00000000000E+00 -0.00000000000E+00 -0.18451534362E+03  0.18451534362E+03  0.00000000000E+00 0. -1.
         25    1    1    2    0    0  0.30390880982E+02  0.18867282894E+03  0.28478399128E+03  0.36503145579E+03  0.12500000000E+03 0.  0.
         25    1    1    2    0    0 -0.30390880982E+02 -0.18867282894E+03 -0.54105822716E+02  0.23467740001E+03  0.12500000000E+03 0.  0.
</event>
<event>
 4    0  0.2193754E-002  0.1810872E+03  0.7546771E-02  0.1166755E+00
         21   -1    0    0  502  501  0.00000000000E+00  0.00000000000E+00  0.11848259718E+03  0.11848259718E+03  0.00000000000E+00 0.  1.
         21   -1    0    0  501  502 -0.00000000000E+00 -0.00000000000E+00 -0.27677122539E+03  0.27677122539E+03  0.00000000000E+00 0.  1.
         25    1    1    2    0    0  0.85336422208E+02  0.45359978805E+02  0.17411083189E+02  0.15895904646E+03  0.12500000000E+03 0.  0.
         25    1    1    2    0    0 -0.85336422208E+02 -0.45359978805E+02 -0.17569971140E+03  0.23629477611E+03  0.12500000000E+03 0.  0.
</event>
<event>
 4    0  0.2193754E-002  0.2183865E+03  0.7546771E-02  0.1135092E+00
         21   -1    0    0  502  501  0.00000000000E+00  0.00000000000E+00  0.41754353083E+03  0.41754353083E+03  0.00000000000E+00 0.  1.
         21   -1    0    0  501  502 -0.00000000000E+00 -0.00000000000E+00 -0.11422200359E+03  0.11422200359E+03  0.00000000000E+00 0.  1.
         25    1    1    2    0    0 -0.52600256149E+02  0.16875778381E+03  0.11676149342E+03  0.24597606162E+03  0.12500000000E+03 0.  0.
         25    1    1    2    0    0  0.52600256149E+02 -0.16875778381E+03  0.18656003382E+03  0.28578947280E+03  0.12500000000E+03 0.  0.
</event>
<event>
 4    0  0.2193754E-002  0.2512789E+03  0.7546771E-02  0.1112499E+00
         21   -1    0    0  502  501  0.00000000000E+00  0.00000000000E+00  0.20337637518E+03  0.20337637518E+03  0.00000000000E+00 0. -1.
         21   -1    0    0  501  502 -0.00000000000E+00 -0.00000000000E+00 -0.31046410427E+03  0.31046410427E+03  0.00000000000E+00 0. -1.
         25    1    1    2    0    0 -0.92218784151E+02  0.31975505439E+02 -0.25282820345E+03  0.29845240418E+03  0.12500000000E+03 0.  0.
         25    1    1    2    0    0  0.92218784151E+02 -0.31975505439E+02  0.14574047437E+03  0.21538807527E+03  0.12500000000E+03 0.  0.
</event>
<event>
 4    0  0.2193754E-002  0.4072539E+03  0.7546771E-02  0.1041296E+00
         21   -1    0    0  502  501  0.00000000000E+00  0.00000000000E+00  0.30158920531E+03  0.30158920531E+03  0.00000000000E+00 0.  1.
         21   -1    0    0  501  502 -0.00000000000E+00 -0.00000000000E+00 -0.54993924062E+03  0.54993924062E+03  0.00000000000E+00 0.  1.
         25    1    1    2    0    0 -0.72779583490E+02  0.16666868391E+03 -0.48201190484E+03  0.53012809242E+03  0.12500000000E+03 0.  0.
         25    1    1    2    0    0  0.72779583490E+02 -0.16666868391E+03  0.23366186953E+03  0.32140035352E+03  0.12500000000E+03 0.  0.
</event>
<event>
 4    0  0.2193754E-002  0.3080036E+03  0.7546771E-02  0.1081307E+00
         21   -1    0    0  502  501  0.00000000000E+00  0.00000000000E+00  0.69680708938E+02  0.69680708938E+02  0.00000000000E+00 0.  1.
         21   -1    0    0  501  502 -0.00000000000E+00 -0.00000000000E+00 -0.13614416701E+04  0.13614416701E+04  0.00000000000E+00 0. -1.
         25    1    1    2    0    0 -0.15927863913E+03 -0.23210022469E+03 -0.64353233902E+03  0.71344170788E+03  0.12500000000E+03 0.  0.
         25    1    1    2    0    0  0.15927863913E+03  0.23210022469E+03 -0.64822862212E+03  0.71768067114E+03  0.12500000000E+03 0.  0.
</event>
<event>
 4    0  0.2193754E-002  0.3349166E+03  0.7546771E-02  0.1068982E+00
         21   -1    0    0  502  501  0.00000000000E+00  0.00000000000E+00  0.10960188464E+03  0.10960188464E+03  0.00000000000E+00 0.  1.
         21   -1    0    0  501  502 -0.00000000000E+00 -0.00000000000E+00 -0.10234234927E+04  0.10234234927E+04  0.00000000000E+00 0.  1.
         25    1    1    2    0    0 -0.20661981311E+03 -0.13636928995E+03 -0.13930508970E+03  0.31035340892E+03  0.12500000000E+03 0.  0.
         25    1    1    2    0    0  0.20661981311E+03  0.13636928995E+03 -0.77451651838E+03  0.82267196844E+03  0.12500000000E+03 0.  0.
</event>
<event>
 4    0  0.2193754E-002  0.2249329E+03  0.7546771E-02  0.1130258E+00
         21   -1    0    0  502  501  0.00000000000E+00  0.00000000000E+00  0.37364689969E+02  0.37364689969E+02  0.00000000000E+00 0.  1.
         21   -1    0    0  501  502 -0.00000000000E+00 -0.00000000000E+00 -0.13540808181E+04  0.13540808181E+04  0.00000000000E+00 0.  1.
         25    1    1    2    0    0 -0.11829596074E+03  0.67040654728E+02 -0.26127568188E+03  0.31996619455E+03  0.12500000000E+03 0.  0.
         25    1    1    2    0    0  0.11829596074E+03 -0.67040654728E+02 -0.10554404462E+04  0.10714793135E+04  0.12500000000E+03 0.  0.
</event>
<event>
 4    0  0.2193754E-002  0.1709446E+03  0.7546771E-02  0.1176866E+00
         21   -1    0    0  502  501  0.00000000000E+00  0.00000000000E+00  0.10263394416E+03  0.10263394416E+03  0.00000000000E+00 0. -1.
         21   -1    0    0  501  502 -0.00000000000E+00 -0.00000000000E+00 -0.28472124643E+03  0.28472124643E+03  0.00000000000E+00 0. -1.
         25    1    1    2    0    0 -0.65174923071E+02  0.42604688798E+02  0.72987071078E+01  0.14744897840E+03  0.12500000000E+03 0.  0.
         25    1    1    2    0    0  0.65174923071E+02 -0.42604688798E+02 -0.18938600937E+03  0.23990621220E+03  0.12500000000E+03 0.  0.
</event>
<event>
 4    0  0.2193754E-002  0.1289419E+03  0.7546771E-02  0.1229034E+00
         21   -1    0    0  502  501  0.00000000000E+00  0.00000000000E+00  0.11962377606E+03  0.11962377606E+03  0.00000000000E+00 0. -1.
         21   -1    0    0  501  502 -0.00000000000E+00 -0.00000000000E+00 -0.13898596772E+03  0.13898596772E+03  0.00000000000E+00 0. -1.
         25    1    1    2    0    0  0.19248751000E+02 -0.18302007004E+02  0.75588130198E+01  0.12801411457E+03  0.12500000000E+03 0.  0.
         25    1    1    2    0    0 -0.19248751000E+02  0.18302007004E+02 -0.26921004672E+02  0.13059562921E+03  0.12500000000E+03 0.  0.
</event>
<event>
 4    0  0.2193754E-002  0.2367654E+03  0.7546771E-02  0.1121967E+00
         21   -1    0    0  502  501  0.00000000000E+00  0.00000000000E+00  0.71311613301E+03  0.71311613301E+03  0.00000000000E+00 0. -1.
         21   -1    0    0  501  502 -0.00000000000E+00 -0.00000000000E+00 -0.78609715393E+02  0.78609715393E+02  0.00000000000E+00 0. -1.
         25    1    1    2    0    0  0.15885338951E+03  0.84441820667E+02  0.46743265363E+03  0.51622001716E+03  0.12500000000E+03 0.  0.
         25    1    1    2    0    0 -0.15885338951E+03 -0.84441820667E+02  0.16707376399E+03  0.27550583124E+03  0.12500000000E+03 0.  0.
</event>
<event>
 4    0  0.2193754E-002  0.2675257E+03  0.7546771E-02  0.1102704E+00
         21   -1    0    0  502  501  0.00000000000E+00  0.00000000000E+00  0.38630247378E+02  0.38630247378E+02  0.00000000000E+00 0. -1.
         21   -1    0    0  501  502 -0.00000000000E+00 -0.00000000000E+00 -0.18526934965E+04  0.18526934965E+04  0.00000000000E+00 0. -1.
         25    1    1    2    0    0 -0.22819827885E+03 -0.10457740899E+02 -0.69024477193E+03  0.73773075305E+03  0.12500000000E+03 0.  0.
         25    1    1    2    0    0  0.22819827885E+03  0.10457740899E+02 -0.11238184772E+04  0.11535929908E+04  0.12500000000E+03 0.  0.
</event>
<event>
 4    0  0.2193754E-002  0.2441840E+03  0.7546771E-02  0.1117037E+00
         21   -1    0    0  502  501  0.00000000000E+00  0.00000000000E+00  0.10228071527E+04  0.10228071527E+04  0.00000000000E+00 0. -1.
         21   -1    0    0  501  502 -0.00000000000E+00 -0.00000000000E+00 -0.58296253930E+02  0.58296253930E+02  0.00000000000E+00 0. -1.
         25    1    1    2    0    0  0.48965710192E+02 -0.49670350049E+02  0.92018926713E+03  0.93125617947E+03  0.12500000000E+03 0.  0.
         25    1    1    2    0    0 -0.48965710192E+02  0.49670350049E+02  0.44321631596E+02  0.14984722712E+03  0.12500000000E+03 0.  0.
</event>
<event>
 4    0  0.2193754E-002  0.2663847E+03  0.7546771E-02  0.1103367E+00
         21   -1    0    0  502  501  0.00000000000E+00  0.00000000000E+00  0.71878019532E+02  0.71878019532E+02  0.00000000000E+00 0. -1.
         21   -1    0    0  501  502 -0.00000000000E+00 -0.00000000000E+00 -0.98723922116E+03  0.98723922116E+03  0.00000000000E+00 0. -1.
         25    1    1    2    0    0  0.13950313526E+03 -0.18680045948E+03 -0.51992155344E+03  0.58335148764E+03  0.12500000000E+03 0.  0.
         25    1    1    2    0    0 -0.13950313526E+03  0.18680045948E+03 -0.39543964819E+03  0.47576575304E+03  0.12500000000E+03 0.  0.
</event>
<event>
 4    0  0.2193754E-002  0.2359505E+03  0.7546771E-02  0.1122520E+00
         21   -1    0    0  502  501  0.00000000000E+00  0.00000000000E+00  0.12366834719E+03  0.12366834719E+03  0.00000000000E+00 0.  1.
         21   -1    0    0  501  502 -0.00000000000E+00 -0.00000000000E+00 -0.45017697676E+03  0.45017697676E+03  0.00000000000E+00 0.  1.
         25    1    1    2    0    0 -0.29974742963E+02 -0.78359839050E+02 -0.38418671635E+03  0.41262959493E+03  0.12500000000E+03 0.  0.
         25    1    1    2    0    0  0.29974742963E+02  0.78359839050E+02  0.57678086781E+02  0.16121572903E+03  0.12500000000E+03 0.  0.
</event>
<event>
 4    0  0.2193754E-002  0.2151559E+03  0.7546771E-02  0.1137547E+00
         21   -1    0    0  502  501  0.00000000000E+00  0.00000000000E+00  0.39540011213E+03  0.39540011213E+03  0.00000000000E+00 0. -1.
         21   -1    0    0  501  502 -0.00000000000E+00 -0.00000000000E+00 -0.11707651680E+03  0.11707651680E+03  0.00000000000E+00 0. -1.
         25    1    1    2    0    0  0.69224859262E+02 -0.81763456523E+02 -0.25815863116E+02  0.16663973941E+03  0.12500000000E+03 0.  0.
         25    1    1    2    0    0 -0.69224859262E+02  0.81763456523E+02  0.30413945845E+03  0.34583688952E+03  0.12500000000E+03 0.  0.
</event>
<event>
 4    0  0.2193754E-002  0.1706689E+03  0.7546771E-02  0.1177152E+00
         21   -1    0    0  502  501  0.00000000000E+00  0.00000000000E+00  0.54754914788E+02  0.54754914788E+02  0.00000000000E+00 0.  1.
         21   -1    0    0  501  502 -0.00000000000E+00 -0.00000000000E+00 -0.53196821759E+03  0.53196821759E+03  0.00000000000E+00 0.  1.
         25    1    1    2    0    0 -0.47484215861E+00 -0.58172479914E+02 -0.41151233937E+03  0.43399500959E+03  0.12500000000E+03 0.  0.
         25    1    1    2    0    0  0.47484215861E+00  0.58172479914E+02 -0.65700963430E+02  0.15272812279E+03  0.12500000000E+03 0.  0.
</event>
<event>
 4    0  0.2193754E-002  0.2128590E+03  0.7546771E-02  0.1139322E+00
         21   -1    0    0  502  501  0.00000000000E+00  0.00000000000E+00  0.32111269098E+03  0.32111269098E+03  0.00000000000E+00 0.  1.
         21   -1    0    0  501  502 -0.00000000000E+00 -0.00000000000E+00 -0.14109990266E+03  0.14109990266E+03  0.00000000000E+00 0.  1.
         25    1    1    2    0    0  0.11780687384E+03 -0.11000536438E+03  0.23925713959E+02  0.20537059065E+03  0.12500000000E+03 0.  0.
         25    1    1    2    0    0 -0.11780687384E+03  0.11000536438E+03  0.15608707437E+03  0.25684200299E+03  0.12500000000E+03 0.  0.
</event>
<event>
 4    0  0.2193754E-002  0.2211635E+03  0.7546771E-02  0.1133019E+00
         21   -1    0    0  502  501  0.00000000000E+00  0.00000000000E+00  0.66783794394E+03  0.66783794394E+03  0.00000000000E+00 0.  1.
         21   -1    0    0  501  502 -0.00000000000E+00 -0.00000000000E+00 -0.73241265969E+02  0.73241265969E+02  0.00000000000E+00 0.  1.
         25    1    1    2    0    0  0.96427474522E+02  0.14276285209E+03  0.39794583573E+03  0.45129300676E+03  0.12500000000E+03 0.  0.
         25    1    1    2    0    0 -0.96427474522E+02 -0.14276285209E+03  0.19665084225E+03  0.28978620315E+03  0.12500000000E+03 0.  0.
</event>
<event>
 4    0  0.2193754E-002  0.2220242E+03  0.7546771E-02  0.1132383E+00
         21   -1    0    0  502  501  0.00000000000E+00  0.00000000000E+00  0.17308682735E+03  0.17308682735E+03  0.00000000000E+00 0.  1.
         21   -1    0    0  501  502 -0.00000000000E+00 -0.00000000000E+00 -0.28479774795E+03  0.28479774795E+03  0.00000000000E+00 0.  1.
         25    1    1    2    0    0 -0.40356505634E+02  0.58141758987E+01 -0.24033583082E+03  0.27395029433E+03  0.12500000000E+03 0.  0.
         25    1    1    2    0    0  0.40356505634E+02 -0.58141758987E+01  0.12862491021E+03  0.18393428097E+03  0.12500000000E+03 0.  0.
</event>
<event>
 4    0  0.2193754E-002  0.2204337E+03  0.7546771E-02  0.1133560E+00
         21   -1    0    0  502  501  0.00000000000E+00  0.00000000000E+00  0.19996047352E+03  0.19996047352E+03  0.00000000000E+00 0.  1.
         21   -1    0    0  501  502 -0.00000000000E+00 -0.00000000000E+00 -0.24300320518E+03  0.24300320518E+03  0.00000000000E+00 0.  1.
         25    1    1    2    0    0 -0.12947565683E+03  0.22748254884E+02  0.10431230476E+03  0.20925459549E+03  0.12500000000E+03 0.  0.
         25    1    1    2    0    0  0.12947565683E+03 -0.22748254884E+02 -0.14735503642E+03  0.23370908320E+03  0.12500000000E+03 0.  0.
</event>
<event>
 4    0  0.2193754E-002  0.1616872E+03  0.7546771E-02  0.1186805E+00
         21   -1    0    0  502  501  0.00000000000E+00  0.00000000000E+00  0.11735121262E+03  0.11735121262E+03  0.00000000000E+00 0.  1.
         21   -1    0    0  501  502 -0.00000000000E+00 -0.00000000000E+00 -0.22277345272E+03  0.22277345272E+03  0.00000000000E+00 0.  1.
         25    1    1    2    0    0 -0.46564224577E+02 -0.65218323116E+02  0.14604637758E+02  0.14919769477E+03  0.12500000000E+03 0.  0.
         25    1    1    2    0    0  0.46564224577E+02  0.65218323116E+02 -0.12002687786E+03  0.19092697057E+03  0.12500000000E+03 0.  0.
</event>
<event>
 4    0  0.2193754E-002  0.3686843E+03  0.7546771E-02  0.1055197E+00
         21   -1    0    0  502  501  0.00000000000E+00  0.00000000000E+00  0.46589854478E+03  0.46589854478E+03  0.00000000000E+00 0.  1.
         21   -1    0    0  501  502 -0.00000000000E+00 -0.00000000000E+00 -0.29175479872E+03  0.29175479872E+03  0.00000000000E+00 0. -1.
         25    1    1    2    0    0  0.30501575702E+03 -0.92366654400E+02  0.22772034878E+03  0.41115419020E+03  0.12500000000E+03 0.  0.
         25    1    1    2    0    0 -0.30501575702E+03  0.92366654400E+02 -0.53576602726E+02  0.34649915329E+03  0.12500000000E+03 0.  0.
</event>
<event>
 4    0  0.2193754E-002  0.2355712E+03  0.7546771E-02  0.1122779E+00
         21   -1    0    0  502  501  0.00000000000E+00  0.00000000000E+00  0.12196080993E+04  0.12196080993E+04  0.00000000000E+00 0. -1.
         21   -1    0    0  501  502 -0.00000000000E+00 -0.00000000000E+00 -0.45501312706E+02  0.45501312706E+02  0.00000000000E+00 0. -1.
         25    1    1    2    0    0  0.71764284662E+01 -0.29248565549E+02  0.57029524813E+02  0.14065683920E+03  0.12500000000E+03 0.  0.
         25    1    1    2    0    0 -0.71764284662E+01  0.29248565549E+02  0.11170772618E+04  0.11244525728E+04  0.12500000000E+03 0.  0.
</event>
<event>
 4    0  0.2193754E-002  0.3191136E+03  0.7546771E-02  0.1076058E+00
         21   -1    0    0  502  501  0.00000000000E+00  0.00000000000E+00  0.57258200678E+02  0.57258200678E+02  0.00000000000E+00 0. -1.
         21   -1    0    0  501  502 -0.00000000000E+00 -0.00000000000E+00 -0.17784957345E+04  0.17784957345E+04  0.00000000000E+00 0. -1.
         25    1    1    2    0    0  0.68734983280E+02 -0.21759454058E+03 -0.13920526464E+04  0.14161594021E+04  0.12500000000E+03 0.  0.
         25    1    1    2    0    0 -0.68734983280E+02  0.21759454058E+03 -0.32918488742E+03  0.41959453300E+03  0.12500000000E+03 0.  0.
</event>
<event>
 4    0  0.2193754E-002  0.1949370E+03  0.7546771E-02  0.1154082E+00
         21   -1    0    0  502  501  0.00000000000E+00  0.00000000000E+00  0.46912967644E+03  0.46912967644E+03  0.00000000000E+00 0.  1.
         21   -1    0    0  501  502 -0.00000000000E+00 -0.00000000000E+00 -0.81002012916E+02  0.81002012916E+02  0.00000000000E+00 0.  1.
         25    1    1    2    0    0  0.79808414939E+02  0.11547692368E+03  0.26699128523E+03  0.32651745648E+03  0.12500000000E+03 0.  0.
         25    1    1    2    0    0 -0.79808414939E+02 -0.11547692368E+03  0.12113637829E+03  0.22361423287E+03  0.12500000000E+03 0.  0.
</event>
<event>
 4    0  0.2193754E-002  0.4085005E+03  0.7546771E-02  0.1040875E+00
         21   -1    0    0  502  501  0.00000000000E+00  0.00000000000E+00  0.53269345743E+03  0.53269345743E+03  0.00000000000E+00 0.  1.
         21   -1    0    0  501  502 -0.00000000000E+00 -0.00000000000E+00 -0.31326200169E+03  0.31326200169E+03  0.00000000000E+00 0.  1.
         25    1    1    2    0    0  0.30801826040E+03  0.84858184584E+02 -0.11988935936E+03  0.36342071862E+03  0.12500000000E+03 0.  0.
         25    1    1    2    0    0 -0.30801826040E+03 -0.84858184584E+02  0.33932081510E+03  0.48253474050E+03  0.12500000000E+03 0.  0.
</event>
<event>
 4    0  0.2193754E-002  0.2133881E+03  0.7546771E-02  0.1138911E+00
         21   -1    0    0  502  501  0.00000000000E+00  0.00000000000E+00  0.10346575969E+03  0.10346575969E+03  0.00000000000E+00 0.  1.
         21   -1    0    0  501  502 -0.00000000000E+00 -0.00000000000E+00 -0.44009231414E+03  0.44009231414E+03  0.00000000000E+00 0.  1.
         25    1    1    2    0    0 -0.66388644899E+02 -0.13091589478E+02 -0.37102032621E+03  0.39731589995E+03  0.12500000000E+03 0.  0.
         25    1    1    2    0    0  0.66388644899E+02  0.13091589478E+02  0.34393771766E+02  0.14624217389E+03  0.12500000000E+03 0.  0.
</event>
<event>
 4    0  0.2193754E-002  0.2055310E+03  0.7546771E-02  0.1145155E+00
         21   -1    0    0  502  501  0.00000000000E+00  0.00000000000E+00  0.18183300217E+04  0.18183300217E+04  0.00000000000E+00 0.  1.
         21   -1    0    0  501  502 -0.00000000000E+00 -0.00000000000E+00 -0.23231741662E+02  0.23231741662E+02  0.00000000000E+00 0.  1.
         25    1    1    2    0    0 -0.95334251295E+02 -0.88278844985E+02  0.13396015711E+04  0.13516801187E+04  0.12500000000E+03 0.  0.
         25    1    1    2    0    0  0.95334251295E+02  0.88278844985E+02  0.45549670893E+03  0.48988164467E+03  0.12500000000E+03 0.  0.
</event>
<event>
 4    0  0.2193754E-002  0.3206280E+03  0.7546771E-02  0.1075361E+00
         21   -1    0    0  502  501  0.00000000000E+00  0.00000000000E+00  0.14518881886E+03  0.14518881886E+03  0.00000000000E+00 0. -1.
         21   -1    0    0  501  502 -0.00000000000E+00 -0.00000000000E+00 -0.70805924219E+03  0.70805924219E+03  0.00000000000E+00 0. -1.
         25    1    1    2    0    0  0.71876981827E+01 -0.29179870709E+03 -0.22224064918E+03  0.38757457942E+03  0.12500000000E+03 0.  0.
         25    1    1    2    0    0 -0.71876981827E+01  0.29179870709E+03 -0.34062977415E+03  0.46567348164E+03  0.12500000000E+03 0.  0.
</event>
<event>
 4    0  0.2193754E-002  0.1773373E+03  0.7546771E-02  0.1170405E+00
         21   -1    0    0  502  501  0.00000000000E+00  0.00000000000E+00  0.11128217372E+02  0.11128217372E+02  0.00000000000E+00 0. -1.
         21   -1    0    0  501  502 -0.00000000000E+00 -0.00000000000E+00 -0.28260149703E+04  0.28260149703E+04  0.00000000000E+00 0. -1.
         25    1    1    2    0    0  0.10656589732E+03  0.15403003484E+02 -0.88718430332E+03  0.90239377826E+03  0.12500000000E+03 0.  0.
         25    1    1    2    0    0 -0.10656589732E+03 -0.15403003484E+02 -0.19277024496E+04  0.19347494094E+04  0.12500000000E+03 0.  0.
</event>
<event>
 4    0  0.2193754E-002  0.1940238E+03  0.7546771E-02  0.1154881E+00
         21   -1    0    0  502  501  0.00000000000E+00  0.00000000000E+00  0.58757293007E+02  0.58757293007E+02  0.00000000000E+00 0.  1.
         21   -1    0    0  501  502 -0.00000000000E+00 -0.00000000000E+00 -0.64069051507E+03  0.64069051507E+03  0.00000000000E+00 0. -1.
         25    1    1    2    0    0 -0.58807665646E+02  0.13623181677E+03 -0.29397782086E+03  0.35222919895E+03  0.12500000000E+03 0.  0.
         25    1    1    2    0    0  0.58807665646E+02 -0.13623181677E+03 -0.28795540120E+03  0.34721860912E+03  0.12500000000E+03 0.  0.
</event>
<event>
 4    0  0.2193754E-002  0.1766239E+03  0.7546771E-02  0.1171111E+00
         21   -1    0    0  502  501  0.00000000000E+00  0.00000000000E+00  0.17814254543E+03  0.17814254543E+03  0.00000000000E+00 0.  1.
         21   -1    0    0  501  502 -0.00000000000E+00 -0.00000000000E+00 -0.17511810813E+03  0.17511810813E+03  0.00000000000E+00 0.  1.
         25    1    1    2    0    0  0.11702150254E+02 -0.53072279040E+02 -0.11081900283E+03  0.17566860423E+03  0.12500000000E+03 0.  0.
         25    1    1    2    0    0 -0.11702150254E+02  0.53072279040E+02  0.11384344013E+03  0.17759204932E+03  0.12500000000E+03 0.  0.
</event>
<event>
 4    0  0.2193754E-002  0.2497497E+03  0.7546771E-02  0.1113463E+00
         21   -1    0    0  502  501  0.00000000000E+00  0.00000000000E+00  0.21135285344E+03  0.21135285344E+03  0.00000000000E+00 0. -1.
         21   -1    0    0  501  502 -0.00000000000E+00 -0.00000000000E+00 -0.29512212311E+03  0.29512212311E+03  0.00000000000E+00 0. -1.
         25    1    1    2    0    0 -0.10388456313E+03 -0.18845069766E+03 -0.20513410276E+02  0.24970275911E+03  0.12500000000E+03 0.  0.
         25    1    1    2    0    0  0.10388456313E+03  0.18845069766E+03 -0.63255859394E+02  0.25677221745E+03  0.12500000000E+03 0.  0.
</event>
<event>
 4    0  0.2193754E-002  0.1667024E+03  0.7546771E-02  0.1181331E+00
         21   -1    0    0  502  501  0.00000000000E+00  0.00000000000E+00  0.16135259661E+02  0.16135259661E+02  0.00000000000E+00 0. -1.
         21   -1    0    0  501  502 -0.00000000000E+00 -0.00000000000E+00 -0.17222950317E+04  0.17222950317E+04  0.00000000000E+00 0. -1.
         25    1    1    2    0    0  0.10639408068E+03  0.45948779023E+01 -0.70341726093E+03  0.72233071116E+03  0.12500000000E+03 0.  0.
         25    1    1    2    0    0 -0.10639408068E+03 -0.45948779023E+01 -0.10027425111E+04  0.10160995802E+04  0.12500000000E+03 0.  0.
</event>
<event>
 4    0  0.2193754E-002  0.1303979E+03  0.7546771E-02  0.1226866E+00
         21   -1    0    0  502  501  0.00000000000E+00  0.00000000000E+00  0.18417992540E+03  0.18417992540E+03  0.00000000000E+00 0.  1.
         21   -1    0    0  501  502 -0.00000000000E+00 -0.00000000000E+00 -0.92320712972E+02  0.92320712972E+02  0.00000000000E+00 0.  1.
         25    1    1    2    0    0  0.25548969403E+02 -0.26663616631E+02  0.50025363705E+02  0.13961101426E+03  0.12500000000E+03 0.  0.
         25    1    1    2    0    0 -0.25548969403E+02  0.26663616631E+02  0.41833848720E+02  0.13688962411E+03  0.12500000000E+03 0.  0.
</event>
<event>
 4    0  0.2193754E-002  0.2270340E+03  0.7546771E-02  0.1128745E+00
         21   -1    0    0  502  501  0.00000000000E+00  0.00000000000E+00  0.13166315956E+03  0.13166315956E+03  0.00000000000E+00 0. -1.
         21   -1    0    0  501  502 -0.00000000000E+00 -0.00000000000E+00 -0.39148721844E+03  0.39148721844E+03  0.00000000000E+00 0. -1.
         25    1    1    2    0    0  0.15132800446E+03 -0.11398221902E+03 -0.12388853314E+03  0.25858360317E+03  0.12500000000E+03 0.  0.
         25    1    1    2    0    0 -0.15132800446E+03  0.11398221902E+03 -0.13593552574E+03  0.26456677483E+03  0.12500000000E+03 0.  0.
</event>
<event>
 4    0  0.2193754E-002  0.2353242E+03  0.7546771E-02  0.1122947E+00
         21   -1    0    0  502  501  0.00000000000E+00  0.00000000000E+00  0.22770915849E+03  0.22770915849E+03  0.00000000000E+00 0.  1.
         21   -1    0    0  501  502 -0.00000000000E+00 -0.00000000000E+00 -0.24319392271E+03  0.24319392271E+03  0.00000000000E+00 0.  1.
         25    1    1    2    0    0  0.13293018302E+02 -0.17966678887E+03  0.77718260463E+02  0.23264132773E+03  0.12500000000E+03 0.  0.
         25    1    1    2    0    0 -0.13293018302E+02  0.17966678887E+03 -0.93203024684E+02  0.23826175347E+03  0.12500000000E+03 0.  0.
</event>
<event>
 4    0  0.2193754E-002  0.1420369E+03  0.7546771E-02  0.1210614E+00
         21   -1    0    0  502  501  0.00000000000E+00  0.00000000000E+00  0.11527868767E+02  0.11527868767E+02  0.00000000000E+00 0.  1.
         21   -1    0    0  501  502 -0.00000000000E+00 -0.00000000000E+00 -0.17500613720E+04  0.17500613720E+04  0.00000000000E+00 0.  1.
         25    1    1    2    0    0 -0.24298382911E+02  0.47752644729E+02 -0.11233445328E+04  0.11315470233E+04  0.12500000000E+03 0.  0.
         25    1    1    2    0    0  0.24298382911E+02 -0.47752644729E+02 -0.61518897038E+03  0.63004221745E+03  0.12500000000E+03 0.  0.
</event>
<event>
 4    0  0.2193754E-002  0.2199349E+03  0.7546771E-02  0.1133932E+00
         21   -1    0    0  502  501  0.00000000000E+00  0.00000000000E+00  0.72661646335E+03  0.72661646335E+03  0.00000000000E+00 0. -1.
         21   -1    0    0  501  502 -0.00000000000E+00 -0.00000000000E+00 -0.66570720267E+02  0.66570720267E+02  0.00000000000E+00 0. -1.
         25    1    1    2    0    0 -0.78502149509E+02 -0.16252745953E+03  0.35343842216E+03  0.41607869549E+03  0.12500000000E+03 0.  0.
         25    1    1    2    0    0  0.78502149509E+02  0.16252745953E+03  0.30660732093E+03  0.37710848814E+03  0.12500000000E+03 0.  0.
</event>
<event>
 4    0  0.2193754E-002  0.2611595E+03  0.7546771E-02  0.1106449E+00
         21   -1    0    0  502  501  0.00000000000E+00  0.00000000000E+00  0.24040746695E+04  0.24040746695E+04  0.00000000000E+00 0. -1.
         21   -1    0    0  501  502 -0.00000000000E+00 -0.00000000000E+00 -0.28370282315E+02  0.28370282315E+02  0.00000000000E+00 0. -1.
         25    1    1    2    0    0 -0.14446848042E+03  0.17669193096E+03  0.12907391196E+04  0.13167094042E+04  0.12500000000E+03 0.  0.
         25    1    1    2    0    0  0.14446848042E+03 -0.17669193096E+03  0.10849652676E+04  0.11157355476E+04  0.12500000000E+03 0.  0.
</event>
<event>
 4    0  0.2193754E-002  0.1880249E+03  0.7546771E-02  0.1160255E+00
         21   -1    0    0  502  501  0.00000000000E+00  0.00000000000E+00  0.55869965195E+02  0.55869965195E+02  0.00000000000E+00 0. -1.
         21   -1    0    0  501  502 -0.00000000000E+00 -0.00000000000E+00 -0.63277914748E+03  0.63277914748E+03  0.00000000000E+00 0. -1.
         25    1    1    2    0    0  0.49380107957E+02  0.67402551594E+02 -0.49520870182E+03  0.51753082747E+03  0.12500000000E+03 0.  0.
         25    1    1    2    0    0 -0.49380107957E+02 -0.67402551594E+02 -0.81700480463E+02  0.17111828520E+03  0.12500000000E+03 0.  0.
</event>
<event>
 4    0  0.2193754E-002  0.2574235E+03  0.7546771E-02  0.1108701E+00
         21   -1    0    0  502  501  0.00000000000E+00  0.00000000000E+00  0.98610614825E+02  0.98610614825E+02  0.00000000000E+00 0. -1.
         21   -1    0    0  501  502 -0.00000000000E+00 -0.00000000000E+00 -0.67200551931E+03  0.67200551931E+03  0.00000000000E+00 0. -1.
         25    1    1    2    0    0 -0.13586556559E+03 -0.54192032817E+02 -0.30726619778E+02  0.19484700023E+03  0.12500000000E+03 0.  0.
         25    1    1    2    0    0  0.13586556559E+03  0.54192032817E+02 -0.54266828470E+03  0.57576913391E+03  0.12500000000E+03 0.  0.
</event>
<event>
 4    0  0.2193754E-002  0.1947104E+03  0.7546771E-02  0.1154280E+00
         21   -1    0    0  502  501  0.00000000000E+00  0.00000000000E+00  0.16502056771E+03  0.16502056771E+03  0.00000000000E+00 0.  1.
         21   -1    0    0  501  502 -0.00000000000E+00 -0.00000000000E+00 -0.22974179315E+03  0.22974179315E+03  0.00000000000E+00 0.  1.
         25    1    1    2    0    0 -0.60217893666E+02  0.13640449983E+03 -0.24860556877E+02  0.19615154748E+03  0.12500000000E+03 0.  0.
         25    1    1    2    0    0  0.60217893666E+02 -0.13640449983E+03 -0.39860668559E+02  0.19861081338E+03  0.12500000000E+03 0.  0.
</event>
<event>
 4    0  0.2193754E-002  0.2188378E+03  0.7546771E-02  0.1134752E+00
         21   -1    0    0  502  501  0.00000000000E+00  0.00000000000E+00  0.25697510182E+03  0.25697510182E+03  0.00000000000E+00 0.  1.
         21   -1    0    0  501  502 -0.00000000000E+00 -0.00000000000E+00 -0.18636042517E+03  0.18636042517E+03  0.00000000000E+00 0.  1.
         25    1    1    2    0    0 -0.54659707576E+02 -0.71470653189E+02 -0.12216771670E+03  0.19658506785E+03  0.12500000000E+03 0.  0.
         25    1    1    2    0    0  0.54659707576E+02  0.71470653189E+02  0.19278239335E+03  0.24675045914E+03  0.12500000000E+03 0.  0.
</event>
<event>
 4    0  0.2193754E-002  0.2533972E+03  0.7546771E-02  0.1111177E+00
         21   -1    0    0  502  501  0.00000000000E+00  0.00000000000E+00  0.17964486625E+04  0.17964486625E+04  0.00000000000E+00 0.  1.
         21   -1    0    0  501  502 -0.00000000000E+00 -0.00000000000E+00 -0.35742816627E+02  0.35742816627E+02  0.00000000000E+00 0.  1.
         25    1    1    2    0    0  0.64027702295E+01 -0.20020347371E+03  0.54777472996E+03  0.59649357175E+03  0.12500000000E+03 0.  0.
         25    1    1    2    0    0 -0.64027702295E+01  0.20020347371E+03  0.12129311159E+04  0.12356979074E+04  0.12500000000E+03 0.  0.
</event>
<event>
 4    0  0.2193754E-002  0.2298632E+03  0.7546771E-02  0.1126736E+00
         21   -1    0    0  502  501  0.00000000000E+00  0.00000000000E+00  0.11144680411E+03  0.11144680411E+03  0.00000000000E+00 0.  1.
         21   -1    0    0  501  502 -0.00000000000E+00 -0.00000000000E+00 -0.47410151908E+03  0.47410151908E+03  0.00000000000E+00 0.  1.
         25    1    1    2    0    0  0.68498555100E+01 -0.83135542984E+02 -0.40286739488E+03  0.42998322861E+03  0.12500000000E+03 0.  0.
         25    1    1    2    0    0 -0.68498555100E+01  0.83135542984E+02  0.40212679902E+02  0.15556509458E+03  0.12500000000E+03 0.  0.
</event>
<event>
 4    0  0.2193754E-002  0.2124236E+03  0.7546771E-02  0.1139661E+00
         21   -1    0    0  502  501  0.00000000000E+00  0.00000000000E+00  0.38614317420E+03  0.38614317420E+03  0.00000000000E+00 0.  1.
         21   -1    0    0  501  502 -0.00000000000E+00 -0.00000000000E+00 -0.11685765917E+03  0.11685765917E+03  0.00000000000E+00 0.  1.
         25    1    1    2    0    0 -0.74863414388E+01 -0.15665667507E+03  0.21753182678E+03  0.29587574218E+03  0.12500000000E+03 0.  0.
         25    1    1    2    0    0  0.74863414388E+01  0.15665667507E+03  0.51753688257E+02  0.20712509119E+03  0.12500000000E+03 0.  0.
</event>
<event>
 4    0  0.2193754E-002  0.3237456E+03  0.7546771E-02  0.1073938E+00
         21   -1    0    0  502  501  0.00000000000E+00  0.00000000000E+00  0.11116135555E+03  0.11116135555E+03  0.00000000000E+00 0. -1.
         21   -1    0    0  501  502 -0.00000000000E+00 -0.00000000000E+00 -0.94287453115E+03  0.94287453115E+03  0.00000000000E+00 0. -1.
         25    1    1    2    0    0  0.91214614653E+02  0.28374611456E+03 -0.38521756164E+03  0.50284145936E+03  0.12500000000E+03 0.  0.
         25    1    1    2    0    0 -0.91214614653E+02 -0.28374611456E+03 -0.44649561396E+03  0.55119442735E+03  0.12500000000E+03 0.  0.
</event>
<event>
 4    0  0.2193754E-002  0.2369938E+03  0.7546771E-02  0.1121812E+00
         21   -1    0    0  502  501  0.00000000000E+00  0.00000000000E+00  0.46860696109E+03  0.46860696109E+03  0.00000000000E+00 0.  1.
         21   -1    0    0  501  502 -0.00000000000E+00 -0.00000000000E+00 -0.11985748781E+03  0.11985748781E+03  0.00000000000E+00 0.  1.
         25    1    1    2    0    0  0.61687034107E+02  0.43810354662E+02  0.40603167480E+03  0.43152214114E+03  0.12500000000E+03 0.  0.
         25    1    1    2    0    0 -0.61687034107E+02 -0.43810354662E+02 -0.57282201517E+02  0.15694230775E+03  0.12500000000E+03 0.  0.
</event>
