<event>
 6    0  0.5510638E+002  0.1168354E+03  0.7546771E-02  0.1248411E+00
         21   -1    0    0  503  501  0.00000000000E+00  0.00000000000E+00  0.12732059299E+03  0.12732059299E+03  0.00000000000E+00 0.  1.
         21   -1    0    0  506  502 -0.00000000000E+00 -0.00000000000E+00 -0.21877852919E+03  0.21877852919E+03  0.00000000000E+00 0.  1.
         21    1    1    2  503  505 -0.35273602939E+01 -0.49243969230E+02  0.19754547470E+02  0.53175679797E+02  0.00000000000E+00 0. -1.
         21    1    1    2  504  502 -0.69231614908E+02  0.43611609148E+01 -0.87349361179E+02  0.11154347639E+03  0.00000000000E+00 0.  1.
         21    1    1    2  505  504  0.21057098406E+02 -0.58575365956E+02 -0.20981914231E+02  0.65686494921E+02  0.00000000000E+00 0.  1.
         21    1    1    2  506  501  0.51701876795E+02  0.10345817427E+03 -0.28812082525E+01  0.11569347107E+03  0.00000000000E+00 0.  1.
<scales pt_clust_3="41.71938" pt_clust_4="69.36884" pt_clust_5="41.71938" pt_clust_6="107.03323"></scales>
<clustering>
<clus scale="   41.719">  3  5 -1 -1</clus>
<clus scale="   69.369">  2  4  1 -1</clus>
<clus scale="  107.033">  2  6  1 -1</clus>
<clus scale="  116.835">  1  3  2 -1</clus>
</clustering>
</event>
<event>
 6    0  0.5510638E+002  0.1071418E+03  0.7546771E-02  0.1265956E+00
         21   -1    0    0  505  501  0.00000000000E+00  0.00000000000E+00  0.21014731487E+03  0.21014731487E+03  0.00000000000E+00 0. -1.
         21   -1    0    0  504  502 -0.00000000000E+00 -0.00000000000E+00 -0.69416409109E+03  0.69416409109E+03  0.00000000000E+00 0. -1.
         21    1    1    2  503  502  0.25270772029E+02  0.63810871229E+02 -0.35597221947E+03  0.36252815096E+03  0.00000000000E+00 0. -1.
         21    1    1    2  504  506 -0.35185879927E+02  0.10075607995E+02 -0.27010417744E+03  0.27257261545E+03  0.00000000000E+00 0. -1.
         21    1    1    2  505  503  0.10769329531E+03 -0.39562940653E+01  0.77685333312E+02  0.13284769147E+03  0.00000000000E+00 0. -1.
         21    1    1    2  506  501 -0.97778187414E+02 -0.69930185160E+02  0.64374287378E+02  0.13636294807E+03  0.00000000000E+00 0. -1.
<scales pt_clust_3="72.51913" pt_clust_4="36.60005" pt_clust_5="107.14181" pt_clust_6="14000.00000"></scales>
<clustering>
<clus scale="   36.600">  2  4  1 -1</clus>
<clus scale="   72.519">  2  3  1 -1</clus>
<clus scale="  107.142">  1  5  2 -1</clus>
<clus scale="  107.142">  1  3  2 -1</clus>
</clustering>
</event>
<event>
 6    0  0.5510638E+002  0.8551562E+02  0.7546771E-02  0.1314090E+00
         21   -1    0    0  504  501  0.00000000000E+00  0.00000000000E+00  0.25289492019E+03  0.25289492019E+03  0.00000000000E+00 0. -1.
         21   -1    0    0  505  502 -0.00000000000E+00 -0.00000000000E+00 -0.71514347661E+03  0.71514347661E+03  0.00000000000E+00 0. -1.
         21    1    1    2  503  506 -0.88499847424E+02 -0.28409182756E+02  0.12034283502E+03  0.15205822109E+03  0.00000000000E+00 0. -1.
         21    1    1    2  504  502  0.80937894010E+02  0.25568664228E+01  0.75871440017E+02  0.11096826422E+03  0.00000000000E+00 0. -1.
         21    1    1    2  505  503  0.40935346298E+02  0.50707048069E+02 -0.66015686264E+03  0.66336565376E+03  0.00000000000E+00 0. -1.
         21    1    1    2  506  501 -0.33373392884E+02 -0.24854731736E+02  0.16940311704E+01  0.41646257741E+02  0.00000000000E+00 0.  1.
<scales pt_clust_3="85.51562" pt_clust_4="14000.00000" pt_clust_5="64.88869" pt_clust_6="41.61179"></scales>
<clustering>
<clus scale="   41.612">  1  6  2 -1</clus>
<clus scale="   64.889">  2  5  1 -1</clus>
<clus scale="   85.516">  2  3  1 -1</clus>
<clus scale="   41.612">  1  3  2 -1</clus>
</clustering>
</event>
<event>
 6    0  0.5510638E+002  0.1341930E+03  0.7546771E-02  0.1221363E+00
         21   -1    0    0  503  501  0.00000000000E+00  0.00000000000E+00  0.75123162832E+03  0.75123162832E+03  0.00000000000E+00 0.  1.
         21   -1    0    0  505  502 -0.00000000000E+00 -0.00000000000E+00 -0.38930862310E+03  0.38930862310E+03  0.00000000000E+00 0.  1.
         21    1    1    2  503  504  0.35115253382E+02  0.47631555733E+01  0.19825957799E+02  0.40605877330E+02  0.00000000000E+00 0. -1.
         21    1    1    2  504  502 -0.97126740935E+02 -0.79497410428E+02 -0.36425961773E+03  0.38527718746E+03  0.00000000000E+00 0.  1.
         21    1    1    2  505  506  0.20929848170E+02  0.41890934565E+02  0.19242467811E+03  0.19804081824E+03  0.00000000000E+00 0.  1.
         21    1    1    2  506  501  0.41081639383E+02  0.32843320289E+02  0.51393198704E+03  0.51661636839E+03  0.00000000000E+00 0.  1.
<scales pt_clust_3="35.43683" pt_clust_4="125.07298" pt_clust_5="40.68872" pt_clust_6="40.68872"></scales>
<clustering>
<clus scale="   35.437">  1  3  2 -1</clus>
<clus scale="   40.689">  5  6 -1 -1</clus>
<clus scale="  125.073">  2  4  1 -1</clus>
<clus scale="   35.437">  1  3  2 -1</clus>
</clustering>
</event>
<event>
 6    0  0.5510638E+002  0.9590553E+02  0.7546771E-02  0.1289150E+00
         21   -1    0    0  503  501  0.00000000000E+00  0.00000000000E+00  0.49074765424E+02  0.49074765424E+02  0.00000000000E+00 0. -1.
         21   -1    0    0  506  502 -0.00000000000E+00 -0.00000000000E+00 -0.11505095440E+04  0.11505095440E+04  0.00000000000E+00 0.  1.
         21    1    1    2  503  505 -0.36362772893E+02  0.20696324738E+02 -0.49951727580E+02  0.65159528838E+02  0.00000000000E+00 0. -1.
         21    1    1    2  504  502  0.48122340881E+02 -0.68407410592E+02 -0.82493167769E+03  0.82916078439E+03  0.00000000000E+00 0.  1.
         21    1    1    2  505  504 -0.66749462281E+02 -0.49130951823E+02 -0.14577131189E+03  0.16768606535E+03  0.00000000000E+00 0. -1.
         21    1    1    2  506  501  0.54989894294E+02  0.96842037677E+02 -0.80780061436E+02  0.13757793087E+03  0.00000000000E+00 0. -1.
<scales pt_clust_3="41.84004" pt_clust_4="81.71328" pt_clust_5="95.90553" pt_clust_6="14000.00000"></scales>
<clustering>
<clus scale="   41.840">  1  3  2 -1</clus>
<clus scale="   81.713">  2  4  1 -1</clus>
<clus scale="   95.906">  2  5  1 -1</clus>
<clus scale="   41.840">  1  3  2 -1</clus>
</clustering>
</event>
<event>
 6    0  0.5510638E+002  0.1698007E+03  0.7546771E-02  0.1178056E+00
         21   -1    0    0  504  501  0.00000000000E+00  0.00000000000E+00  0.11383511601E+04  0.11383511601E+04  0.00000000000E+00 0. -1.
         21   -1    0    0  505  502 -0.00000000000E+00 -0.00000000000E+00 -0.17753664728E+03  0.17753664728E+03  0.00000000000E+00 0. -1.
         21    1    1    2  503  506  0.28503772824E+02 -0.24362234706E+02  0.84032916125E+02  0.92019098765E+02  0.00000000000E+00 0. -1.
         21    1    1    2  504  503  0.19736401165E+02 -0.10237036551E+03  0.88581302239E+03  0.89192708665E+03  0.00000000000E+00 0. -1.
         21    1    1    2  505  501 -0.12790232897E+03  0.12739425338E+03 -0.10372070359E+03  0.20819770869E+03  0.00000000000E+00 0. -1.
         21    1    1    2  506  502  0.79662154976E+02 -0.66165316938E+00  0.94689277874E+02  0.12374391324E+03  0.00000000000E+00 0. -1.
<scales pt_clust_3="32.80189" pt_clust_4="104.25554" pt_clust_5="162.93028" pt_clust_6="32.80189"></scales>
<clustering>
<clus scale="   32.802">  3  6 -1 -1</clus>
<clus scale="  104.256">  1  4  2 -1</clus>
<clus scale="  162.930">  2  5  1 -1</clus>
<clus scale="  104.256">  1  3  2 -1</clus>
</clustering>
</event>
<event>
 6    0  0.5510638E+002  0.1156632E+03  0.7546771E-02  0.1250428E+00
         21   -1    0    0  505  501  0.00000000000E+00  0.00000000000E+00  0.24624849921E+02  0.24624849921E+02  0.00000000000E+00 0. -1.
         21   -1    0    0  506  502 -0.00000000000E+00 -0.00000000000E+00 -0.89312847427E+03  0.89312847427E+03  0.00000000000E+00 0. -1.
         21    1    1    2  503  501  0.22793941197E+02 -0.35388388513E+02 -0.16713582227E+03  0.17235511273E+03  0.00000000000E+00 0. -1.
         21    1    1    2  504  503  0.68093950940E+02 -0.14288494755E+02 -0.25666352302E+03  0.26592689087E+03  0.00000000000E+00 0. -1.
         21    1    1    2  505  502 -0.11126398982E+03  0.13843171660E+02 -0.18356557171E+03  0.21509911193E+03  0.00000000000E+00 0. -1.
         21    1    1    2  506  504  0.20376097686E+02  0.35833711607E+02 -0.26113870735E+03  0.26437220868E+03  0.00000000000E+00 0. -1.
<scales pt_clust_3="32.60183" pt_clust_4="32.60183" pt_clust_5="107.80141" pt_clust_6="41.22184"></scales>
<clustering>
<clus scale="   32.602">  3  4 -1 -1</clus>
<clus scale="   41.222">  2  6  1 -1</clus>
<clus scale="  107.801">  1  5  2 -1</clus>
<clus scale="  107.801">  1  3  2 -1</clus>
</clustering>
</event>
<event>
 6    0  0.5510638E+002  0.1278252E+03  0.7546771E-02  0.1230719E+00
         21   -1    0    0  504  501  0.00000000000E+00  0.00000000000E+00  0.45591159144E+03  0.45591159144E+03  0.00000000000E+00 0. -1.
         21   -1    0    0  506  502 -0.00000000000E+00 -0.00000000000E+00 -0.91126470296E+03  0.91126470296E+03  0.00000000000E+00 0.  1.
         21    1    1    2  503  505  0.65449610353E+02  0.14459728691E+02  0.18517877723E+03  0.19693632165E+03  0.00000000000E+00 0. -1.
         21    1    1    2  504  503  0.26831691103E+02  0.51286961057E+02  0.25366963756E+03  0.26018950217E+03  0.00000000000E+00 0. -1.
         21    1    1    2  505  502 -0.57828830293E+02 -0.89043596164E+02 -0.80079893194E+03  0.80780682408E+03  0.00000000000E+00 0.  1.
         21    1    1    2  506  501 -0.34452471163E+02  0.23296906415E+02 -0.93402594362E+02  0.10224364651E+03  0.00000000000E+00 0. -1.
<scales pt_clust_3="55.36555" pt_clust_4="55.36555" pt_clust_5="113.14444" pt_clust_6="41.58989"></scales>
<clustering>
<clus scale="   41.590">  2  6  1 -1</clus>
<clus scale="   55.366">  3  4 -1 -1</clus>
<clus scale="  113.144">  2  5  1 -1</clus>
<clus scale="  127.825">  1  3  2 -1</clus>
</clustering>
</event>
<event>
 6    0  0.5510638E+002  0.8962259E+02  0.7546771E-02  0.1303768E+00
         21   -1    0    0  506  501  0.00000000000E+00  0.00000000000E+00  0.13970428134E+04  0.13970428134E+04  0.00000000000E+00 0. -1.
         21   -1    0    0  503  502 -0.00000000000E+00 -0.00000000000E+00 -0.17206418426E+03  0.17206418426E+03  0.00000000000E+00 0. -1.
         21    1    1    2  503  504 -0.65658323740E+02  0.71222923585E+02 -0.26431720357E+02  0.10041093646E+03  0.00000000000E+00 0. -1.
         21    1    1    2  504  501 -0.18751249332E+02 -0.28047974009E+02  0.23489819734E+03  0.23730878895E+03  0.00000000000E+00 0. -1.
         21    1    1    2  505  502  0.92967999349E+02 -0.12192679263E+02 -0.86701098469E+02  0.12770587616E+03  0.00000000000E+00 0. -1.
         21    1    1    2  506  505 -0.85584262772E+01 -0.30982270313E+02  0.11032132506E+04  0.11036813961E+04  0.00000000000E+00 0. -1.
<scales pt_clust_3="14000.00000" pt_clust_4="58.84045" pt_clust_5="89.62259" pt_clust_6="32.14262"></scales>
<clustering>
<clus scale="   32.143">  1  6  2 -1</clus>
<clus scale="   58.840">  1  4  2 -1</clus>
<clus scale="   89.623">  2  5  1 -1</clus>
<clus scale="   32.143">  1  3  2 -1</clus>
</clustering>
</event>
<event>
 6    0  0.5510638E+002  0.1090906E+03  0.7546771E-02  0.1262263E+00
         21   -1    0    0  506  501  0.00000000000E+00  0.00000000000E+00  0.13632286884E+04  0.13632286884E+04  0.00000000000E+00 0. -1.
         21   -1    0    0  504  502 -0.00000000000E+00 -0.00000000000E+00 -0.59499834292E+02  0.59499834292E+02  0.00000000000E+00 0. -1.
         21    1    1    2  503  501  0.21520068042E+02 -0.50812579882E+02  0.49776854240E+03  0.50081788447E+03  0.00000000000E+00 0. -1.
         21    1    1    2  504  505 -0.47678746540E+02  0.11349836125E+03  0.88119229323E+02  0.15139398751E+03  0.00000000000E+00 0. -1.
         21    1    1    2  505  503  0.76227440971E+02  0.41050656358E+02  0.59821927992E+03  0.60445188891E+03  0.00000000000E+00 0. -1.
         21    1    1    2  506  502 -0.50068762473E+02 -0.10373643773E+03  0.11962180251E+03  0.16606476183E+03  0.00000000000E+00 0. -1.
<scales pt_clust_3="55.18180" pt_clust_4="14000.00000" pt_clust_5="91.38319" pt_clust_6="109.09062"></scales>
<clustering>
<clus scale="   55.182">  1  3  2 -1</clus>
<clus scale="   91.383">  1  5  2 -1</clus>
<clus scale="  109.091">  1  6  2 -1</clus>
<clus scale="   55.182">  1  3  2 -1</clus>
</clustering>
</event>
<event>
 6    0  0.5510638E+002  0.7627161E+02  0.7546771E-02  0.1339978E+00
         21   -1    0    0  504  501  0.00000000000E+00  0.00000000000E+00  0.14339043292E+04  0.14339043292E+04  0.00000000000E+00 0.  1.
         21   -1    0    0  503  502 -0.00000000000E+00 -0.00000000000E+00 -0.40961480300E+03  0.40961480300E+03  0.00000000000E+00 0.  1.
         21    1    1    2  503  505 -0.99970724910E+02 -0.25340751244E+02  0.14213466429E+03  0.17560911795E+03  0.00000000000E+00 0.  1.
         21    1    1    2  504  506  0.78236634688E+01  0.54554693245E+02  0.10502774577E+04  0.10517224740E+04  0.00000000000E+00 0.  1.
         21    1    1    2  505  501  0.49369993372E+02 -0.16254806352E+01  0.21962583521E+03  0.22511229626E+03  0.00000000000E+00 0.  1.
         21    1    1    2  506  502  0.42777068070E+02 -0.27588461366E+02 -0.38774843096E+03  0.39107524399E+03  0.00000000000E+00 0.  1.
<scales pt_clust_3="14000.00000" pt_clust_4="76.27161" pt_clust_5="49.39675" pt_clust_6="50.96006"></scales>
<clustering>
<clus scale="   49.397">  1  5  2 -1</clus>
<clus scale="   50.960">  2  6  1 -1</clus>
<clus scale="   76.272">  1  4  2 -1</clus>
<clus scale="   49.397">  1  3  2 -1</clus>
</clustering>
</event>
<event>
 6    0  0.5510638E+002  0.1247175E+03  0.7546771E-02  0.1235511E+00
         21   -1    0    0  503  501  0.00000000000E+00  0.00000000000E+00  0.33077884919E+03  0.33077884919E+03  0.00000000000E+00 0.  1.
         21   -1    0    0  505  502 -0.00000000000E+00 -0.00000000000E+00 -0.17204531810E+03  0.17204531810E+03  0.00000000000E+00 0.  1.
         21    1    1    2  503  506 -0.84155409371E+02  0.94074833514E+02  0.27290669321E+03  0.30068300654E+03  0.00000000000E+00 0.  1.
         21    1    1    2  504  502  0.91905366479E+01 -0.44134881969E+02 -0.12639645103E+02  0.46820021343E+02  0.00000000000E+00 0.  1.
         21    1    1    2  505  501  0.32643865268E+02 -0.32358444487E+02 -0.99319817395E+02  0.10944001552E+03  0.00000000000E+00 0.  1.
         21    1    1    2  506  504  0.42321007455E+02 -0.17581507059E+02 -0.22136996199E+01  0.45881123880E+02  0.00000000000E+00 0. -1.
<scales pt_clust_3="116.80719" pt_clust_4="43.35235" pt_clust_5="45.96402" pt_clust_6="43.35235"></scales>
<clustering>
<clus scale="   43.352">  4  6 -1 -1</clus>
<clus scale="   45.964">  2  5  1 -1</clus>
<clus scale="  116.807">  1  3  2 -1</clus>
<clus scale="  116.807">  1  3  2 -1</clus>
</clustering>
</event>
<event>
 6    0  0.5510638E+002  0.3466564E+03  0.7546771E-02  0.1063996E+00
         21   -1    0    0  503  501  0.00000000000E+00  0.00000000000E+00  0.11671013731E+04  0.11671013731E+04  0.00000000000E+00 0. -1.
         21   -1    0    0  504  502 -0.00000000000E+00 -0.00000000000E+00 -0.75295234347E+03  0.75295234347E+03  0.00000000000E+00 0.  1.
         21    1    1    2  503  506  0.26054292984E+03 -0.26731377559E+03  0.94252935824E+03  0.10137558207E+04  0.00000000000E+00 0. -1.
         21    1    1    2  504  505  0.95087780230E+02 -0.40628774997E+02 -0.44443477831E+02  0.11255045992E+03  0.00000000000E+00 0.  1.
         21    1    1    2  505  501 -0.13974038425E+02  0.35713380089E+02  0.75066321665E+02  0.84295147640E+02  0.00000000000E+00 0.  1.
         21    1    1    2  506  502 -0.34165667164E+03  0.27222917050E+03 -0.55900317244E+03  0.70945228828E+03  0.00000000000E+00 0.  1.
<scales pt_clust_3="346.65639" pt_clust_4="102.56571" pt_clust_5="38.34996" pt_clust_6="14000.00000"></scales>
<clustering>
<clus scale="   38.350">  1  5  2 -1</clus>
<clus scale="  102.566">  2  4  1 -1</clus>
<clus scale="  346.656">  1  3  2 -1</clus>
<clus scale="   38.350">  1  3  2 -1</clus>
</clustering>
</event>
<event>
 6    0  0.5510638E+002  0.1622424E+03  0.7546771E-02  0.1186188E+00
         21   -1    0    0  505  501  0.00000000000E+00  0.00000000000E+00  0.98519684074E+03  0.98519684074E+03  0.00000000000E+00 0. -1.
         21   -1    0    0  506  502 -0.00000000000E+00 -0.00000000000E+00 -0.48691373221E+03  0.48691373221E+03  0.00000000000E+00 0.  1.
         21    1    1    2  503  501 -0.17172072613E+02 -0.16310414948E+03  0.76882683076E+03  0.78612501509E+03  0.00000000000E+00 0. -1.
         21    1    1    2  504  502 -0.15092723707E+02 -0.30682922760E+02 -0.22729262729E+03  0.22985032190E+03  0.00000000000E+00 0.  1.
         21    1    1    2  505  504 -0.13636680156E+03  0.93883814466E+02  0.11719076955E+03  0.20283922612E+03  0.00000000000E+00 0.  1.
         21    1    1    2  506  503  0.16863159788E+03  0.99903257773E+02 -0.16044186449E+03  0.25329600983E+03  0.00000000000E+00 0.  1.
<scales pt_clust_3="162.24240" pt_clust_4="34.19404" pt_clust_5="164.83181" pt_clust_6="14000.00000"></scales>
<clustering>
<clus scale="   34.194">  2  4  1 -1</clus>
<clus scale="  164.832">  2  5  1 -1</clus>
<clus scale="  162.242">  1  3  2 -1</clus>
<clus scale="  162.242">  1  3  2 -1</clus>
</clustering>
</event>
<event>
 6    0  0.5510638E+002  0.1646012E+03  0.7546771E-02  0.1183598E+00
         21   -1    0    0  505  501  0.00000000000E+00  0.00000000000E+00  0.83963582595E+02  0.83963582595E+02  0.00000000000E+00 0.  1.
         21   -1    0    0  504  502 -0.00000000000E+00 -0.00000000000E+00 -0.13396980421E+04  0.13396980421E+04  0.00000000000E+00 0. -1.
         21    1    1    2  503  506  0.53157593616E+02  0.25499462277E+02 -0.50646561216E+01  0.59174344754E+02  0.00000000000E+00 0.  1.
         21    1    1    2  504  503 -0.14186403410E+03 -0.70235153053E+02 -0.11523832715E+04  0.11632048768E+04  0.00000000000E+00 0. -1.
         21    1    1    2  505  502  0.19945306067E+02 -0.47931906449E+02 -0.60809633318E+02  0.79956828315E+02  0.00000000000E+00 0.  1.
         21    1    1    2  506  501  0.68761134413E+02  0.92667597226E+02 -0.37476898518E+02  0.12132557481E+03  0.00000000000E+00 0.  1.
<scales pt_clust_3="31.50612" pt_clust_4="158.58990" pt_clust_5="51.91611" pt_clust_6="31.50612"></scales>
<clustering>
<clus scale="   31.506">  3  6 -1 -1</clus>
<clus scale="   51.916">  1  5  2 -1</clus>
<clus scale="  158.590">  2  4  1 -1</clus>
<clus scale="   51.916">  1  3  2 -1</clus>
</clustering>
</event>
<event>
 6    0  0.5510638E+002  0.1522035E+03  0.7546771E-02  0.1197791E+00
         21   -1    0    0  504  501  0.00000000000E+00  0.00000000000E+00  0.98331886414E+03  0.98331886414E+03  0.00000000000E+00 0.  1.
         21   -1    0    0  505  502 -0.00000000000E+00 -0.00000000000E+00 -0.44916810563E+03  0.44916810563E+03  0.00000000000E+00 0.  1.
         21    1    1    2  503  502 -0.50591543113E+02  0.66519944130E+02  0.34145480190E+03  0.35153348196E+03  0.00000000000E+00 0.  1.
         21    1    1    2  504  503 -0.46952747759E+02  0.29893022355E+02  0.53736122597E+03  0.54023628209E+03  0.00000000000E+00 0.  1.
         21    1    1    2  505  506 -0.44550753344E+02 -0.33819375538E+02 -0.37782712015E+03  0.38194482914E+03  0.00000000000E+00 0.  1.
         21    1    1    2  506  501  0.14209504422E+03 -0.62593590946E+02  0.33161850782E+02  0.15877237658E+03  0.00000000000E+00 0. -1.
<scales pt_clust_3="52.41721" pt_clust_4="52.41721" pt_clust_5="55.93317" pt_clust_6="137.98754"></scales>
<clustering>
<clus scale="   52.417">  3  4 -1 -1</clus>
<clus scale="   55.933">  2  5  1 -1</clus>
<clus scale="  137.988">  2  6  1 -1</clus>
<clus scale="  152.204">  1  3  2 -1</clus>
</clustering>
</event>
<event>
 6    0  0.5510638E+002  0.5964154E+02  0.7546771E-02  0.1399342E+00
         21   -1    0    0  504  501  0.00000000000E+00  0.00000000000E+00  0.77950968274E+02  0.77950968274E+02  0.00000000000E+00 0.  1.
         21   -1    0    0  505  502 -0.00000000000E+00 -0.00000000000E+00 -0.41871913902E+03  0.41871913902E+03  0.00000000000E+00 0.  1.
         21    1    1    2  503  502  0.40403269160E+02 -0.10671669947E+01 -0.46875116713E+02  0.61893776513E+02  0.00000000000E+00 0.  1.
         21    1    1    2  504  503 -0.97820392225E+02 -0.21805844045E+02 -0.16634556395E+03  0.19420394079E+03  0.00000000000E+00 0. -1.
         21    1    1    2  505  506  0.75358000036E+01  0.52813836955E+02 -0.16363466474E+03  0.17211157184E+03  0.00000000000E+00 0.  1.
         21    1    1    2  506  501  0.49881323062E+02 -0.29940825915E+02  0.36087174666E+02  0.68460818154E+02  0.00000000000E+00 0.  1.
<scales pt_clust_3="40.41736" pt_clust_4="14000.00000" pt_clust_5="58.49398" pt_clust_6="59.64154"></scales>
<clustering>
<clus scale="   40.417">  2  3  1 -1</clus>
<clus scale="   58.494">  2  5  1 -1</clus>
<clus scale="   59.642">  1  6  2 -1</clus>
<clus scale="   59.642">  1  3  2 -1</clus>
</clustering>
</event>
<event>
 6    0  0.5510638E+002  0.9010820E+02  0.7546771E-02  0.1302590E+00
         21   -1    0    0  506  501  0.00000000000E+00  0.00000000000E+00  0.12392002153E+03  0.12392002153E+03  0.00000000000E+00 0.  1.
         21   -1    0    0  505  502 -0.00000000000E+00 -0.00000000000E+00 -0.91150114973E+03  0.91150114973E+03  0.00000000000E+00 0. -1.
         21    1    1    2  503  504 -0.27756797750E+02  0.17073360318E+02 -0.15587866308E+02  0.36123690701E+02  0.00000000000E+00 0.  1.
         21    1    1    2  504  502 -0.67808269434E+02  0.66849635275E+02 -0.18018276349E+03  0.20379564127E+03  0.00000000000E+00 0.  1.
         21    1    1    2  505  501  0.42168470402E+02 -0.41545151070E+02 -0.68081899546E+03  0.68338765284E+03  0.00000000000E+00 0. -1.
         21    1    1    2  506  503  0.53396596782E+02 -0.42377844524E+02  0.89008497058E+02  0.11211418645E+03  0.00000000000E+00 0.  1.
<scales pt_clust_3="32.35779" pt_clust_4="32.35779" pt_clust_5="59.19611" pt_clust_6="71.13433"></scales>
<clustering>
<clus scale="   32.358">  3  4 -1 -1</clus>
<clus scale="   59.196">  2  5  1 -1</clus>
<clus scale="   71.134">  1  6  2 -1</clus>
<clus scale="   71.134">  1  3  2 -1</clus>
</clustering>
</event>
<event>
 6    0  0.5510638E+002  0.9376648E+02  0.7546771E-02  0.1293979E+00
         21   -1    0    0  504  501  0.00000000000E+00  0.00000000000E+00  0.12639019861E+03  0.12639019861E+03  0.00000000000E+00 0. -1.
         21   -1    0    0  503  502 -0.00000000000E+00 -0.00000000000E+00 -0.82102017103E+03  0.82102017103E+03  0.00000000000E+00 0.  1.
         21    1    1    2  503  506  0.41163911384E+02  0.10632118275E+02  0.22202333164E+02  0.47963039284E+02  0.00000000000E+00 0. -1.
         21    1    1    2  504  505 -0.11416282740E+03  0.12425870799E+02 -0.21362713803E+03  0.24253681685E+03  0.00000000000E+00 0.  1.
         21    1    1    2  505  502  0.32272754379E+02 -0.39503455556E+02 -0.57255472045E+03  0.57482254791E+03  0.00000000000E+00 0.  1.
         21    1    1    2  506  501  0.40726161638E+02  0.16445466482E+02  0.69349552897E+02  0.82087965601E+02  0.00000000000E+00 0. -1.
<scales pt_clust_3="32.51705" pt_clust_4="87.74860" pt_clust_5="51.01033" pt_clust_6="32.51705"></scales>
<clustering>
<clus scale="   32.517">  3  6 -1 -1</clus>
<clus scale="   51.010">  2  5  1 -1</clus>
<clus scale="   87.749">  2  4  1 -1</clus>
<clus scale="   93.766">  1  3  2 -1</clus>
</clustering>
</event>
<event>
 6    0  0.5510638E+002  0.1490735E+03  0.7546771E-02  0.1201616E+00
         21   -1    0    0  506  501  0.00000000000E+00  0.00000000000E+00  0.41441059903E+03  0.41441059903E+03  0.00000000000E+00 0.  1.
         21   -1    0    0  505  502 -0.00000000000E+00 -0.00000000000E+00 -0.30363401397E+03  0.30363401397E+03  0.00000000000E+00 0.  1.
         21    1    1    2  503  502  0.55872618236E+02  0.24839250017E+02 -0.31907045593E+02  0.68969539425E+02  0.00000000000E+00 0.  1.
         21    1    1    2  504  501 -0.80210500391E+02 -0.88633038412E+02  0.12660045850E+03  0.17411839640E+03  0.00000000000E+00 0.  1.
         21    1    1    2  505  504  0.18001525934E+02  0.12494958876E+03 -0.20760435229E+03  0.24297329433E+03  0.00000000000E+00 0.  1.
         21    1    1    2  506  503  0.63363562205E+01 -0.61155800370E+02  0.22368752444E+03  0.23198338285E+03  0.00000000000E+00 0.  1.
<scales pt_clust_3="61.14522" pt_clust_4="14000.00000" pt_clust_5="149.07352" pt_clust_6="61.18017"></scales>
<clustering>
<clus scale="   61.145">  2  3  1 -1</clus>
<clus scale="   61.180">  1  6  2 -1</clus>
<clus scale="  149.074">  2  5  1 -1</clus>
<clus scale="   61.180">  1  3  2 -1</clus>
</clustering>
</event>
<event>
 6    0  0.5510638E+002  0.1458858E+03  0.7546771E-02  0.1205622E+00
         21   -1    0    0  506  501  0.00000000000E+00  0.00000000000E+00  0.87670222262E+02  0.87670222262E+02  0.00000000000E+00 0. -1.
         21   -1    0    0  504  502 -0.00000000000E+00 -0.00000000000E+00 -0.82953266665E+03  0.82953266665E+03  0.00000000000E+00 0.  1.
         21    1    1    2  503  502  0.92395004566E+00 -0.70268473503E+02 -0.19210707559E+02  0.72853025586E+02  0.00000000000E+00 0.  1.
         21    1    1    2  504  505 -0.44248374372E+02  0.13382478763E+03 -0.65886716042E+03  0.67377513126E+03  0.00000000000E+00 0.  1.
         21    1    1    2  505  501  0.76212429144E+02 -0.12517837158E+02 -0.76316199832E+02  0.10857805008E+03  0.00000000000E+00 0. -1.
         21    1    1    2  506  503 -0.32888004818E+02 -0.51038476969E+02  0.12531623419E+02  0.61996681990E+02  0.00000000000E+00 0. -1.
<scales pt_clust_3="45.56284" pt_clust_4="137.40421" pt_clust_5="77.23361" pt_clust_6="45.56284"></scales>
<clustering>
<clus scale="   45.563">  3  6 -1 -1</clus>
<clus scale="   77.234">  1  5  2 -1</clus>
<clus scale="  137.404">  2  4  1 -1</clus>
<clus scale="   77.234">  1  3  2 -1</clus>
</clustering>
</event>
<event>
 6    0  0.5510638E+002  0.8194729E+02  0.7546771E-02  0.1323614E+00
         21   -1    0    0  503  501  0.00000000000E+00  0.00000000000E+00  0.41200920716E+03  0.41200920716E+03  0.00000000000E+00 0. -1.
         21   -1    0    0  504  502 -0.00000000000E+00 -0.00000000000E+00 -0.52014188640E+02  0.52014188640E+02  0.00000000000E+00 0. -1.
         21    1    1    2  503  502  0.12791944537E+01  0.77558658724E+02  0.70451253016E+02  0.10478721741E+03  0.00000000000E+00 0.  1.
         21    1    1    2  504  505  0.63873890581E+02 -0.73653410177E+02  0.57957836508E+02  0.11341873541E+03  0.00000000000E+00 0. -1.
         21    1    1    2  505  506 -0.42740446208E+02  0.21494066917E+02  0.15113003654E+03  0.15852138215E+03  0.00000000000E+00 0. -1.
         21    1    1    2  506  501 -0.22412638827E+02 -0.25399315464E+02  0.80455892457E+02  0.87296060829E+02  0.00000000000E+00 0. -1.
<scales pt_clust_3="81.94729" pt_clust_4="14000.00000" pt_clust_5="54.15705" pt_clust_6="33.87406"></scales>
<clustering>
<clus scale="   33.874">  1  6  2 -1</clus>
<clus scale="   54.157">  1  5  2 -1</clus>
<clus scale="   81.947">  1  3  2 -1</clus>
<clus scale="   33.874">  1  3  2 -1</clus>
</clustering>
</event>
<event>
 6    0  0.5510638E+002  0.1165324E+03  0.7546771E-02  0.1248930E+00
         21   -1    0    0  504  501  0.00000000000E+00  0.00000000000E+00  0.23666534839E+04  0.23666534839E+04  0.00000000000E+00 0.  1.
         21   -1    0    0  506  502 -0.00000000000E+00 -0.00000000000E+00 -0.16185651905E+02  0.16185651905E+02  0.00000000000E+00 0. -1.
         21    1    1    2  503  501 -0.36094260502E+01 -0.57750536594E+02  0.71099396457E+03  0.71334463626E+03  0.00000000000E+00 0.  1.
         21    1    1    2  504  502  0.19159388659E+02  0.23359168568E+02  0.21188846408E+03  0.21403143260E+03  0.00000000000E+00 0. -1.
         21    1    1    2  505  503  0.33541079166E+02 -0.61241618694E+02  0.12172409863E+04  0.12192420427E+04  0.00000000000E+00 0.  1.
         21    1    1    2  506  505 -0.49091041775E+02  0.95632986720E+02  0.21034441702E+03  0.23622102426E+03  0.00000000000E+00 0. -1.
<scales pt_clust_3="36.57672" pt_clust_4="30.21147" pt_clust_5="36.57672" pt_clust_6="108.78228"></scales>
<clustering>
<clus scale="   30.211">  1  4  2 -1</clus>
<clus scale="   36.577">  3  5 -1 -1</clus>
<clus scale="  108.782">  2  6  1 -1</clus>
<clus scale="   30.211">  1  3  2 -1</clus>
</clustering>
</event>
<event>
 6    0  0.5510638E+002  0.1317446E+03  0.7546771E-02  0.1224890E+00
         21   -1    0    0  505  501  0.00000000000E+00  0.00000000000E+00  0.14707425019E+04  0.14707425019E+04  0.00000000000E+00 0. -1.
         21   -1    0    0  504  502 -0.00000000000E+00 -0.00000000000E+00 -0.10858494948E+03  0.10858494948E+03  0.00000000000E+00 0. -1.
         21    1    1    2  503  501 -0.93792164214E+02 -0.39069511032E+02  0.11939487489E+04  0.11982641661E+04  0.00000000000E+00 0. -1.
         21    1    1    2  504  503  0.66439466189E+01 -0.52056297532E+02  0.58866477517E+02  0.78862299705E+02  0.00000000000E+00 0. -1.
         21    1    1    2  505  506 -0.36439498627E+02  0.55927730819E+01  0.14342384737E+03  0.14808617817E+03  0.00000000000E+00 0.  1.
         21    1    1    2  506  502  0.12358771622E+03  0.85533035482E+02 -0.34081521369E+02  0.15411480740E+03  0.00000000000E+00 0. -1.
<scales pt_clust_3="14000.00000" pt_clust_4="51.98310" pt_clust_5="36.86619" pt_clust_6="131.74457"></scales>
<clustering>
<clus scale="   36.866">  1  5  2 -1</clus>
<clus scale="   51.983">  2  4  1 -1</clus>
<clus scale="  131.745">  2  6  1 -1</clus>
<clus scale="   36.866">  1  3  2 -1</clus>
</clustering>
</event>
<event>
 6    0  0.5510638E+002  0.7642125E+02  0.7546771E-02  0.1339526E+00
         21   -1    0    0  502  501  0.00000000000E+00  0.00000000000E+00  0.20317759766E+04  0.20317759766E+04  0.00000000000E+00 0.  1.
         21   -1    0    0  503  502 -0.00000000000E+00 -0.00000000000E+00 -0.13498356280E+03  0.13498356280E+03  0.00000000000E+00 0.  1.
         21    1    1    2  503  505  0.68861621776E+02  0.15034437648E+02 -0.75573858400E+02  0.10334101481E+03  0.00000000000E+00 0.  1.
         21    1    1    2  504  501  0.28961650921E+02 -0.26595688820E+02  0.15138368919E+04  0.15143474644E+04  0.00000000000E+00 0.  1.
         21    1    1    2  505  506 -0.13657415597E+03  0.28981132147E+02  0.66318417394E+02  0.15456564490E+03  0.00000000000E+00 0.  1.
         21    1    1    2  506  504  0.38750883269E+02 -0.17419880975E+02  0.39221096300E+03  0.39450541530E+03  0.00000000000E+00 0.  1.
<scales pt_clust_3="71.09567" pt_clust_4="39.32058" pt_clust_5="14000.00000" pt_clust_6="76.42125"></scales>
<clustering>
<clus scale="   39.321">  1  4  2 -1</clus>
<clus scale="   71.096">  2  3  1 -1</clus>
<clus scale="   76.421">  1  6  2 -1</clus>
<clus scale="   39.321">  1  3  2 -1</clus>
</clustering>
</event>
<event>
 6    0  0.9123539E+002  0.1886161E+03  0.7546771E-02  0.1159716E+00
         21   -1    0    0  504  501  0.00000000000E+00  0.00000000000E+00  0.18714416690E+03  0.18714416690E+03  0.00000000000E+00 0.  1.
         21   -1    0    0  501  502 -0.00000000000E+00 -0.00000000000E+00 -0.11167371051E+04  0.11167371051E+04  0.00000000000E+00 0. -1.
         21    1    1    2  503  502  0.28522581436E+02 -0.22456394564E+02 -0.63729223541E+03  0.63832532507E+03  0.00000000000E+00 0. -1.
         21    1    1    2  504  506 -0.37189583489E+02  0.17816240825E+03  0.12191379897E+03  0.21906136860E+03  0.00000000000E+00 0.  1.
         21    1    1    2  505  503 -0.19583701796E+02 -0.28080426828E+02 -0.62281439225E+02  0.71070453909E+02  0.00000000000E+00 0. -1.
         21    1    1    2  506  505  0.28250703849E+02 -0.12762558686E+03 -0.35193306250E+03  0.37542412439E+03  0.00000000000E+00 0. -1.
<scales pt_clust_3="36.30189" pt_clust_4="179.19750" pt_clust_5="30.12163" pt_clust_6="30.12163"></scales>
<clustering>
<clus scale="   30.122">  5  6 -1 -1</clus>
<clus scale="   36.302">  2  3  1 -1</clus>
<clus scale="  179.198">  1  4  2 -1</clus>
<clus scale="  179.198">  1  3  2 -1</clus>
</clustering>
</event>
<event>
 6    0  0.5510638E+002  0.1157374E+03  0.7546771E-02  0.1250299E+00
         21   -1    0    0  504  501  0.00000000000E+00  0.00000000000E+00  0.15049791609E+03  0.15049791609E+03  0.00000000000E+00 0. -1.
         21   -1    0    0  505  502 -0.00000000000E+00 -0.00000000000E+00 -0.17463161348E+03  0.17463161348E+03  0.00000000000E+00 0. -1.
         21    1    1    2  503  501 -0.34510840370E+01  0.56636023192E+02  0.63305652697E+02  0.85012674157E+02  0.00000000000E+00 0. -1.
         21    1    1    2  504  502  0.42640540389E+02  0.20152479653E+02  0.13230188631E+02  0.48983425891E+02  0.00000000000E+00 0. -1.
         21    1    1    2  505  506 -0.28533851770E+02 -0.11084630633E+03 -0.10482375762E+03  0.15520665090E+03  0.00000000000E+00 0. -1.
         21    1    1    2  506  503 -0.10655604581E+02  0.34057803484E+02  0.41542189051E+01  0.35926778618E+02  0.00000000000E+00 0. -1.
<scales pt_clust_3="32.22493" pt_clust_4="47.16289" pt_clust_5="108.36972" pt_clust_6="32.22493"></scales>
<clustering>
<clus scale="   32.225">  3  6 -1 -1</clus>
<clus scale="   47.163">  1  4  2 -1</clus>
<clus scale="  108.370">  2  5  1 -1</clus>
<clus scale="   47.163">  1  3  2 -1</clus>
</clustering>
</event>
<event>
 6    0  0.5510638E+002  0.1309347E+03  0.7546771E-02  0.1226075E+00
         21   -1    0    0  503  501  0.00000000000E+00  0.00000000000E+00  0.65481875499E+02  0.65481875499E+02  0.00000000000E+00 0.  1.
         21   -1    0    0  505  502 -0.00000000000E+00 -0.00000000000E+00 -0.50245534112E+03  0.50245534112E+03  0.00000000000E+00 0.  1.
         21    1    1    2  503  506  0.41233687084E+02  0.58719101485E+02 -0.49115084584E+02  0.86950798521E+02  0.00000000000E+00 0.  1.
         21    1    1    2  504  502 -0.28891440605E+02 -0.11187833113E+03 -0.15755140630E+03  0.19538147799E+03  0.00000000000E+00 0.  1.
         21    1    1    2  505  501 -0.84628721712E+02  0.32100567034E+02 -0.15246838801E+03  0.17731067730E+03  0.00000000000E+00 0.  1.
         21    1    1    2  506  504  0.72286475234E+02  0.21058662607E+02 -0.77838586723E+02  0.10829426280E+03  0.00000000000E+00 0.  1.
<scales pt_clust_3="51.21186" pt_clust_4="119.96589" pt_clust_5="90.51225" pt_clust_6="51.21186"></scales>
<clustering>
<clus scale="   51.212">  3  6 -1 -1</clus>
<clus scale="   90.512">  2  5  1 -1</clus>
<clus scale="  119.966">  2  4  1 -1</clus>
<clus scale="  130.935">  1  3  2 -1</clus>
</clustering>
</event>
<event>
 6    0  0.5510638E+002  0.8842107E+02  0.7546771E-02  0.1306721E+00
         21   -1    0    0  504  501  0.00000000000E+00  0.00000000000E+00  0.27412452733E+02  0.27412452733E+02  0.00000000000E+00 0.  1.
         21   -1    0    0  503  502 -0.00000000000E+00 -0.00000000000E+00 -0.80239090904E+03  0.80239090904E+03  0.00000000000E+00 0.  1.
         21    1    1    2  503  506  0.59474098903E+02 -0.82290859511E+01 -0.23481583879E+03  0.24237030438E+03  0.00000000000E+00 0.  1.
         21    1    1    2  504  505 -0.64020085030E+02  0.69071000586E+02 -0.17115717922E+03  0.19535648033E+03  0.00000000000E+00 0.  1.
         21    1    1    2  505  502 -0.61699814863E+01  0.30150099484E+02 -0.17298259707E+03  0.17569882202E+03  0.00000000000E+00 0.  1.
         21    1    1    2  506  501  0.10715967613E+02 -0.90992014120E+02 -0.19602284123E+03  0.21637775505E+03  0.00000000000E+00 0.  1.
<scales pt_clust_3="57.22110" pt_clust_4="88.42107" pt_clust_5="30.77494" pt_clust_6="14000.00000"></scales>
<clustering>
<clus scale="   30.775">  2  5  1 -1</clus>
<clus scale="   57.221">  2  3  1 -1</clus>
<clus scale="   88.421">  1  4  2 -1</clus>
<clus scale="   88.421">  1  3  2 -1</clus>
</clustering>
</event>
<event>
 6    0  0.5510638E+002  0.9302917E+02  0.7546771E-02  0.1295678E+00
         21   -1    0    0  506  501  0.00000000000E+00  0.00000000000E+00  0.11847049745E+04  0.11847049745E+04  0.00000000000E+00 0. -1.
         21   -1    0    0  504  502 -0.00000000000E+00 -0.00000000000E+00 -0.21279294716E+03  0.21279294716E+03  0.00000000000E+00 0. -1.
         21    1    1    2  503  502  0.54142940248E+02  0.63889174447E+02 -0.12367785616E+03  0.14936363913E+03  0.00000000000E+00 0. -1.
         21    1    1    2  504  505 -0.10299139502E+03 -0.10058002426E+03 -0.44659094549E+01  0.14402608471E+03  0.00000000000E+00 0. -1.
         21    1    1    2  505  501  0.18428223922E+02  0.28001520071E+02  0.95739008852E+03  0.95797675659E+03  0.00000000000E+00 0. -1.
         21    1    1    2  506  503  0.30420230846E+02  0.86893297457E+01  0.14266570439E+03  0.14613144120E+03  0.00000000000E+00 0. -1.
<scales pt_clust_3="14000.00000" pt_clust_4="93.02917" pt_clust_5="58.75392" pt_clust_6="31.63692"></scales>
<clustering>
<clus scale="   31.637">  1  6  2 -1</clus>
<clus scale="   58.754">  1  5  2 -1</clus>
<clus scale="   93.029">  1  4  2 -1</clus>
<clus scale="   31.637">  1  3  2 -1</clus>
</clustering>
</event>
<event>
 6    0  0.5510638E+002  0.9253332E+02  0.7546771E-02  0.1296830E+00
         21   -1    0    0  506  501  0.00000000000E+00  0.00000000000E+00  0.64218503578E+03  0.64218503578E+03  0.00000000000E+00 0.  1.
         21   -1    0    0  501  502 -0.00000000000E+00 -0.00000000000E+00 -0.97260179799E+02  0.97260179799E+02  0.00000000000E+00 0.  1.
         21    1    1    2  503  505 -0.75496761878E+02 -0.67018741269E+02  0.48567130572E+03  0.49605230564E+03  0.00000000000E+00 0.  1.
         21    1    1    2  504  502 -0.32090549502E+02 -0.18762214508E+01 -0.36659508779E+02  0.48756980610E+02  0.00000000000E+00 0.  1.
         21    1    1    2  505  504  0.68481994584E+02  0.83099418740E+02  0.22131482892E+02  0.10993224965E+03  0.00000000000E+00 0.  1.
         21    1    1    2  506  503  0.39105316796E+02 -0.14204456020E+02  0.73781576148E+02  0.84703679681E+02  0.00000000000E+00 0.  1.
<scales pt_clust_3="92.53332" pt_clust_4="32.14535" pt_clust_5="14000.00000" pt_clust_6="38.67081"></scales>
<clustering>
<clus scale="   32.145">  2  4  1 -1</clus>
<clus scale="   38.671">  1  6  2 -1</clus>
<clus scale="   92.533">  1  3  2 -1</clus>
<clus scale="   38.671">  1  3  2 -1</clus>
</clustering>
</event>
<event>
 6    0  0.5510638E+002  0.8995314E+02  0.7546771E-02  0.1302965E+00
         21   -1    0    0  505  501  0.00000000000E+00  0.00000000000E+00  0.15332976076E+02  0.15332976076E+02  0.00000000000E+00 0.  1.
         21   -1    0    0  506  502 -0.00000000000E+00 -0.00000000000E+00 -0.17860382105E+04  0.17860382105E+04  0.00000000000E+00 0. -1.
         21    1    1    2  503  501  0.15114442135E+02  0.33723412755E+02 -0.39125182518E+02  0.53819093601E+02  0.00000000000E+00 0.  1.
         21    1    1    2  504  502  0.24110711776E+02  0.21113243162E+02 -0.36101538398E+03  0.36243510168E+03  0.00000000000E+00 0. -1.
         21    1    1    2  505  504  0.98572447828E+01  0.62099766556E+02 -0.26772244382E+03  0.27500700574E+03  0.00000000000E+00 0. -1.
         21    1    1    2  506  503 -0.49082398693E+02 -0.11693642247E+03 -0.11028422241E+04  0.11101099856E+04  0.00000000000E+00 0. -1.
<scales pt_clust_3="37.90846" pt_clust_4="32.04833" pt_clust_5="89.95314" pt_clust_6="14000.00000"></scales>
<clustering>
<clus scale="   32.048">  2  4  1 -1</clus>
<clus scale="   37.908">  1  3  2 -1</clus>
<clus scale="   89.953">  1  5  2 -1</clus>
<clus scale="   37.908">  1  3  2 -1</clus>
</clustering>
</event>
<event>
 6    0  0.5510638E+002  0.1508360E+03  0.7546771E-02  0.1199449E+00
         21   -1    0    0  504  501  0.00000000000E+00  0.00000000000E+00  0.14591681709E+04  0.14591681709E+04  0.00000000000E+00 0. -1.
         21   -1    0    0  503  502 -0.00000000000E+00 -0.00000000000E+00 -0.20367507220E+02  0.20367507220E+02  0.00000000000E+00 0. -1.
         21    1    1    2  503  505  0.29831072190E+02 -0.17885070960E+02  0.69225468719E+02  0.77472150807E+02  0.00000000000E+00 0.  1.
         21    1    1    2  504  502  0.92826164664E+02  0.96655973878E+02  0.45782875287E+03  0.47703903518E+03  0.00000000000E+00 0. -1.
         21    1    1    2  505  506 -0.31579701717E+02 -0.35330501323E+02  0.17128404322E+03  0.17771816268E+03  0.00000000000E+00 0. -1.
         21    1    1    2  506  501 -0.91077535137E+02 -0.43440401594E+02  0.74046239883E+03  0.74730632942E+03  0.00000000000E+00 0. -1.
<scales pt_clust_3="34.78173" pt_clust_4="140.04438" pt_clust_5="38.81741" pt_clust_6="38.81741"></scales>
<clustering>
<clus scale="   34.782">  2  3  1 -1</clus>
<clus scale="   38.817">  5  6 -1 -1</clus>
<clus scale="  140.044">  2  4  1 -1</clus>
<clus scale="  150.836">  1  3  2 -1</clus>
</clustering>
</event>
<event>
 6    0  0.5510638E+002  0.1347021E+03  0.7546771E-02  0.1220641E+00
         21   -1    0    0  503  501  0.00000000000E+00  0.00000000000E+00  0.25622480216E+03  0.25622480216E+03  0.00000000000E+00 0.  1.
         21   -1    0    0  506  502 -0.00000000000E+00 -0.00000000000E+00 -0.37218439920E+03  0.37218439920E+03  0.00000000000E+00 0. -1.
         21    1    1    2  503  504  0.53301342356E+02 -0.10939437136E+03  0.14303042552E+03  0.18779207707E+03  0.00000000000E+00 0.  1.
         21    1    1    2  504  502  0.43995549249E+02  0.10509460204E+03 -0.27884346886E+03  0.30122112120E+03  0.00000000000E+00 0. -1.
         21    1    1    2  505  501 -0.50138013640E+02 -0.36965498203E+02  0.39457390508E+02  0.73737060796E+02  0.00000000000E+00 0.  1.
         21    1    1    2  506  505 -0.47158877965E+02  0.41265267526E+02 -0.19603944221E+02  0.65658942300E+02  0.00000000000E+00 0.  1.
<scales pt_clust_3="14000.00000" pt_clust_4="134.70206" pt_clust_5="62.29180" pt_clust_6="64.59093"></scales>
<clustering>
<clus scale="   62.292">  1  5  2 -1</clus>
<clus scale="   64.591">  2  6  1 -1</clus>
<clus scale="  134.702">  2  4  1 -1</clus>
<clus scale="   62.292">  1  3  2 -1</clus>
</clustering>
</event>
<event>
 6    0  0.5510638E+002  0.9577114E+02  0.7546771E-02  0.1289449E+00
         21   -1    0    0  506  501  0.00000000000E+00  0.00000000000E+00  0.18052165793E+04  0.18052165793E+04  0.00000000000E+00 0. -1.
         21   -1    0    0  505  502 -0.00000000000E+00 -0.00000000000E+00 -0.43233914116E+02  0.43233914116E+02  0.00000000000E+00 0.  1.
         21    1    1    2  503  502 -0.13254643438E+02 -0.37721506994E+02 -0.89998479486E+01  0.40982861365E+02  0.00000000000E+00 0.  1.
         21    1    1    2  504  501  0.96144093852E+02  0.21926495206E+02  0.14964363992E+04  0.14996820846E+04  0.00000000000E+00 0. -1.
         21    1    1    2  505  504  0.15536878959E+01 -0.38084218161E+02  0.91562065389E+02  0.99178795301E+02  0.00000000000E+00 0. -1.
         21    1    1    2  506  503 -0.84443138310E+02  0.53879229949E+02  0.18298404855E+03  0.20860675217E+03  0.00000000000E+00 0. -1.
<scales pt_clust_3="63.06766" pt_clust_4="14000.00000" pt_clust_5="38.11590" pt_clust_6="95.77114"></scales>
<clustering>
<clus scale="   38.116">  2  5  1 -1</clus>
<clus scale="   63.068">  2  3  1 -1</clus>
<clus scale="   95.771">  2  6  1 -1</clus>
<clus scale="   95.771">  1  3  2 -1</clus>
</clustering>
</event>
<event>
 6    0  0.5510638E+002  0.1478473E+03  0.7546771E-02  0.1203143E+00
         21   -1    0    0  505  501  0.00000000000E+00  0.00000000000E+00  0.15233819058E+03  0.15233819058E+03  0.00000000000E+00 0.  1.
         21   -1    0    0  506  502 -0.00000000000E+00 -0.00000000000E+00 -0.32288962572E+03  0.32288962572E+03  0.00000000000E+00 0. -1.
         21    1    1    2  503  501 -0.11559645669E+03 -0.63903547460E+02  0.18100863636E+02  0.13331858626E+03  0.00000000000E+00 0.  1.
         21    1    1    2  504  502  0.15505308621E+03  0.58260053534E+02 -0.17515645796E+03  0.24107152082E+03  0.00000000000E+00 0. -1.
         21    1    1    2  505  504 -0.34042196274E+02  0.39202674068E+02  0.17544733955E+02  0.54804547903E+02  0.00000000000E+00 0.  1.
         21    1    1    2  506  503 -0.54144332459E+01 -0.33559180142E+02 -0.31040574767E+02  0.46033161319E+02  0.00000000000E+00 0. -1.
<scales pt_clust_3="147.84734" pt_clust_4="14000.00000" pt_clust_5="50.52171" pt_clust_6="33.99316"></scales>
<clustering>
<clus scale="   33.993">  2  6  1 -1</clus>
<clus scale="   50.522">  1  5  2 -1</clus>
<clus scale="  147.847">  1  3  2 -1</clus>
<clus scale="   50.522">  1  3  2 -1</clus>
</clustering>
</event>
<event>
 6    0  0.5510638E+002  0.1675789E+03  0.7546771E-02  0.1180396E+00
         21   -1    0    0  506  501  0.00000000000E+00  0.00000000000E+00  0.81801050246E+02  0.81801050246E+02  0.00000000000E+00 0.  1.
         21   -1    0    0  505  502 -0.00000000000E+00 -0.00000000000E+00 -0.12481061320E+04  0.12481061320E+04  0.00000000000E+00 0.  1.
         21    1    1    2  503  502  0.71851961833E+02 -0.65052653972E+02 -0.13851360168E+03  0.16905788966E+03  0.00000000000E+00 0.  1.
         21    1    1    2  504  501  0.14923796440E+03  0.14450624876E+03 -0.19100711597E+03  0.28220160223E+03  0.00000000000E+00 0.  1.
         21    1    1    2  505  504 -0.16526303361E+03 -0.19026728557E+02 -0.69585318050E+03  0.71546176383E+03  0.00000000000E+00 0.  1.
         21    1    1    2  506  503 -0.55826892624E+02 -0.60426866232E+02 -0.14093118357E+03  0.16318592649E+03  0.00000000000E+00 0.  1.
<scales pt_clust_3="98.36602" pt_clust_4="14000.00000" pt_clust_5="167.57891" pt_clust_6="82.26815"></scales>
<clustering>
<clus scale="   82.268">  1  6  2 -1</clus>
<clus scale="   98.366">  1  3  2 -1</clus>
<clus scale="  167.579">  2  5  1 -1</clus>
<clus scale="   82.268">  1  3  2 -1</clus>
</clustering>
</event>
<event>
 6    0  0.5510638E+002  0.7465840E+02  0.7546771E-02  0.1344932E+00
         21   -1    0    0  504  501  0.00000000000E+00  0.00000000000E+00  0.28780001419E+03  0.28780001419E+03  0.00000000000E+00 0. -1.
         21   -1    0    0  506  502 -0.00000000000E+00 -0.00000000000E+00 -0.82696316787E+03  0.82696316787E+03  0.00000000000E+00 0. -1.
         21    1    1    2  503  501  0.70053829308E+02 -0.29125272962E+02  0.23514543376E+03  0.24708135410E+03  0.00000000000E+00 0. -1.
         21    1    1    2  504  505 -0.45047704947E+02  0.31237640456E+01  0.15419407643E+02  0.47715948642E+02  0.00000000000E+00 0. -1.
         21    1    1    2  505  502 -0.77963693934E+02  0.74226346251E+01 -0.74249274358E+03  0.74661161748E+03  0.00000000000E+00 0. -1.
         21    1    1    2  506  503  0.52957569572E+02  0.18578874291E+02 -0.47235251508E+02  0.73354261839E+02  0.00000000000E+00 0. -1.
<scales pt_clust_3="38.09203" pt_clust_4="45.15588" pt_clust_5="74.65840" pt_clust_6="14000.00000"></scales>
<clustering>
<clus scale="   45.156">  1  4  2 -1</clus>
<clus scale="   38.092">  1  3  2 -1</clus>
<clus scale="   74.658">  2  5  1 -1</clus>
<clus scale="   45.156">  1  3  2 -1</clus>
</clustering>
</event>
<event>
 6    0  0.5510638E+002  0.9431728E+02  0.7546771E-02  0.1292721E+00
         21   -1    0    0  505  501  0.00000000000E+00  0.00000000000E+00  0.80558389222E+02  0.80558389222E+02  0.00000000000E+00 0. -1.
         21   -1    0    0  503  502 -0.00000000000E+00 -0.00000000000E+00 -0.56390429905E+03  0.56390429905E+03  0.00000000000E+00 0.  1.
         21    1    1    2  503  504 -0.55064754372E+02  0.94667027552E+01 -0.28283996128E+03  0.28830572199E+03  0.00000000000E+00 0.  1.
         21    1    1    2  504  501 -0.64236012545E+01  0.38077001562E+02 -0.10225829748E+02  0.39946067329E+02  0.00000000000E+00 0.  1.
         21    1    1    2  505  506  0.50866034092E+02  0.56569912026E+02  0.22291080809E+02  0.79274211787E+02  0.00000000000E+00 0. -1.
         21    1    1    2  506  502  0.10622321535E+02 -0.10411361634E+03 -0.21257119961E+03  0.23693668716E+03  0.00000000000E+00 0.  1.
<scales pt_clust_3="56.42466" pt_clust_4="38.61503" pt_clust_5="94.31728" pt_clust_6="14000.00000"></scales>
<clustering>
<clus scale="   38.615">  1  4  2 -1</clus>
<clus scale="   56.425">  2  3  1 -1</clus>
<clus scale="   94.317">  1  5  2 -1</clus>
<clus scale="   38.615">  1  3  2 -1</clus>
</clustering>
</event>
<event>
 6    0  0.5510638E+002  0.1477637E+03  0.7546771E-02  0.1203248E+00
         21   -1    0    0  504  501  0.00000000000E+00  0.00000000000E+00  0.20987772542E+03  0.20987772542E+03  0.00000000000E+00 0. -1.
         21   -1    0    0  506  502 -0.00000000000E+00 -0.00000000000E+00 -0.35021950463E+03  0.35021950463E+03  0.00000000000E+00 0. -1.
         21    1    1    2  503  505  0.20921379590E+02  0.63815974510E+02  0.70335554985E+02  0.97248511668E+02  0.00000000000E+00 0. -1.
         21    1    1    2  504  502 -0.86003874806E+02 -0.99651018233E+02 -0.27163361962E+03  0.30184733762E+03  0.00000000000E+00 0. -1.
         21    1    1    2  505  501  0.91695920039E+01 -0.45188188170E+02  0.38405262980E+02  0.60008482668E+02  0.00000000000E+00 0. -1.
         21    1    1    2  506  503  0.55912903213E+02  0.81023231892E+02  0.22551022455E+02  0.10099289810E+03  0.00000000000E+00 0. -1.
<scales pt_clust_3="45.58791" pt_clust_4="134.32898" pt_clust_5="46.10915" pt_clust_6="45.58791"></scales>
<clustering>
<clus scale="   46.109">  1  5  2 -1</clus>
<clus scale="   45.588">  3  6 -1 -1</clus>
<clus scale="  134.329">  2  4  1 -1</clus>
<clus scale="   46.109">  1  3  2 -1</clus>
</clustering>
</event>
<event>
 6    0  0.5510638E+002  0.3607869E+03  0.7546771E-02  0.1058273E+00
         21   -1    0    0  506  501  0.00000000000E+00  0.00000000000E+00  0.87866661982E+03  0.87866661982E+03  0.00000000000E+00 0. -1.
         21   -1    0    0  504  502 -0.00000000000E+00 -0.00000000000E+00 -0.63708293275E+03  0.63708293275E+03  0.00000000000E+00 0. -1.
         21    1    1    2  503  502 -0.37742334117E+03  0.63105143403E+02 -0.10430558464E+03  0.39662361575E+03  0.00000000000E+00 0. -1.
         21    1    1    2  504  505  0.24500663298E+03  0.20807585290E+03 -0.45287918992E+02  0.32461485852E+03  0.00000000000E+00 0. -1.
         21    1    1    2  505  501 -0.98610028417E+02  0.16601493589E+03  0.14906416288E+03  0.24393651079E+03  0.00000000000E+00 0.  1.
         21    1    1    2  506  503  0.23102673660E+03 -0.43719593219E+03  0.24211302782E+03  0.55057456751E+03  0.00000000000E+00 0. -1.
<scales pt_clust_3="360.78686" pt_clust_4="330.36107" pt_clust_5="193.09297" pt_clust_6="14000.00000"></scales>
<clustering>
<clus scale="  193.093">  1  5  2 -1</clus>
<clus scale="  330.361">  2  4  1 -1</clus>
<clus scale="  360.787">  2  3  1 -1</clus>
<clus scale="  193.093">  1  3  2 -1</clus>
</clustering>
</event>
<event>
 6    0  0.5510638E+002  0.1280373E+03  0.7546771E-02  0.1230397E+00
         21   -1    0    0  503  501  0.00000000000E+00  0.00000000000E+00  0.31351290535E+03  0.31351290535E+03  0.00000000000E+00 0.  1.
         21   -1    0    0  504  502 -0.00000000000E+00 -0.00000000000E+00 -0.37520060735E+03  0.37520060735E+03  0.00000000000E+00 0.  1.
         21    1    1    2  503  502  0.18017606682E+02  0.26765419627E+02 -0.40051349115E+01  0.32512504426E+02  0.00000000000E+00 0.  1.
         21    1    1    2  504  505 -0.32587856606E+02 -0.55628373555E+01 -0.10841224141E+02  0.34791460137E+02  0.00000000000E+00 0. -1.
         21    1    1    2  505  506  0.11846933510E+03 -0.94162279078E+02 -0.30122635720E+03  0.33710359896E+03  0.00000000000E+00 0.  1.
         21    1    1    2  506  501 -0.10389908518E+03  0.72959696807E+02  0.25438501425E+03  0.28430594917E+03  0.00000000000E+00 0.  1.
<scales pt_clust_3="32.26487" pt_clust_4="31.67125" pt_clust_5="128.03732" pt_clust_6="14000.00000"></scales>
<clustering>
<clus scale="   32.265">  2  3  1 -1</clus>
<clus scale="   31.671">  2  4  1 -1</clus>
<clus scale="  128.037">  2  5  1 -1</clus>
<clus scale="  128.037">  1  3  2 -1</clus>
</clustering>
</event>
<event>
 6    0  0.5510638E+002  0.7995949E+02  0.7546771E-02  0.1329166E+00
         21   -1    0    0  506  501  0.00000000000E+00  0.00000000000E+00  0.11455145035E+04  0.11455145035E+04  0.00000000000E+00 0. -1.
         21   -1    0    0  503  502 -0.00000000000E+00 -0.00000000000E+00 -0.31178700960E+02  0.31178700960E+02  0.00000000000E+00 0. -1.
         21    1    1    2  503  504  0.30546919401E+02 -0.37678647886E+02  0.28487755064E+02  0.56252528654E+02  0.00000000000E+00 0. -1.
         21    1    1    2  504  505 -0.74841779573E+02 -0.71420496020E+02  0.22173738641E+03  0.24468274920E+03  0.00000000000E+00 0. -1.
         21    1    1    2  505  501  0.39838397072E+02  0.42550403571E+02  0.61887740756E+03  0.62161634495E+03  0.00000000000E+00 0. -1.
         21    1    1    2  506  502  0.44564630995E+01  0.66548740335E+02  0.24523325355E+03  0.25414158170E+03  0.00000000000E+00 0. -1.
<scales pt_clust_3="48.50562" pt_clust_4="14000.00000" pt_clust_5="57.88965" pt_clust_6="79.95949"></scales>
<clustering>
<clus scale="   48.506">  2  3  1 -1</clus>
<clus scale="   57.890">  1  5  2 -1</clus>
<clus scale="   79.959">  2  6  1 -1</clus>
<clus scale="   57.890">  1  3  2 -1</clus>
</clustering>
</event>
<event>
 6    0  0.5510638E+002  0.1440810E+03  0.7546771E-02  0.1207941E+00
         21   -1    0    0  502  501  0.00000000000E+00  0.00000000000E+00  0.43183442901E+03  0.43183442901E+03  0.00000000000E+00 0.  1.
         21   -1    0    0  506  502 -0.00000000000E+00 -0.00000000000E+00 -0.31335395497E+03  0.31335395497E+03  0.00000000000E+00 0.  1.
         21    1    1    2  503  505 -0.10269130901E+03  0.60057634029E+02  0.16572093777E+03  0.20399964109E+03  0.00000000000E+00 0.  1.
         21    1    1    2  504  503  0.13274657304E+03 -0.71652522707E+01 -0.18166855689E+03  0.22511432219E+03  0.00000000000E+00 0.  1.
         21    1    1    2  505  501 -0.51760441444E+02 -0.82632472831E+02  0.21026479011E+03  0.23177262743E+03  0.00000000000E+00 0.  1.
         21    1    1    2  506  504  0.21705177418E+02  0.29740091073E+02 -0.75836696943E+02  0.84301793261E+02  0.00000000000E+00 0.  1.
<scales pt_clust_3="144.08105" pt_clust_4="14000.00000" pt_clust_5="95.81232" pt_clust_6="36.81831"></scales>
<clustering>
<clus scale="   36.818">  2  6  1 -1</clus>
<clus scale="   95.812">  1  5  2 -1</clus>
<clus scale="  144.081">  1  3  2 -1</clus>
<clus scale="   95.812">  1  3  2 -1</clus>
</clustering>
</event>
<event>
 6    0  0.5510638E+002  0.3256105E+03  0.7546771E-02  0.1073096E+00
         21   -1    0    0  506  501  0.00000000000E+00  0.00000000000E+00  0.35184129254E+03  0.35184129254E+03  0.00000000000E+00 0. -1.
         21   -1    0    0  503  502 -0.00000000000E+00 -0.00000000000E+00 -0.12389511901E+04  0.12389511901E+04  0.00000000000E+00 0. -1.
         21    1    1    2  503  501 -0.15931875502E+03 -0.35131167611E+03  0.15879300598E+03  0.41715414204E+03  0.00000000000E+00 0. -1.
         21    1    1    2  504  502  0.16704783112E+03  0.27384664682E+03 -0.10387824507E+04  0.10871825715E+04  0.00000000000E+00 0. -1.
         21    1    1    2  505  504 -0.20421929245E+02  0.36682072553E+02 -0.11470197220E+02  0.43522351329E+02  0.00000000000E+00 0. -1.
         21    1    1    2  506  505  0.12692853144E+02  0.40782956732E+02  0.43497444443E+01  0.42933417724E+02  0.00000000000E+00 0. -1.
<scales pt_clust_3="14000.00000" pt_clust_4="325.61051" pt_clust_5="36.60692" pt_clust_6="86.16205"></scales>
<clustering>
<clus scale="   36.607">  5  6 -1 -1</clus>
<clus scale="   86.162">  1  5  2 -1</clus>
<clus scale="  325.611">  2  4  1 -1</clus>
<clus scale="   86.162">  1  3  2 -1</clus>
</clustering>
</event>
<event>
 6    0  0.5510638E+002  0.8397566E+02  0.7546771E-02  0.1318133E+00
         21   -1    0    0  504  501  0.00000000000E+00  0.00000000000E+00  0.14079568670E+04  0.14079568670E+04  0.00000000000E+00 0. -1.
         21   -1    0    0  503  502 -0.00000000000E+00 -0.00000000000E+00 -0.25619010449E+02  0.25619010449E+02  0.00000000000E+00 0. -1.
         21    1    1    2  503  505 -0.31548374503E+02 -0.24618790465E+01  0.10463521569E+03  0.10931554850E+03  0.00000000000E+00 0. -1.
         21    1    1    2  504  502  0.32709805253E+02  0.43949182876E+02  0.44800656366E+02  0.70771186552E+02  0.00000000000E+00 0. -1.
         21    1    1    2  505  506  0.54461643800E+02 -0.97430985114E+02  0.35702312974E+03  0.37406467713E+03  0.00000000000E+00 0. -1.
         21    1    1    2  506  501 -0.55623074549E+02  0.55943681285E+02  0.87587885480E+03  0.87942446531E+03  0.00000000000E+00 0. -1.
<scales pt_clust_3="31.64429" pt_clust_4="45.17822" pt_clust_5="83.97566" pt_clust_6="14000.00000"></scales>
<clustering>
<clus scale="   31.644">  2  3  1 -1</clus>
<clus scale="   45.178">  2  4  1 -1</clus>
<clus scale="   83.976">  2  5  1 -1</clus>
<clus scale="   83.976">  1  3  2 -1</clus>
</clustering>
</event>
<event>
 6    0  0.5510638E+002  0.9672351E+02  0.7546771E-02  0.1287341E+00
         21   -1    0    0  505  501  0.00000000000E+00  0.00000000000E+00  0.20201619487E+03  0.20201619487E+03  0.00000000000E+00 0.  1.
         21   -1    0    0  506  502 -0.00000000000E+00 -0.00000000000E+00 -0.15049074403E+04  0.15049074403E+04  0.00000000000E+00 0. -1.
         21    1    1    2  503  502 -0.31805022663E+02  0.29405097318E+02 -0.10229250803E+04  0.10238417550E+04  0.00000000000E+00 0. -1.
         21    1    1    2  504  503  0.53548371455E+02 -0.51312614743E+01 -0.40985099776E+03  0.41336617942E+03  0.00000000000E+00 0. -1.
         21    1    1    2  505  504  0.15813338990E+01 -0.11389636877E+03  0.47060276555E+01  0.11400451803E+03  0.00000000000E+00 0.  1.
         21    1    1    2  506  501 -0.23324682690E+02  0.89622532928E+02  0.12517880498E+03  0.15571118279E+03  0.00000000000E+00 0.  1.
<scales pt_clust_3="43.31535" pt_clust_4="33.09218" pt_clust_5="96.72351" pt_clust_6="14000.00000"></scales>
<clustering>
<clus scale="   43.315">  2  3  1 -1</clus>
<clus scale="   33.092">  2  4  1 -1</clus>
<clus scale="   96.724">  2  5  1 -1</clus>
<clus scale="   96.724">  1  3  2 -1</clus>
</clustering>
</event>
<event>
 6    0  0.5510638E+002  0.1041543E+03  0.7546771E-02  0.1271795E+00
         21   -1    0    0  504  501  0.00000000000E+00  0.00000000000E+00  0.44226125711E+03  0.44226125711E+03  0.00000000000E+00 0. -1.
         21   -1    0    0  505  502 -0.00000000000E+00 -0.00000000000E+00 -0.28344814388E+04  0.28344814388E+04  0.00000000000E+00 0. -1.
         21    1    1    2  503  506  0.22246632518E+02 -0.74632725205E+02 -0.19547115732E+03  0.21041371076E+03  0.00000000000E+00 0. -1.
         21    1    1    2  504  503  0.35748023059E+02  0.58667726317E+02  0.57821253423E+02  0.89794880762E+02  0.00000000000E+00 0. -1.
         21    1    1    2  505  501 -0.89511851194E+01 -0.80564298968E+02  0.35529463984E+03  0.36442421857E+03  0.00000000000E+00 0. -1.
         21    1    1    2  506  502 -0.49043470457E+02  0.96529297856E+02 -0.26098649176E+04  0.26121098858E+04  0.00000000000E+00 0. -1.
<scales pt_clust_3="104.15434" pt_clust_4="68.70097" pt_clust_5="34.86169" pt_clust_6="14000.00000"></scales>
<clustering>
<clus scale="   68.701">  1  4  2 -1</clus>
<clus scale="   34.862">  1  5  2 -1</clus>
<clus scale="  104.154">  1  3  2 -1</clus>
<clus scale="   68.701">  1  3  2 -1</clus>
</clustering>
</event>
<event>
 6    0  0.5510638E+002  0.2805007E+03  0.7546771E-02  0.1095416E+00
         21   -1    0    0  506  501  0.00000000000E+00  0.00000000000E+00  0.38623168921E+03  0.38623168921E+03  0.00000000000E+00 0. -1.
         21   -1    0    0  505  502 -0.00000000000E+00 -0.00000000000E+00 -0.48940205827E+03  0.48940205827E+03  0.00000000000E+00 0. -1.
         21    1    1    2  503  502 -0.34349218356E+02  0.58937361625E+02 -0.13466967469E+03  0.15096159339E+03  0.00000000000E+00 0. -1.
         21    1    1    2  504  503 -0.46693788240E+02  0.15165151185E+03  0.12021815698E+03  0.19907510184E+03  0.00000000000E+00 0. -1.
         21    1    1    2  505  501  0.15096403820E+03 -0.29443456491E+03 -0.18582075476E+03  0.37948808511E+03  0.00000000000E+00 0. -1.
         21    1    1    2  506  504 -0.69921031599E+02  0.83845691440E+02  0.97101903410E+02  0.14610896714E+03  0.00000000000E+00 0. -1.
<scales pt_clust_3="68.21643" pt_clust_4="44.40659" pt_clust_5="275.34446" pt_clust_6="44.40659"></scales>
<clustering>
<clus scale="   44.407">  4  6 -1 -1</clus>
<clus scale="   68.216">  2  3  1 -1</clus>
<clus scale="  275.344">  2  5  1 -1</clus>
<clus scale="  280.501">  1  3  2 -1</clus>
</clustering>
</event>
<event>
 6    0  0.5510638E+002  0.2769169E+03  0.7546771E-02  0.1097385E+00
         21   -1    0    0  505  501  0.00000000000E+00  0.00000000000E+00  0.29884324610E+03  0.29884324610E+03  0.00000000000E+00 0. -1.
         21   -1    0    0  503  502 -0.00000000000E+00 -0.00000000000E+00 -0.92885703142E+03  0.92885703142E+03  0.00000000000E+00 0. -1.
         21    1    1    2  503  506  0.96468102769E+02  0.35282817042E+03 -0.37434390755E+03  0.52338052487E+03  0.00000000000E+00 0. -1.
         21    1    1    2  504  501  0.27127076591E+01 -0.54809921420E+02  0.25522921845E+02  0.60521944850E+02  0.00000000000E+00 0. -1.
         21    1    1    2  505  502 -0.11987451368E+03 -0.20940747034E+03 -0.41614208614E+03  0.48103598984E+03  0.00000000000E+00 0. -1.
         21    1    1    2  506  504  0.20693703251E+02 -0.88610778664E+02  0.13494928653E+03  0.16276181796E+03  0.00000000000E+00 0. -1.
<scales pt_clust_3="14000.00000" pt_clust_4="42.44245" pt_clust_5="276.91691" pt_clust_6="155.25562"></scales>
<clustering>
<clus scale="   42.442">  4  6 -1 -1</clus>
<clus scale="  155.256">  1  4  2 -1</clus>
<clus scale="  276.917">  2  5  1 -1</clus>
<clus scale="  155.256">  1  3  2 -1</clus>
</clustering>
</event>
<event>
 6    0  0.5510638E+002  0.1295408E+03  0.7546771E-02  0.1228139E+00
         21   -1    0    0  503  501  0.00000000000E+00  0.00000000000E+00  0.11167878693E+03  0.11167878693E+03  0.00000000000E+00 0. -1.
         21   -1    0    0  505  502 -0.00000000000E+00 -0.00000000000E+00 -0.58588563609E+03  0.58588563609E+03  0.00000000000E+00 0.  1.
         21    1    1    2  503  506 -0.81821450142E+01 -0.79321216252E+02  0.25575926653E+02  0.83743243721E+02  0.00000000000E+00 0. -1.
         21    1    1    2  504  502 -0.27331318949E+02 -0.18853963403E+02 -0.97931491525E+02  0.10340720460E+03  0.00000000000E+00 0.  1.
         21    1    1    2  505  501  0.65498564234E+02  0.13375591471E+03 -0.43066144583E+03  0.45568628196E+03  0.00000000000E+00 0.  1.
         21    1    1    2  506  504 -0.29985100271E+02 -0.35580735052E+02  0.28810161537E+02  0.54727692742E+02  0.00000000000E+00 0. -1.
<scales pt_clust_3="30.14335" pt_clust_4="33.20351" pt_clust_5="123.38421" pt_clust_6="30.14335"></scales>
<clustering>
<clus scale="   30.143">  3  6 -1 -1</clus>
<clus scale="   33.204">  2  4  1 -1</clus>
<clus scale="  123.384">  2  5  1 -1</clus>
<clus scale="  129.541">  1  3  2 -1</clus>
</clustering>
</event>
<event>
 6    0  0.5510638E+002  0.1790184E+03  0.7546771E-02  0.1168756E+00
         21   -1    0    0  505  501  0.00000000000E+00  0.00000000000E+00  0.32984334931E+03  0.32984334931E+03  0.00000000000E+00 0.  1.
         21   -1    0    0  504  502 -0.00000000000E+00 -0.00000000000E+00 -0.95637426557E+03  0.95637426557E+03  0.00000000000E+00 0.  1.
         21    1    1    2  503  502 -0.11948927987E+03 -0.12140375651E+03 -0.88655100373E+03  0.90276754611E+03  0.00000000000E+00 0.  1.
         21    1    1    2  504  506  0.47943415663E+02 -0.20872082259E+02  0.44866167658E+02  0.68899839794E+02  0.00000000000E+00 0.  1.
         21    1    1    2  505  503 -0.11914539654E+02  0.11774343152E+03  0.51195608108E+02  0.12894363966E+03  0.00000000000E+00 0.  1.
         21    1    1    2  506  501  0.83460403857E+02  0.24532407255E+02  0.16395831171E+03  0.18560658931E+03  0.00000000000E+00 0.  1.
<scales pt_clust_3="167.81563" pt_clust_4="48.32743" pt_clust_5="118.34472" pt_clust_6="48.32743"></scales>
<clustering>
<clus scale="   48.327">  4  6 -1 -1</clus>
<clus scale="  118.345">  1  5  2 -1</clus>
<clus scale="  167.816">  2  3  1 -1</clus>
<clus scale="  118.345">  1  3  2 -1</clus>
</clustering>
</event>
<event>
 6    0  0.5510638E+002  0.8588246E+02  0.7546771E-02  0.1313141E+00
         21   -1    0    0  506  501  0.00000000000E+00  0.00000000000E+00  0.15365683608E+03  0.15365683608E+03  0.00000000000E+00 0. -1.
         21   -1    0    0  505  502 -0.00000000000E+00 -0.00000000000E+00 -0.23776536338E+04  0.23776536338E+04  0.00000000000E+00 0. -1.
         21    1    1    2  503  504  0.58549419195E+02 -0.32214495299E+02 -0.93930748442E+02  0.11527703023E+03  0.00000000000E+00 0.  1.
         21    1    1    2  504  501 -0.49707825524E+02 -0.22755725226E+01 -0.73857043062E+02  0.89055650907E+02  0.00000000000E+00 0.  1.
         21    1    1    2  505  503 -0.84342103260E+02  0.23627403843E+02 -0.21798995782E+04  0.21816585470E+04  0.00000000000E+00 0. -1.
         21    1    1    2  506  502  0.75500509589E+02  0.10862663979E+02  0.12369057201E+03  0.14531924174E+03  0.00000000000E+00 0. -1.
<scales pt_clust_3="14000.00000" pt_clust_4="49.75988" pt_clust_5="85.88246" pt_clust_6="30.99034"></scales>
<clustering>
<clus scale="   49.760">  1  4  2 -1</clus>
<clus scale="   30.990">  1  6  2 -1</clus>
<clus scale="   85.882">  2  5  1 -1</clus>
<clus scale="   49.760">  1  3  2 -1</clus>
</clustering>
</event>
<event>
 6    0  0.5510638E+002  0.2028526E+03  0.7546771E-02  0.1147354E+00
         21   -1    0    0  503  501  0.00000000000E+00  0.00000000000E+00  0.37605165149E+03  0.37605165149E+03  0.00000000000E+00 0.  1.
         21   -1    0    0  504  502 -0.00000000000E+00 -0.00000000000E+00 -0.13644317803E+04  0.13644317803E+04  0.00000000000E+00 0.  1.
         21    1    1    2  503  505  0.73504301031E+02  0.16760128965E+03 -0.27904331133E+03  0.33370382701E+03  0.00000000000E+00 0.  1.
         21    1    1    2  504  506  0.83196853519E+02 -0.39740187759E+02  0.29245189222E+03  0.30664166093E+03  0.00000000000E+00 0.  1.
         21    1    1    2  505  502 -0.18609120940E+03 -0.11955114533E+03 -0.10330322558E+04  0.10564459551E+04  0.00000000000E+00 0.  1.
         21    1    1    2  506  501  0.29390054855E+02 -0.83099565644E+01  0.31243546128E+02  0.43691988706E+02  0.00000000000E+00 0.  1.
<scales pt_clust_3="14000.00000" pt_clust_4="118.91991" pt_clust_5="202.85263" pt_clust_6="30.54228"></scales>
<clustering>
<clus scale="   30.542">  1  6  2 -1</clus>
<clus scale="  118.920">  1  4  2 -1</clus>
<clus scale="  202.853">  2  5  1 -1</clus>
<clus scale="   30.542">  1  3  2 -1</clus>
</clustering>
</event>
<event>
 6    0  0.5510638E+002  0.1013523E+03  0.7546771E-02  0.1277478E+00
         21   -1    0    0  503  501  0.00000000000E+00  0.00000000000E+00  0.31868126330E+03  0.31868126330E+03  0.00000000000E+00 0.  1.
         21   -1    0    0  505  502 -0.00000000000E+00 -0.00000000000E+00 -0.22470642146E+03  0.22470642146E+03  0.00000000000E+00 0. -1.
         21    1    1    2  503  504  0.42591103381E+02 -0.31861743405E+02  0.27329113398E+01  0.53260131284E+02  0.00000000000E+00 0. -1.
         21    1    1    2  504  502  0.32335245580E+02  0.20271204396E+02 -0.63424403747E+01  0.38687418940E+02  0.00000000000E+00 0.  1.
         21    1    1    2  505  506 -0.49632585090E+02 -0.88240958752E+02 -0.15132377105E+03  0.18206796530E+03  0.00000000000E+00 0. -1.
         21    1    1    2  506  501 -0.25293763871E+02  0.99831497761E+02  0.24890814193E+03  0.26937216923E+03  0.00000000000E+00 0.  1.
<scales pt_clust_3="55.08781" pt_clust_4="38.16399" pt_clust_5="14000.00000" pt_clust_6="101.35232"></scales>
<clustering>
<clus scale="   38.164">  2  4  1 -1</clus>
<clus scale="   55.088">  2  3  1 -1</clus>
<clus scale="  101.352">  1  6  2 -1</clus>
<clus scale="  101.352">  1  3  2 -1</clus>
</clustering>
</event>
<event>
 6    0  0.5510638E+002  0.1149899E+03  0.7546771E-02  0.1251599E+00
         21   -1    0    0  505  501  0.00000000000E+00  0.00000000000E+00  0.10835088326E+03  0.10835088326E+03  0.00000000000E+00 0.  1.
         21   -1    0    0  506  502 -0.00000000000E+00 -0.00000000000E+00 -0.49190512050E+03  0.49190512050E+03  0.00000000000E+00 0.  1.
         21    1    1    2  503  504 -0.21073197192E+02  0.50164085318E+02  0.53163913844E+01  0.54669727574E+02  0.00000000000E+00 0.  1.
         21    1    1    2  504  501 -0.25926883153E+01  0.61867139169E+02  0.46110357875E+02  0.77203821440E+02  0.00000000000E+00 0.  1.
         21    1    1    2  505  502  0.76338920282E+02 -0.47410691026E+02 -0.24288109871E+03  0.25897226200E+03  0.00000000000E+00 0.  1.
         21    1    1    2  506  503 -0.52673034774E+02 -0.64620533461E+02 -0.19209988778E+03  0.20941019274E+03  0.00000000000E+00 0.  1.
<scales pt_clust_3="37.90187" pt_clust_4="37.90187" pt_clust_5="107.64677" pt_clust_6="83.36823"></scales>
<clustering>
<clus scale="   37.902">  3  4 -1 -1</clus>
<clus scale="   83.368">  2  6  1 -1</clus>
<clus scale="  107.647">  2  5  1 -1</clus>
<clus scale="  114.990">  1  3  2 -1</clus>
</clustering>
</event>
<event>
 6    0  0.5510638E+002  0.9423728E+02  0.7546771E-02  0.1292903E+00
         21   -1    0    0  505  501  0.00000000000E+00  0.00000000000E+00  0.10343914129E+04  0.10343914129E+04  0.00000000000E+00 0.  1.
         21   -1    0    0  506  502 -0.00000000000E+00 -0.00000000000E+00 -0.16839478206E+04  0.16839478206E+04  0.00000000000E+00 0.  1.
         21    1    1    2  503  501  0.26262097392E+02  0.19032437120E+02  0.26371976590E+03  0.26570669233E+03  0.00000000000E+00 0.  1.
         21    1    1    2  504  502 -0.59133393166E+02 -0.71134673271E+02 -0.13782401179E+04  0.13813409147E+04  0.00000000000E+00 0.  1.
         21    1    1    2  505  504 -0.26453027663E+02  0.11188306092E+03 -0.28983721124E+03  0.31180633575E+03  0.00000000000E+00 0. -1.
         21    1    1    2  506  503  0.59324323436E+02 -0.59780824765E+02  0.75480115562E+03  0.75948529076E+03  0.00000000000E+00 0.  1.
<scales pt_clust_3="32.43349" pt_clust_4="92.44022" pt_clust_5="94.23728" pt_clust_6="14000.00000"></scales>
<clustering>
<clus scale="   32.433">  1  3  2 -1</clus>
<clus scale="   92.440">  2  4  1 -1</clus>
<clus scale="   94.237">  2  5  1 -1</clus>
<clus scale="   32.433">  1  3  2 -1</clus>
</clustering>
</event>
<event>
 6    0  0.5510638E+002  0.7182466E+02  0.7546771E-02  0.1353996E+00
         21   -1    0    0  506  501  0.00000000000E+00  0.00000000000E+00  0.22261877335E+03  0.22261877335E+03  0.00000000000E+00 0. -1.
         21   -1    0    0  505  502 -0.00000000000E+00 -0.00000000000E+00 -0.24381544933E+03  0.24381544933E+03  0.00000000000E+00 0.  1.
         21    1    1    2  503  501  0.55898874311E+02  0.70024336103E+01  0.60806977143E+01  0.56662978305E+02  0.00000000000E+00 0.  1.
         21    1    1    2  504  502 -0.15059030908E+02 -0.28074374496E+02 -0.59367150186E+01  0.32406627415E+02  0.00000000000E+00 0. -1.
         21    1    1    2  505  503  0.62752751074E+02  0.67247838010E+02 -0.16826068285E+03  0.19175984167E+03  0.00000000000E+00 0.  1.
         21    1    1    2  506  504 -0.10359259448E+03 -0.46175897124E+02  0.14692002418E+03  0.18560477529E+03  0.00000000000E+00 0. -1.
<scales pt_clust_3="54.33945" pt_clust_4="31.85820" pt_clust_5="14000.00000" pt_clust_6="71.82466"></scales>
<clustering>
<clus scale="   31.858">  2  4  1 -1</clus>
<clus scale="   54.339">  1  3  2 -1</clus>
<clus scale="   71.825">  1  6  2 -1</clus>
<clus scale="   54.339">  1  3  2 -1</clus>
</clustering>
</event>
<event>
 6    0  0.5510638E+002  0.1395036E+03  0.7546771E-02  0.1213999E+00
         21   -1    0    0  505  501  0.00000000000E+00  0.00000000000E+00  0.80773699047E+03  0.80773699047E+03  0.00000000000E+00 0.  1.
         21   -1    0    0  506  502 -0.00000000000E+00 -0.00000000000E+00 -0.95434905022E+03  0.95434905022E+03  0.00000000000E+00 0.  1.
         21    1    1    2  503  501 -0.98392026416E+02  0.10746451098E+03  0.33416748310E+03  0.36455111952E+03  0.00000000000E+00 0.  1.
         21    1    1    2  504  502 -0.10265040055E+03 -0.17850996422E+02 -0.87765170916E+02  0.13622954170E+03  0.00000000000E+00 0.  1.
         21    1    1    2  505  504  0.79923638132E+02  0.32437643659E+02  0.42078711929E+03  0.42953671370E+03  0.00000000000E+00 0.  1.
         21    1    1    2  506  503  0.12111878883E+03 -0.12205115821E+03 -0.81380149122E+03  0.83176866576E+03  0.00000000000E+00 0.  1.
<scales pt_clust_3="14000.00000" pt_clust_4="98.85826" pt_clust_5="86.25537" pt_clust_6="139.50357"></scales>
<clustering>
<clus scale="   86.255">  1  5  2 -1</clus>
<clus scale="   98.858">  2  4  1 -1</clus>
<clus scale="  139.504">  2  6  1 -1</clus>
<clus scale="   86.255">  1  3  2 -1</clus>
</clustering>
</event>
<event>
 6    0  0.5510638E+002  0.2064111E+03  0.7546771E-02  0.1144440E+00
         21   -1    0    0  504  501  0.00000000000E+00  0.00000000000E+00  0.71991136826E+03  0.71991136826E+03  0.00000000000E+00 0.  1.
         21   -1    0    0  506  502 -0.00000000000E+00 -0.00000000000E+00 -0.73147434720E+03  0.73147434720E+03  0.00000000000E+00 0.  1.
         21    1    1    2  503  501 -0.51646163975E+02 -0.19858894524E+02  0.63030836087E+02  0.83872452229E+02  0.00000000000E+00 0.  1.
         21    1    1    2  504  505 -0.12397466195E+03  0.12772023692E+03  0.60491508784E+03  0.63055883089E+03  0.00000000000E+00 0.  1.
         21    1    1    2  505  502 -0.32818631709E+02  0.21869368581E+02 -0.10628140797E+03  0.11336255797E+03  0.00000000000E+00 0.  1.
         21    1    1    2  506  503  0.20843945764E+03 -0.12973071097E+03 -0.57322749490E+03  0.62359187437E+03  0.00000000000E+00 0.  1.
<scales pt_clust_3="55.71718" pt_clust_4="14000.00000" pt_clust_5="39.43770" pt_clust_6="206.41112"></scales>
<clustering>
<clus scale="   39.438">  2  5  1 -1</clus>
<clus scale="   55.717">  1  3  2 -1</clus>
<clus scale="  206.411">  2  6  1 -1</clus>
<clus scale="   55.717">  1  3  2 -1</clus>
</clustering>
</event>
<event>
 6    0  0.5510638E+002  0.1133326E+03  0.7546771E-02  0.1254520E+00
         21   -1    0    0  506  501  0.00000000000E+00  0.00000000000E+00  0.71674447662E+03  0.71674447662E+03  0.00000000000E+00 0.  1.
         21   -1    0    0  503  502 -0.00000000000E+00 -0.00000000000E+00 -0.26856446095E+03  0.26856446095E+03  0.00000000000E+00 0.  1.
         21    1    1    2  503  504  0.11643971225E+02 -0.36627383843E+02 -0.79563275842E+02  0.88359844815E+02  0.00000000000E+00 0.  1.
         21    1    1    2  504  505 -0.80669797542E+02 -0.54558504105E+02 -0.15863964002E+03  0.18614720516E+03  0.00000000000E+00 0.  1.
         21    1    1    2  505  501  0.20978733091E+02 -0.29494610365E+02  0.52630417667E+02  0.63874878838E+02  0.00000000000E+00 0. -1.
         21    1    1    2  506  502  0.48047093226E+02  0.12068049831E+03  0.63375251386E+03  0.64692700876E+03  0.00000000000E+00 0.  1.
<scales pt_clust_3="38.66394" pt_clust_4="14000.00000" pt_clust_5="36.19446" pt_clust_6="113.33262"></scales>
<clustering>
<clus scale="   36.194">  1  5  2 -1</clus>
<clus scale="   38.664">  2  3  1 -1</clus>
<clus scale="  113.333">  1  6  2 -1</clus>
<clus scale="   36.194">  1  3  2 -1</clus>
</clustering>
</event>
<event>
 6    0  0.5510638E+002  0.9088461E+02  0.7546771E-02  0.1300724E+00
         21   -1    0    0  503  501  0.00000000000E+00  0.00000000000E+00  0.42168510349E+02  0.42168510349E+02  0.00000000000E+00 0. -1.
         21   -1    0    0  504  502 -0.00000000000E+00 -0.00000000000E+00 -0.67792147115E+03  0.67792147115E+03  0.00000000000E+00 0.  1.
         21    1    1    2  503  505 -0.83938148969E+02 -0.36675212260E+02 -0.62651381339E+02  0.11097693287E+03  0.00000000000E+00 0. -1.
         21    1    1    2  504  506 -0.17393872851E+02  0.38457698633E+02 -0.98722681238E+02  0.10736716997E+03  0.00000000000E+00 0. -1.
         21    1    1    2  505  502  0.73689017874E+02  0.43366719611E+02 -0.40789105408E+03  0.41675635055E+03  0.00000000000E+00 0.  1.
         21    1    1    2  506  501  0.27643003946E+02 -0.45149205985E+02 -0.66487844138E+02  0.84989528098E+02  0.00000000000E+00 0.  1.
<scales pt_clust_3="90.88461" pt_clust_4="42.20831" pt_clust_5="14000.00000" pt_clust_6="47.42678"></scales>
<clustering>
<clus scale="   42.208">  2  4  1 -1</clus>
<clus scale="   47.427">  1  6  2 -1</clus>
<clus scale="   90.885">  1  3  2 -1</clus>
<clus scale="   47.427">  1  3  2 -1</clus>
</clustering>
</event>
<event>
 6    0  0.5510638E+002  0.6299945E+02  0.7546771E-02  0.1385659E+00
         21   -1    0    0  506  501  0.00000000000E+00  0.00000000000E+00  0.11809803903E+03  0.11809803903E+03  0.00000000000E+00 0. -1.
         21   -1    0    0  505  502 -0.00000000000E+00 -0.00000000000E+00 -0.71862155233E+03  0.71862155233E+03  0.00000000000E+00 0. -1.
         21    1    1    2  503  501  0.54458362814E+02 -0.12220835637E+02 -0.34404808367E+00  0.55813801815E+02  0.00000000000E+00 0. -1.
         21    1    1    2  504  502 -0.56572130221E+02  0.23821271023E+02 -0.53058838103E+03  0.53412722169E+03  0.00000000000E+00 0. -1.
         21    1    1    2  505  503  0.84364382465E+02  0.10559406891E+02 -0.12054962632E+03  0.14751631268E+03  0.00000000000E+00 0. -1.
         21    1    1    2  506  504 -0.82250615058E+02 -0.22159842277E+02  0.50958542121E+02  0.99262255174E+02  0.00000000000E+00 0. -1.
<scales pt_clust_3="55.81274" pt_clust_4="14000.00000" pt_clust_5="62.99945" pt_clust_6="49.11515"></scales>
<clustering>
<clus scale="   55.813">  1  3  2 -1</clus>
<clus scale="   49.115">  1  6  2 -1</clus>
<clus scale="   62.999">  1  5  2 -1</clus>
<clus scale="   55.813">  1  3  2 -1</clus>
</clustering>
</event>
<event>
 6    0  0.5510638E+002  0.1419040E+03  0.7546771E-02  0.1210790E+00
         21   -1    0    0  503  501  0.00000000000E+00  0.00000000000E+00  0.63020382136E+03  0.63020382136E+03  0.00000000000E+00 0. -1.
         21   -1    0    0  505  502 -0.00000000000E+00 -0.00000000000E+00 -0.39571056793E+03  0.39571056793E+03  0.00000000000E+00 0. -1.
         21    1    1    2  503  506 -0.14183260675E+03 -0.18390299402E+02  0.15873068875E+03  0.21365889404E+03  0.00000000000E+00 0. -1.
         21    1    1    2  504  502 -0.24675535808E+02  0.38205365140E+02 -0.16999660205E+03  0.17597550029E+03  0.00000000000E+00 0. -1.
         21    1    1    2  505  501  0.13575416849E+03  0.41795702435E+02  0.42295784711E+03  0.44617195725E+03  0.00000000000E+00 0. -1.
         21    1    1    2  506  504  0.30753974062E+02 -0.61610768172E+02 -0.17719868038E+03  0.19010803771E+03  0.00000000000E+00 0. -1.
<scales pt_clust_3="14000.00000" pt_clust_4="45.48112" pt_clust_5="141.90396" pt_clust_6="31.85548"></scales>
<clustering>
<clus scale="   45.481">  2  4  1 -1</clus>
<clus scale="   31.855">  2  6  1 -1</clus>
<clus scale="  141.904">  1  5  2 -1</clus>
<clus scale="  141.904">  1  3  2 -1</clus>
</clustering>
</event>
<event>
 6    0  0.5510638E+002  0.2704669E+03  0.7546771E-02  0.1101013E+00
         21   -1    0    0  502  501  0.00000000000E+00  0.00000000000E+00  0.13448867901E+03  0.13448867901E+03  0.00000000000E+00 0.  1.
         21   -1    0    0  506  502 -0.00000000000E+00 -0.00000000000E+00 -0.98373104567E+03  0.98373104567E+03  0.00000000000E+00 0.  1.
         21    1    1    2  503  501  0.21538901167E+03  0.13899220667E+02  0.11341666401E+02  0.21613479147E+03  0.00000000000E+00 0.  1.
         21    1    1    2  504  503 -0.12274219298E+03  0.59972386638E+02 -0.48871369037E+03  0.50744793256E+03  0.00000000000E+00 0.  1.
         21    1    1    2  505  504 -0.73602158450E+02 -0.23768323869E+02 -0.24468588245E+03  0.25661915754E+03  0.00000000000E+00 0. -1.
         21    1    1    2  506  505 -0.19044660248E+02 -0.50103283436E+02 -0.12718446024E+03  0.13801784312E+03  0.00000000000E+00 0.  1.
<scales pt_clust_3="215.83701" pt_clust_4="127.99740" pt_clust_5="127.99740" pt_clust_6="48.61499"></scales>
<clustering>
<clus scale="   48.615">  5  6 -1 -1</clus>
<clus scale="  127.997">  4  5 -1 -1</clus>
<clus scale="  215.837">  1  3  2 -1</clus>
<clus scale="  215.837">  1  3  2 -1</clus>
</clustering>
</event>
<event>
 6    0  0.5510638E+002  0.3086868E+03  0.7546771E-02  0.1080977E+00
         21   -1    0    0  502  501  0.00000000000E+00  0.00000000000E+00  0.48923057709E+03  0.48923057709E+03  0.00000000000E+00 0.  1.
         21   -1    0    0  506  502 -0.00000000000E+00 -0.00000000000E+00 -0.42000678528E+03  0.42000678528E+03  0.00000000000E+00 0.  1.
         21    1    1    2  503  505 -0.55561081317E+02  0.10817717077E+03  0.41365128501E+02  0.12845391348E+03  0.00000000000E+00 0. -1.
         21    1    1    2  504  503 -0.12828073745E+02  0.16521856228E+03 -0.18273802758E+02  0.16672031870E+03  0.00000000000E+00 0.  1.
         21    1    1    2  505  501 -0.20843982958E+02 -0.30952568300E+03  0.24356053371E+03  0.39441393693E+03  0.00000000000E+00 0.  1.
         21    1    1    2  506  504  0.89233138020E+02  0.36129949947E+02 -0.19742806765E+03  0.21964919326E+03  0.00000000000E+00 0.  1.
<scales pt_clust_3="72.54957" pt_clust_4="72.54957" pt_clust_5="296.84209" pt_clust_6="96.27007"></scales>
<clustering>
<clus scale="   72.550">  3  4 -1 -1</clus>
<clus scale="   96.270">  2  6  1 -1</clus>
<clus scale="  296.842">  1  5  2 -1</clus>
<clus scale="  296.842">  1  3  2 -1</clus>
</clustering>
</event>
<event>
 6    0  0.5510638E+002  0.6804164E+02  0.7546771E-02  0.1366882E+00
         21   -1    0    0  503  501  0.00000000000E+00  0.00000000000E+00  0.24430909226E+03  0.24430909226E+03  0.00000000000E+00 0.  1.
         21   -1    0    0  504  502 -0.00000000000E+00 -0.00000000000E+00 -0.18235044464E+03  0.18235044464E+03  0.00000000000E+00 0.  1.
         21    1    1    2  503  502 -0.39281375918E+02 -0.71674371122E+02  0.45483479294E+02  0.93536029734E+02  0.00000000000E+00 0.  1.
         21    1    1    2  504  505  0.64915717963E+02 -0.24834911624E+02 -0.12620459954E+03  0.14407784083E+03  0.00000000000E+00 0.  1.
         21    1    1    2  505  506 -0.34830302253E+02  0.42568357033E+02  0.11554448708E+03  0.12796774386E+03  0.00000000000E+00 0.  1.
         21    1    1    2  506  501  0.91959602081E+01  0.53940925712E+02  0.27135280778E+02  0.61077922474E+02  0.00000000000E+00 0.  1.
<scales pt_clust_3="64.07564" pt_clust_4="68.04164" pt_clust_5="14000.00000" pt_clust_6="54.71918"></scales>
<clustering>
<clus scale="   54.719">  1  6  2 -1</clus>
<clus scale="   64.076">  1  3  2 -1</clus>
<clus scale="   68.042">  2  4  1 -1</clus>
<clus scale="   54.719">  1  3  2 -1</clus>
</clustering>
</event>
<event>
 6    0  0.5510638E+002  0.1378709E+03  0.7546771E-02  0.1216223E+00
         21   -1    0    0  504  501  0.00000000000E+00  0.00000000000E+00  0.32648903083E+03  0.32648903083E+03  0.00000000000E+00 0. -1.
         21   -1    0    0  503  502 -0.00000000000E+00 -0.00000000000E+00 -0.16958473918E+03  0.16958473918E+03  0.00000000000E+00 0. -1.
         21    1    1    2  503  501 -0.28612368872E+02 -0.50257031323E+02 -0.44866908941E+02  0.73194783747E+02  0.00000000000E+00 0. -1.
         21    1    1    2  504  506 -0.96042010681E+01  0.57574007888E+02  0.94934675104E+02  0.11144325731E+03  0.00000000000E+00 0. -1.
         21    1    1    2  505  502  0.94373303794E+02 -0.69381849371E+02 -0.54872827060E+02  0.12934909602E+03  0.00000000000E+00 0. -1.
         21    1    1    2  506  505 -0.56156733854E+02  0.62064872806E+02  0.16170935254E+03  0.18208663293E+03  0.00000000000E+00 0. -1.
<scales pt_clust_3="57.83111" pt_clust_4="33.97968" pt_clust_5="131.72967" pt_clust_6="33.97968"></scales>
<clustering>
<clus scale="   33.980">  4  6 -1 -1</clus>
<clus scale="   57.831">  2  3  1 -1</clus>
<clus scale="  131.730">  2  5  1 -1</clus>
<clus scale="  137.871">  1  3  2 -1</clus>
</clustering>
</event>
<event>
 6    0  0.5510638E+002  0.2585388E+03  0.7546771E-02  0.1108024E+00
         21   -1    0    0  506  501  0.00000000000E+00  0.00000000000E+00  0.30713145568E+04  0.30713145568E+04  0.00000000000E+00 0. -1.
         21   -1    0    0  505  502 -0.00000000000E+00 -0.00000000000E+00 -0.11597261019E+03  0.11597261019E+03  0.00000000000E+00 0.  1.
         21    1    1    2  503  502  0.90664509666E+02  0.21641480636E+01  0.56634011950E+03  0.57355546184E+03  0.00000000000E+00 0.  1.
         21    1    1    2  504  501 -0.17695808838E+03 -0.13212384502E+02  0.11370328339E+03  0.21075381088E+03  0.00000000000E+00 0.  1.
         21    1    1    2  505  504 -0.64781571129E+02  0.15746453664E+01 -0.44267673656E+02  0.78477757339E+02  0.00000000000E+00 0.  1.
         21    1    1    2  506  503  0.15107514984E+03  0.94735910716E+01  0.23195662174E+04  0.23245001369E+04  0.00000000000E+00 0. -1.
<scales pt_clust_3="82.51595" pt_clust_4="234.82955" pt_clust_5="64.80071" pt_clust_6="82.51595"></scales>
<clustering>
<clus scale="   64.801">  2  5  1 -1</clus>
<clus scale="   82.516">  3  6 -1 -1</clus>
<clus scale="  234.830">  2  4  1 -1</clus>
<clus scale="  258.539">  1  3  2 -1</clus>
</clustering>
</event>
<event>
 6    0  0.5510638E+002  0.1406599E+03  0.7546771E-02  0.1212444E+00
         21   -1    0    0  504  501  0.00000000000E+00  0.00000000000E+00  0.38290085101E+03  0.38290085101E+03  0.00000000000E+00 0. -1.
         21   -1    0    0  503  502 -0.00000000000E+00 -0.00000000000E+00 -0.23318665196E+03  0.23318665196E+03  0.00000000000E+00 0.  1.
         21    1    1    2  503  501  0.19134895858E+02 -0.10400906081E+03 -0.87376006781E+02  0.13718088617E+03  0.00000000000E+00 0.  1.
         21    1    1    2  504  506 -0.80217310723E+02  0.45960704133E+02  0.26818046268E+03  0.28366875722E+03  0.00000000000E+00 0. -1.
         21    1    1    2  505  502  0.82792298502E+02  0.18198294519E+02 -0.88174813826E+02  0.12231328794E+03  0.00000000000E+00 0.  1.
         21    1    1    2  506  505 -0.21709883637E+02  0.39850062155E+02  0.57084556979E+02  0.72924571626E+02  0.00000000000E+00 0.  1.
<scales pt_clust_3="127.18644" pt_clust_4="42.08812" pt_clust_5="84.76876" pt_clust_6="42.08812"></scales>
<clustering>
<clus scale="   42.088">  4  6 -1 -1</clus>
<clus scale="   84.769">  2  5  1 -1</clus>
<clus scale="  127.186">  2  3  1 -1</clus>
<clus scale="  140.660">  1  3  2 -1</clus>
</clustering>
</event>
<event>
 6    0  0.5510638E+002  0.1351283E+03  0.7546771E-02  0.1220039E+00
         21   -1    0    0  506  501  0.00000000000E+00  0.00000000000E+00  0.90807756714E+02  0.90807756714E+02  0.00000000000E+00 0. -1.
         21   -1    0    0  504  502 -0.00000000000E+00 -0.00000000000E+00 -0.47476076796E+03  0.47476076796E+03  0.00000000000E+00 0. -1.
         21    1    1    2  503  502  0.28324067341E+02  0.57342076688E+02 -0.15291274073E+02  0.65758570639E+02  0.00000000000E+00 0. -1.
         21    1    1    2  504  505 -0.24220234186E+02  0.27043003444E+02 -0.21702235537E+03  0.22003782973E+03  0.00000000000E+00 0. -1.
         21    1    1    2  505  501 -0.62396687776E+02 -0.11780916325E+03 -0.16410484006E+03  0.21143023465E+03  0.00000000000E+00 0. -1.
         21    1    1    2  506  503  0.58292854620E+02  0.33424083123E+02  0.12465458263E+02  0.68341889659E+02  0.00000000000E+00 0. -1.
<scales pt_clust_3="47.20246" pt_clust_4="36.30350" pt_clust_5="126.59264" pt_clust_6="47.20246"></scales>
<clustering>
<clus scale="   36.303">  2  4  1 -1</clus>
<clus scale="   47.202">  3  6 -1 -1</clus>
<clus scale="  126.593">  2  5  1 -1</clus>
<clus scale="  135.128">  1  3  2 -1</clus>
</clustering>
</event>
<event>
 6    0  0.5510638E+002  0.1076409E+03  0.7546771E-02  0.1265002E+00
         21   -1    0    0  504  501  0.00000000000E+00  0.00000000000E+00  0.10496644809E+03  0.10496644809E+03  0.00000000000E+00 0.  1.
         21   -1    0    0  503  502 -0.00000000000E+00 -0.00000000000E+00 -0.38529167439E+03  0.38529167439E+03  0.00000000000E+00 0.  1.
         21    1    1    2  503  501  0.64937846283E+02  0.13347365153E+03 -0.36147127286E+02  0.15277026656E+03  0.00000000000E+00 0.  1.
         21    1    1    2  504  506  0.12092765851E+02 -0.76869440187E+02 -0.34154472342E+02  0.84980431874E+02  0.00000000000E+00 0.  1.
         21    1    1    2  505  502 -0.20436911124E+02  0.28294182264E+02 -0.32183010718E+02  0.47476038853E+02  0.00000000000E+00 0.  1.
         21    1    1    2  506  505 -0.56593701011E+02 -0.84898393610E+02 -0.17784061595E+03  0.20503138519E+03  0.00000000000E+00 0.  1.
<scales pt_clust_3="107.64086" pt_clust_4="72.49889" pt_clust_5="34.90312" pt_clust_6="14000.00000"></scales>
<clustering>
<clus scale="   34.903">  2  5  1 -1</clus>
<clus scale="   72.499">  1  4  2 -1</clus>
<clus scale="  107.641">  1  3  2 -1</clus>
<clus scale="   72.499">  1  3  2 -1</clus>
</clustering>
</event>
<event>
 6    0  0.5510638E+002  0.2385227E+03  0.7546771E-02  0.1120781E+00
         21   -1    0    0  503  501  0.00000000000E+00  0.00000000000E+00  0.36397195648E+03  0.36397195648E+03  0.00000000000E+00 0.  1.
         21   -1    0    0  506  502 -0.00000000000E+00 -0.00000000000E+00 -0.56071877135E+03  0.56071877135E+03  0.00000000000E+00 0.  1.
         21    1    1    2  503  505 -0.40348374744E+02 -0.67215163993E+02 -0.15518176457E+02  0.79916728009E+02  0.00000000000E+00 0.  1.
         21    1    1    2  504  502 -0.38698998852E+02  0.20273309206E+02 -0.39093540670E+03  0.39336892581E+03  0.00000000000E+00 0.  1.
         21    1    1    2  505  504 -0.66971180287E+02 -0.13849290482E+03  0.35030128998E+02  0.15777367845E+03  0.00000000000E+00 0.  1.
         21    1    1    2  506  501  0.14601855388E+03  0.18543475961E+03  0.17467663929E+03  0.29363139557E+03  0.00000000000E+00 0.  1.
<scales pt_clust_3="34.10698" pt_clust_4="43.68775" pt_clust_5="34.10698" pt_clust_6="233.68859"></scales>
<clustering>
<clus scale="   34.107">  3  5 -1 -1</clus>
<clus scale="   43.688">  2  4  1 -1</clus>
<clus scale="  233.689">  1  6  2 -1</clus>
<clus scale="  233.689">  1  3  2 -1</clus>
</clustering>
</event>
<event>
 6    0  0.5510638E+002  0.1023558E+03  0.7546771E-02  0.1275419E+00
         21   -1    0    0  502  501  0.00000000000E+00  0.00000000000E+00  0.12268215487E+04  0.12268215487E+04  0.00000000000E+00 0.  1.
         21   -1    0    0  506  502 -0.00000000000E+00 -0.00000000000E+00 -0.33253809859E+02  0.33253809859E+02  0.00000000000E+00 0.  1.
         21    1    1    2  503  505 -0.14747556029E+02  0.53646812987E+02  0.74802846760E+03  0.75009470021E+03  0.00000000000E+00 0.  1.
         21    1    1    2  504  501  0.33454053181E+02  0.12494440205E+02  0.11979439269E+03  0.12500392486E+03  0.00000000000E+00 0.  1.
         21    1    1    2  505  504 -0.39805322069E+02  0.41322579685E+02  0.23750066381E+03  0.24433293795E+03  0.00000000000E+00 0.  1.
         21    1    1    2  506  503  0.21098824916E+02 -0.10746383288E+03  0.88244214770E+02  0.14064379556E+03  0.00000000000E+00 0.  1.
<scales pt_clust_3="102.35578" pt_clust_4="35.71113" pt_clust_5="54.74474" pt_clust_6="14000.00000"></scales>
<clustering>
<clus scale="   35.711">  1  4  2 -1</clus>
<clus scale="   54.745">  1  5  2 -1</clus>
<clus scale="  102.356">  1  3  2 -1</clus>
<clus scale="   35.711">  1  3  2 -1</clus>
</clustering>
</event>
<event>
 6    0  0.5510638E+002  0.7504239E+02  0.7546771E-02  0.1343740E+00
         21   -1    0    0  504  501  0.00000000000E+00  0.00000000000E+00  0.38611939547E+02  0.38611939547E+02  0.00000000000E+00 0.  1.
         21   -1    0    0  505  502 -0.00000000000E+00 -0.00000000000E+00 -0.72861438240E+03  0.72861438240E+03  0.00000000000E+00 0.  1.
         21    1    1    2  503  506  0.28631088810E+02 -0.35736511589E+02 -0.16945088508E+03  0.17552902883E+03  0.00000000000E+00 0.  1.
         21    1    1    2  504  502 -0.12830966897E+03  0.52037661048E+02 -0.37972588214E+03  0.40418193291E+03  0.00000000000E+00 0.  1.
         21    1    1    2  505  503  0.40999149811E+02  0.13601604881E+02 -0.10270469800E+03  0.11141897923E+03  0.00000000000E+00 0.  1.
         21    1    1    2  506  501  0.58679430352E+02 -0.29902754340E+02 -0.38120977630E+02  0.76096380985E+02  0.00000000000E+00 0.  1.
<scales pt_clust_3="51.20818" pt_clust_4="14000.00000" pt_clust_5="43.19646" pt_clust_6="75.04239"></scales>
<clustering>
<clus scale="   43.196">  2  5  1 -1</clus>
<clus scale="   51.208">  2  3  1 -1</clus>
<clus scale="   75.042">  1  6  2 -1</clus>
<clus scale="   75.042">  1  3  2 -1</clus>
</clustering>
</event>
<event>
 6    0  0.5510638E+002  0.5919328E+02  0.7546771E-02  0.1401249E+00
         21   -1    0    0  506  501  0.00000000000E+00  0.00000000000E+00  0.28798463967E+03  0.28798463967E+03  0.00000000000E+00 0. -1.
         21   -1    0    0  505  502 -0.00000000000E+00 -0.00000000000E+00 -0.56143727880E+03  0.56143727880E+03  0.00000000000E+00 0. -1.
         21    1    1    2  503  502  0.25122665641E+02 -0.41185578089E+02 -0.11726086630E+03  0.12679712511E+03  0.00000000000E+00 0.  1.
         21    1    1    2  504  501 -0.59574622286E+02 -0.14899443317E+02  0.10708740915E+03  0.12344570560E+03  0.00000000000E+00 0. -1.
         21    1    1    2  505  504 -0.21227781453E+02  0.95540152468E+02 -0.41840893452E+03  0.42970289261E+03  0.00000000000E+00 0. -1.
         21    1    1    2  506  503  0.55679738098E+02 -0.39455131061E+02  0.15512975253E+03  0.16947619515E+03  0.00000000000E+00 0. -1.
<scales pt_clust_3="48.24314" pt_clust_4="14000.00000" pt_clust_5="55.87507" pt_clust_6="59.19328"></scales>
<clustering>
<clus scale="   48.243">  2  3  1 -1</clus>
<clus scale="   55.875">  2  5  1 -1</clus>
<clus scale="   59.193">  1  6  2 -1</clus>
<clus scale="   59.193">  1  3  2 -1</clus>
</clustering>
</event>
<event>
 6    0  0.5510638E+002  0.9594873E+02  0.7546771E-02  0.1289053E+00
         21   -1    0    0  506  501  0.00000000000E+00  0.00000000000E+00  0.13478516813E+03  0.13478516813E+03  0.00000000000E+00 0. -1.
         21   -1    0    0  505  502 -0.00000000000E+00 -0.00000000000E+00 -0.21560024871E+04  0.21560024871E+04  0.00000000000E+00 0. -1.
         21    1    1    2  503  501 -0.12564835940E+02 -0.75139090740E+02 -0.63225617741E+02  0.99001195943E+02  0.00000000000E+00 0. -1.
         21    1    1    2  504  502  0.24878692866E+02  0.60924100726E+02 -0.17644212059E+03  0.18831494186E+03  0.00000000000E+00 0. -1.
         21    1    1    2  505  503 -0.10815083883E+03 -0.92459850852E+01 -0.18686861104E+04  0.18718359627E+04  0.00000000000E+00 0. -1.
         21    1    1    2  506  504  0.95836981902E+02  0.23460975100E+02  0.87136529737E+02  0.13163555472E+03  0.00000000000E+00 0. -1.
<scales pt_clust_3="73.54656" pt_clust_4="65.80802" pt_clust_5="14000.00000" pt_clust_6="95.94873"></scales>
<clustering>
<clus scale="   65.808">  2  4  1 -1</clus>
<clus scale="   73.547">  1  3  2 -1</clus>
<clus scale="   95.949">  1  6  2 -1</clus>
<clus scale="   73.547">  1  3  2 -1</clus>
</clustering>
</event>
<event>
 6    0  0.5510638E+002  0.1276603E+03  0.7546771E-02  0.1230969E+00
         21   -1    0    0  504  501  0.00000000000E+00  0.00000000000E+00  0.51807164100E+02  0.51807164100E+02  0.00000000000E+00 0. -1.
         21   -1    0    0  503  502 -0.00000000000E+00 -0.00000000000E+00 -0.66514909403E+03  0.66514909403E+03  0.00000000000E+00 0.  1.
         21    1    1    2  503  506 -0.40131332116E+02 -0.10635315350E+03 -0.47153545179E+03  0.48504350256E+03  0.00000000000E+00 0.  1.
         21    1    1    2  504  505  0.29249081833E+02  0.82086117392E+02 -0.37075945490E+02  0.94700924972E+02  0.00000000000E+00 0. -1.
         21    1    1    2  505  502  0.21248717880E+02  0.53282868630E+02 -0.74719819775E+02  0.94199912782E+02  0.00000000000E+00 0. -1.
         21    1    1    2  506  501 -0.10366467597E+02 -0.29015832517E+02 -0.30010712872E+02  0.43011917816E+02  0.00000000000E+00 0. -1.
<scales pt_clust_3="118.26543" pt_clust_4="41.66197" pt_clust_5="41.66197" pt_clust_6="30.81205"></scales>
<clustering>
<clus scale="   30.812">  1  6  2 -1</clus>
<clus scale="   41.662">  4  5 -1 -1</clus>
<clus scale="  118.265">  2  3  1 -1</clus>
<clus scale="   30.812">  1  3  2 -1</clus>
</clustering>
</event>
<event>
 6    0  0.5510638E+002  0.8876396E+02  0.7546771E-02  0.1305873E+00
         21   -1    0    0  503  501  0.00000000000E+00  0.00000000000E+00  0.37817287419E+03  0.37817287419E+03  0.00000000000E+00 0. -1.
         21   -1    0    0  504  502 -0.00000000000E+00 -0.00000000000E+00 -0.51922935986E+02  0.51922935986E+02  0.00000000000E+00 0.  1.
         21    1    1    2  503  505  0.39809638491E+02 -0.94265329974E+02  0.15415294743E+03  0.18502402804E+03  0.00000000000E+00 0. -1.
         21    1    1    2  504  506 -0.26344582283E+02  0.23802107325E+02  0.10047297220E+02  0.36898855133E+02  0.00000000000E+00 0.  1.
         21    1    1    2  505  502 -0.27862396347E+02 -0.13710482232E+02  0.80477192932E+01  0.32078906451E+02  0.00000000000E+00 0.  1.
         21    1    1    2  506  501  0.14397340139E+02  0.84173704882E+02  0.15400197426E+03  0.17609402055E+03  0.00000000000E+00 0. -1.
<scales pt_clust_3="88.76396" pt_clust_4="40.54660" pt_clust_5="31.05303" pt_clust_6="14000.00000"></scales>
<clustering>
<clus scale="   31.053">  2  5  1 -1</clus>
<clus scale="   40.547">  2  4  1 -1</clus>
<clus scale="   88.764">  2  3  1 -1</clus>
<clus scale="   88.764">  1  3  2 -1</clus>
</clustering>
</event>
<event>
 6    0  0.5510638E+002  0.1308532E+03  0.7546771E-02  0.1226195E+00
         21   -1    0    0  502  501  0.00000000000E+00  0.00000000000E+00  0.41536969176E+03  0.41536969176E+03  0.00000000000E+00 0. -1.
         21   -1    0    0  506  502 -0.00000000000E+00 -0.00000000000E+00 -0.97239106107E+02  0.97239106107E+02  0.00000000000E+00 0. -1.
         21    1    1    2  503  505 -0.36619764801E+02 -0.50770205857E+02  0.36361964812E+01  0.62704408949E+02  0.00000000000E+00 0. -1.
         21    1    1    2  504  503 -0.25384866234E+02 -0.38785482072E+02  0.48779929327E+02  0.67291801569E+02  0.00000000000E+00 0. -1.
         21    1    1    2  505  501  0.46807686119E+02  0.11773203637E+03  0.30597922684E+03  0.33117228013E+03  0.00000000000E+00 0. -1.
         21    1    1    2  506  504  0.15196944917E+02 -0.28176348444E+02 -0.40264766991E+02  0.51440307224E+02  0.00000000000E+00 0. -1.
<scales pt_clust_3="39.44812" pt_clust_4="39.44812" pt_clust_5="121.80222" pt_clust_6="32.01334"></scales>
<clustering>
<clus scale="   32.013">  2  6  1 -1</clus>
<clus scale="   39.448">  3  4 -1 -1</clus>
<clus scale="  121.802">  1  5  2 -1</clus>
<clus scale="  121.802">  1  3  2 -1</clus>
</clustering>
</event>
<event>
 6    0  0.5510638E+002  0.9178539E+02  0.7546771E-02  0.1298585E+00
         21   -1    0    0  506  501  0.00000000000E+00  0.00000000000E+00  0.46474599163E+02  0.46474599163E+02  0.00000000000E+00 0.  1.
         21   -1    0    0  504  502 -0.00000000000E+00 -0.00000000000E+00 -0.98900214711E+03  0.98900214711E+03  0.00000000000E+00 0. -1.
         21    1    1    2  503  505  0.66602297871E+00 -0.88035214075E+02 -0.12832214851E+03  0.15561881732E+03  0.00000000000E+00 0. -1.
         21    1    1    2  504  501 -0.37969741765E+02  0.33561854386E+02 -0.57878494908E+03  0.58099923979E+03  0.00000000000E+00 0. -1.
         21    1    1    2  505  502 -0.30191309469E+02 -0.23881397341E+02 -0.17479097370E+03  0.17897966586E+03  0.00000000000E+00 0. -1.
         21    1    1    2  506  503  0.67495028256E+02  0.78354757030E+02 -0.60629476660E+02  0.11987902330E+03  0.00000000000E+00 0.  1.
<scales pt_clust_3="14000.00000" pt_clust_4="61.77478" pt_clust_5="38.49463" pt_clust_6="91.78539"></scales>
<clustering>
<clus scale="   38.495">  2  5  1 -1</clus>
<clus scale="   61.775">  2  4  1 -1</clus>
<clus scale="   91.785">  1  6  2 -1</clus>
<clus scale="   91.785">  1  3  2 -1</clus>
</clustering>
</event>
<event>
 6    0  0.5510638E+002  0.1042518E+03  0.7546771E-02  0.1271601E+00
         21   -1    0    0  506  501  0.00000000000E+00  0.00000000000E+00  0.23275398402E+02  0.23275398402E+02  0.00000000000E+00 0. -1.
         21   -1    0    0  503  502 -0.00000000000E+00 -0.00000000000E+00 -0.11637901901E+04  0.11637901901E+04  0.00000000000E+00 0. -1.
         21    1    1    2  503  501  0.22291952796E+02 -0.21397731135E+02 -0.26302946180E+03  0.26483823710E+03  0.00000000000E+00 0. -1.
         21    1    1    2  504  505 -0.89535395882E+02 -0.49996406206E+02 -0.29017762178E+03  0.30776497516E+03  0.00000000000E+00 0. -1.
         21    1    1    2  505  502 -0.32012403566E+02  0.33963398487E+02 -0.36689183614E+03  0.36984851743E+03  0.00000000000E+00 0. -1.
         21    1    1    2  506  504  0.99255846652E+02  0.37430738855E+02 -0.22041587200E+03  0.24461385883E+03  0.00000000000E+00 0. -1.
<scales pt_clust_3="30.89974" pt_clust_4="104.25184" pt_clust_5="34.04474" pt_clust_6="14000.00000"></scales>
<clustering>
<clus scale="   30.900">  2  3  1 -1</clus>
<clus scale="   34.045">  2  5  1 -1</clus>
<clus scale="  104.252">  2  4  1 -1</clus>
<clus scale="  104.252">  1  3  2 -1</clus>
</clustering>
</event>
<event>
 6    0  0.5510638E+002  0.1986428E+03  0.7546771E-02  0.1150889E+00
         21   -1    0    0  504  501  0.00000000000E+00  0.00000000000E+00  0.51665635129E+02  0.51665635129E+02  0.00000000000E+00 0.  1.
         21   -1    0    0  506  502 -0.00000000000E+00 -0.00000000000E+00 -0.16260824429E+04  0.16260824429E+04  0.00000000000E+00 0.  1.
         21    1    1    2  503  501  0.49993990660E+02  0.17949078088E+03 -0.42255652831E+03  0.46181203876E+03  0.00000000000E+00 0.  1.
         21    1    1    2  504  502 -0.11636938908E+03  0.78654718057E+01 -0.13901105211E+03  0.18146011399E+03  0.00000000000E+00 0.  1.
         21    1    1    2  505  503  0.61180704565E+02 -0.14259384207E+03 -0.89409957448E+03  0.90746357034E+03  0.00000000000E+00 0.  1.
         21    1    1    2  506  505  0.51946938598E+01 -0.44762410623E+02 -0.11874965287E+03  0.12701235493E+03  0.00000000000E+00 0.  1.
<scales pt_clust_3="186.25293" pt_clust_4="116.63490" pt_clust_5="37.21503" pt_clust_6="37.21503"></scales>
<clustering>
<clus scale="   37.215">  5  6 -1 -1</clus>
<clus scale="  116.635">  1  4  2 -1</clus>
<clus scale="  186.253">  1  3  2 -1</clus>
<clus scale="  116.635">  1  3  2 -1</clus>
</clustering>
</event>
<event>
 6    0  0.5510638E+002  0.1405387E+03  0.7546771E-02  0.1212606E+00
         21   -1    0    0  504  501  0.00000000000E+00  0.00000000000E+00  0.27072840106E+03  0.27072840106E+03  0.00000000000E+00 0.  1.
         21   -1    0    0  506  502 -0.00000000000E+00 -0.00000000000E+00 -0.49720774536E+03  0.49720774536E+03  0.00000000000E+00 0.  1.
         21    1    1    2  503  505  0.54245616475E+02  0.39073260132E+02  0.67079268184E+02  0.94704460212E+02  0.00000000000E+00 0.  1.
         21    1    1    2  504  502 -0.57742909434E+02 -0.45951170442E+02 -0.11179357843E+03  0.13395356596E+03  0.00000000000E+00 0. -1.
         21    1    1    2  505  501  0.68573049393E+02  0.33492123450E+02  0.16693968520E+03  0.18355610568E+03  0.00000000000E+00 0.  1.
         21    1    1    2  506  503 -0.65075756433E+02 -0.26614213139E+02 -0.34870471926E+03  0.35572201457E+03  0.00000000000E+00 0.  1.
<scales pt_clust_3="45.02238" pt_clust_4="132.05001" pt_clust_5="45.02238" pt_clust_6="70.30768"></scales>
<clustering>
<clus scale="   45.022">  3  5 -1 -1</clus>
<clus scale="   70.308">  2  6  1 -1</clus>
<clus scale="  132.050">  2  4  1 -1</clus>
<clus scale="  140.539">  1  3  2 -1</clus>
</clustering>
</event>
<event>
 6    0  0.5510638E+002  0.7517293E+02  0.7546771E-02  0.1343336E+00
         21   -1    0    0  506  501  0.00000000000E+00  0.00000000000E+00  0.11482300124E+04  0.11482300124E+04  0.00000000000E+00 0. -1.
         21   -1    0    0  503  502 -0.00000000000E+00 -0.00000000000E+00 -0.12765853338E+03  0.12765853338E+03  0.00000000000E+00 0.  1.
         21    1    1    2  503  505 -0.60056874478E+02 -0.25718267976E+02 -0.84691146749E+02  0.10696189891E+03  0.00000000000E+00 0.  1.
         21    1    1    2  504  502  0.17354815702E+02 -0.38152880413E+02 -0.88388249581E+01  0.42836395023E+02  0.00000000000E+00 0.  1.
         21    1    1    2  505  501 -0.49932714754E+02  0.47923823952E+02  0.42269089109E+03  0.42831945825E+03  0.00000000000E+00 0. -1.
         21    1    1    2  506  504  0.92634773529E+02  0.15947324436E+02  0.69141055967E+03  0.69777079363E+03  0.00000000000E+00 0. -1.
<scales pt_clust_3="14000.00000" pt_clust_4="41.91458" pt_clust_5="68.13467" pt_clust_6="75.17293"></scales>
<clustering>
<clus scale="   41.915">  2  4  1 -1</clus>
<clus scale="   68.135">  1  5  2 -1</clus>
<clus scale="   75.173">  1  6  2 -1</clus>
<clus scale="   68.135">  1  3  2 -1</clus>
</clustering>
</event>
<event>
 6    0  0.5510638E+002  0.1656199E+03  0.7546771E-02  0.1182494E+00
         21   -1    0    0  506  501  0.00000000000E+00  0.00000000000E+00  0.12916501871E+04  0.12916501871E+04  0.00000000000E+00 0. -1.
         21   -1    0    0  503  502 -0.00000000000E+00 -0.00000000000E+00 -0.70730945804E+02  0.70730945804E+02  0.00000000000E+00 0. -1.
         21    1    1    2  503  501  0.12300555600E+02  0.60627136919E+02 -0.19356467908E+02  0.64819952553E+02  0.00000000000E+00 0. -1.
         21    1    1    2  504  502  0.13783441165E+03 -0.67358985321E+02  0.25017281309E+03  0.29346549089E+03  0.00000000000E+00 0. -1.
         21    1    1    2  505  504 -0.71497133762E+02  0.22641730552E+02  0.66602663063E+03  0.67023575017E+03  0.00000000000E+00 0. -1.
         21    1    1    2  506  505 -0.78637833490E+02 -0.15909882150E+02  0.32407626544E+03  0.33385993924E+03  0.00000000000E+00 0. -1.
<scales pt_clust_3="61.86237" pt_clust_4="148.69889" pt_clust_5="72.39284" pt_clust_6="72.39284"></scales>
<clustering>
<clus scale="   61.862">  2  3  1 -1</clus>
<clus scale="   72.393">  5  6 -1 -1</clus>
<clus scale="  148.699">  2  4  1 -1</clus>
<clus scale="  165.620">  1  3  2 -1</clus>
</clustering>
</event>
<event>
 6    0  0.5510638E+002  0.1152453E+03  0.7546771E-02  0.1251153E+00
         21   -1    0    0  503  501  0.00000000000E+00  0.00000000000E+00  0.40309987715E+02  0.40309987715E+02  0.00000000000E+00 0.  1.
         21   -1    0    0  501  502 -0.00000000000E+00 -0.00000000000E+00 -0.11033476597E+04  0.11033476597E+04  0.00000000000E+00 0. -1.
         21    1    1    2  503  505  0.56897083977E+02  0.31800630234E+02 -0.19414208451E+02  0.68010806040E+02  0.00000000000E+00 0.  1.
         21    1    1    2  504  506 -0.12868954809E+03 -0.70120626969E+02 -0.61330352909E+03  0.63057047260E+03  0.00000000000E+00 0. -1.
         21    1    1    2  505  504  0.35214044170E+02  0.85323867786E+01 -0.49489730356E+02  0.61335666146E+02  0.00000000000E+00 0.  1.
         21    1    1    2  506  502  0.36578419945E+02  0.29787609956E+02 -0.38083020410E+03  0.38374070265E+03  0.00000000000E+00 0. -1.
<scales pt_clust_3="32.25462" pt_clust_4="106.81735" pt_clust_5="32.25462" pt_clust_6="47.17290"></scales>
<clustering>
<clus scale="   32.255">  3  5 -1 -1</clus>
<clus scale="   47.173">  2  6  1 -1</clus>
<clus scale="  106.817">  2  4  1 -1</clus>
<clus scale="  115.245">  1  3  2 -1</clus>
</clustering>
</event>
<event>
 6    0  0.5510638E+002  0.8809737E+02  0.7546771E-02  0.1307526E+00
         21   -1    0    0  505  501  0.00000000000E+00  0.00000000000E+00  0.63985212776E+03  0.63985212776E+03  0.00000000000E+00 0. -1.
         21   -1    0    0  503  502 -0.00000000000E+00 -0.00000000000E+00 -0.50583839549E+03  0.50583839549E+03  0.00000000000E+00 0.  1.
         21    1    1    2  503  504  0.55569248931E+02 -0.68375497126E+02 -0.47754757584E+03  0.48560769889E+03  0.00000000000E+00 0.  1.
         21    1    1    2  504  501 -0.36517640720E+02 -0.15503420266E+02  0.36172034238E+02  0.53687151019E+02  0.00000000000E+00 0. -1.
         21    1    1    2  505  506  0.67760008619E+02  0.42599672303E+02  0.14723929405E+03  0.16758747137E+03  0.00000000000E+00 0. -1.
         21    1    1    2  506  502 -0.86811616831E+02  0.41279245088E+02  0.42814997983E+03  0.43880820197E+03  0.00000000000E+00 0. -1.
<scales pt_clust_3="88.09737" pt_clust_4="39.67233" pt_clust_5="69.69502" pt_clust_6="14000.00000"></scales>
<clustering>
<clus scale="   39.672">  1  4  2 -1</clus>
<clus scale="   69.695">  1  5  2 -1</clus>
<clus scale="   88.097">  2  3  1 -1</clus>
<clus scale="   39.672">  1  3  2 -1</clus>
</clustering>
</event>
<event>
 6    0  0.5510638E+002  0.1425466E+03  0.7546771E-02  0.1209943E+00
         21   -1    0    0  503  501  0.00000000000E+00  0.00000000000E+00  0.53682052979E+03  0.53682052979E+03  0.00000000000E+00 0. -1.
         21   -1    0    0  504  502 -0.00000000000E+00 -0.00000000000E+00 -0.11610858663E+03  0.11610858663E+03  0.00000000000E+00 0. -1.
         21    1    1    2  503  502 -0.12776401610E+03  0.11455311727E+03  0.63871471877E+02  0.18310004207E+03  0.00000000000E+00 0. -1.
         21    1    1    2  504  506  0.26378025225E+01 -0.48817587345E+02 -0.12807547896E+02  0.50538580505E+02  0.00000000000E+00 0. -1.
         21    1    1    2  505  501 -0.22385992846E+01 -0.40676027193E+02  0.20811346537E+03  0.21206311556E+03  0.00000000000E+00 0. -1.
         21    1    1    2  506  505  0.12736481286E+03 -0.25059502734E+02  0.16153455381E+03  0.20722737828E+03  0.00000000000E+00 0. -1.
<scales pt_clust_3="142.54655" pt_clust_4="51.22768" pt_clust_5="40.73758" pt_clust_6="14000.00000"></scales>
<clustering>
<clus scale="   40.738">  1  5  2 -1</clus>
<clus scale="   51.228">  2  4  1 -1</clus>
<clus scale="  142.547">  2  3  1 -1</clus>
<clus scale="   40.738">  1  3  2 -1</clus>
</clustering>
</event>
<event>
 6    0  0.5510638E+002  0.9103734E+02  0.7546771E-02  0.1300359E+00
         21   -1    0    0  504  501  0.00000000000E+00  0.00000000000E+00  0.30982928406E+03  0.30982928406E+03  0.00000000000E+00 0. -1.
         21   -1    0    0  506  502 -0.00000000000E+00 -0.00000000000E+00 -0.14500825837E+03  0.14500825837E+03  0.00000000000E+00 0. -1.
         21    1    1    2  503  502  0.87326030581E+02  0.10358708641E+02 -0.82240658200E+02  0.12040209435E+03  0.00000000000E+00 0. -1.
         21    1    1    2  504  503 -0.61661068437E+02  0.56675814744E+02  0.16299029075E+03  0.18324865680E+03  0.00000000000E+00 0. -1.
         21    1    1    2  505  501 -0.30927096534E+02 -0.28884677571E+02  0.10070650777E+03  0.10923648935E+03  0.00000000000E+00 0. -1.
         21    1    1    2  506  505  0.52621343903E+01 -0.38149845815E+02 -0.16635114626E+02  0.41950301938E+02  0.00000000000E+00 0. -1.
<scales pt_clust_3="91.03734" pt_clust_4="14000.00000" pt_clust_5="43.15157" pt_clust_6="38.51105"></scales>
<clustering>
<clus scale="   38.511">  2  6  1 -1</clus>
<clus scale="   43.152">  1  5  2 -1</clus>
<clus scale="   91.037">  2  3  1 -1</clus>
<clus scale="   43.152">  1  3  2 -1</clus>
</clustering>
</event>
<event>
 6    0  0.5510638E+002  0.8502581E+02  0.7546771E-02  0.1315365E+00
         21   -1    0    0  506  501  0.00000000000E+00  0.00000000000E+00  0.27933732019E+03  0.27933732019E+03  0.00000000000E+00 0. -1.
         21   -1    0    0  505  502 -0.00000000000E+00 -0.00000000000E+00 -0.33140036632E+03  0.33140036632E+03  0.00000000000E+00 0. -1.
         21    1    1    2  503  502  0.62209286213E+02 -0.82513215086E+02 -0.14333698102E+03  0.17670290344E+03  0.00000000000E+00 0. -1.
         21    1    1    2  504  501 -0.23535534112E+02  0.34310584560E+02  0.76120815166E+02  0.86749732451E+02  0.00000000000E+00 0. -1.
         21    1    1    2  505  504 -0.19503878481E+02  0.75009846112E+02 -0.15535848356E+03  0.17361778913E+03  0.00000000000E+00 0.  1.
         21    1    1    2  506  503 -0.19169873621E+02 -0.26807215585E+02  0.17051160328E+03  0.17366726150E+03  0.00000000000E+00 0. -1.
<scales pt_clust_3="85.02581" pt_clust_4="40.56748" pt_clust_5="14000.00000" pt_clust_6="32.95620"></scales>
<clustering>
<clus scale="   32.956">  1  6  2 -1</clus>
<clus scale="   40.567">  1  4  2 -1</clus>
<clus scale="   85.026">  1  3  2 -1</clus>
<clus scale="   32.956">  1  3  2 -1</clus>
</clustering>
</event>
<event>
 6    0  0.5510638E+002  0.1209283E+03  0.7546771E-02  0.1241574E+00
         21   -1    0    0  503  501  0.00000000000E+00  0.00000000000E+00  0.75319202456E+03  0.75319202456E+03  0.00000000000E+00 0.  1.
         21   -1    0    0  505  502 -0.00000000000E+00 -0.00000000000E+00 -0.45985907037E+03  0.45985907037E+03  0.00000000000E+00 0.  1.
         21    1    1    2  503  504  0.36217799500E+02 -0.64107004906E+01  0.12465798408E+03  0.12997091627E+03  0.00000000000E+00 0.  1.
         21    1    1    2  504  506  0.53975211429E+02  0.69127289794E+02  0.20640875156E+03  0.22426876368E+03  0.00000000000E+00 0.  1.
         21    1    1    2  505  501 -0.13642780322E+03 -0.10557095670E+03  0.39000480355E+03  0.42645224725E+03  0.00000000000E+00 0.  1.
         21    1    1    2  506  502  0.46234792289E+02  0.42854367401E+02 -0.42773858500E+03  0.43235916773E+03  0.00000000000E+00 0.  1.
<scales pt_clust_3="36.78078" pt_clust_4="14000.00000" pt_clust_5="120.92826" pt_clust_6="63.12294"></scales>
<clustering>
<clus scale="   36.781">  1  3  2 -1</clus>
<clus scale="   63.123">  2  6  1 -1</clus>
<clus scale="  120.928">  2  5  1 -1</clus>
<clus scale="   36.781">  1  3  2 -1</clus>
</clustering>
</event>
<event>
 6    0  0.5510638E+002  0.7357073E+02  0.7546771E-02  0.1348355E+00
         21   -1    0    0  505  501  0.00000000000E+00  0.00000000000E+00  0.46417283608E+03  0.46417283608E+03  0.00000000000E+00 0.  1.
         21   -1    0    0  506  502 -0.00000000000E+00 -0.00000000000E+00 -0.47487466194E+03  0.47487466194E+03  0.00000000000E+00 0.  1.
         21    1    1    2  503  504  0.23891391309E+02 -0.78826038369E+02 -0.14196522142E+03  0.16412942148E+03  0.00000000000E+00 0.  1.
         21    1    1    2  504  501  0.95023294411E+00 -0.49284568587E+02  0.10651052007E+03  0.11736423020E+03  0.00000000000E+00 0.  1.
         21    1    1    2  505  502  0.18684270870E+02  0.71162491503E+02  0.33302654723E+03  0.34105700892E+03  0.00000000000E+00 0.  1.
         21    1    1    2  506  503 -0.43525895124E+02  0.56948115453E+02 -0.30827367175E+03  0.31649683742E+03  0.00000000000E+00 0.  1.
<scales pt_clust_3="73.57073" pt_clust_4="49.29373" pt_clust_5="30.98530" pt_clust_6="14000.00000"></scales>
<clustering>
<clus scale="   49.294">  1  4  2 -1</clus>
<clus scale="   30.985">  1  5  2 -1</clus>
<clus scale="   73.571">  1  3  2 -1</clus>
<clus scale="   49.294">  1  3  2 -1</clus>
</clustering>
</event>
<event>
 6    0  0.5510638E+002  0.1312566E+03  0.7546771E-02  0.1225603E+00
         21   -1    0    0  505  501  0.00000000000E+00  0.00000000000E+00  0.49247647301E+03  0.49247647301E+03  0.00000000000E+00 0.  1.
         21   -1    0    0  506  502 -0.00000000000E+00 -0.00000000000E+00 -0.17043857661E+03  0.17043857661E+03  0.00000000000E+00 0.  1.
         21    1    1    2  503  502 -0.53538565187E+02  0.32954423578E+02 -0.77834306414E+02  0.10005274234E+03  0.00000000000E+00 0.  1.
         21    1    1    2  504  503 -0.77557065507E+00 -0.10353343117E+03  0.71214631183E+02  0.12566342576E+03  0.00000000000E+00 0.  1.
         21    1    1    2  505  504  0.13210992250E+03 -0.42021753982E+02  0.22976127150E+03  0.26834511606E+03  0.00000000000E+00 0.  1.
         21    1    1    2  506  501 -0.77795786659E+02  0.11260076157E+03  0.98896300126E+02  0.16885376545E+03  0.00000000000E+00 0.  1.
<scales pt_clust_3="62.86789" pt_clust_4="94.38765" pt_clust_5="14000.00000" pt_clust_6="131.25657"></scales>
<clustering>
<clus scale="   62.868">  2  3  1 -1</clus>
<clus scale="   94.388">  2  4  1 -1</clus>
<clus scale="  131.257">  2  6  1 -1</clus>
<clus scale="  131.257">  1  3  2 -1</clus>
</clustering>
</event>
<event>
 6    0  0.5510638E+002  0.9541997E+02  0.7546771E-02  0.1290233E+00
         21   -1    0    0  503  501  0.00000000000E+00  0.00000000000E+00  0.18672190630E+03  0.18672190630E+03  0.00000000000E+00 0. -1.
         21   -1    0    0  505  502 -0.00000000000E+00 -0.00000000000E+00 -0.30322253381E+03  0.30322253381E+03  0.00000000000E+00 0. -1.
         21    1    1    2  503  504  0.17423406195E+02  0.31774373434E+02  0.44355665997E+02  0.57276618237E+02  0.00000000000E+00 0.  1.
         21    1    1    2  504  506 -0.58499105417E+02  0.82961408483E+02  0.86954420469E+02  0.13366305350E+03  0.00000000000E+00 0. -1.
         21    1    1    2  505  501  0.18512659540E+02 -0.66649504681E+02 -0.31034230496E+02  0.75815555792E+02  0.00000000000E+00 0. -1.
         21    1    1    2  506  502  0.22563039682E+02 -0.48086277236E+02 -0.21677648348E+03  0.22318921257E+03  0.00000000000E+00 0. -1.
<scales pt_clust_3="36.23791" pt_clust_4="14000.00000" pt_clust_5="95.41997" pt_clust_6="52.61717"></scales>
<clustering>
<clus scale="   36.238">  1  3  2 -1</clus>
<clus scale="   52.617">  2  6  1 -1</clus>
<clus scale="   95.420">  2  5  1 -1</clus>
<clus scale="   36.238">  1  3  2 -1</clus>
</clustering>
</event>
<event>
 6    0  0.5510638E+002  0.2041084E+03  0.7546771E-02  0.1146318E+00
         21   -1    0    0  504  501  0.00000000000E+00  0.00000000000E+00  0.11762187194E+03  0.11762187194E+03  0.00000000000E+00 0. -1.
         21   -1    0    0  506  502 -0.00000000000E+00 -0.00000000000E+00 -0.86767362541E+03  0.86767362541E+03  0.00000000000E+00 0. -1.
         21    1    1    2  503  505 -0.76839158979E+02  0.76359925078E+01 -0.54747112121E+02  0.94656278290E+02  0.00000000000E+00 0. -1.
         21    1    1    2  504  503 -0.97174117298E+02  0.81083293919E+01  0.18221138310E+02  0.99199616730E+02  0.00000000000E+00 0. -1.
         21    1    1    2  505  502 -0.73935399208E+02 -0.13439501994E+02 -0.30001340139E+03  0.30928159416E+03  0.00000000000E+00 0. -1.
         21    1    1    2  506  501  0.24794867548E+03 -0.23048199057E+01 -0.41351237826E+03  0.48215800817E+03  0.00000000000E+00 0. -1.
<scales pt_clust_3="67.28699" pt_clust_4="67.28699" pt_clust_5="75.14695" pt_clust_6="189.58578"></scales>
<clustering>
<clus scale="   67.287">  3  4 -1 -1</clus>
<clus scale="   75.147">  2  5  1 -1</clus>
<clus scale="  189.586">  2  6  1 -1</clus>
<clus scale="  204.108">  1  3  2 -1</clus>
</clustering>
</event>
<event>
 6    0  0.5510638E+002  0.1462459E+03  0.7546771E-02  0.1205163E+00
         21   -1    0    0  504  501  0.00000000000E+00  0.00000000000E+00  0.22790662809E+03  0.22790662809E+03  0.00000000000E+00 0.  1.
         21   -1    0    0  503  502 -0.00000000000E+00 -0.00000000000E+00 -0.10322205336E+04  0.10322205336E+04  0.00000000000E+00 0.  1.
         21    1    1    2  503  501 -0.12247501896E+03 -0.13967740005E+03 -0.85102900891E+03  0.87106847053E+03  0.00000000000E+00 0.  1.
         21    1    1    2  504  505 -0.48359876806E+01  0.52482124312E+02  0.57554033961E+02  0.78039906293E+02  0.00000000000E+00 0. -1.
         21    1    1    2  505  506  0.72530705775E+02  0.55805005858E+02  0.12866599444E+03  0.15789186199E+03  0.00000000000E+00 0.  1.
         21    1    1    2  506  502  0.54780300869E+02  0.31390269881E+02 -0.13950492496E+03  0.15312692283E+03  0.00000000000E+00 0.  1.
<scales pt_clust_3="129.26967" pt_clust_4="51.90065" pt_clust_5="51.90065" pt_clust_6="63.13660"></scales>
<clustering>
<clus scale="   51.901">  4  5 -1 -1</clus>
<clus scale="   63.137">  2  6  1 -1</clus>
<clus scale="  129.270">  2  3  1 -1</clus>
<clus scale="  146.246">  1  3  2 -1</clus>
</clustering>
</event>
<event>
 6    0  0.5510638E+002  0.1260140E+03  0.7546771E-02  0.1233493E+00
         21   -1    0    0  504  501  0.00000000000E+00  0.00000000000E+00  0.13295815007E+03  0.13295815007E+03  0.00000000000E+00 0.  1.
         21   -1    0    0  506  502 -0.00000000000E+00 -0.00000000000E+00 -0.39562896942E+03  0.39562896942E+03  0.00000000000E+00 0.  1.
         21    1    1    2  503  501 -0.53616949380E+02 -0.94452799121E+02 -0.14898304501E+03  0.18436934730E+03  0.00000000000E+00 0.  1.
         21    1    1    2  504  505  0.38437611195E+02 -0.41165556152E+01  0.31142739581E+02  0.49641376020E+02  0.00000000000E+00 0. -1.
         21    1    1    2  505  502  0.13261183164E+01  0.13546770425E+03  0.90041075881E+01  0.13577308805E+03  0.00000000000E+00 0.  1.
         21    1    1    2  506  503  0.13853219869E+02 -0.36898349517E+02 -0.15383462151E+03  0.15880330813E+03  0.00000000000E+00 0.  1.
<scales pt_clust_3="126.01403" pt_clust_4="38.65742" pt_clust_5="14000.00000" pt_clust_6="39.89000"></scales>
<clustering>
<clus scale="   38.657">  1  4  2 -1</clus>
<clus scale="   39.890">  2  6  1 -1</clus>
<clus scale="  126.014">  2  3  1 -1</clus>
<clus scale="   38.657">  1  3  2 -1</clus>
</clustering>
</event>
<event>
 6    0  0.5510638E+002  0.1010797E+03  0.7546771E-02  0.1278042E+00
         21   -1    0    0  506  501  0.00000000000E+00  0.00000000000E+00  0.20014053555E+03  0.20014053555E+03  0.00000000000E+00 0. -1.
         21   -1    0    0  504  502 -0.00000000000E+00 -0.00000000000E+00 -0.49837307466E+03  0.49837307466E+03  0.00000000000E+00 0.  1.
         21    1    1    2  503  505  0.18278040315E+02  0.10838919661E+03  0.98308261959E+02  0.14746802728E+03  0.00000000000E+00 0. -1.
         21    1    1    2  504  501 -0.96493145138E+01  0.30620575223E+02 -0.26049253275E+03  0.26246349939E+03  0.00000000000E+00 0.  1.
         21    1    1    2  505  502 -0.80479549010E+02 -0.78604819376E+02 -0.15627866570E+03  0.19255829453E+03  0.00000000000E+00 0.  1.
         21    1    1    2  506  503  0.71850823209E+02 -0.60404952458E+02  0.20230397375E+02  0.96023789006E+02  0.00000000000E+00 0. -1.
<scales pt_clust_3="14000.00000" pt_clust_4="32.10497" pt_clust_5="101.07966" pt_clust_6="89.57720"></scales>
<clustering>
<clus scale="   32.105">  2  4  1 -1</clus>
<clus scale="   89.577">  1  6  2 -1</clus>
<clus scale="  101.080">  2  5  1 -1</clus>
<clus scale="   89.577">  1  3  2 -1</clus>
</clustering>
</event>
<event>
 6    0  0.5510638E+002  0.1128238E+03  0.7546771E-02  0.1255428E+00
         21   -1    0    0  506  501  0.00000000000E+00  0.00000000000E+00  0.70769054214E+02  0.70769054214E+02  0.00000000000E+00 0. -1.
         21   -1    0    0  505  502 -0.00000000000E+00 -0.00000000000E+00 -0.13063677859E+04  0.13063677859E+04  0.00000000000E+00 0.  1.
         21    1    1    2  503  504  0.99225674434E+02 -0.26730939056E+02 -0.17684271560E+02  0.10427373126E+03  0.00000000000E+00 0. -1.
         21    1    1    2  504  501  0.16679415437E+02  0.25659363691E+02  0.13256903060E+02  0.33351931325E+02  0.00000000000E+00 0. -1.
         21    1    1    2  505  503 -0.92458804949E+02  0.27195633652E+02 -0.10811844730E+04  0.10854713713E+04  0.00000000000E+00 0.  1.
         21    1    1    2  506  502 -0.23446284922E+02 -0.26124058287E+02 -0.14998689020E+03  0.15403980631E+03  0.00000000000E+00 0.  1.
<scales pt_clust_3="14000.00000" pt_clust_4="30.60402" pt_clust_5="112.82376" pt_clust_6="33.81229"></scales>
<clustering>
<clus scale="   30.604">  1  4  2 -1</clus>
<clus scale="   33.812">  2  6  1 -1</clus>
<clus scale="  112.824">  2  5  1 -1</clus>
<clus scale="   30.604">  1  3  2 -1</clus>
</clustering>
</event>
<event>
 6    0  0.5510638E+002  0.1671473E+03  0.7546771E-02  0.1180856E+00
         21   -1    0    0  505  501  0.00000000000E+00  0.00000000000E+00  0.14070013467E+04  0.14070013467E+04  0.00000000000E+00 0. -1.
         21   -1    0    0  506  502 -0.00000000000E+00 -0.00000000000E+00 -0.30628206028E+02  0.30628206028E+02  0.00000000000E+00 0. -1.
         21    1    1    2  503  501  0.62387161337E+02 -0.11340540494E+02  0.38391938081E+03  0.38912061975E+03  0.00000000000E+00 0. -1.
         21    1    1    2  504  503  0.79385701027E+02 -0.53916117611E+02  0.28458136156E+03  0.30032580411E+03  0.00000000000E+00 0. -1.
         21    1    1    2  505  502 -0.15260702903E+03  0.11467146922E+03  0.58288277406E+03  0.61334393244E+03  0.00000000000E+00 0. -1.
         21    1    1    2  506  504  0.10834166668E+02 -0.49414811115E+02  0.12498962426E+03  0.13483919645E+03  0.00000000000E+00 0. -1.
<scales pt_clust_3="63.40951" pt_clust_4="38.44199" pt_clust_5="158.53998" pt_clust_6="38.44199"></scales>
<clustering>
<clus scale="   38.442">  4  6 -1 -1</clus>
<clus scale="   63.410">  1  3  2 -1</clus>
<clus scale="  158.540">  1  5  2 -1</clus>
<clus scale="   63.410">  1  3  2 -1</clus>
</clustering>
</event>
<event>
 6    0  0.5510638E+002  0.6954909E+02  0.7546771E-02  0.1361633E+00
         21   -1    0    0  506  501  0.00000000000E+00  0.00000000000E+00  0.45736054110E+03  0.45736054110E+03  0.00000000000E+00 0.  1.
         21   -1    0    0  505  502 -0.00000000000E+00 -0.00000000000E+00 -0.15220152799E+03  0.15220152799E+03  0.00000000000E+00 0.  1.
         21    1    1    2  503  501  0.22664945526E+02 -0.24824902990E+02  0.36391435565E+02  0.49541014792E+02  0.00000000000E+00 0.  1.
         21    1    1    2  504  503  0.99077547213E+02  0.80672895268E+01 -0.58633216542E+02  0.11540925268E+03  0.00000000000E+00 0.  1.
         21    1    1    2  505  504 -0.53500740994E+02 -0.13934650601E+02 -0.40910668569E+02  0.68776351874E+02  0.00000000000E+00 0.  1.
         21    1    1    2  506  502 -0.68241751745E+02  0.30692264064E+02  0.36831146266E+03  0.37583544974E+03  0.00000000000E+00 0.  1.
<scales pt_clust_3="33.61511" pt_clust_4="14000.00000" pt_clust_5="69.54909" pt_clust_6="48.62305"></scales>
<clustering>
<clus scale="   33.615">  1  3  2 -1</clus>
<clus scale="   48.623">  1  6  2 -1</clus>
<clus scale="   69.549">  2  5  1 -1</clus>
<clus scale="   33.615">  1  3  2 -1</clus>
</clustering>
</event>
<event>
 6    0  0.5510638E+002  0.1421576E+03  0.7546771E-02  0.1210455E+00
         21   -1    0    0  503  501  0.00000000000E+00  0.00000000000E+00  0.99362733968E+03  0.99362733968E+03  0.00000000000E+00 0. -1.
         21   -1    0    0  504  502 -0.00000000000E+00 -0.00000000000E+00 -0.52136833255E+02  0.52136833255E+02  0.00000000000E+00 0. -1.
         21    1    1    2  503  505  0.62214066067E+02  0.27893033342E+02  0.44534299666E+03  0.45053190342E+03  0.00000000000E+00 0. -1.
         21    1    1    2  504  501 -0.10881925492E+03 -0.10462965920E+03  0.10171044349E+03  0.18202749831E+03  0.00000000000E+00 0. -1.
         21    1    1    2  505  506  0.98458461535E+01  0.68605809229E+02  0.34015939833E+03  0.34714854748E+03  0.00000000000E+00 0. -1.
         21    1    1    2  506  502  0.36759342700E+02  0.81308166326E+01  0.54277667945E+02  0.66056223722E+02  0.00000000000E+00 0. -1.
<scales pt_clust_3="69.04973" pt_clust_4="124.23101" pt_clust_5="69.04973" pt_clust_6="37.64783"></scales>
<clustering>
<clus scale="   37.648">  2  6  1 -1</clus>
<clus scale="   69.050">  3  5 -1 -1</clus>
<clus scale="  124.231">  2  4  1 -1</clus>
<clus scale="  142.158">  1  3  2 -1</clus>
</clustering>
</event>
<event>
 6    0  0.5510638E+002  0.2097240E+03  0.7546771E-02  0.1141785E+00
         21   -1    0    0  506  501  0.00000000000E+00  0.00000000000E+00  0.44148738640E+03  0.44148738640E+03  0.00000000000E+00 0. -1.
         21   -1    0    0  505  502 -0.00000000000E+00 -0.00000000000E+00 -0.34401113138E+03  0.34401113138E+03  0.00000000000E+00 0. -1.
         21    1    1    2  503  504  0.71182782208E+02  0.12247078769E+02  0.57182750251E+02  0.92124081257E+02  0.00000000000E+00 0. -1.
         21    1    1    2  504  502 -0.13914459466E+03 -0.68269451965E+02  0.12469487717E+02  0.15549091426E+03  0.00000000000E+00 0. -1.
         21    1    1    2  505  501 -0.98038183413E+02  0.58877951236E+02 -0.21512022919E+03  0.24362842929E+03  0.00000000000E+00 0. -1.
         21    1    1    2  506  503  0.16599999587E+03 -0.28555780401E+01  0.24294424624E+03  0.29425509297E+03  0.00000000000E+00 0. -1.
<scales pt_clust_3="35.32786" pt_clust_4="202.76923" pt_clust_5="114.35951" pt_clust_6="35.32786"></scales>
<clustering>
<clus scale="   35.328">  3  6 -1 -1</clus>
<clus scale="  114.360">  2  5  1 -1</clus>
<clus scale="  202.769">  2  4  1 -1</clus>
<clus scale="  209.724">  1  3  2 -1</clus>
</clustering>
</event>
<event>
 6    0  0.5510638E+002  0.2088350E+03  0.7546771E-02  0.1142492E+00
         21   -1    0    0  506  501  0.00000000000E+00  0.00000000000E+00  0.16270274646E+03  0.16270274646E+03  0.00000000000E+00 0.  1.
         21   -1    0    0  503  502 -0.00000000000E+00 -0.00000000000E+00 -0.10208594529E+04  0.10208594529E+04  0.00000000000E+00 0. -1.
         21    1    1    2  503  504  0.57048085651E+02  0.27359270991E+01 -0.12857193849E+03  0.14068657626E+03  0.00000000000E+00 0. -1.
         21    1    1    2  504  505  0.54798819531E+02  0.31645552490E+02 -0.57170504253E+01  0.63537676067E+02  0.00000000000E+00 0.  1.
         21    1    1    2  505  501  0.50507495373E+02  0.12541817578E+03  0.70828934863E+02  0.15263506778E+03  0.00000000000E+00 0.  1.
         21    1    1    2  506  502 -0.16235440055E+03 -0.15979965537E+03 -0.79469665236E+03  0.82670287922E+03  0.00000000000E+00 0. -1.
<scales pt_clust_3="57.11365" pt_clust_4="56.13428" pt_clust_5="56.13428" pt_clust_6="192.04004"></scales>
<clustering>
<clus scale="   56.134">  4  5 -1 -1</clus>
<clus scale="   57.114">  2  3  1 -1</clus>
<clus scale="  192.040">  2  6  1 -1</clus>
<clus scale="  208.835">  1  3  2 -1</clus>
</clustering>
</event>
<event>
 6    0  0.5510638E+002  0.1527815E+03  0.7546771E-02  0.1197096E+00
         21   -1    0    0  503  501  0.00000000000E+00  0.00000000000E+00  0.73151536714E+03  0.73151536714E+03  0.00000000000E+00 0. -1.
         21   -1    0    0  504  502 -0.00000000000E+00 -0.00000000000E+00 -0.13859742070E+03  0.13859742070E+03  0.00000000000E+00 0.  1.
         21    1    1    2  503  505  0.32658238881E+02 -0.56302314512E+02  0.19051495836E+03  0.20132675069E+03  0.00000000000E+00 0. -1.
         21    1    1    2  504  501 -0.75398192647E+02  0.19017080968E+03 -0.13333304771E+02  0.20500634459E+03  0.00000000000E+00 0.  1.
         21    1    1    2  505  506 -0.15105128505E+01 -0.79058103493E+02  0.37321078334E+03  0.38149541829E+03  0.00000000000E+00 0. -1.
         21    1    1    2  506  502  0.44250466617E+02 -0.54810391672E+02  0.42525509516E+02  0.82284274261E+02  0.00000000000E+00 0.  1.
<scales pt_clust_3="46.28302" pt_clust_4="144.01334" pt_clust_5="46.28302" pt_clust_6="70.44347"></scales>
<clustering>
<clus scale="   46.283">  3  5 -1 -1</clus>
<clus scale="   70.443">  2  6  1 -1</clus>
<clus scale="  144.013">  2  4  1 -1</clus>
<clus scale="  152.781">  1  3  2 -1</clus>
</clustering>
</event>
<event>
 6    0  0.5510638E+002  0.8655890E+02  0.7546771E-02  0.1311405E+00
         21   -1    0    0  502  501  0.00000000000E+00  0.00000000000E+00  0.60341466365E+03  0.60341466365E+03  0.00000000000E+00 0. -1.
         21   -1    0    0  506  502 -0.00000000000E+00 -0.00000000000E+00 -0.23291746260E+03  0.23291746260E+03  0.00000000000E+00 0.  1.
         21    1    1    2  503  501 -0.26399758811E+02  0.16743411978E+02  0.29253893318E+03  0.29420454880E+03  0.00000000000E+00 0. -1.
         21    1    1    2  504  505  0.63042694332E+02 -0.14209752946E+03 -0.22041958105E+01  0.15547008608E+03  0.00000000000E+00 0.  1.
         21    1    1    2  505  503 -0.10659464813E+02  0.61369615144E+02  0.22110184182E+03  0.22970824606E+03  0.00000000000E+00 0. -1.
         21    1    1    2  506  504 -0.25983470708E+02  0.63984502338E+02 -0.14093937814E+03  0.15694924530E+03  0.00000000000E+00 0.  1.
<scales pt_clust_3="31.26162" pt_clust_4="14000.00000" pt_clust_5="86.55890" pt_clust_6="69.71765"></scales>
<clustering>
<clus scale="   31.262">  1  3  2 -1</clus>
<clus scale="   69.718">  2  6  1 -1</clus>
<clus scale="   86.559">  1  5  2 -1</clus>
<clus scale="   31.262">  1  3  2 -1</clus>
</clustering>
</event>
<event>
 6    0  0.5510638E+002  0.1305664E+03  0.7546771E-02  0.1226618E+00
         21   -1    0    0  504  501  0.00000000000E+00  0.00000000000E+00  0.77158918472E+03  0.77158918472E+03  0.00000000000E+00 0. -1.
         21   -1    0    0  503  502 -0.00000000000E+00 -0.00000000000E+00 -0.44954599025E+02  0.44954599025E+02  0.00000000000E+00 0. -1.
         21    1    1    2  503  501 -0.75814169171E+01 -0.15915742521E+03  0.30327961390E+03  0.34258880322E+03  0.00000000000E+00 0. -1.
         21    1    1    2  504  506 -0.36222654040E+02  0.63219319786E+02  0.28124294062E+03  0.29052771762E+03  0.00000000000E+00 0. -1.
         21    1    1    2  505  502  0.20314976822E+02  0.40154849568E+02  0.24704803652E+02  0.51336512840E+02  0.00000000000E+00 0. -1.
         21    1    1    2  506  505  0.23489094135E+02  0.55783255857E+02  0.11740722752E+03  0.13209075006E+03  0.00000000000E+00 0. -1.
<scales pt_clust_3="121.32916" pt_clust_4="72.86126" pt_clust_5="41.59286" pt_clust_6="41.59286"></scales>
<clustering>
<clus scale="   41.593">  5  6 -1 -1</clus>
<clus scale="   72.861">  1  4  2 -1</clus>
<clus scale="  121.329">  1  3  2 -1</clus>
<clus scale="   72.861">  1  3  2 -1</clus>
</clustering>
</event>
<event>
 6    0  0.5510638E+002  0.5349673E+02  0.7546771E-02  0.1427345E+00
         21   -1    0    0  505  501  0.00000000000E+00  0.00000000000E+00  0.81314330172E+02  0.81314330172E+02  0.00000000000E+00 0. -1.
         21   -1    0    0  503  502 -0.00000000000E+00 -0.00000000000E+00 -0.43213449487E+03  0.43213449487E+03  0.00000000000E+00 0.  1.
         21    1    1    2  503  506  0.38979855568E+02  0.32108944783E+02 -0.19075401832E+03  0.19732589536E+03  0.00000000000E+00 0. -1.
         21    1    1    2  504  501  0.36767437269E+02 -0.21494143644E+02  0.20897946954E+01  0.42640472513E+02  0.00000000000E+00 0. -1.
         21    1    1    2  505  502 -0.60499291475E+02  0.60530715072E+02  0.10402452280E+02  0.86211036124E+02  0.00000000000E+00 0. -1.
         21    1    1    2  506  504 -0.15248001362E+02 -0.71145516211E+02 -0.17255839335E+03  0.18727142104E+03  0.00000000000E+00 0.  1.
<scales pt_clust_3="51.37009" pt_clust_4="42.58923" pt_clust_5="14000.00000" pt_clust_6="53.49673"></scales>
<clustering>
<clus scale="   42.589">  1  4  2 -1</clus>
<clus scale="   51.370">  2  3  1 -1</clus>
<clus scale="   53.497">  2  6  1 -1</clus>
<clus scale="   42.589">  1  3  2 -1</clus>
</clustering>
</event>
<event>
 6    0  0.5510638E+002  0.1343640E+03  0.7546771E-02  0.1221120E+00
         21   -1    0    0  502  501  0.00000000000E+00  0.00000000000E+00  0.44036383326E+02  0.44036383326E+02  0.00000000000E+00 0. -1.
         21   -1    0    0  506  502 -0.00000000000E+00 -0.00000000000E+00 -0.13900768512E+04  0.13900768512E+04  0.00000000000E+00 0. -1.
         21    1    1    2  503  504  0.43203445314E+02  0.17776714152E+01 -0.80728172369E+02  0.91579122166E+02  0.00000000000E+00 0. -1.
         21    1    1    2  504  501 -0.12564938323E+03 -0.37908365569E+02 -0.86419352302E+02  0.15714043445E+03  0.00000000000E+00 0. -1.
         21    1    1    2  505  503  0.55250618665E+02  0.22859012558E+02 -0.29581559997E+03  0.30179800282E+03  0.00000000000E+00 0. -1.
         21    1    1    2  506  505  0.27195319248E+02  0.13271681596E+02 -0.88307734320E+03  0.88359567506E+03  0.00000000000E+00 0. -1.
<scales pt_clust_3="40.56042" pt_clust_4="124.07055" pt_clust_5="40.56042" pt_clust_6="30.26091"></scales>
<clustering>
<clus scale="   30.261">  2  6  1 -1</clus>
<clus scale="   40.560">  3  5 -1 -1</clus>
<clus scale="  124.071">  1  4  2 -1</clus>
<clus scale="  124.071">  1  3  2 -1</clus>
</clustering>
</event>
<event>
 6    0  0.5510638E+002  0.8184227E+02  0.7546771E-02  0.1323903E+00
         21   -1    0    0  505  501  0.00000000000E+00  0.00000000000E+00  0.16623580128E+03  0.16623580128E+03  0.00000000000E+00 0. -1.
         21   -1    0    0  504  502 -0.00000000000E+00 -0.00000000000E+00 -0.35909572605E+03  0.35909572605E+03  0.00000000000E+00 0.  1.
         21    1    1    2  503  506 -0.62062580638E+02 -0.15971723076E+01  0.51106397528E+02  0.80412553392E+02  0.00000000000E+00 0. -1.
         21    1    1    2  504  503  0.90122651185E+02  0.70223061761E+02  0.29669244622E+02  0.11804081809E+03  0.00000000000E+00 0.  1.
         21    1    1    2  505  502 -0.95213892216E+01 -0.33950700455E+02 -0.28402780423E+03  0.28620814190E+03  0.00000000000E+00 0.  1.
         21    1    1    2  506  501 -0.18538681325E+02 -0.34675188998E+02  0.10392237318E+02  0.40670013939E+02  0.00000000000E+00 0.  1.
<scales pt_clust_3="81.84227" pt_clust_4="14000.00000" pt_clust_5="35.26056" pt_clust_6="46.39169"></scales>
<clustering>
<clus scale="   35.261">  2  5  1 -1</clus>
<clus scale="   46.392">  1  6  2 -1</clus>
<clus scale="   81.842">  1  3  2 -1</clus>
<clus scale="   46.392">  1  3  2 -1</clus>
</clustering>
</event>
<event>
 6    0  0.5510638E+002  0.1926652E+03  0.7546771E-02  0.1156079E+00
         21   -1    0    0  503  501  0.00000000000E+00  0.00000000000E+00  0.57402247035E+02  0.57402247035E+02  0.00000000000E+00 0.  1.
         21   -1    0    0  506  502 -0.00000000000E+00 -0.00000000000E+00 -0.12044987237E+04  0.12044987237E+04  0.00000000000E+00 0.  1.
         21    1    1    2  503  504  0.21188781379E+03 -0.29183651817E+02 -0.57813284204E+03  0.61642981288E+03  0.00000000000E+00 0.  1.
         21    1    1    2  504  502 -0.17345534080E+02 -0.24879934327E+02 -0.27852227967E+03  0.28016876870E+03  0.00000000000E+00 0.  1.
         21    1    1    2  505  501 -0.26349582305E+02  0.26368711581E+02 -0.12617902971E+02  0.39355062107E+02  0.00000000000E+00 0.  1.
         21    1    1    2  506  505 -0.16819269740E+03  0.27694874564E+02 -0.27782345200E+03  0.32594732706E+03  0.00000000000E+00 0.  1.
<scales pt_clust_3="192.66518" pt_clust_4="30.32950" pt_clust_5="37.13698" pt_clust_6="14000.00000"></scales>
<clustering>
<clus scale="   30.330">  2  4  1 -1</clus>
<clus scale="   37.137">  1  5  2 -1</clus>
<clus scale="  192.665">  2  3  1 -1</clus>
<clus scale="   37.137">  1  3  2 -1</clus>
</clustering>
</event>
<event>
 6    0  0.5510638E+002  0.1111781E+03  0.7546771E-02  0.1258404E+00
         21   -1    0    0  506  501  0.00000000000E+00  0.00000000000E+00  0.49512637834E+02  0.49512637834E+02  0.00000000000E+00 0.  1.
         21   -1    0    0  501  502 -0.00000000000E+00 -0.00000000000E+00 -0.74579152677E+03  0.74579152677E+03  0.00000000000E+00 0. -1.
         21    1    1    2  503  504  0.63567892155E+01 -0.53087061418E+02 -0.57461125721E+02  0.78488380212E+02  0.00000000000E+00 0.  1.
         21    1    1    2  504  505 -0.27504430759E+02 -0.70967926567E+02 -0.12880285807E+03  0.14960988123E+03  0.00000000000E+00 0.  1.
         21    1    1    2  505  502 -0.70956005397E+02  0.68869936619E+02 -0.40544204855E+03  0.41732610463E+03  0.00000000000E+00 0. -1.
         21    1    1    2  506  503  0.92103646940E+02  0.55185051366E+02 -0.10457285659E+03  0.14987979854E+03  0.00000000000E+00 0.  1.
<scales pt_clust_3="32.43584" pt_clust_4="32.43584" pt_clust_5="98.88287" pt_clust_6="104.22522"></scales>
<clustering>
<clus scale="   32.436">  3  4 -1 -1</clus>
<clus scale="   98.883">  2  5  1 -1</clus>
<clus scale="  104.225">  1  6  2 -1</clus>
<clus scale="  104.225">  1  3  2 -1</clus>
</clustering>
</event>
<event>
 6    0  0.5510638E+002  0.7971179E+02  0.7546771E-02  0.1329871E+00
         21   -1    0    0  506  501  0.00000000000E+00  0.00000000000E+00  0.13691072746E+03  0.13691072746E+03  0.00000000000E+00 0. -1.
         21   -1    0    0  505  502 -0.00000000000E+00 -0.00000000000E+00 -0.52640348858E+03  0.52640348858E+03  0.00000000000E+00 0.  1.
         21    1    1    2  503  502  0.54806898100E+02  0.33264268219E+02 -0.36188291600E+03  0.36751809821E+03  0.00000000000E+00 0.  1.
         21    1    1    2  504  501 -0.50562379798E+00 -0.79217877296E+02  0.63921481042E+02  0.10179235471E+03  0.00000000000E+00 0. -1.
         21    1    1    2  505  504  0.17838981926E+02 -0.26991820086E+02 -0.85291122376E+02  0.91221506148E+02  0.00000000000E+00 0.  1.
         21    1    1    2  506  503 -0.72140256228E+02  0.72945429163E+02 -0.62402037816E+01  0.10278225697E+03  0.00000000000E+00 0.  1.
<scales pt_clust_3="70.48737" pt_clust_4="14000.00000" pt_clust_5="32.35410" pt_clust_6="79.71179"></scales>
<clustering>
<clus scale="   32.354">  2  5  1 -1</clus>
<clus scale="   70.487">  2  3  1 -1</clus>
<clus scale="   79.712">  2  6  1 -1</clus>
<clus scale="   79.712">  1  3  2 -1</clus>
</clustering>
</event>
<event>
 6    0  0.5510638E+002  0.9806183E+02  0.7546771E-02  0.1284425E+00
         21   -1    0    0  504  501  0.00000000000E+00  0.00000000000E+00  0.31315053666E+03  0.31315053666E+03  0.00000000000E+00 0.  1.
         21   -1    0    0  503  502 -0.00000000000E+00 -0.00000000000E+00 -0.10522188703E+03  0.10522188703E+03  0.00000000000E+00 0.  1.
         21    1    1    2  503  506 -0.47819724354E+02 -0.44358932463E+02  0.38527408368E+02  0.75754881837E+02  0.00000000000E+00 0.  1.
         21    1    1    2  504  502 -0.39551936478E+01  0.32288507047E+02 -0.31187922687E+02  0.45065261185E+02  0.00000000000E+00 0.  1.
         21    1    1    2  505  501  0.85604606682E+02 -0.65129064174E+02  0.18173727752E+03  0.21118328941E+03  0.00000000000E+00 0.  1.
         21    1    1    2  506  505 -0.33829688681E+02  0.77199489590E+02  0.18851886428E+02  0.86368991259E+02  0.00000000000E+00 0.  1.
<scales pt_clust_3="60.38318" pt_clust_4="32.52985" pt_clust_5="98.06183" pt_clust_6="14000.00000"></scales>
<clustering>
<clus scale="   32.530">  2  4  1 -1</clus>
<clus scale="   60.383">  2  3  1 -1</clus>
<clus scale="   98.062">  1  5  2 -1</clus>
<clus scale="   98.062">  1  3  2 -1</clus>
</clustering>
</event>
<event>
 6    0  0.5510638E+002  0.1401654E+03  0.7546771E-02  0.1213107E+00
         21   -1    0    0  504  501  0.00000000000E+00  0.00000000000E+00  0.50321403059E+03  0.50321403059E+03  0.00000000000E+00 0.  1.
         21   -1    0    0  506  502 -0.00000000000E+00 -0.00000000000E+00 -0.95680814470E+03  0.95680814470E+03  0.00000000000E+00 0. -1.
         21    1    1    2  503  502 -0.16941283721E+02 -0.40022926367E+02 -0.61349920794E+03  0.61503668173E+03  0.00000000000E+00 0. -1.
         21    1    1    2  504  503  0.53412172291E+02  0.54766960727E+02  0.21941991285E+03  0.23237335969E+03  0.00000000000E+00 0.  1.
         21    1    1    2  505  501  0.77226994651E+02 -0.10973940939E+03  0.24197052424E+03  0.27668841912E+03  0.00000000000E+00 0.  1.
         21    1    1    2  506  505 -0.11369788322E+03  0.94995375025E+02 -0.30148534326E+03  0.33592371475E+03  0.00000000000E+00 0.  1.
<scales pt_clust_3="43.46081" pt_clust_4="75.73538" pt_clust_5="14000.00000" pt_clust_6="140.16543"></scales>
<clustering>
<clus scale="   43.461">  2  3  1 -1</clus>
<clus scale="   75.735">  1  4  2 -1</clus>
<clus scale="  140.165">  2  6  1 -1</clus>
<clus scale="   75.735">  1  3  2 -1</clus>
</clustering>
</event>
<event>
 6    0  0.5510638E+002  0.1415100E+03  0.7546771E-02  0.1211311E+00
         21   -1    0    0  505  501  0.00000000000E+00  0.00000000000E+00  0.25717932723E+03  0.25717932723E+03  0.00000000000E+00 0. -1.
         21   -1    0    0  506  502 -0.00000000000E+00 -0.00000000000E+00 -0.30451403950E+03  0.30451403950E+03  0.00000000000E+00 0.  1.
         21    1    1    2  503  502  0.71283350649E+01  0.62026324459E+02 -0.15021183588E+03  0.16267044515E+03  0.00000000000E+00 0.  1.
         21    1    1    2  504  501 -0.21666486226E+02 -0.41896371974E+02  0.99290162718E+02  0.10992396928E+03  0.00000000000E+00 0.  1.
         21    1    1    2  505  503  0.87154487146E+02  0.45086094458E+02 -0.10457934264E+03  0.14340676222E+03  0.00000000000E+00 0.  1.
         21    1    1    2  506  504 -0.72616335985E+02 -0.65216046943E+02  0.10816630353E+03  0.14569219008E+03  0.00000000000E+00 0. -1.
<scales pt_clust_3="62.43459" pt_clust_4="30.61195" pt_clust_5="134.48410" pt_clust_6="30.61195"></scales>
<clustering>
<clus scale="   30.612">  4  6 -1 -1</clus>
<clus scale="   62.435">  2  3  1 -1</clus>
<clus scale="  134.484">  2  5  1 -1</clus>
<clus scale="  141.510">  1  3  2 -1</clus>
</clustering>
</event>
<event>
 6    0  0.5510638E+002  0.1604005E+03  0.7546771E-02  0.1188245E+00
         21   -1    0    0  504  501  0.00000000000E+00  0.00000000000E+00  0.11665010464E+03  0.11665010464E+03  0.00000000000E+00 0.  1.
         21   -1    0    0  501  502 -0.00000000000E+00 -0.00000000000E+00 -0.14919035536E+04  0.14919035536E+04  0.00000000000E+00 0. -1.
         21    1    1    2  503  505 -0.54424831418E+02  0.21920020901E+02 -0.19248893324E+02  0.61750056562E+02  0.00000000000E+00 0.  1.
         21    1    1    2  504  503  0.18906805419E+03  0.28217902420E+02 -0.21641604518E+02  0.19238331055E+03  0.00000000000E+00 0.  1.
         21    1    1    2  505  506 -0.52053973936E+02 -0.57900350991E+01 -0.74463574013E+02  0.91038258791E+02  0.00000000000E+00 0.  1.
         21    1    1    2  506  502 -0.82589248839E+02 -0.44347888222E+02 -0.12598993771E+04  0.12633820323E+04  0.00000000000E+00 0. -1.
<scales pt_clust_3="51.44051" pt_clust_4="150.87741" pt_clust_5="51.44051" pt_clust_6="93.74284"></scales>
<clustering>
<clus scale="   51.441">  3  5 -1 -1</clus>
<clus scale="   93.743">  2  6  1 -1</clus>
<clus scale="  150.877">  1  4  2 -1</clus>
<clus scale="  150.877">  1  3  2 -1</clus>
</clustering>
</event>
<event>
 6    0  0.5510638E+002  0.1488474E+03  0.7546771E-02  0.1201896E+00
         21   -1    0    0  502  501  0.00000000000E+00  0.00000000000E+00  0.35923082748E+03  0.35923082748E+03  0.00000000000E+00 0. -1.
         21   -1    0    0  506  502 -0.00000000000E+00 -0.00000000000E+00 -0.13033686006E+04  0.13033686006E+04  0.00000000000E+00 0. -1.
         21    1    1    2  503  501  0.22547686007E+02  0.27919521617E+02  0.30342571089E+01  0.36015337674E+02  0.00000000000E+00 0.  1.
         21    1    1    2  504  503  0.12142309375E+03  0.10169638442E+03  0.20832133238E+03  0.26169352270E+03  0.00000000000E+00 0. -1.
         21    1    1    2  505  504 -0.11246550488E+03 -0.63171755529E+02  0.63434486483E+02  0.14374663321E+03  0.00000000000E+00 0. -1.
         21    1    1    2  506  505 -0.31505274883E+02 -0.66444150511E+02 -0.12189278491E+04  0.12211439345E+04  0.00000000000E+00 0. -1.
<scales pt_clust_3="35.88729" pt_clust_4="148.84742" pt_clust_5="14000.00000" pt_clust_6="73.42129"></scales>
<clustering>
<clus scale="   35.887">  1  3  2 -1</clus>
<clus scale="   73.421">  2  6  1 -1</clus>
<clus scale="  148.847">  1  4  2 -1</clus>
<clus scale="   35.887">  1  3  2 -1</clus>
</clustering>
</event>
<event>
 6    0  0.5510638E+002  0.2112383E+03  0.7546771E-02  0.1140589E+00
         21   -1    0    0  505  501  0.00000000000E+00  0.00000000000E+00  0.87319309533E+03  0.87319309533E+03  0.00000000000E+00 0.  1.
         21   -1    0    0  503  502 -0.00000000000E+00 -0.00000000000E+00 -0.19283793006E+03  0.19283793006E+03  0.00000000000E+00 0.  1.
         21    1    1    2  503  506 -0.16952106452E+02  0.75731481232E+02  0.97353716944E+02  0.12450051151E+03  0.00000000000E+00 0.  1.
         21    1    1    2  504  502 -0.18671007988E+03 -0.91717005430E+02 -0.34613289078E+02  0.21088087347E+03  0.00000000000E+00 0.  1.
         21    1    1    2  505  504  0.27473642063E+03 -0.65089316042E+02  0.45790716497E+03  0.53795510185E+03  0.00000000000E+00 0.  1.
         21    1    1    2  506  501 -0.71074234292E+02  0.81074840239E+02  0.15970757244E+03  0.19269453857E+03  0.00000000000E+00 0.  1.
<scales pt_clust_3="39.75133" pt_clust_4="14000.00000" pt_clust_5="211.23827" pt_clust_6="185.82840"></scales>
<clustering>
<clus scale="   39.751">  3  6 -1 -1</clus>
<clus scale="  185.828">  1  3  2 -1</clus>
<clus scale="  211.238">  1  5  2 -1</clus>
<clus scale="  185.828">  1  3  2 -1</clus>
</clustering>
</event>
<event>
 6    0  0.5510638E+002  0.1619831E+03  0.7546771E-02  0.1186476E+00
         21   -1    0    0  504  501  0.00000000000E+00  0.00000000000E+00  0.35207238775E+03  0.35207238775E+03  0.00000000000E+00 0.  1.
         21   -1    0    0  501  502 -0.00000000000E+00 -0.00000000000E+00 -0.11589775463E+03  0.11589775463E+03  0.00000000000E+00 0.  1.
         21    1    1    2  503  506 -0.10807921842E+03  0.12335293936E+03  0.77094482145E+02  0.18121982309E+03  0.00000000000E+00 0.  1.
         21    1    1    2  504  505  0.75781798518E+02 -0.93426564808E+02  0.14297579179E+03  0.18685149460E+03  0.00000000000E+00 0.  1.
         21    1    1    2  505  503  0.36063695008E+02 -0.15956298504E-01  0.45320156728E+02  0.57918105616E+02  0.00000000000E+00 0.  1.
         21    1    1    2  506  502 -0.37662751032E+01 -0.29910418252E+02 -0.29215797533E+02  0.41980719070E+02  0.00000000000E+00 0.  1.
<scales pt_clust_3="151.73222" pt_clust_4="30.23098" pt_clust_5="30.23098" pt_clust_6="30.14661"></scales>
<clustering>
<clus scale="   30.147">  2  6  1 -1</clus>
<clus scale="   30.231">  4  5 -1 -1</clus>
<clus scale="  151.732">  2  3  1 -1</clus>
<clus scale="  161.983">  1  3  2 -1</clus>
</clustering>
</event>
<event>
 6    0  0.5510638E+002  0.7515811E+02  0.7546771E-02  0.1343382E+00
         21   -1    0    0  504  501  0.00000000000E+00  0.00000000000E+00  0.80242793144E+03  0.80242793144E+03  0.00000000000E+00 0.  1.
         21   -1    0    0  506  502 -0.00000000000E+00 -0.00000000000E+00 -0.17218207275E+03  0.17218207275E+03  0.00000000000E+00 0. -1.
         21    1    1    2  503  501  0.16083658447E+02 -0.13717349272E+03  0.20282024857E+03  0.24537991850E+03  0.00000000000E+00 0.  1.
         21    1    1    2  504  502 -0.12841475181E+02  0.60572900871E+02  0.56412784309E+03  0.56751581754E+03  0.00000000000E+00 0.  1.
         21    1    1    2  505  503  0.73239955077E+01  0.47571159158E+02 -0.48804773953E+02  0.68546057906E+02  0.00000000000E+00 0. -1.
         21    1    1    2  506  505 -0.10566178774E+02  0.29029432694E+02 -0.87897459027E+02  0.93168210243E+02  0.00000000000E+00 0. -1.
<scales pt_clust_3="75.15811" pt_clust_4="62.55385" pt_clust_5="14000.00000" pt_clust_6="30.89259"></scales>
<clustering>
<clus scale="   30.893">  2  6  1 -1</clus>
<clus scale="   62.554">  1  4  2 -1</clus>
<clus scale="   75.158">  1  3  2 -1</clus>
<clus scale="   62.554">  1  3  2 -1</clus>
</clustering>
</event>
<event>
 6    0  0.5510638E+002  0.7850343E+02  0.7546771E-02  0.1333353E+00
         21   -1    0    0  506  501  0.00000000000E+00  0.00000000000E+00  0.14037051909E+03  0.14037051909E+03  0.00000000000E+00 0.  1.
         21   -1    0    0  503  502 -0.00000000000E+00 -0.00000000000E+00 -0.14984740667E+04  0.14984740667E+04  0.00000000000E+00 0.  1.
         21    1    1    2  503  504  0.70926635568E+02 -0.71613203880E+02 -0.10462875124E+04  0.10511311037E+04  0.00000000000E+00 0.  1.
         21    1    1    2  504  505  0.62645435185E+00  0.65352649586E+02  0.35216504512E+02  0.74239904654E+02  0.00000000000E+00 0.  1.
         21    1    1    2  505  501 -0.29722215204E+02 -0.35858506247E+02  0.74457087039E+02  0.87824258364E+02  0.00000000000E+00 0.  1.
         21    1    1    2  506  502 -0.41830874716E+02  0.42119060541E+02 -0.42148962678E+03  0.42564931907E+03  0.00000000000E+00 0.  1.
<scales pt_clust_3="14000.00000" pt_clust_4="41.93219" pt_clust_5="46.57513" pt_clust_6="78.50343"></scales>
<clustering>
<clus scale="   46.575">  1  5  2 -1</clus>
<clus scale="   41.932">  1  4  2 -1</clus>
<clus scale="   78.503">  2  6  1 -1</clus>
<clus scale="   46.575">  1  3  2 -1</clus>
</clustering>
</event>
<event>
 6    0  0.5510638E+002  0.1256737E+03  0.7546771E-02  0.1234020E+00
         21   -1    0    0  503  501  0.00000000000E+00  0.00000000000E+00  0.79521852412E+03  0.79521852412E+03  0.00000000000E+00 0. -1.
         21   -1    0    0  506  502 -0.00000000000E+00 -0.00000000000E+00 -0.36442287309E+03  0.36442287309E+03  0.00000000000E+00 0. -1.
         21    1    1    2  503  502  0.31659433200E+02 -0.27317811394E+02 -0.30067144172E+03  0.30356531158E+03  0.00000000000E+00 0. -1.
         21    1    1    2  504  501 -0.37678378718E+02  0.12338782402E+03  0.63815120871E+03  0.65106157966E+03  0.00000000000E+00 0. -1.
         21    1    1    2  505  504  0.54822336482E+02 -0.10052432997E+03  0.10419691882E+03  0.15481481642E+03  0.00000000000E+00 0. -1.
         21    1    1    2  506  505 -0.48803390963E+02  0.44543173464E+01 -0.10881034779E+02  0.50199689545E+02  0.00000000000E+00 0. -1.
<scales pt_clust_3="41.81606" pt_clust_4="14000.00000" pt_clust_5="125.67369" pt_clust_6="34.46334"></scales>
<clustering>
<clus scale="   41.816">  2  3  1 -1</clus>
<clus scale="   34.463">  2  6  1 -1</clus>
<clus scale="  125.674">  2  5  1 -1</clus>
<clus scale="  125.674">  1  3  2 -1</clus>
</clustering>
</event>
<event>
 6    0  0.5510638E+002  0.1345499E+03  0.7546771E-02  0.1220856E+00
         21   -1    0    0  505  501  0.00000000000E+00  0.00000000000E+00  0.78750691941E+02  0.78750691941E+02  0.00000000000E+00 0.  1.
         21   -1    0    0  504  502 -0.00000000000E+00 -0.00000000000E+00 -0.24289885243E+04  0.24289885243E+04  0.00000000000E+00 0.  1.
         21    1    1    2  503  501 -0.66534206309E+02  0.33508488382E+02 -0.10809374576E+03  0.13127786285E+03  0.00000000000E+00 0.  1.
         21    1    1    2  504  503  0.17978044744E+02  0.72401221561E+02 -0.90062202643E+03  0.90370635799E+03  0.00000000000E+00 0.  1.
         21    1    1    2  505  506 -0.61110743089E+02 -0.99077259826E+02  0.99416901944E+01  0.11683177453E+03  0.00000000000E+00 0.  1.
         21    1    1    2  506  502  0.10966690465E+03 -0.68324501165E+01 -0.13514637504E+04  0.13559232209E+04  0.00000000000E+00 0.  1.
<scales pt_clust_3="74.49577" pt_clust_4="74.99705" pt_clust_5="134.54991" pt_clust_6="14000.00000"></scales>
<clustering>
<clus scale="   74.496">  1  3  2 -1</clus>
<clus scale="   74.997">  2  4  1 -1</clus>
<clus scale="  134.550">  1  5  2 -1</clus>
<clus scale="   74.496">  1  3  2 -1</clus>
</clustering>
</event>
<event>
 6    0  0.5510638E+002  0.6477225E+02  0.7546771E-02  0.1378830E+00
         21   -1    0    0  506  501  0.00000000000E+00  0.00000000000E+00  0.51945494023E+03  0.51945494023E+03  0.00000000000E+00 0.  1.
         21   -1    0    0  505  502 -0.00000000000E+00 -0.00000000000E+00 -0.40531881459E+02  0.40531881459E+02  0.00000000000E+00 0.  1.
         21    1    1    2  503  501  0.93334344357E+02 -0.24714027050E+02  0.80421099482E+02  0.12565681920E+03  0.00000000000E+00 0.  1.
         21    1    1    2  504  502 -0.15478514371E+02  0.30092420801E+02  0.48197053715E+02  0.58890527113E+02  0.00000000000E+00 0.  1.
         21    1    1    2  505  503 -0.35632571497E+02 -0.50091355320E+02  0.97492044128E+02  0.11525416564E+03  0.00000000000E+00 0.  1.
         21    1    1    2  506  504 -0.42223258489E+02  0.44712961570E+02  0.25281286145E+03  0.26018530974E+03  0.00000000000E+00 0.  1.
<scales pt_clust_3="64.77225" pt_clust_4="33.83989" pt_clust_5="58.04533" pt_clust_6="14000.00000"></scales>
<clustering>
<clus scale="   33.840">  2  4  1 -1</clus>
<clus scale="   58.045">  2  5  1 -1</clus>
<clus scale="   64.772">  2  3  1 -1</clus>
<clus scale="   64.772">  1  3  2 -1</clus>
</clustering>
</event>
<event>
 6    0  0.5510638E+002  0.3141647E+03  0.7546771E-02  0.1078367E+00
         21   -1    0    0  503  501  0.00000000000E+00  0.00000000000E+00  0.22472299967E+03  0.22472299967E+03  0.00000000000E+00 0. -1.
         21   -1    0    0  505  502 -0.00000000000E+00 -0.00000000000E+00 -0.75110926610E+03  0.75110926610E+03  0.00000000000E+00 0.  1.
         21    1    1    2  503  502 -0.68303734527E+02 -0.35541351812E+03 -0.43519909004E+03  0.56602333608E+03  0.00000000000E+00 0.  1.
         21    1    1    2  504  501  0.36855261984E+02  0.17182782038E+03 -0.17899821995E+02  0.17664516359E+03  0.00000000000E+00 0. -1.
         21    1    1    2  505  506  0.23123228109E+02  0.62241142392E+02 -0.88443409289E+02  0.11059330961E+03  0.00000000000E+00 0. -1.
         21    1    1    2  506  504  0.83252444341E+01  0.12134455534E+03  0.15156054894E+02  0.12257045650E+03  0.00000000000E+00 0. -1.
<scales pt_clust_3="311.71836" pt_clust_4="32.55345" pt_clust_5="66.39762" pt_clust_6="32.55345"></scales>
<clustering>
<clus scale="   32.553">  4  6 -1 -1</clus>
<clus scale="   66.398">  2  5  1 -1</clus>
<clus scale="  311.718">  2  3  1 -1</clus>
<clus scale="  314.165">  1  3  2 -1</clus>
</clustering>
</event>
<event>
 6    0  0.5510638E+002  0.1031110E+03  0.7546771E-02  0.1273887E+00
         21   -1    0    0  503  501  0.00000000000E+00  0.00000000000E+00  0.97310448629E+03  0.97310448629E+03  0.00000000000E+00 0.  1.
         21   -1    0    0  506  502 -0.00000000000E+00 -0.00000000000E+00 -0.13125712811E+03  0.13125712811E+03  0.00000000000E+00 0.  1.
         21    1    1    2  503  505  0.11028545136E+03 -0.87817835828E+02  0.51737132671E+03  0.53623496974E+03  0.00000000000E+00 0.  1.
         21    1    1    2  504  501 -0.88045286765E+02  0.41104929342E+01  0.32599919328E+03  0.33770451980E+03  0.00000000000E+00 0.  1.
         21    1    1    2  505  502  0.14662522322E+02  0.34171725830E+02 -0.10417815244E+03  0.11061547746E+03  0.00000000000E+00 0.  1.
         21    1    1    2  506  504 -0.36902686921E+02  0.49535617063E+02  0.10265499064E+03  0.11980664741E+03  0.00000000000E+00 0.  1.
<scales pt_clust_3="14000.00000" pt_clust_4="103.11104" pt_clust_5="37.18463" pt_clust_6="69.44090"></scales>
<clustering>
<clus scale="   37.185">  2  5  1 -1</clus>
<clus scale="   69.441">  2  6  1 -1</clus>
<clus scale="  103.111">  1  4  2 -1</clus>
<clus scale="  103.111">  1  3  2 -1</clus>
</clustering>
</event>
<event>
 6    0  0.5510638E+002  0.1408432E+03  0.7546771E-02  0.1212199E+00
         21   -1    0    0  503  501  0.00000000000E+00  0.00000000000E+00  0.24226652400E+03  0.24226652400E+03  0.00000000000E+00 0. -1.
         21   -1    0    0  504  502 -0.00000000000E+00 -0.00000000000E+00 -0.19648299546E+04  0.19648299546E+04  0.00000000000E+00 0.  1.
         21    1    1    2  503  505  0.32651439137E+02  0.55777665060E+01 -0.40345455637E+01  0.33369230060E+02  0.00000000000E+00 0. -1.
         21    1    1    2  504  506 -0.26188469777E+02  0.18361579250E+02 -0.13263793643E+03  0.13643975126E+03  0.00000000000E+00 0.  1.
         21    1    1    2  505  502  0.43433578058E+01  0.12127757103E+03 -0.17858257336E+04  0.17899443189E+04  0.00000000000E+00 0.  1.
         21    1    1    2  506  501 -0.10806327165E+02 -0.14521691679E+03  0.19993478501E+03  0.24734317836E+03  0.00000000000E+00 0. -1.
<scales pt_clust_3="32.89306" pt_clust_4="31.98411" pt_clust_5="14000.00000" pt_clust_6="140.84321"></scales>
<clustering>
<clus scale="   31.984">  2  4  1 -1</clus>
<clus scale="   32.893">  1  3  2 -1</clus>
<clus scale="  140.843">  1  6  2 -1</clus>
<clus scale="   32.893">  1  3  2 -1</clus>
</clustering>
</event>
<event>
 6    0  0.5510638E+002  0.1240423E+03  0.7546771E-02  0.1236574E+00
         21   -1    0    0  505  501  0.00000000000E+00  0.00000000000E+00  0.30102909678E+03  0.30102909678E+03  0.00000000000E+00 0.  1.
         21   -1    0    0  504  502 -0.00000000000E+00 -0.00000000000E+00 -0.47813091256E+03  0.47813091256E+03  0.00000000000E+00 0.  1.
         21    1    1    2  503  502 -0.11647636457E+02 -0.14715838984E+03 -0.32336414632E+03  0.35546537139E+03  0.00000000000E+00 0.  1.
         21    1    1    2  504  501 -0.90185761265E+01  0.36350548556E+02 -0.12254648392E+03  0.12814186598E+03  0.00000000000E+00 0.  1.
         21    1    1    2  505  506  0.34768104468E+02  0.56775301869E+02  0.15850995169E+03  0.17192341544E+03  0.00000000000E+00 0.  1.
         21    1    1    2  506  503 -0.14101891885E+02  0.54032539413E+02  0.11029886277E+03  0.12362935654E+03  0.00000000000E+00 0.  1.
<scales pt_clust_3="114.01186" pt_clust_4="37.45260" pt_clust_5="44.86711" pt_clust_6="44.86711"></scales>
<clustering>
<clus scale="   37.453">  2  4  1 -1</clus>
<clus scale="   44.867">  5  6 -1 -1</clus>
<clus scale="  114.012">  2  3  1 -1</clus>
<clus scale="  124.042">  1  3  2 -1</clus>
</clustering>
</event>
<event>
 6    0  0.5510638E+002  0.7452884E+02  0.7546771E-02  0.1345336E+00
         21   -1    0    0  506  501  0.00000000000E+00  0.00000000000E+00  0.14192108458E+02  0.14192108458E+02  0.00000000000E+00 0.  1.
         21   -1    0    0  505  502 -0.00000000000E+00 -0.00000000000E+00 -0.21034356322E+04  0.21034356322E+04  0.00000000000E+00 0.  1.
         21    1    1    2  503  502  0.41775432371E+02  0.97783458500E+02 -0.37008823624E+03  0.38506115633E+03  0.00000000000E+00 0.  1.
         21    1    1    2  504  501 -0.67026526689E+02 -0.27571915755E+02 -0.37003580395E+03  0.37706665462E+03  0.00000000000E+00 0.  1.
         21    1    1    2  505  504 -0.80693041254E+01 -0.70233097314E+02 -0.12233657107E+04  0.12254066524E+04  0.00000000000E+00 0.  1.
         21    1    1    2  506  503  0.33320398444E+02  0.21554568359E-01 -0.12575377286E+03  0.13009327733E+03  0.00000000000E+00 0.  1.
<scales pt_clust_3="74.52884" pt_clust_4="63.57083" pt_clust_5="14000.00000" pt_clust_6="33.32041"></scales>
<clustering>
<clus scale="   33.320">  1  6  2 -1</clus>
<clus scale="   63.571">  1  4  2 -1</clus>
<clus scale="   74.529">  1  3  2 -1</clus>
<clus scale="   33.320">  1  3  2 -1</clus>
</clustering>
</event>
<event>
 6    0  0.5510638E+002  0.1031496E+03  0.7546771E-02  0.1273809E+00
         21   -1    0    0  502  501  0.00000000000E+00  0.00000000000E+00  0.51015814577E+03  0.51015814577E+03  0.00000000000E+00 0. -1.
         21   -1    0    0  503  502 -0.00000000000E+00 -0.00000000000E+00 -0.39657640065E+03  0.39657640065E+03  0.00000000000E+00 0. -1.
         21    1    1    2  503  505  0.27631505133E+02 -0.11770855868E+02 -0.21815599432E+03  0.22021373931E+03  0.00000000000E+00 0. -1.
         21    1    1    2  504  501 -0.45660894315E+02  0.55497179050E+02  0.36342196486E+03  0.37045968566E+03  0.00000000000E+00 0. -1.
         21    1    1    2  505  506 -0.68605016401E+02 -0.87157656747E+02 -0.13478943074E+03  0.17456029343E+03  0.00000000000E+00 0. -1.
         21    1    1    2  506  504  0.86634405583E+02  0.43431333565E+02  0.10310520531E+03  0.14150082801E+03  0.00000000000E+00 0. -1.
<scales pt_clust_3="30.03420" pt_clust_4="71.33889" pt_clust_5="14000.00000" pt_clust_6="103.14961"></scales>
<clustering>
<clus scale="   30.034">  2  3  1 -1</clus>
<clus scale="   71.339">  1  4  2 -1</clus>
<clus scale="  103.150">  1  6  2 -1</clus>
<clus scale="   71.339">  1  3  2 -1</clus>
</clustering>
</event>
<event>
 6    0  0.5510638E+002  0.2267448E+03  0.7546771E-02  0.1128952E+00
         21   -1    0    0  506  501  0.00000000000E+00  0.00000000000E+00  0.13202074258E+04  0.13202074258E+04  0.00000000000E+00 0.  1.
         21   -1    0    0  503  502 -0.00000000000E+00 -0.00000000000E+00 -0.16490258960E+04  0.16490258960E+04  0.00000000000E+00 0.  1.
         21    1    1    2  503  504  0.12909460216E+03  0.14529786743E+03 -0.13041384839E+04  0.13185424042E+04  0.00000000000E+00 0.  1.
         21    1    1    2  504  505 -0.39669704980E+02 -0.31876202221E+02  0.24050897512E+03  0.24583397828E+03  0.00000000000E+00 0.  1.
         21    1    1    2  505  501 -0.49798205170E+02 -0.16768273743E+03  0.10592183462E+04  0.10735645610E+04  0.00000000000E+00 0.  1.
         21    1    1    2  506  502 -0.39626692008E+02  0.54261072225E+02 -0.32440730762E+03  0.33129237829E+03  0.00000000000E+00 0. -1.
<scales pt_clust_3="218.44929" pt_clust_4="32.77866" pt_clust_5="32.77866" pt_clust_6="67.19032"></scales>
<clustering>
<clus scale="   32.779">  4  5 -1 -1</clus>
<clus scale="   67.190">  2  6  1 -1</clus>
<clus scale="  218.449">  2  3  1 -1</clus>
<clus scale="  226.745">  1  3  2 -1</clus>
</clustering>
</event>
<event>
 6    0  0.1396964E+003  0.1477744E+03  0.7546771E-02  0.1203235E+00
         21   -1    0    0  502  501  0.00000000000E+00  0.00000000000E+00  0.30217566487E+03  0.30217566487E+03  0.00000000000E+00 0.  1.
         21   -1    0    0  504  502 -0.00000000000E+00 -0.00000000000E+00 -0.48575089406E+03  0.48575089406E+03  0.00000000000E+00 0.  1.
         21    1    1    2  503  506 -0.36868891481E+02  0.22994396912E+02  0.27239980905E+02  0.51284247173E+02  0.00000000000E+00 0.  1.
         21    1    1    2  504  503  0.60925103437E+02 -0.13839289139E+03 -0.43765472199E+03  0.46304008066E+03  0.00000000000E+00 0.  1.
         21    1    1    2  505  501 -0.18811723854E+02  0.65215410115E+02  0.20954599610E+03  0.22026451178E+03  0.00000000000E+00 0.  1.
         21    1    1    2  506  505 -0.52444881011E+01  0.50183084366E+02  0.17293515803E+02  0.53337719306E+02  0.00000000000E+00 0.  1.
<scales pt_clust_3="39.74207" pt_clust_4="141.43275" pt_clust_5="67.87437" pt_clust_6="39.74207"></scales>
<clustering>
<clus scale="   39.742">  3  6 -1 -1</clus>
<clus scale="   67.874">  1  5  2 -1</clus>
<clus scale="  141.433">  2  4  1 -1</clus>
<clus scale="   67.874">  1  3  2 -1</clus>
</clustering>
</event>
<event>
 6    0  0.5510638E+002  0.1123844E+03  0.7546771E-02  0.1256217E+00
         21   -1    0    0  504  501  0.00000000000E+00  0.00000000000E+00  0.36952836462E+03  0.36952836462E+03  0.00000000000E+00 0. -1.
         21   -1    0    0  506  502 -0.00000000000E+00 -0.00000000000E+00 -0.13408607807E+03  0.13408607807E+03  0.00000000000E+00 0.  1.
         21    1    1    2  503  505  0.15007210856E+02  0.63135193436E+02 -0.24127627937E+02  0.69234467267E+02  0.00000000000E+00 0.  1.
         21    1    1    2  504  502  0.31853245427E+02  0.22484658849E+02  0.25926532912E+02  0.46822796122E+02  0.00000000000E+00 0. -1.
         21    1    1    2  505  501 -0.44562874289E+02 -0.11742854192E+03  0.29377153405E+03  0.31949495527E+03  0.00000000000E+00 0. -1.
         21    1    1    2  506  503 -0.22975819940E+01  0.31808689633E+02 -0.60128152479E+02  0.68062224029E+02  0.00000000000E+00 0. -1.
<scales pt_clust_3="14000.00000" pt_clust_4="41.64773" pt_clust_5="112.38440" pt_clust_6="31.89156"></scales>
<clustering>
<clus scale="   31.892">  2  6  1 -1</clus>
<clus scale="   41.648">  2  4  1 -1</clus>
<clus scale="  112.384">  1  5  2 -1</clus>
<clus scale="  112.384">  1  3  2 -1</clus>
</clustering>
</event>
<event>
 6    0  0.5510638E+002  0.2869462E+03  0.7546771E-02  0.1091954E+00
         21   -1    0    0  504  501  0.00000000000E+00  0.00000000000E+00  0.13792120484E+03  0.13792120484E+03  0.00000000000E+00 0.  1.
         21   -1    0    0  506  502 -0.00000000000E+00 -0.00000000000E+00 -0.10724206424E+04  0.10724206424E+04  0.00000000000E+00 0.  1.
         21    1    1    2  503  502 -0.18615414125E+02 -0.28008713020E+02 -0.41044862522E+03  0.41182410759E+03  0.00000000000E+00 0.  1.
         21    1    1    2  504  503  0.24547353863E+03  0.14486389274E+03 -0.10981623048E+03  0.30545443206E+03  0.00000000000E+00 0.  1.
         21    1    1    2  505  501 -0.76415175769E+02 -0.59976320086E+02 -0.22264233786E+03  0.24291160669E+03  0.00000000000E+00 0.  1.
         21    1    1    2  506  505 -0.15044294874E+03 -0.56878859639E+02 -0.19159224398E+03  0.25015170087E+03  0.00000000000E+00 0.  1.
<scales pt_clust_3="33.63067" pt_clust_4="275.56621" pt_clust_5="63.88669" pt_clust_6="63.88669"></scales>
<clustering>
<clus scale="   33.631">  2  3  1 -1</clus>
<clus scale="   63.887">  5  6 -1 -1</clus>
<clus scale="  275.566">  1  4  2 -1</clus>
<clus scale="  275.566">  1  3  2 -1</clus>
</clustering>
</event>
<event>
 6    0  0.5510638E+002  0.1559282E+03  0.7546771E-02  0.1193372E+00
         21   -1    0    0  504  501  0.00000000000E+00  0.00000000000E+00  0.67821142811E+03  0.67821142811E+03  0.00000000000E+00 0.  1.
         21   -1    0    0  506  502 -0.00000000000E+00 -0.00000000000E+00 -0.32890509926E+03  0.32890509926E+03  0.00000000000E+00 0. -1.
         21    1    1    2  503  502 -0.48157109198E+01  0.78487681801E+02 -0.22013644001E+03  0.23375961902E+03  0.00000000000E+00 0. -1.
         21    1    1    2  504  505  0.33382844145E+02 -0.87199810176E+02  0.41876958537E+03  0.42905266204E+03  0.00000000000E+00 0.  1.
         21    1    1    2  505  503 -0.10953937915E+01 -0.68313539602E+02  0.22417114064E+03  0.23435153056E+03  0.00000000000E+00 0. -1.
         21    1    1    2  506  501 -0.27471739434E+02  0.77025667977E+02 -0.73497957148E+02  0.10995271574E+03  0.00000000000E+00 0. -1.
<scales pt_clust_3="78.63528" pt_clust_4="33.19018" pt_clust_5="33.19018" pt_clust_6="151.02366"></scales>
<clustering>
<clus scale="   33.190">  4  5 -1 -1</clus>
<clus scale="   78.635">  2  3  1 -1</clus>
<clus scale="  151.024">  2  6  1 -1</clus>
<clus scale="  155.928">  1  3  2 -1</clus>
</clustering>
</event>
<event>
 6    0  0.5510638E+002  0.7177335E+02  0.7546771E-02  0.1354164E+00
         21   -1    0    0  506  501  0.00000000000E+00  0.00000000000E+00  0.22585161525E+03  0.22585161525E+03  0.00000000000E+00 0.  1.
         21   -1    0    0  504  502 -0.00000000000E+00 -0.00000000000E+00 -0.29989311042E+03  0.29989311042E+03  0.00000000000E+00 0.  1.
         21    1    1    2  503  505  0.59466697346E+01 -0.47370740229E+02  0.34943367196E+02  0.59164083884E+02  0.00000000000E+00 0.  1.
         21    1    1    2  504  503  0.57327358086E+02  0.43561496753E+02 -0.24972115698E+03  0.25989360560E+03  0.00000000000E+00 0.  1.
         21    1    1    2  505  501  0.32562935103E+02 -0.17102946333E+02  0.20783671552E+01  0.36839857842E+02  0.00000000000E+00 0.  1.
         21    1    1    2  506  502 -0.95836962923E+02  0.20912189810E+02  0.13865792746E+03  0.16984717835E+03  0.00000000000E+00 0.  1.
<scales pt_clust_3="52.98463" pt_clust_4="71.77335" pt_clust_5="36.78118" pt_clust_6="14000.00000"></scales>
<clustering>
<clus scale="   36.781">  1  5  2 -1</clus>
<clus scale="   52.985">  1  3  2 -1</clus>
<clus scale="   71.773">  2  4  1 -1</clus>
<clus scale="   36.781">  1  3  2 -1</clus>
</clustering>
</event>
<event>
 6    0  0.5510638E+002  0.9156463E+02  0.7546771E-02  0.1299106E+00
         21   -1    0    0  506  501  0.00000000000E+00  0.00000000000E+00  0.17571325397E+03  0.17571325397E+03  0.00000000000E+00 0.  1.
         21   -1    0    0  503  502 -0.00000000000E+00 -0.00000000000E+00 -0.20054745917E+03  0.20054745917E+03  0.00000000000E+00 0.  1.
         21    1    1    2  503  505 -0.34377573192E+02 -0.76203795078E+02 -0.93351866198E+02  0.12531323492E+03  0.00000000000E+00 0.  1.
         21    1    1    2  504  502 -0.19782763113E+02 -0.58323278195E+02  0.32708274463E+02  0.69733734406E+02  0.00000000000E+00 0.  1.
         21    1    1    2  505  501  0.27605092556E+02  0.11574494873E+03 -0.15977881820E+02  0.12005926453E+03  0.00000000000E+00 0.  1.
         21    1    1    2  506  504  0.26555243749E+02  0.18782124544E+02  0.51787268355E+02  0.61154479285E+02  0.00000000000E+00 0.  1.
<scales pt_clust_3="91.56463" pt_clust_4="50.94855" pt_clust_5="14000.00000" pt_clust_6="32.52613"></scales>
<clustering>
<clus scale="   32.526">  1  6  2 -1</clus>
<clus scale="   50.949">  1  4  2 -1</clus>
<clus scale="   91.565">  2  3  1 -1</clus>
<clus scale="   32.526">  1  3  2 -1</clus>
</clustering>
</event>
<event>
 6    0  0.5510638E+002  0.2220273E+03  0.7546771E-02  0.1132381E+00
         21   -1    0    0  505  501  0.00000000000E+00  0.00000000000E+00  0.51564940674E+03  0.51564940674E+03  0.00000000000E+00 0.  1.
         21   -1    0    0  504  502 -0.00000000000E+00 -0.00000000000E+00 -0.13130011203E+04  0.13130011203E+04  0.00000000000E+00 0. -1.
         21    1    1    2  503  501  0.11766332372E+03 -0.40336977554E+02 -0.35220954818E+03  0.37352817208E+03  0.00000000000E+00 0. -1.
         21    1    1    2  504  506  0.21725609907E+02 -0.40484775833E+02 -0.67744351558E+03  0.67899980559E+03  0.00000000000E+00 0. -1.
         21    1    1    2  505  502 -0.18117958329E+03  0.12124117264E+03  0.47708262057E+03  0.52453149590E+03  0.00000000000E+00 0.  1.
         21    1    1    2  506  503  0.41790649662E+02 -0.40419419251E+02 -0.24478127034E+03  0.25159105342E+03  0.00000000000E+00 0. -1.
<scales pt_clust_3="33.69382" pt_clust_4="45.94583" pt_clust_5="216.48854" pt_clust_6="33.69382"></scales>
<clustering>
<clus scale="   33.694">  3  6 -1 -1</clus>
<clus scale="   45.946">  2  4  1 -1</clus>
<clus scale="  216.489">  1  5  2 -1</clus>
<clus scale="  216.489">  1  3  2 -1</clus>
</clustering>
</event>
<event>
 6    0  0.5510638E+002  0.1222751E+03  0.7546771E-02  0.1239390E+00
         21   -1    0    0  503  501  0.00000000000E+00  0.00000000000E+00  0.62256361795E+02  0.62256361795E+02  0.00000000000E+00 0. -1.
         21   -1    0    0  504  502 -0.00000000000E+00 -0.00000000000E+00 -0.13987539359E+04  0.13987539359E+04  0.00000000000E+00 0.  1.
         21    1    1    2  503  506  0.58205494571E+01 -0.49310842983E+02  0.35719908096E+01  0.49781494052E+02  0.00000000000E+00 0. -1.
         21    1    1    2  504  505  0.42362586485E+02  0.52020808428E+02 -0.76819675309E+03  0.77112061618E+03  0.00000000000E+00 0.  1.
         21    1    1    2  505  501  0.88984462081E+02 -0.43916690019E+02 -0.78972281141E+02  0.12682086320E+03  0.00000000000E+00 0. -1.
         21    1    1    2  506  502 -0.13716759802E+03  0.41206724574E+02 -0.49290053065E+03  0.51328732423E+03  0.00000000000E+00 0.  1.
<scales pt_clust_3="49.65318" pt_clust_4="65.68391" pt_clust_5="122.27512" pt_clust_6="14000.00000"></scales>
<clustering>
<clus scale="   49.653">  1  3  2 -1</clus>
<clus scale="   65.684">  2  4  1 -1</clus>
<clus scale="  122.275">  1  5  2 -1</clus>
<clus scale="   49.653">  1  3  2 -1</clus>
</clustering>
</event>
<event>
 6    0  0.5510638E+002  0.1132674E+03  0.7546771E-02  0.1254636E+00
         21   -1    0    0  503  501  0.00000000000E+00  0.00000000000E+00  0.44587847816E+03  0.44587847816E+03  0.00000000000E+00 0.  1.
         21   -1    0    0  506  502 -0.00000000000E+00 -0.00000000000E+00 -0.44015519284E+03  0.44015519284E+03  0.00000000000E+00 0.  1.
         21    1    1    2  503  505  0.35719940954E+02 -0.21952297756E+02  0.45467263506E+02  0.61847308828E+02  0.00000000000E+00 0.  1.
         21    1    1    2  504  501  0.68276313584E+02 -0.45042740309E+02  0.34822648980E+03  0.35770405596E+03  0.00000000000E+00 0.  1.
         21    1    1    2  505  502 -0.53701297329E+02  0.87028554676E+02 -0.33071740889E+02  0.10747808479E+03  0.00000000000E+00 0. -1.
         21    1    1    2  506  504 -0.50294957209E+02 -0.20033516612E+02 -0.35489872709E+03  0.35900422142E+03  0.00000000000E+00 0.  1.
<scales pt_clust_3="41.92633" pt_clust_4="14000.00000" pt_clust_5="113.26744" pt_clust_6="54.00714"></scales>
<clustering>
<clus scale="   41.926">  1  3  2 -1</clus>
<clus scale="   54.007">  2  6  1 -1</clus>
<clus scale="  113.267">  2  5  1 -1</clus>
<clus scale="   41.926">  1  3  2 -1</clus>
</clustering>
</event>
<event>
 6    0  0.5510638E+002  0.1263882E+03  0.7546771E-02  0.1232916E+00
         21   -1    0    0  503  501  0.00000000000E+00  0.00000000000E+00  0.47094017999E+03  0.47094017999E+03  0.00000000000E+00 0. -1.
         21   -1    0    0  505  502 -0.00000000000E+00 -0.00000000000E+00 -0.14088220240E+03  0.14088220240E+03  0.00000000000E+00 0. -1.
         21    1    1    2  503  506 -0.53273334026E+02 -0.14231807118E+02  0.33807679009E+03  0.34254417007E+03  0.00000000000E+00 0. -1.
         21    1    1    2  504  501  0.42771924290E+02  0.23448075788E+02 -0.17710868944E+00  0.48777875447E+02  0.00000000000E+00 0. -1.
         21    1    1    2  505  504  0.77119937778E+02  0.22485100494E+02 -0.82772908578E+02  0.11534478290E+03  0.00000000000E+00 0. -1.
         21    1    1    2  506  502 -0.66618528042E+02 -0.31701369163E+02  0.74931204770E+02  0.10515555398E+03  0.00000000000E+00 0. -1.
<scales pt_clust_3="55.14157" pt_clust_4="46.56949" pt_clust_5="46.56949" pt_clust_6="111.36582"></scales>
<clustering>
<clus scale="   46.569">  4  5 -1 -1</clus>
<clus scale="   55.142">  1  3  2 -1</clus>
<clus scale="  111.366">  1  6  2 -1</clus>
<clus scale="   55.142">  1  3  2 -1</clus>
</clustering>
</event>
<event>
 6    0  0.5510638E+002  0.8719252E+02  0.7546771E-02  0.1309796E+00
         21   -1    0    0  503  501  0.00000000000E+00  0.00000000000E+00  0.28731438328E+03  0.28731438328E+03  0.00000000000E+00 0.  1.
         21   -1    0    0  505  502 -0.00000000000E+00 -0.00000000000E+00 -0.10369554845E+04  0.10369554845E+04  0.00000000000E+00 0.  1.
         21    1    1    2  503  502 -0.25165817412E+02  0.43455764288E+02 -0.93840598239E+03  0.93974864171E+03  0.00000000000E+00 0.  1.
         21    1    1    2  504  501  0.35774702028E+02  0.29368784561E+02  0.17162722178E+03  0.17775898871E+03  0.00000000000E+00 0.  1.
         21    1    1    2  505  506 -0.45138192546E+02 -0.11463533450E+03 -0.38493497970E+02  0.12907542650E+03  0.00000000000E+00 0. -1.
         21    1    1    2  506  504  0.34529307930E+02  0.41810785646E+02  0.55631157401E+02  0.77686810825E+02  0.00000000000E+00 0.  1.
<scales pt_clust_3="50.26211" pt_clust_4="46.28558" pt_clust_5="87.19252" pt_clust_6="14000.00000"></scales>
<clustering>
<clus scale="   46.286">  1  4  2 -1</clus>
<clus scale="   50.262">  2  3  1 -1</clus>
<clus scale="   87.193">  2  5  1 -1</clus>
<clus scale="   46.286">  1  3  2 -1</clus>
</clustering>
</event>
<event>
 6    0  0.5510638E+002  0.9158786E+02  0.7546771E-02  0.1299051E+00
         21   -1    0    0  503  501  0.00000000000E+00  0.00000000000E+00  0.10983852042E+03  0.10983852042E+03  0.00000000000E+00 0.  1.
         21   -1    0    0  506  502 -0.00000000000E+00 -0.00000000000E+00 -0.59530414900E+03  0.59530414900E+03  0.00000000000E+00 0.  1.
         21    1    1    2  503  505  0.10068910853E+03 -0.25849946601E+02 -0.12791763047E+03  0.16483153976E+03  0.00000000000E+00 0.  1.
         21    1    1    2  504  501  0.63708616786E+01  0.34212009678E+02  0.21293561067E+02  0.40797858126E+02  0.00000000000E+00 0.  1.
         21    1    1    2  505  502 -0.41465897639E+02 -0.54150839096E+02 -0.40853203870E+03  0.41418614256E+03  0.00000000000E+00 0.  1.
         21    1    1    2  506  504 -0.65594072569E+02  0.45788776020E+02  0.29690479523E+02  0.85327128979E+02  0.00000000000E+00 0.  1.
<scales pt_clust_3="91.58786" pt_clust_4="34.80014" pt_clust_5="67.09243" pt_clust_6="14000.00000"></scales>
<clustering>
<clus scale="   34.800">  1  4  2 -1</clus>
<clus scale="   67.092">  2  5  1 -1</clus>
<clus scale="   91.588">  2  3  1 -1</clus>
<clus scale="   34.800">  1  3  2 -1</clus>
</clustering>
</event>
<event>
 6    0  0.5510638E+002  0.1675084E+03  0.7546771E-02  0.1180471E+00
         21   -1    0    0  505  501  0.00000000000E+00  0.00000000000E+00  0.17538818335E+03  0.17538818335E+03  0.00000000000E+00 0. -1.
         21   -1    0    0  503  502 -0.00000000000E+00 -0.00000000000E+00 -0.92897990779E+03  0.92897990779E+03  0.00000000000E+00 0. -1.
         21    1    1    2  503  504  0.16538998365E+02  0.40606389477E+02 -0.63896966300E+02  0.77493481245E+02  0.00000000000E+00 0.  1.
         21    1    1    2  504  506  0.12720785664E+02  0.79123903722E+02  0.97828941946E+02  0.12646308715E+03  0.00000000000E+00 0. -1.
         21    1    1    2  505  502 -0.27433813748E+02 -0.19225465506E+03 -0.80306943177E+03  0.82621727092E+03  0.00000000000E+00 0. -1.
         21    1    1    2  506  501 -0.18259702816E+01  0.72524361858E+02  0.15545731683E+02  0.74194251825E+02  0.00000000000E+00 0.  1.
<scales pt_clust_3="43.84538" pt_clust_4="62.65486" pt_clust_5="154.16034" pt_clust_6="62.65486"></scales>
<clustering>
<clus scale="   43.845">  2  3  1 -1</clus>
<clus scale="   62.655">  4  6 -1 -1</clus>
<clus scale="  154.160">  2  5  1 -1</clus>
<clus scale="  167.508">  1  3  2 -1</clus>
</clustering>
</event>
<event>
 6    0  0.5510638E+002  0.9508045E+02  0.7546771E-02  0.1290995E+00
         21   -1    0    0  505  501  0.00000000000E+00  0.00000000000E+00  0.32418342604E+03  0.32418342604E+03  0.00000000000E+00 0. -1.
         21   -1    0    0  504  502 -0.00000000000E+00 -0.00000000000E+00 -0.27001153742E+03  0.27001153742E+03  0.00000000000E+00 0. -1.
         21    1    1    2  503  501 -0.22159946886E+02  0.30255651748E+02  0.25458160450E+03  0.25732909097E+03  0.00000000000E+00 0. -1.
         21    1    1    2  504  503  0.15140808874E+00 -0.11864479090E+03 -0.15175143173E+03  0.19262685785E+03  0.00000000000E+00 0. -1.
         21    1    1    2  505  506 -0.27787845438E+02  0.22970161351E+02  0.16195762501E+02  0.39523352459E+02  0.00000000000E+00 0. -1.
         21    1    1    2  506  502  0.49796384235E+02  0.65418977805E+02 -0.64854046642E+02  0.10471566218E+03  0.00000000000E+00 0.  1.
<scales pt_clust_3="68.12207" pt_clust_4="14000.00000" pt_clust_5="36.05264" pt_clust_6="95.08045"></scales>
<clustering>
<clus scale="   36.053">  1  5  2 -1</clus>
<clus scale="   68.122">  1  3  2 -1</clus>
<clus scale="   95.080">  2  6  1 -1</clus>
<clus scale="   36.053">  1  3  2 -1</clus>
</clustering>
</event>
<event>
 6    0  0.5510638E+002  0.8170326E+03  0.7546771E-02  0.9535685E-01
         21   -1    0    0  506  501  0.00000000000E+00  0.00000000000E+00  0.21951671407E+04  0.21951671407E+04  0.00000000000E+00 0. -1.
         21   -1    0    0  504  502 -0.00000000000E+00 -0.00000000000E+00 -0.84949456438E+03  0.84949456438E+03  0.00000000000E+00 0. -1.
         21    1    1    2  503  505 -0.30168737298E+03  0.11106595902E+03  0.72878676026E+03  0.79654319418E+03  0.00000000000E+00 0.  1.
         21    1    1    2  504  501  0.83237196252E+03 -0.18509352854E+03 -0.43804575465E+03  0.95863798249E+03  0.00000000000E+00 0. -1.
         21    1    1    2  505  502 -0.85805579927E+02 -0.13524933753E+03  0.45216516481E+02  0.16643171035E+03  0.00000000000E+00 0.  1.
         21    1    1    2  506  503 -0.44487900961E+03  0.20927690705E+03  0.10097150543E+04  0.11230488181E+04  0.00000000000E+00 0. -1.
<scales pt_clust_3="40.13979" pt_clust_4="815.52331" pt_clust_5="160.17172" pt_clust_6="40.13979"></scales>
<clustering>
<clus scale="   40.140">  3  6 -1 -1</clus>
<clus scale="  160.172">  2  5  1 -1</clus>
<clus scale="  815.523">  2  4  1 -1</clus>
<clus scale="  817.033">  1  3  2 -1</clus>
</clustering>
</event>
<event>
 6    0  0.5510638E+002  0.1048716E+03  0.7546771E-02  0.1270373E+00
         21   -1    0    0  505  501  0.00000000000E+00  0.00000000000E+00  0.15622620329E+03  0.15622620329E+03  0.00000000000E+00 0.  1.
         21   -1    0    0  504  502 -0.00000000000E+00 -0.00000000000E+00 -0.57137604224E+03  0.57137604224E+03  0.00000000000E+00 0.  1.
         21    1    1    2  503  502  0.25125410573E+02 -0.24072040057E+02  0.11433950391E+01  0.34814604999E+02  0.00000000000E+00 0.  1.
         21    1    1    2  504  506 -0.29833446391E+01  0.61408899190E+02 -0.50057004404E+03  0.50433155983E+03  0.00000000000E+00 0.  1.
         21    1    1    2  505  503  0.30293225486E+02 -0.83409703242E+02  0.78393331636E+02  0.11840765410E+03  0.00000000000E+00 0.  1.
         21    1    1    2  506  501 -0.52435291420E+02  0.46072844109E+02  0.58834784120E+01  0.70048426598E+02  0.00000000000E+00 0.  1.
<scales pt_clust_3="31.48049" pt_clust_4="61.48132" pt_clust_5="31.48049" pt_clust_6="92.03608"></scales>
<clustering>
<clus scale="   31.480">  3  5 -1 -1</clus>
<clus scale="   61.481">  2  4  1 -1</clus>
<clus scale="   92.036">  1  6  2 -1</clus>
<clus scale="   92.036">  1  3  2 -1</clus>
</clustering>
</event>
<event>
 6    0  0.5510638E+002  0.8068678E+02  0.7546771E-02  0.1327114E+00
         21   -1    0    0  505  501  0.00000000000E+00  0.00000000000E+00  0.16839392266E+03  0.16839392266E+03  0.00000000000E+00 0. -1.
         21   -1    0    0  504  502 -0.00000000000E+00 -0.00000000000E+00 -0.63676849661E+03  0.63676849661E+03  0.00000000000E+00 0. -1.
         21    1    1    2  503  506 -0.52645112450E+02  0.21027458800E+02 -0.16022365695E+02  0.58909915048E+02  0.00000000000E+00 0. -1.
         21    1    1    2  504  503 -0.38375264093E+02 -0.71578258514E+02 -0.57103055933E+03  0.57677726002E+03  0.00000000000E+00 0. -1.
         21    1    1    2  505  502  0.85246680092E+02  0.20379340080E+02  0.10212491419E+03  0.13458013251E+03  0.00000000000E+00 0. -1.
         21    1    1    2  506  501  0.57736964512E+01  0.30171459634E+02  0.16553436885E+02  0.34895111690E+02  0.00000000000E+00 0. -1.
<scales pt_clust_3="57.74359" pt_clust_4="80.68678" pt_clust_5="14000.00000" pt_clust_6="30.71893"></scales>
<clustering>
<clus scale="   30.719">  1  6  2 -1</clus>
<clus scale="   57.744">  1  3  2 -1</clus>
<clus scale="   80.687">  2  4  1 -1</clus>
<clus scale="   30.719">  1  3  2 -1</clus>
</clustering>
</event>
<event>
 6    0  0.5510638E+002  0.1025268E+03  0.7546771E-02  0.1275070E+00
         21   -1    0    0  505  501  0.00000000000E+00  0.00000000000E+00  0.71795618880E+03  0.71795618880E+03  0.00000000000E+00 0. -1.
         21   -1    0    0  503  502 -0.00000000000E+00 -0.00000000000E+00 -0.63616906721E+02  0.63616906721E+02  0.00000000000E+00 0. -1.
         21    1    1    2  503  506 -0.12918958489E+03 -0.17176657377E+01  0.97004279342E+02  0.16156339137E+03  0.00000000000E+00 0. -1.
         21    1    1    2  504  502 -0.18309699405E+02 -0.39669440601E+02  0.13129353706E+02  0.45621152316E+02  0.00000000000E+00 0. -1.
         21    1    1    2  505  504  0.50424855284E+02  0.54155522470E+02  0.13841456900E+03  0.15695247547E+03  0.00000000000E+00 0. -1.
         21    1    1    2  506  501  0.97074429014E+02 -0.12768416131E+02  0.40579108003E+03  0.41743607637E+03  0.00000000000E+00 0. -1.
<scales pt_clust_3="102.52678" pt_clust_4="43.69107" pt_clust_5="65.92840" pt_clust_6="14000.00000"></scales>
<clustering>
<clus scale="   43.691">  2  4  1 -1</clus>
<clus scale="   65.928">  2  5  1 -1</clus>
<clus scale="  102.527">  2  3  1 -1</clus>
<clus scale="  102.527">  1  3  2 -1</clus>
</clustering>
</event>
<event>
 6    0  0.5510638E+002  0.9641074E+02  0.7546771E-02  0.1288030E+00
         21   -1    0    0  506  501  0.00000000000E+00  0.00000000000E+00  0.21349720905E+03  0.21349720905E+03  0.00000000000E+00 0.  1.
         21   -1    0    0  505  502 -0.00000000000E+00 -0.00000000000E+00 -0.15610581050E+04  0.15610581050E+04  0.00000000000E+00 0. -1.
         21    1    1    2  503  502  0.27010688519E+02 -0.10087365499E+03 -0.93031801843E+03  0.93616060961E+03  0.00000000000E+00 0. -1.
         21    1    1    2  504  501 -0.57395960353E+02  0.49528963720E+02  0.12836018708E+03  0.14907632991E+03  0.00000000000E+00 0.  1.
         21    1    1    2  505  504  0.66287766789E+02  0.68745317185E+02 -0.60789197376E+03  0.61534757530E+03  0.00000000000E+00 0. -1.
         21    1    1    2  506  503 -0.35902494955E+02 -0.17400625919E+02  0.62288909194E+02  0.73970799205E+02  0.00000000000E+00 0.  1.
<scales pt_clust_3="14000.00000" pt_clust_4="96.41074" pt_clust_5="94.53900" pt_clust_6="39.89700"></scales>
<clustering>
<clus scale="   39.897">  1  6  2 -1</clus>
<clus scale="   94.539">  2  5  1 -1</clus>
<clus scale="   96.411">  1  4  2 -1</clus>
<clus scale="   39.897">  1  3  2 -1</clus>
</clustering>
</event>
<event>
 6    0  0.5510638E+002  0.1223891E+03  0.7546771E-02  0.1239207E+00
         21   -1    0    0  503  501  0.00000000000E+00  0.00000000000E+00  0.14727397052E+03  0.14727397052E+03  0.00000000000E+00 0.  1.
         21   -1    0    0  504  502 -0.00000000000E+00 -0.00000000000E+00 -0.13661120745E+04  0.13661120745E+04  0.00000000000E+00 0.  1.
         21    1    1    2  503  502 -0.10273088160E+03  0.97558784740E+02  0.23978615711E+01  0.14169368460E+03  0.00000000000E+00 0.  1.
         21    1    1    2  504  505  0.36724323049E+02 -0.11665184906E+03 -0.12654143175E+04  0.12713102394E+04  0.00000000000E+00 0.  1.
         21    1    1    2  505  506  0.40445712321E+02  0.38310700604E+02  0.16536352744E+02  0.58112101906E+02  0.00000000000E+00 0. -1.
         21    1    1    2  506  501  0.25560846235E+02 -0.19217636281E+02  0.27641999157E+02  0.42270019185E+02  0.00000000000E+00 0.  1.
<scales pt_clust_3="14000.00000" pt_clust_4="122.38913" pt_clust_5="58.43183" pt_clust_6="31.97928"></scales>
<clustering>
<clus scale="   31.979">  1  6  2 -1</clus>
<clus scale="   58.432">  1  5  2 -1</clus>
<clus scale="  122.389">  2  4  1 -1</clus>
<clus scale="   31.979">  1  3  2 -1</clus>
</clustering>
</event>
<event>
 6    0  0.5510638E+002  0.7637719E+02  0.7546771E-02  0.1339659E+00
         21   -1    0    0  505  501  0.00000000000E+00  0.00000000000E+00  0.12415865645E+04  0.12415865645E+04  0.00000000000E+00 0. -1.
         21   -1    0    0  506  502 -0.00000000000E+00 -0.00000000000E+00 -0.16333877608E+03  0.16333877608E+03  0.00000000000E+00 0.  1.
         21    1    1    2  503  502 -0.32243254246E+01 -0.76756617953E+02 -0.14155452325E+03  0.16105793283E+03  0.00000000000E+00 0.  1.
         21    1    1    2  504  501  0.80246538906E+01 -0.32626351051E+02  0.66926494051E+03  0.67010777823E+03  0.00000000000E+00 0. -1.
         21    1    1    2  505  503  0.56827309023E+02  0.45560367476E+02  0.24313362674E+03  0.25380908295E+03  0.00000000000E+00 0. -1.
         21    1    1    2  506  504 -0.61627637489E+02  0.63822601527E+02  0.30740374442E+03  0.31995054657E+03  0.00000000000E+00 0. -1.
<scales pt_clust_3="76.37719" pt_clust_4="33.59872" pt_clust_5="67.99108" pt_clust_6="14000.00000"></scales>
<clustering>
<clus scale="   33.599">  1  4  2 -1</clus>
<clus scale="   67.991">  1  5  2 -1</clus>
<clus scale="   76.377">  2  3  1 -1</clus>
<clus scale="   33.599">  1  3  2 -1</clus>
</clustering>
</event>
<event>
 6    0  0.5510638E+002  0.1987679E+03  0.7546771E-02  0.1150783E+00
         21   -1    0    0  503  501  0.00000000000E+00  0.00000000000E+00  0.19809505466E+03  0.19809505466E+03  0.00000000000E+00 0.  1.
         21   -1    0    0  504  502 -0.00000000000E+00 -0.00000000000E+00 -0.10842794327E+04  0.10842794327E+04  0.00000000000E+00 0.  1.
         21    1    1    2  503  506 -0.95542673201E+02  0.13531554923E+03  0.67180132322E+02  0.17875086138E+03  0.00000000000E+00 0.  1.
         21    1    1    2  504  505  0.41399282949E+02 -0.17070122740E+03 -0.94246689911E+03  0.95869529340E+03  0.00000000000E+00 0.  1.
         21    1    1    2  505  501  0.25625641405E+02  0.58993518574E+02  0.44561812076E+02  0.78247452525E+02  0.00000000000E+00 0. -1.
         21    1    1    2  506  502  0.28517748847E+02 -0.23607840404E+02 -0.55459423285E+02  0.66680880010E+02  0.00000000000E+00 0. -1.
<scales pt_clust_3="198.76791" pt_clust_4="14000.00000" pt_clust_5="64.15207" pt_clust_6="37.02151"></scales>
<clustering>
<clus scale="   37.022">  2  6  1 -1</clus>
<clus scale="   64.152">  1  5  2 -1</clus>
<clus scale="  198.768">  1  3  2 -1</clus>
<clus scale="   64.152">  1  3  2 -1</clus>
</clustering>
</event>
<event>
 6    0  0.5510638E+002  0.1431776E+03  0.7546771E-02  0.1209116E+00
         21   -1    0    0  504  501  0.00000000000E+00  0.00000000000E+00  0.74555592851E+03  0.74555592851E+03  0.00000000000E+00 0. -1.
         21   -1    0    0  506  502 -0.00000000000E+00 -0.00000000000E+00 -0.22883569079E+03  0.22883569079E+03  0.00000000000E+00 0. -1.
         21    1    1    2  503  505 -0.27468047871E+02  0.16318028777E+03  0.24287294603E+03  0.29388699850E+03  0.00000000000E+00 0. -1.
         21    1    1    2  504  503  0.37324065520E+02  0.30455473553E+01  0.14547912643E+03  0.15022162778E+03  0.00000000000E+00 0. -1.
         21    1    1    2  505  502  0.46218009186E+01 -0.33840089575E+02 -0.18587399952E+03  0.18898586298E+03  0.00000000000E+00 0. -1.
         21    1    1    2  506  501 -0.14477818568E+02 -0.13238574556E+03  0.31424216477E+03  0.34129713004E+03  0.00000000000E+00 0. -1.
<scales pt_clust_3="14000.00000" pt_clust_4="37.60506" pt_clust_5="34.15425" pt_clust_6="143.17760"></scales>
<clustering>
<clus scale="   34.154">  2  5  1 -1</clus>
<clus scale="   37.605">  1  4  2 -1</clus>
<clus scale="  143.178">  1  6  2 -1</clus>
<clus scale="   37.605">  1  3  2 -1</clus>
</clustering>
</event>
<event>
 6    0  0.5510638E+002  0.1520838E+03  0.7546771E-02  0.1197936E+00
         21   -1    0    0  503  501  0.00000000000E+00  0.00000000000E+00  0.81566208283E+03  0.81566208283E+03  0.00000000000E+00 0. -1.
         21   -1    0    0  506  502 -0.00000000000E+00 -0.00000000000E+00 -0.79731602818E+02  0.79731602818E+02  0.00000000000E+00 0.  1.
         21    1    1    2  503  505  0.66216500521E+02 -0.75046444033E+02  0.57831072223E+03  0.58690704983E+03  0.00000000000E+00 0. -1.
         21    1    1    2  504  501 -0.40014423703E+02  0.62085469614E+02  0.14542860275E+01  0.73877429499E+02  0.00000000000E+00 0.  1.
         21    1    1    2  505  502  0.42182515878E+02 -0.20369674932E+02  0.15129256971E+03  0.15837843904E+03  0.00000000000E+00 0. -1.
         21    1    1    2  506  504 -0.68384592697E+02  0.33330649350E+02  0.48729020419E+01  0.76230767271E+02  0.00000000000E+00 0.  1.
<scales pt_clust_3="32.63066" pt_clust_4="39.87778" pt_clust_5="32.63066" pt_clust_6="149.97479"></scales>
<clustering>
<clus scale="   32.631">  3  5 -1 -1</clus>
<clus scale="   39.878">  4  6 -1 -1</clus>
<clus scale="  149.975">  2  4  1 -1</clus>
<clus scale="  152.084">  1  3  2 -1</clus>
</clustering>
</event>
<event>
 6    0  0.5510638E+002  0.1636057E+03  0.7546771E-02  0.1184685E+00
         21   -1    0    0  504  501  0.00000000000E+00  0.00000000000E+00  0.44425260044E+02  0.44425260044E+02  0.00000000000E+00 0.  1.
         21   -1    0    0  501  502 -0.00000000000E+00 -0.00000000000E+00 -0.88154159643E+03  0.88154159643E+03  0.00000000000E+00 0. -1.
         21    1    1    2  503  506  0.63545344499E+02  0.62734682698E+02 -0.91024913309E+02  0.12751151346E+03  0.00000000000E+00 0.  1.
         21    1    1    2  504  503  0.37782063196E+02 -0.10630785047E+02 -0.30776549252E+02  0.49876786925E+02  0.00000000000E+00 0. -1.
         21    1    1    2  505  502 -0.10392103926E+03 -0.11231616515E+03 -0.59006721831E+03  0.60958496166E+03  0.00000000000E+00 0. -1.
         21    1    1    2  506  505  0.25936315630E+01  0.60212267502E+02 -0.12524765551E+03  0.13899359444E+03  0.00000000000E+00 0. -1.
<scales pt_clust_3="52.71543" pt_clust_4="39.24918" pt_clust_5="148.34413" pt_clust_6="52.71543"></scales>
<clustering>
<clus scale="   39.249">  1  4  2 -1</clus>
<clus scale="   52.715">  3  6 -1 -1</clus>
<clus scale="  148.344">  2  5  1 -1</clus>
<clus scale="   39.249">  1  3  2 -1</clus>
</clustering>
</event>
<event>
 6    0  0.5510638E+002  0.6379296E+02  0.7546771E-02  0.1382570E+00
         21   -1    0    0  506  501  0.00000000000E+00  0.00000000000E+00  0.59296509279E+03  0.59296509279E+03  0.00000000000E+00 0.  1.
         21   -1    0    0  503  502 -0.00000000000E+00 -0.00000000000E+00 -0.28561976736E+03  0.28561976736E+03  0.00000000000E+00 0.  1.
         21    1    1    2  503  504 -0.21262463060E+02 -0.50062799206E+02 -0.24629234100E+03  0.25222667074E+03  0.00000000000E+00 0.  1.
         21    1    1    2  504  505 -0.51220353732E+02 -0.16170581178E+02  0.22487884187E+03  0.23120446763E+03  0.00000000000E+00 0.  1.
         21    1    1    2  505  501  0.12737141263E+02 -0.30657850234E+02  0.26011985267E+03  0.26222981582E+03  0.00000000000E+00 0.  1.
         21    1    1    2  506  502  0.59745675529E+02  0.96891230618E+02  0.68638971891E+02  0.13292390597E+03  0.00000000000E+00 0.  1.
<scales pt_clust_3="54.59919" pt_clust_4="63.79296" pt_clust_5="33.19847" pt_clust_6="14000.00000"></scales>
<clustering>
<clus scale="   33.198">  1  5  2 -1</clus>
<clus scale="   54.599">  2  3  1 -1</clus>
<clus scale="   63.793">  1  4  2 -1</clus>
<clus scale="   33.198">  1  3  2 -1</clus>
</clustering>
</event>
<event>
 6    0  0.5510638E+002  0.7013877E+02  0.7546771E-02  0.1359622E+00
         21   -1    0    0  505  501  0.00000000000E+00  0.00000000000E+00  0.38870156224E+03  0.38870156224E+03  0.00000000000E+00 0. -1.
         21   -1    0    0  506  502 -0.00000000000E+00 -0.00000000000E+00 -0.32027160082E+03  0.32027160082E+03  0.00000000000E+00 0.  1.
         21    1    1    2  503  504  0.32513861241E+02 -0.88992255691E+02 -0.42957465833E+02  0.10402940265E+03  0.00000000000E+00 0.  1.
         21    1    1    2  504  501  0.11108666378E+02  0.68483909502E+02  0.28299329360E+03  0.29137373346E+03  0.00000000000E+00 0. -1.
         21    1    1    2  505  502  0.22444401377E+02  0.21178065455E+02 -0.22593392803E+03  0.22803157993E+03  0.00000000000E+00 0.  1.
         21    1    1    2  506  503 -0.66066928996E+02 -0.66971926702E+00  0.54328061684E+02  0.85538447012E+02  0.00000000000E+00 0. -1.
<scales pt_clust_3="14000.00000" pt_clust_4="70.13877" pt_clust_5="30.85874" pt_clust_6="62.37866"></scales>
<clustering>
<clus scale="   30.859">  2  5  1 -1</clus>
<clus scale="   62.379">  2  6  1 -1</clus>
<clus scale="   70.139">  1  4  2 -1</clus>
<clus scale="   70.139">  1  3  2 -1</clus>
</clustering>
</event>
<event>
 6    0  0.5510638E+002  0.1006557E+03  0.7546771E-02  0.1278923E+00
         21   -1    0    0  503  501  0.00000000000E+00  0.00000000000E+00  0.15683911630E+02  0.15683911630E+02  0.00000000000E+00 0. -1.
         21   -1    0    0  505  502 -0.00000000000E+00 -0.00000000000E+00 -0.21135334730E+04  0.21135334730E+04  0.00000000000E+00 0. -1.
         21    1    1    2  503  504  0.88403257993E+02 -0.57746997147E+02 -0.24132938978E+03  0.26341929708E+03  0.00000000000E+00 0. -1.
         21    1    1    2  504  506 -0.29004057004E+02  0.95877577971E+02 -0.10102367594E+04  0.10151906498E+04  0.00000000000E+00 0. -1.
         21    1    1    2  505  501 -0.26018822963E+02 -0.36460466930E+02 -0.30254453130E+03  0.30584234210E+03  0.00000000000E+00 0. -1.
         21    1    1    2  506  502 -0.33380378026E+02 -0.16701138947E+01 -0.54373888089E+03  0.54476509572E+03  0.00000000000E+00 0. -1.
<scales pt_clust_3="100.65568" pt_clust_4="14000.00000" pt_clust_5="49.07786" pt_clust_6="33.42213"></scales>
<clustering>
<clus scale="   33.422">  2  6  1 -1</clus>
<clus scale="   49.078">  2  5  1 -1</clus>
<clus scale="  100.656">  1  3  2 -1</clus>
<clus scale="  100.656">  1  3  2 -1</clus>
</clustering>
</event>
<event>
 6    0  0.5510638E+002  0.1152205E+03  0.7546771E-02  0.1251197E+00
         21   -1    0    0  504  501  0.00000000000E+00  0.00000000000E+00  0.14596408691E+04  0.14596408691E+04  0.00000000000E+00 0.  1.
         21   -1    0    0  506  502 -0.00000000000E+00 -0.00000000000E+00 -0.62746737769E+02  0.62746737769E+02  0.00000000000E+00 0.  1.
         21    1    1    2  503  502 -0.50220520001E+02  0.52922009224E+02  0.38869831262E+02  0.82666217235E+02  0.00000000000E+00 0.  1.
         21    1    1    2  504  503  0.86423455417E+02 -0.10758552519E+03  0.29133381258E+03  0.32236477665E+03  0.00000000000E+00 0.  1.
         21    1    1    2  505  501 -0.11086906630E+03  0.30266995915E+02  0.10190035445E+04  0.10254639265E+04  0.00000000000E+00 0.  1.
         21    1    1    2  506  505  0.74666130888E+02  0.24396520048E+02  0.47686942994E+02  0.91892686457E+02  0.00000000000E+00 0.  1.
<scales pt_clust_3="72.95779" pt_clust_4="115.22048" pt_clust_5="14000.00000" pt_clust_6="71.18936"></scales>
<clustering>
<clus scale="   72.958">  2  3  1 -1</clus>
<clus scale="   71.189">  2  6  1 -1</clus>
<clus scale="  115.220">  2  4  1 -1</clus>
<clus scale="  115.220">  1  3  2 -1</clus>
</clustering>
</event>
<event>
 6    0  0.5510638E+002  0.1645415E+03  0.7546771E-02  0.1183663E+00
         21   -1    0    0  505  501  0.00000000000E+00  0.00000000000E+00  0.31775759775E+03  0.31775759775E+03  0.00000000000E+00 0.  1.
         21   -1    0    0  506  502 -0.00000000000E+00 -0.00000000000E+00 -0.10217770070E+03  0.10217770070E+03  0.00000000000E+00 0.  1.
         21    1    1    2  503  504  0.36862676579E+02 -0.22661585489E+02  0.35949931701E+01  0.43420368000E+02  0.00000000000E+00 0.  1.
         21    1    1    2  504  502  0.57779512139E+02 -0.10764254353E+03  0.84126829296E+02  0.14833311366E+03  0.00000000000E+00 0.  1.
         21    1    1    2  505  503 -0.11436416928E+03  0.99711024828E+02  0.11141379550E+03  0.18824049914E+03  0.00000000000E+00 0.  1.
         21    1    1    2  506  501  0.19721980564E+02  0.30593104191E+02  0.16444279085E+02  0.39941317655E+02  0.00000000000E+00 0.  1.
<scales pt_clust_3="33.33826" pt_clust_4="33.33826" pt_clust_5="154.71239" pt_clust_6="36.39910"></scales>
<clustering>
<clus scale="   33.338">  3  4 -1 -1</clus>
<clus scale="   36.399">  2  6  1 -1</clus>
<clus scale="  154.712">  1  5  2 -1</clus>
<clus scale="  154.712">  1  3  2 -1</clus>
</clustering>
</event>
<event>
 6    0  0.5510638E+002  0.1640614E+03  0.7546771E-02  0.1184186E+00
         21   -1    0    0  503  501  0.00000000000E+00  0.00000000000E+00  0.58437426434E+02  0.58437426434E+02  0.00000000000E+00 0. -1.
         21   -1    0    0  504  502 -0.00000000000E+00 -0.00000000000E+00 -0.19203734496E+04  0.19203734496E+04  0.00000000000E+00 0.  1.
         21    1    1    2  503  505 -0.14347897134E+02 -0.34420349773E+02 -0.80090751702E+01  0.38141419949E+02  0.00000000000E+00 0. -1.
         21    1    1    2  504  501  0.75915359210E+02  0.27910452222E+02 -0.34878728106E+03  0.35804287807E+03  0.00000000000E+00 0.  1.
         21    1    1    2  505  506 -0.12084506108E+03 -0.51949742802E+02 -0.77724394625E+02  0.15278542498E+03  0.00000000000E+00 0. -1.
         21    1    1    2  506  502  0.59277599008E+02  0.58459640352E+02 -0.14274152723E+04  0.14298411530E+04  0.00000000000E+00 0.  1.
<scales pt_clust_3="30.89066" pt_clust_4="80.88347" pt_clust_5="30.89066" pt_clust_6="153.46085"></scales>
<clustering>
<clus scale="   30.891">  3  5 -1 -1</clus>
<clus scale="   80.883">  2  4  1 -1</clus>
<clus scale="  153.461">  2  6  1 -1</clus>
<clus scale="  164.061">  1  3  2 -1</clus>
</clustering>
</event>
<event>
 6    0  0.5510638E+002  0.9512199E+02  0.7546771E-02  0.1290902E+00
         21   -1    0    0  506  501  0.00000000000E+00  0.00000000000E+00  0.43190837283E+03  0.43190837283E+03  0.00000000000E+00 0.  1.
         21   -1    0    0  501  502 -0.00000000000E+00 -0.00000000000E+00 -0.85868079812E+03  0.85868079812E+03  0.00000000000E+00 0.  1.
         21    1    1    2  503  502  0.43867060611E+02  0.55556540700E+02 -0.73967369022E+03  0.74305317187E+03  0.00000000000E+00 0.  1.
         21    1    1    2  504  505 -0.29130156719E+02  0.37069048601E+02  0.15322425733E+03  0.16031329773E+03  0.00000000000E+00 0.  1.
         21    1    1    2  505  503 -0.10020928525E+02 -0.13634076664E+03 -0.69851887430E+02  0.15352038898E+03  0.00000000000E+00 0.  1.
         21    1    1    2  506  504 -0.47159753679E+01  0.43715177336E+02  0.22952889503E+03  0.23370231237E+03  0.00000000000E+00 0.  1.
<scales pt_clust_3="70.78735" pt_clust_4="31.68803" pt_clust_5="89.28337" pt_clust_6="31.68803"></scales>
<clustering>
<clus scale="   31.688">  4  6 -1 -1</clus>
<clus scale="   70.787">  2  3  1 -1</clus>
<clus scale="   89.283">  2  5  1 -1</clus>
<clus scale="   95.122">  1  3  2 -1</clus>
</clustering>
</event>
<event>
 6    0  0.5510638E+002  0.9743607E+02  0.7546771E-02  0.1285782E+00
         21   -1    0    0  503  501  0.00000000000E+00  0.00000000000E+00  0.55706087883E+03  0.55706087883E+03  0.00000000000E+00 0. -1.
         21   -1    0    0  506  502 -0.00000000000E+00 -0.00000000000E+00 -0.11362987038E+04  0.11362987038E+04  0.00000000000E+00 0. -1.
         21    1    1    2  503  505 -0.86731878553E+02  0.49306332388E+02  0.40919206732E+03  0.42117891819E+03  0.00000000000E+00 0. -1.
         21    1    1    2  504  501 -0.10775220467E+02 -0.60114014571E+02  0.13033873896E+03  0.14393744127E+03  0.00000000000E+00 0. -1.
         21    1    1    2  505  502  0.25000936811E+02  0.45867363546E+02 -0.23119823136E+03  0.23702633622E+03  0.00000000000E+00 0. -1.
         21    1    1    2  506  504  0.72506162209E+02 -0.35059681363E+02 -0.88757039991E+03  0.89121688696E+03  0.00000000000E+00 0. -1.
<scales pt_clust_3="97.43607" pt_clust_4="60.69872" pt_clust_5="52.23851" pt_clust_6="14000.00000"></scales>
<clustering>
<clus scale="   52.239">  2  5  1 -1</clus>
<clus scale="   60.699">  1  4  2 -1</clus>
<clus scale="   97.436">  1  3  2 -1</clus>
<clus scale="   60.699">  1  3  2 -1</clus>
</clustering>
</event>
<event>
 6    0  0.5510638E+002  0.1332252E+03  0.7546771E-02  0.1222747E+00
         21   -1    0    0  506  501  0.00000000000E+00  0.00000000000E+00  0.17551684334E+03  0.17551684334E+03  0.00000000000E+00 0. -1.
         21   -1    0    0  503  502 -0.00000000000E+00 -0.00000000000E+00 -0.87576390358E+03  0.87576390358E+03  0.00000000000E+00 0.  1.
         21    1    1    2  503  505  0.11484082368E+03  0.47925947192E+02 -0.78718317034E+03  0.79695837712E+03  0.00000000000E+00 0.  1.
         21    1    1    2  504  501 -0.60424014356E+02  0.30188939561E+02  0.79516015239E+02  0.10433230690E+03  0.00000000000E+00 0.  1.
         21    1    1    2  505  504 -0.57855577775E+02 -0.16128374111E+02  0.47085946878E+02  0.76318272547E+02  0.00000000000E+00 0. -1.
         21    1    1    2  506  502  0.34387684492E+01 -0.61986512641E+02 -0.39665852030E+02  0.73671790362E+02  0.00000000000E+00 0.  1.
<scales pt_clust_3="123.81490" pt_clust_4="46.37676" pt_clust_5="46.37676" pt_clust_6="62.08182"></scales>
<clustering>
<clus scale="   46.377">  4  5 -1 -1</clus>
<clus scale="   62.082">  1  6  2 -1</clus>
<clus scale="  123.815">  2  3  1 -1</clus>
<clus scale="   62.082">  1  3  2 -1</clus>
</clustering>
</event>
<event>
 6    0  0.5510638E+002  0.1242057E+03  0.7546771E-02  0.1236316E+00
         21   -1    0    0  505  501  0.00000000000E+00  0.00000000000E+00  0.35056159284E+03  0.35056159284E+03  0.00000000000E+00 0.  1.
         21   -1    0    0  503  502 -0.00000000000E+00 -0.00000000000E+00 -0.27665270885E+04  0.27665270885E+04  0.00000000000E+00 0.  1.
         21    1    1    2  503  504  0.72197460576E+02 -0.91878798071E+02 -0.12592752823E+04  0.12646851085E+04  0.00000000000E+00 0.  1.
         21    1    1    2  504  506 -0.14021599202E+03  0.46354986563E+02 -0.14386426303E+04  0.14462025884E+04  0.00000000000E+00 0.  1.
         21    1    1    2  505  502 -0.22887117151E+02  0.56089542149E+02 -0.39271270879E+02  0.72194803043E+02  0.00000000000E+00 0.  1.
         21    1    1    2  506  501  0.90905648599E+02 -0.10565730640E+02  0.32122368781E+03  0.33400618141E+03  0.00000000000E+00 0.  1.
<scales pt_clust_3="124.20572" pt_clust_4="14000.00000" pt_clust_5="60.57934" pt_clust_6="81.61881"></scales>
<clustering>
<clus scale="   60.579">  1  5  2 -1</clus>
<clus scale="   81.619">  1  6  2 -1</clus>
<clus scale="  124.206">  2  3  1 -1</clus>
<clus scale="   60.579">  1  3  2 -1</clus>
</clustering>
</event>
<event>
 6    0  0.5510638E+002  0.1189102E+03  0.7546771E-02  0.1244906E+00
         21   -1    0    0  505  501  0.00000000000E+00  0.00000000000E+00  0.21942943691E+03  0.21942943691E+03  0.00000000000E+00 0. -1.
         21   -1    0    0  504  502 -0.00000000000E+00 -0.00000000000E+00 -0.91212273240E+03  0.91212273240E+03  0.00000000000E+00 0.  1.
         21    1    1    2  503  501 -0.19245904985E+02 -0.90594252569E+02  0.18551381238E+03  0.20734777076E+03  0.00000000000E+00 0. -1.
         21    1    1    2  504  503  0.11467878817E+02  0.15484313650E+03 -0.62096571743E+03  0.64008306601E+03  0.00000000000E+00 0.  1.
         21    1    1    2  505  506 -0.28326345956E+02 -0.18080673846E+02 -0.18642670210E+02  0.38429699381E+02  0.00000000000E+00 0. -1.
         21    1    1    2  506  502  0.36104372124E+02 -0.46168210083E+02 -0.23859872023E+03  0.24569163316E+03  0.00000000000E+00 0.  1.
<scales pt_clust_3="118.91019" pt_clust_4="14000.00000" pt_clust_5="33.60495" pt_clust_6="58.55758"></scales>
<clustering>
<clus scale="   33.605">  1  5  2 -1</clus>
<clus scale="   58.558">  2  6  1 -1</clus>
<clus scale="  118.910">  1  3  2 -1</clus>
<clus scale="   33.605">  1  3  2 -1</clus>
</clustering>
</event>
<event>
 6    0  0.5510638E+002  0.1056214E+03  0.7546771E-02  0.1268900E+00
         21   -1    0    0  505  501  0.00000000000E+00  0.00000000000E+00  0.22446635300E+03  0.22446635300E+03  0.00000000000E+00 0.  1.
         21   -1    0    0  504  502 -0.00000000000E+00 -0.00000000000E+00 -0.18204959157E+04  0.18204959157E+04  0.00000000000E+00 0. -1.
         21    1    1    2  503  501  0.47309079232E+02 -0.46174827938E+02 -0.77575541774E+02  0.10192265889E+03  0.00000000000E+00 0.  1.
         21    1    1    2  504  506  0.57229258451E+02 -0.70619128865E+02 -0.13525137471E+04  0.13555647109E+04  0.00000000000E+00 0. -1.
         21    1    1    2  505  502 -0.89438440285E+02 -0.42280346956E+02  0.18057138187E+03  0.20589532848E+03  0.00000000000E+00 0.  1.
         21    1    1    2  506  503 -0.15099897399E+02  0.15907430376E+03 -0.34651165566E+03  0.38157957037E+03  0.00000000000E+00 0.  1.
<scales pt_clust_3="66.10797" pt_clust_4="91.36875" pt_clust_5="14000.00000" pt_clust_6="105.62139"></scales>
<clustering>
<clus scale="   66.108">  1  3  2 -1</clus>
<clus scale="   91.369">  2  4  1 -1</clus>
<clus scale="  105.621">  2  6  1 -1</clus>
<clus scale="   66.108">  1  3  2 -1</clus>
</clustering>
</event>
<event>
 6    0  0.5510638E+002  0.1129834E+03  0.7546771E-02  0.1255143E+00
         21   -1    0    0  505  501  0.00000000000E+00  0.00000000000E+00  0.29925805679E+03  0.29925805679E+03  0.00000000000E+00 0. -1.
         21   -1    0    0  504  502 -0.00000000000E+00 -0.00000000000E+00 -0.48123310761E+03  0.48123310761E+03  0.00000000000E+00 0.  1.
         21    1    1    2  503  502  0.33205880699E+02 -0.15404422294E+02  0.29801037137E+01  0.36726118190E+02  0.00000000000E+00 0. -1.
         21    1    1    2  504  506 -0.32698490259E+02  0.71295519585E+01 -0.32047110347E+03  0.32221382641E+03  0.00000000000E+00 0.  1.
         21    1    1    2  505  503  0.34276111056E+02 -0.99962493269E+02 -0.10904948464E+03  0.15185236893E+03  0.00000000000E+00 0. -1.
         21    1    1    2  506  501 -0.34783501496E+02  0.10823736360E+03  0.24456543358E+03  0.26969885086E+03  0.00000000000E+00 0. -1.
<scales pt_clust_3="33.16712" pt_clust_4="33.46673" pt_clust_5="112.98340" pt_clust_6="14000.00000"></scales>
<clustering>
<clus scale="   33.467">  2  4  1 -1</clus>
<clus scale="   33.167">  2  3  1 -1</clus>
<clus scale="  112.983">  2  5  1 -1</clus>
<clus scale="  112.983">  1  3  2 -1</clus>
</clustering>
</event>
<event>
 6    0  0.5510638E+002  0.1514159E+03  0.7546771E-02  0.1198744E+00
         21   -1    0    0  505  501  0.00000000000E+00  0.00000000000E+00  0.40806654460E+03  0.40806654460E+03  0.00000000000E+00 0. -1.
         21   -1    0    0  506  502 -0.00000000000E+00 -0.00000000000E+00 -0.21409421167E+03  0.21409421167E+03  0.00000000000E+00 0.  1.
         21    1    1    2  503  502  0.67742163763E+01  0.31970446670E+02 -0.64515163107E+02  0.72320161355E+02  0.00000000000E+00 0.  1.
         21    1    1    2  504  503  0.10941079408E+03  0.14093759986E+03 -0.11492566737E+01  0.17842491336E+03  0.00000000000E+00 0. -1.
         21    1    1    2  505  504 -0.94197056053E+02 -0.11137271150E+03  0.26840893936E+03  0.30548375565E+03  0.00000000000E+00 0. -1.
         21    1    1    2  506  501 -0.21987954400E+02 -0.61535335034E+02 -0.87721866482E+01  0.65931925916E+02  0.00000000000E+00 0. -1.
<scales pt_clust_3="32.68026" pt_clust_4="151.41593" pt_clust_5="14000.00000" pt_clust_6="57.05299"></scales>
<clustering>
<clus scale="   32.680">  2  3  1 -1</clus>
<clus scale="   57.053">  2  6  1 -1</clus>
<clus scale="  151.416">  2  4  1 -1</clus>
<clus scale="  151.416">  1  3  2 -1</clus>
</clustering>
</event>
<event>
 6    0  0.5510638E+002  0.8954832E+02  0.7546771E-02  0.1303949E+00
         21   -1    0    0  503  501  0.00000000000E+00  0.00000000000E+00  0.11808161914E+03  0.11808161914E+03  0.00000000000E+00 0. -1.
         21   -1    0    0  506  502 -0.00000000000E+00 -0.00000000000E+00 -0.37816792474E+03  0.37816792474E+03  0.00000000000E+00 0. -1.
         21    1    1    2  503  505  0.41969504074E+02 -0.90518991997E+01  0.53005766074E+01  0.43260516221E+02  0.00000000000E+00 0. -1.
         21    1    1    2  504  502  0.79414992644E+02  0.21057360458E+02 -0.87419619651E+02  0.11996809320E+03  0.00000000000E+00 0. -1.
         21    1    1    2  505  504 -0.45134580950E+02  0.47266227267E+02  0.52051480127E+02  0.83549884626E+02  0.00000000000E+00 0. -1.
         21    1    1    2  506  501 -0.76249915768E+02 -0.59271688525E+02 -0.23001874269E+03  0.24947104983E+03  0.00000000000E+00 0. -1.
<scales pt_clust_3="42.93456" pt_clust_4="89.54832" pt_clust_5="43.32885" pt_clust_6="14000.00000"></scales>
<clustering>
<clus scale="   42.935">  1  3  2 -1</clus>
<clus scale="   43.329">  1  5  2 -1</clus>
<clus scale="   89.548">  1  4  2 -1</clus>
<clus scale="   42.935">  1  3  2 -1</clus>
</clustering>
</event>
<event>
 6    0  0.5510638E+002  0.7778809E+02  0.7546771E-02  0.1335448E+00
         21   -1    0    0  504  501  0.00000000000E+00  0.00000000000E+00  0.54877840868E+03  0.54877840868E+03  0.00000000000E+00 0. -1.
         21   -1    0    0  505  502 -0.00000000000E+00 -0.00000000000E+00 -0.22241050184E+03  0.22241050184E+03  0.00000000000E+00 0. -1.
         21    1    1    2  503  506  0.35684389262E+02 -0.36026396939E+00  0.14272263245E+03  0.14711646829E+03  0.00000000000E+00 0. -1.
         21    1    1    2  504  502  0.59979239053E+02  0.78888028903E+01 -0.74346395472E+02  0.95849511465E+02  0.00000000000E+00 0.  1.
         21    1    1    2  505  503 -0.12126342398E+03 -0.25510979827E+02 -0.10589060301E+03  0.16299830642E+03  0.00000000000E+00 0. -1.
         21    1    1    2  506  501  0.25599795669E+02  0.17982440906E+02  0.36388227288E+03  0.36522462435E+03  0.00000000000E+00 0. -1.
<scales pt_clust_3="57.49933" pt_clust_4="14000.00000" pt_clust_5="77.78809" pt_clust_6="31.28446"></scales>
<clustering>
<clus scale="   31.284">  1  6  2 -1</clus>
<clus scale="   57.499">  1  3  2 -1</clus>
<clus scale="   77.788">  1  5  2 -1</clus>
<clus scale="   31.284">  1  3  2 -1</clus>
</clustering>
</event>
<event>
 6    0  0.5510638E+002  0.1239461E+03  0.7546771E-02  0.1236726E+00
         21   -1    0    0  505  501  0.00000000000E+00  0.00000000000E+00  0.14305363846E+03  0.14305363846E+03  0.00000000000E+00 0. -1.
         21   -1    0    0  506  502 -0.00000000000E+00 -0.00000000000E+00 -0.49558895620E+03  0.49558895620E+03  0.00000000000E+00 0.  1.
         21    1    1    2  503  502 -0.22273243875E+02 -0.22009486168E+02 -0.21520011576E+02  0.37995075633E+02  0.00000000000E+00 0. -1.
         21    1    1    2  504  503 -0.50967524485E+02 -0.94138243785E+02 -0.39362079879E+03  0.40791792156E+03  0.00000000000E+00 0.  1.
         21    1    1    2  505  504  0.38558021965E+02  0.59902240094E+02  0.95316880032E+02  0.11899708839E+03  0.00000000000E+00 0. -1.
         21    1    1    2  506  501  0.34682746395E+02  0.56245489860E+02 -0.32711387414E+02  0.73732509069E+02  0.00000000000E+00 0. -1.
<scales pt_clust_3="31.31317" pt_clust_4="123.94613" pt_clust_5="14000.00000" pt_clust_6="62.60876"></scales>
<clustering>
<clus scale="   31.313">  2  3  1 -1</clus>
<clus scale="   62.609">  1  6  2 -1</clus>
<clus scale="  123.946">  2  4  1 -1</clus>
<clus scale="   62.609">  1  3  2 -1</clus>
</clustering>
</event>
<event>
 6    0  0.5510638E+002  0.1148304E+03  0.7546771E-02  0.1251877E+00
         21   -1    0    0  506  501  0.00000000000E+00  0.00000000000E+00  0.17511402183E+03  0.17511402183E+03  0.00000000000E+00 0. -1.
         21   -1    0    0  505  502 -0.00000000000E+00 -0.00000000000E+00 -0.54631147917E+03  0.54631147917E+03  0.00000000000E+00 0. -1.
         21    1    1    2  503  504  0.13408191655E+03  0.55461284736E+02 -0.34009595376E+01  0.14513952244E+03  0.00000000000E+00 0. -1.
         21    1    1    2  504  502 -0.30773481957E+02 -0.11021755446E+02 -0.42139068232E+03  0.42265659042E+03  0.00000000000E+00 0. -1.
         21    1    1    2  505  501 -0.31900335998E+02  0.15979463966E+02  0.48154937012E+02  0.59932233932E+02  0.00000000000E+00 0. -1.
         21    1    1    2  506  503 -0.71408098593E+02 -0.60418993256E+02  0.54392475021E+01  0.93697154194E+02  0.00000000000E+00 0. -1.
<scales pt_clust_3="114.83042" pt_clust_4="32.68771" pt_clust_5="36.76557" pt_clust_6="14000.00000"></scales>
<clustering>
<clus scale="   32.688">  2  4  1 -1</clus>
<clus scale="   36.766">  1  5  2 -1</clus>
<clus scale="  114.830">  2  3  1 -1</clus>
<clus scale="   36.766">  1  3  2 -1</clus>
</clustering>
</event>
<event>
 6    0  0.5510638E+002  0.9611678E+02  0.7546771E-02  0.1288680E+00
         21   -1    0    0  502  501  0.00000000000E+00  0.00000000000E+00  0.61414556958E+03  0.61414556958E+03  0.00000000000E+00 0. -1.
         21   -1    0    0  504  502 -0.00000000000E+00 -0.00000000000E+00 -0.74379960556E+02  0.74379960556E+02  0.00000000000E+00 0. -1.
         21    1    1    2  503  505  0.80067240260E+02 -0.53650303551E+02  0.28295106617E+03  0.29891541259E+03  0.00000000000E+00 0. -1.
         21    1    1    2  504  503 -0.48484631930E+01  0.10123605574E+03 -0.14281407230E+02  0.10235333492E+03  0.00000000000E+00 0. -1.
         21    1    1    2  505  506 -0.44980136704E+02 -0.10663522642E+02  0.15463158813E+03  0.16139346784E+03  0.00000000000E+00 0.  1.
         21    1    1    2  506  501 -0.30238640363E+02 -0.36922229546E+02  0.11646436195E+03  0.12586331479E+03  0.00000000000E+00 0. -1.
<scales pt_clust_3="96.11678" pt_clust_4="14000.00000" pt_clust_5="32.65917" pt_clust_6="94.99182"></scales>
<clustering>
<clus scale="   32.659">  5  6 -1 -1</clus>
<clus scale="   94.992">  1  5  2 -1</clus>
<clus scale="   96.117">  1  3  2 -1</clus>
<clus scale="   94.992">  1  3  2 -1</clus>
</clustering>
</event>
<event>
 6    0  0.5510638E+002  0.1932109E+03  0.7546771E-02  0.1155597E+00
         21   -1    0    0  505  501  0.00000000000E+00  0.00000000000E+00  0.84962440814E+03  0.84962440814E+03  0.00000000000E+00 0. -1.
         21   -1    0    0  506  502 -0.00000000000E+00 -0.00000000000E+00 -0.50477394256E+03  0.50477394256E+03  0.00000000000E+00 0.  1.
         21    1    1    2  503  501 -0.56082713960E+02  0.25199503048E+02  0.42688408288E+03  0.43128912110E+03  0.00000000000E+00 0. -1.
         21    1    1    2  504  503 -0.11868506774E+03  0.20943107730E+02  0.36939895660E+03  0.38856189751E+03  0.00000000000E+00 0. -1.
         21    1    1    2  505  502  0.88834882357E+02  0.25242870110E+02 -0.27819239083E+02  0.96450758825E+02  0.00000000000E+00 0. -1.
         21    1    1    2  506  504  0.85932899340E+02 -0.71385480888E+02 -0.42361333482E+03  0.43809657326E+03  0.00000000000E+00 0.  1.
<scales pt_clust_3="52.56505" pt_clust_4="52.56505" pt_clust_5="92.35171" pt_clust_6="178.64584"></scales>
<clustering>
<clus scale="   52.565">  3  4 -1 -1</clus>
<clus scale="   92.352">  2  5  1 -1</clus>
<clus scale="  178.646">  2  6  1 -1</clus>
<clus scale="  193.211">  1  3  2 -1</clus>
</clustering>
</event>
<event>
 6    0  0.5510638E+002  0.1455606E+03  0.7546771E-02  0.1206037E+00
         21   -1    0    0  504  501  0.00000000000E+00  0.00000000000E+00  0.29228835783E+02  0.29228835783E+02  0.00000000000E+00 0.  1.
         21   -1    0    0  506  502 -0.00000000000E+00 -0.00000000000E+00 -0.13581672748E+04  0.13581672748E+04  0.00000000000E+00 0. -1.
         21    1    1    2  503  501  0.54336021450E+02 -0.40702508074E+02 -0.44122289199E+03  0.44641543186E+03  0.00000000000E+00 0. -1.
         21    1    1    2  504  505 -0.45669080167E+02  0.23095029334E+02 -0.29908794588E+02  0.59275469268E+02  0.00000000000E+00 0.  1.
         21    1    1    2  505  502 -0.80189381222E+02  0.20249830417E+02 -0.15882862386E+03  0.17907239947E+03  0.00000000000E+00 0. -1.
         21    1    1    2  506  503  0.71522439939E+02 -0.26423516770E+01 -0.69897812862E+03  0.70263281002E+03  0.00000000000E+00 0. -1.
<scales pt_clust_3="49.03084" pt_clust_4="46.32900" pt_clust_5="46.32900" pt_clust_6="142.31477"></scales>
<clustering>
<clus scale="   46.329">  4  5 -1 -1</clus>
<clus scale="   49.031">  3  6 -1 -1</clus>
<clus scale="  142.315">  2  3  1 -1</clus>
<clus scale="  145.561">  1  3  2 -1</clus>
</clustering>
</event>
<event>
 6    0  0.5510638E+002  0.9608558E+02  0.7546771E-02  0.1288750E+00
         21   -1    0    0  504  501  0.00000000000E+00  0.00000000000E+00  0.12733099952E+03  0.12733099952E+03  0.00000000000E+00 0. -1.
         21   -1    0    0  503  502 -0.00000000000E+00 -0.00000000000E+00 -0.77293967877E+03  0.77293967877E+03  0.00000000000E+00 0.  1.
         21    1    1    2  503  506 -0.26851642324E+02  0.38972788704E+02 -0.11010404111E+02  0.48591336198E+02  0.00000000000E+00 0. -1.
         21    1    1    2  504  505 -0.69828061037E+02  0.19353222438E+02  0.62518567455E+02  0.95703064755E+02  0.00000000000E+00 0. -1.
         21    1    1    2  505  502  0.94546980095E+02 -0.22003609435E+02 -0.71058024214E+03  0.71718029170E+03  0.00000000000E+00 0.  1.
         21    1    1    2  506  501  0.21327232656E+01 -0.36322401707E+02  0.13463399546E+02  0.38795985638E+02  0.00000000000E+00 0. -1.
<scales pt_clust_3="41.69638" pt_clust_4="96.08558" pt_clust_5="14000.00000" pt_clust_6="36.38496"></scales>
<clustering>
<clus scale="   36.385">  1  6  2 -1</clus>
<clus scale="   41.696">  1  3  2 -1</clus>
<clus scale="   96.086">  1  4  2 -1</clus>
<clus scale="   36.385">  1  3  2 -1</clus>
</clustering>
</event>
<event>
 6    0  0.5510638E+002  0.1114386E+03  0.7546771E-02  0.1257929E+00
         21   -1    0    0  506  501  0.00000000000E+00  0.00000000000E+00  0.38686489208E+03  0.38686489208E+03  0.00000000000E+00 0.  1.
         21   -1    0    0  505  502 -0.00000000000E+00 -0.00000000000E+00 -0.11720376504E+03  0.11720376504E+03  0.00000000000E+00 0.  1.
         21    1    1    2  503  501  0.84747050943E+02  0.80979528661E+02  0.25637947560E+03  0.28190456225E+03  0.00000000000E+00 0.  1.
         21    1    1    2  504  503 -0.27757648775E+02  0.27369645875E+02  0.18377886862E+02  0.43096766773E+02  0.00000000000E+00 0. -1.
         21    1    1    2  505  504 -0.33739065368E+02 -0.15914981907E+01 -0.50495295422E+02  0.60750574138E+02  0.00000000000E+00 0.  1.
         21    1    1    2  506  502 -0.23250336800E+02 -0.10675767634E+03  0.45399059993E+02  0.11831675396E+03  0.00000000000E+00 0.  1.
<scales pt_clust_3="14000.00000" pt_clust_4="43.86318" pt_clust_5="33.77658" pt_clust_6="111.43859"></scales>
<clustering>
<clus scale="   33.777">  2  5  1 -1</clus>
<clus scale="   43.863">  2  4  1 -1</clus>
<clus scale="  111.439">  2  6  1 -1</clus>
<clus scale="  111.439">  1  3  2 -1</clus>
</clustering>
</event>
<event>
 6    0  0.5510638E+002  0.8504501E+02  0.7546771E-02  0.1315315E+00
         21   -1    0    0  504  501  0.00000000000E+00  0.00000000000E+00  0.38490320597E+03  0.38490320597E+03  0.00000000000E+00 0.  1.
         21   -1    0    0  503  502 -0.00000000000E+00 -0.00000000000E+00 -0.20276574390E+04  0.20276574390E+04  0.00000000000E+00 0. -1.
         21    1    1    2  503  505  0.15013905308E+02  0.29335926512E+02 -0.19345686260E+04  0.19348492919E+04  0.00000000000E+00 0. -1.
         21    1    1    2  504  502 -0.86022468033E+02 -0.68816142046E+01  0.17912283581E+03  0.19882709053E+03  0.00000000000E+00 0.  1.
         21    1    1    2  505  506 -0.48356690243E+01 -0.68165007679E+02 -0.56007547317E+02  0.88355516654E+02  0.00000000000E+00 0.  1.
         21    1    1    2  506  501  0.75844231749E+02  0.45710695371E+02  0.16869910444E+03  0.19052874586E+03  0.00000000000E+00 0.  1.
<scales pt_clust_3="32.95473" pt_clust_4="85.04501" pt_clust_5="45.89358" pt_clust_6="14000.00000"></scales>
<clustering>
<clus scale="   32.955">  2  3  1 -1</clus>
<clus scale="   45.894">  2  5  1 -1</clus>
<clus scale="   85.045">  1  4  2 -1</clus>
<clus scale="   85.045">  1  3  2 -1</clus>
</clustering>
</event>
<event>
 6    0  0.5510638E+002  0.2805873E+03  0.7546771E-02  0.1095369E+00
         21   -1    0    0  504  501  0.00000000000E+00  0.00000000000E+00  0.12438567410E+04  0.12438567410E+04  0.00000000000E+00 0.  1.
         21   -1    0    0  505  502 -0.00000000000E+00 -0.00000000000E+00 -0.15352934061E+04  0.15352934061E+04  0.00000000000E+00 0. -1.
         21    1    1    2  503  501 -0.21262647427E+02 -0.35385729626E+02  0.17917892994E+02  0.45003343499E+02  0.00000000000E+00 0. -1.
         21    1    1    2  504  506 -0.72655723747E+02  0.15948997714E+02  0.51280148439E+03  0.51816849297E+03  0.00000000000E+00 0.  1.
         21    1    1    2  505  503  0.27017332702E+03  0.24059913413E+02 -0.14955173887E+04  0.15199160391E+04  0.00000000000E+00 0. -1.
         21    1    1    2  506  502 -0.17625495585E+03 -0.46231815008E+01  0.67336134622E+03  0.69606227153E+03  0.00000000000E+00 0.  1.
<scales pt_clust_3="41.28256" pt_clust_4="47.70794" pt_clust_5="270.99804" pt_clust_6="47.70794"></scales>
<clustering>
<clus scale="   41.283">  1  3  2 -1</clus>
<clus scale="   47.708">  4  6 -1 -1</clus>
<clus scale="  270.998">  2  5  1 -1</clus>
<clus scale="   41.283">  1  3  2 -1</clus>
</clustering>
</event>
<event>
 6    0  0.5510638E+002  0.7322497E+02  0.7546771E-02  0.1349458E+00
         21   -1    0    0  506  501  0.00000000000E+00  0.00000000000E+00  0.12586000123E+04  0.12586000123E+04  0.00000000000E+00 0. -1.
         21   -1    0    0  505  502 -0.00000000000E+00 -0.00000000000E+00 -0.73959285591E+02  0.73959285591E+02  0.00000000000E+00 0. -1.
         21    1    1    2  503  502 -0.51554715897E+02 -0.47750439873E+02 -0.39513780314E+02  0.80618435076E+02  0.00000000000E+00 0. -1.
         21    1    1    2  504  501 -0.30424309340E+02 -0.22638468854E+02  0.14782620497E+03  0.15261299337E+03  0.00000000000E+00 0. -1.
         21    1    1    2  505  504  0.12193595893E+03  0.83450478907E+02  0.49758653345E+03  0.51906138248E+03  0.00000000000E+00 0. -1.
         21    1    1    2  506  503 -0.39956933692E+02 -0.13061570179E+02  0.57874176864E+03  0.58026648700E+03  0.00000000000E+00 0. -1.
<scales pt_clust_3="73.22497" pt_clust_4="37.92280" pt_clust_5="14000.00000" pt_clust_6="61.16111"></scales>
<clustering>
<clus scale="   37.923">  1  4  2 -1</clus>
<clus scale="   61.161">  1  6  2 -1</clus>
<clus scale="   73.225">  2  3  1 -1</clus>
<clus scale="   37.923">  1  3  2 -1</clus>
</clustering>
</event>
<event>
 6    0  0.5510638E+002  0.8370282E+02  0.7546771E-02  0.1318860E+00
         21   -1    0    0  505  501  0.00000000000E+00  0.00000000000E+00  0.79434632167E+02  0.79434632167E+02  0.00000000000E+00 0. -1.
         21   -1    0    0  503  502 -0.00000000000E+00 -0.00000000000E+00 -0.64202003763E+03  0.64202003763E+03  0.00000000000E+00 0. -1.
         21    1    1    2  503  504  0.54973740492E+02 -0.38765237213E+02 -0.26105568689E+03  0.26958287671E+03  0.00000000000E+00 0.  1.
         21    1    1    2  504  506  0.48883391710E+02 -0.88173588008E+01  0.34035955777E+02  0.60214434208E+02  0.00000000000E+00 0. -1.
         21    1    1    2  505  502 -0.10622381447E+03  0.80697922153E+02 -0.33256449396E+03  0.35832219585E+03  0.00000000000E+00 0. -1.
         21    1    1    2  506  501  0.23666822684E+01 -0.33115326139E+02 -0.30011803990E+01  0.33335163027E+02  0.00000000000E+00 0. -1.
<scales pt_clust_3="14000.00000" pt_clust_4="60.48016" pt_clust_5="83.70282" pt_clust_6="33.19979"></scales>
<clustering>
<clus scale="   33.200">  1  6  2 -1</clus>
<clus scale="   60.480">  1  4  2 -1</clus>
<clus scale="   83.703">  1  5  2 -1</clus>
<clus scale="   33.200">  1  3  2 -1</clus>
</clustering>
</event>
<event>
 6    0  0.5510638E+002  0.2267769E+03  0.7546771E-02  0.1128929E+00
         21   -1    0    0  503  501  0.00000000000E+00  0.00000000000E+00  0.14453798227E+03  0.14453798227E+03  0.00000000000E+00 0. -1.
         21   -1    0    0  506  502 -0.00000000000E+00 -0.00000000000E+00 -0.19716655051E+04  0.19716655051E+04  0.00000000000E+00 0. -1.
         21    1    1    2  503  504 -0.81738851264E+02  0.23224959936E+03 -0.73221388339E+02  0.25687056647E+03  0.00000000000E+00 0. -1.
         21    1    1    2  504  502  0.19372203509E+02 -0.10602100125E+03 -0.10374768579E+04  0.10430599052E+04  0.00000000000E+00 0. -1.
         21    1    1    2  505  501 -0.68061663194E+02 -0.32249397125E+02  0.65844690039E+01  0.75602703945E+02  0.00000000000E+00 0. -1.
         21    1    1    2  506  505  0.13042831095E+03 -0.93979200990E+02 -0.72301374560E+03  0.74067031184E+03  0.00000000000E+00 0. -1.
<scales pt_clust_3="226.77687" pt_clust_4="108.32008" pt_clust_5="75.31543" pt_clust_6="14000.00000"></scales>
<clustering>
<clus scale="   75.315">  1  5  2 -1</clus>
<clus scale="  108.320">  2  4  1 -1</clus>
<clus scale="  226.777">  1  3  2 -1</clus>
<clus scale="   75.315">  1  3  2 -1</clus>
</clustering>
</event>
<event>
 6    0  0.5510638E+002  0.1716093E+03  0.7546771E-02  0.1176180E+00
         21   -1    0    0  504  501  0.00000000000E+00  0.00000000000E+00  0.48294148000E+03  0.48294148000E+03  0.00000000000E+00 0.  1.
         21   -1    0    0  505  502 -0.00000000000E+00 -0.00000000000E+00 -0.17892887632E+03  0.17892887632E+03  0.00000000000E+00 0. -1.
         21    1    1    2  503  502  0.52858540321E+02  0.82759840644E+00  0.10803054680E+02  0.53957540663E+02  0.00000000000E+00 0.  1.
         21    1    1    2  504  503 -0.17089247643E+03 -0.10644105538E+03 -0.65888092474E+02  0.21183762060E+03  0.00000000000E+00 0. -1.
         21    1    1    2  505  506  0.43994654827E+02  0.22226169373E+02  0.16521427335E+03  0.17241023280E+03  0.00000000000E+00 0. -1.
         21    1    1    2  506  501  0.74039281279E+02  0.83387287605E+02  0.19388336812E+03  0.22366496226E+03  0.00000000000E+00 0.  1.
<scales pt_clust_3="52.86502" pt_clust_4="163.13039" pt_clust_5="35.41938" pt_clust_6="35.41938"></scales>
<clustering>
<clus scale="   35.419">  5  6 -1 -1</clus>
<clus scale="   52.865">  2  3  1 -1</clus>
<clus scale="  163.130">  2  4  1 -1</clus>
<clus scale="  171.609">  1  3  2 -1</clus>
</clustering>
</event>
<event>
 6    0  0.5510638E+002  0.6502057E+02  0.7546771E-02  0.1377894E+00
         21   -1    0    0  504  501  0.00000000000E+00  0.00000000000E+00  0.81128664718E+03  0.81128664718E+03  0.00000000000E+00 0.  1.
         21   -1    0    0  506  502 -0.00000000000E+00 -0.00000000000E+00 -0.43719989297E+02  0.43719989297E+02  0.00000000000E+00 0.  1.
         21    1    1    2  503  501  0.16132821485E+02  0.35824534304E+02  0.80956744275E+02  0.89986997009E+02  0.00000000000E+00 0.  1.
         21    1    1    2  504  505  0.21174079538E+02 -0.64764729065E+02  0.47754879410E+03  0.48238538797E+03  0.00000000000E+00 0.  1.
         21    1    1    2  505  502 -0.80395402232E+02  0.67995879333E+02  0.19680539587E+03  0.22320220463E+03  0.00000000000E+00 0.  1.
         21    1    1    2  506  503  0.43088501209E+02 -0.39055684571E+02  0.12255723634E+02  0.59432046874E+02  0.00000000000E+00 0.  1.
<scales pt_clust_3="39.28950" pt_clust_4="51.97179" pt_clust_5="14000.00000" pt_clust_6="65.02057"></scales>
<clustering>
<clus scale="   39.290">  1  3  2 -1</clus>
<clus scale="   51.972">  1  4  2 -1</clus>
<clus scale="   65.021">  2  6  1 -1</clus>
<clus scale="   39.290">  1  3  2 -1</clus>
</clustering>
</event>
<event>
 6    0  0.5510638E+002  0.7224144E+02  0.7546771E-02  0.1352633E+00
         21   -1    0    0  504  501  0.00000000000E+00  0.00000000000E+00  0.84042478247E+02  0.84042478247E+02  0.00000000000E+00 0.  1.
         21   -1    0    0  505  502 -0.00000000000E+00 -0.00000000000E+00 -0.23249730688E+04  0.23249730688E+04  0.00000000000E+00 0.  1.
         21    1    1    2  503  502 -0.28042195718E+02 -0.15993853625E+02 -0.13909733768E+03  0.14279438870E+03  0.00000000000E+00 0. -1.
         21    1    1    2  504  503 -0.70553894908E+02 -0.10923033756E+02  0.44402636065E+02  0.84075911191E+02  0.00000000000E+00 0.  1.
         21    1    1    2  505  506  0.17227990323E+02  0.64477956604E+02 -0.20483246112E+04  0.20494116042E+04  0.00000000000E+00 0.  1.
         21    1    1    2  506  501  0.81368100303E+02 -0.37561069223E+02 -0.97911277755E+02  0.13273364298E+03  0.00000000000E+00 0.  1.
<scales pt_clust_3="32.28263" pt_clust_4="72.24144" pt_clust_5="50.30000" pt_clust_6="14000.00000"></scales>
<clustering>
<clus scale="   32.283">  2  3  1 -1</clus>
<clus scale="   50.300">  2  5  1 -1</clus>
<clus scale="   72.241">  1  4  2 -1</clus>
<clus scale="   72.241">  1  3  2 -1</clus>
</clustering>
</event>
<event>
 6    0  0.5510638E+002  0.8489956E+02  0.7546771E-02  0.1315695E+00
         21   -1    0    0  505  501  0.00000000000E+00  0.00000000000E+00  0.16808934002E+03  0.16808934002E+03  0.00000000000E+00 0. -1.
         21   -1    0    0  506  502 -0.00000000000E+00 -0.00000000000E+00 -0.19340582615E+03  0.19340582615E+03  0.00000000000E+00 0.  1.
         21    1    1    2  503  501  0.44921996999E+02  0.30367046442E+02  0.36365252263E+02  0.65288397867E+02  0.00000000000E+00 0.  1.
         21    1    1    2  504  503  0.33322466667E+02  0.71475240412E+02 -0.61299171156E+02  0.99883357779E+02  0.00000000000E+00 0.  1.
         21    1    1    2  505  502 -0.11306856027E+03 -0.57515558459E+02  0.32646320642E+02  0.13098977456E+03  0.00000000000E+00 0. -1.
         21    1    1    2  506  504  0.34824096608E+02 -0.44326728394E+02 -0.33028887878E+02  0.65333635971E+02  0.00000000000E+00 0.  1.
<scales pt_clust_3="54.22309" pt_clust_4="14000.00000" pt_clust_5="84.89956" pt_clust_6="57.38903"></scales>
<clustering>
<clus scale="   54.223">  1  3  2 -1</clus>
<clus scale="   57.389">  2  6  1 -1</clus>
<clus scale="   84.900">  1  5  2 -1</clus>
<clus scale="   54.223">  1  3  2 -1</clus>
</clustering>
</event>
<event>
 6    0  0.5510638E+002  0.8244904E+02  0.7546771E-02  0.1322242E+00
         21   -1    0    0  505  501  0.00000000000E+00  0.00000000000E+00  0.57324247429E+03  0.57324247429E+03  0.00000000000E+00 0. -1.
         21   -1    0    0  504  502 -0.00000000000E+00 -0.00000000000E+00 -0.19807409960E+03  0.19807409960E+03  0.00000000000E+00 0. -1.
         21    1    1    2  503  501  0.23822361828E+02 -0.43547435021E+02  0.16898089919E+03  0.17612049373E+03  0.00000000000E+00 0. -1.
         21    1    1    2  504  503 -0.59685880277E+02  0.76372657491E+02  0.12214009589E+01  0.96936468560E+02  0.00000000000E+00 0. -1.
         21    1    1    2  505  506  0.56949496199E+02  0.87508706202E+01  0.34546078344E+03  0.35023274511E+03  0.00000000000E+00 0. -1.
         21    1    1    2  506  502 -0.21085977750E+02 -0.41576093090E+02 -0.14049470890E+03  0.14802686649E+03  0.00000000000E+00 0. -1.
<scales pt_clust_3="51.44913" pt_clust_4="14000.00000" pt_clust_5="82.44904" pt_clust_6="46.61749"></scales>
<clustering>
<clus scale="   46.617">  2  6  1 -1</clus>
<clus scale="   51.449">  1  3  2 -1</clus>
<clus scale="   82.449">  1  5  2 -1</clus>
<clus scale="   51.449">  1  3  2 -1</clus>
</clustering>
</event>
<event>
 6    0  0.5510638E+002  0.1276331E+03  0.7546771E-02  0.1231011E+00
         21   -1    0    0  505  501  0.00000000000E+00  0.00000000000E+00  0.71824301355E+02  0.71824301355E+02  0.00000000000E+00 0.  1.
         21   -1    0    0  503  502 -0.00000000000E+00 -0.00000000000E+00 -0.33433233165E+03  0.33433233165E+03  0.00000000000E+00 0.  1.
         21    1    1    2  503  506  0.51345909202E+02 -0.36230385805E+02 -0.82368999513E+02  0.10360354882E+03  0.00000000000E+00 0.  1.
         21    1    1    2  504  502 -0.32956671166E+02 -0.34887803289E+02 -0.75193021114E+02  0.89203651366E+02  0.00000000000E+00 0.  1.
         21    1    1    2  505  504 -0.64598768199E+02  0.10846911260E+03 -0.74408564492E+02  0.14654413571E+03  0.00000000000E+00 0.  1.
         21    1    1    2  506  501  0.46209530163E+02 -0.37350923501E+02 -0.30537445171E+02  0.66805297109E+02  0.00000000000E+00 0.  1.
<scales pt_clust_3="35.85987" pt_clust_4="47.99272" pt_clust_5="122.18910" pt_clust_6="35.85987"></scales>
<clustering>
<clus scale="   35.860">  3  6 -1 -1</clus>
<clus scale="   47.993">  2  4  1 -1</clus>
<clus scale="  122.189">  1  5  2 -1</clus>
<clus scale="  122.189">  1  3  2 -1</clus>
</clustering>
</event>
<event>
 6    0  0.5510638E+002  0.1751107E+03  0.7546771E-02  0.1172621E+00
         21   -1    0    0  503  501  0.00000000000E+00  0.00000000000E+00  0.79286903609E+03  0.79286903609E+03  0.00000000000E+00 0. -1.
         21   -1    0    0  506  502 -0.00000000000E+00 -0.00000000000E+00 -0.70298815569E+03  0.70298815569E+03  0.00000000000E+00 0.  1.
         21    1    1    2  503  505  0.29120718967E+02  0.12960854922E+03  0.71094883797E+03  0.72325282060E+03  0.00000000000E+00 0. -1.
         21    1    1    2  504  501  0.43890319845E+02  0.40736201322E+02  0.15831088851E+02  0.61938854110E+02  0.00000000000E+00 0.  1.
         21    1    1    2  505  502 -0.14742547876E+03 -0.25533510473E+02 -0.35290019576E+03  0.38330768334E+03  0.00000000000E+00 0.  1.
         21    1    1    2  506  504  0.74414439949E+02 -0.14481124007E+03 -0.28399885066E+03  0.32735783372E+03  0.00000000000E+00 0.  1.
<scales pt_clust_3="14000.00000" pt_clust_4="59.88154" pt_clust_5="148.60952" pt_clust_6="175.11071"></scales>
<clustering>
<clus scale="   59.882">  1  4  2 -1</clus>
<clus scale="  148.610">  2  5  1 -1</clus>
<clus scale="  175.111">  2  6  1 -1</clus>
<clus scale="   59.882">  1  3  2 -1</clus>
</clustering>
</event>
<event>
 6    0  0.5510638E+002  0.8579149E+02  0.7546771E-02  0.1313376E+00
         21   -1    0    0  506  501  0.00000000000E+00  0.00000000000E+00  0.16564090447E+03  0.16564090447E+03  0.00000000000E+00 0. -1.
         21   -1    0    0  503  502 -0.00000000000E+00 -0.00000000000E+00 -0.38577702839E+03  0.38577702839E+03  0.00000000000E+00 0.  1.
         21    1    1    2  503  504 -0.32877200423E+02  0.20728380972E+01 -0.64273871828E+02  0.72224217304E+02  0.00000000000E+00 0. -1.
         21    1    1    2  504  501 -0.85166169733E+02  0.33186666325E+01  0.70953094221E+01  0.85525630258E+02  0.00000000000E+00 0.  1.
         21    1    1    2  505  502  0.78103144914E+02 -0.78400296114E+02 -0.24990583109E+03  0.27331233432E+03  0.00000000000E+00 0.  1.
         21    1    1    2  506  505  0.39940225242E+02  0.73008791384E+02  0.86948269575E+02  0.12035575098E+03  0.00000000000E+00 0. -1.
<scales pt_clust_3="32.94248" pt_clust_4="85.79149" pt_clust_5="14000.00000" pt_clust_6="82.50015"></scales>
<clustering>
<clus scale="   32.942">  2  3  1 -1</clus>
<clus scale="   82.500">  1  6  2 -1</clus>
<clus scale="   85.791">  1  4  2 -1</clus>
<clus scale="   82.500">  1  3  2 -1</clus>
</clustering>
</event>
<event>
 6    0  0.5510638E+002  0.2145608E+03  0.7546771E-02  0.1138004E+00
         21   -1    0    0  503  501  0.00000000000E+00  0.00000000000E+00  0.22515867950E+04  0.22515867950E+04  0.00000000000E+00 0. -1.
         21   -1    0    0  505  502 -0.00000000000E+00 -0.00000000000E+00 -0.12359056663E+03  0.12359056663E+03  0.00000000000E+00 0. -1.
         21    1    1    2  503  504  0.12199092095E+03  0.10215894798E+03  0.19233162359E+04  0.19298869342E+04  0.00000000000E+00 0. -1.
         21    1    1    2  504  502 -0.35954478221E+02 -0.42338452957E+02  0.68966827299E+02  0.88553330658E+02  0.00000000000E+00 0. -1.
         21    1    1    2  505  506 -0.13210554122E+03 -0.10715369283E+03 -0.35025041718E+02  0.17366790566E+03  0.00000000000E+00 0. -1.
         21    1    1    2  506  501  0.46069098496E+02  0.47333197809E+02  0.17073820683E+03  0.18306919108E+03  0.00000000000E+00 0. -1.
<scales pt_clust_3="14000.00000" pt_clust_4="55.54520" pt_clust_5="214.56084" pt_clust_6="63.04928"></scales>
<clustering>
<clus scale="   55.545">  2  4  1 -1</clus>
<clus scale="   63.049">  1  6  2 -1</clus>
<clus scale="  214.561">  2  5  1 -1</clus>
<clus scale="   63.049">  1  3  2 -1</clus>
</clustering>
</event>
<event>
 6    0  0.5510638E+002  0.2122349E+03  0.7546771E-02  0.1139808E+00
         21   -1    0    0  504  501  0.00000000000E+00  0.00000000000E+00  0.24177899348E+03  0.24177899348E+03  0.00000000000E+00 0. -1.
         21   -1    0    0  505  502 -0.00000000000E+00 -0.00000000000E+00 -0.14340024715E+04  0.14340024715E+04  0.00000000000E+00 0.  1.
         21    1    1    2  503  506 -0.54330489392E+02  0.66796376778E+02 -0.27181300358E+03  0.28512430086E+03  0.00000000000E+00 0.  1.
         21    1    1    2  504  502  0.58679566044E+01 -0.24855267319E+03 -0.65902509051E+03  0.70436278592E+03  0.00000000000E+00 0.  1.
         21    1    1    2  505  503  0.21484650698E+02 -0.26167682070E+02 -0.42126583543E+03  0.42262423251E+03  0.00000000000E+00 0.  1.
         21    1    1    2  506  501  0.26977882090E+02  0.20792397849E+03  0.15988045150E+03  0.26367014568E+03  0.00000000000E+00 0. -1.
<scales pt_clust_3="76.78617" pt_clust_4="212.23495" pt_clust_5="33.85761" pt_clust_6="14000.00000"></scales>
<clustering>
<clus scale="   33.858">  2  5  1 -1</clus>
<clus scale="   76.786">  2  3  1 -1</clus>
<clus scale="  212.235">  2  4  1 -1</clus>
<clus scale="  212.235">  1  3  2 -1</clus>
</clustering>
</event>
<event>
 6    0  0.5510638E+002  0.8347101E+02  0.7546771E-02  0.1319480E+00
         21   -1    0    0  506  501  0.00000000000E+00  0.00000000000E+00  0.35717305066E+03  0.35717305066E+03  0.00000000000E+00 0.  1.
         21   -1    0    0  505  502 -0.00000000000E+00 -0.00000000000E+00 -0.66186834972E+03  0.66186834972E+03  0.00000000000E+00 0. -1.
         21    1    1    2  503  502 -0.18183473257E+02  0.61264972139E+02 -0.16250828126E+03  0.17462238398E+03  0.00000000000E+00 0. -1.
         21    1    1    2  504  501  0.89207190976E+02 -0.91734714339E+02  0.23432941149E+03  0.26698961370E+03  0.00000000000E+00 0.  1.
         21    1    1    2  505  504 -0.37339887559E+02  0.20682061400E+01 -0.47136538143E+03  0.47284655809E+03  0.00000000000E+00 0. -1.
         21    1    1    2  506  503 -0.33683830160E+02  0.28401536060E+02  0.94848952141E+02  0.10458284461E+03  0.00000000000E+00 0.  1.
<scales pt_clust_3="14000.00000" pt_clust_4="83.47101" pt_clust_5="37.39712" pt_clust_6="44.82965"></scales>
<clustering>
<clus scale="   37.397">  2  5  1 -1</clus>
<clus scale="   44.830">  1  6  2 -1</clus>
<clus scale="   83.471">  1  4  2 -1</clus>
<clus scale="   44.830">  1  3  2 -1</clus>
</clustering>
</event>
<event>
 6    0  0.5510638E+002  0.1407095E+03  0.7546771E-02  0.1212378E+00
         21   -1    0    0  506  501  0.00000000000E+00  0.00000000000E+00  0.13298820762E+03  0.13298820762E+03  0.00000000000E+00 0.  1.
         21   -1    0    0  504  502 -0.00000000000E+00 -0.00000000000E+00 -0.26165727586E+03  0.26165727586E+03  0.00000000000E+00 0.  1.
         21    1    1    2  503  501 -0.24600374178E+02 -0.60318958300E+02 -0.17867988688E+02  0.67548650319E+02  0.00000000000E+00 0.  1.
         21    1    1    2  504  505  0.48536702399E+01 -0.33156604806E+02 -0.11235375807E+03  0.11724455428E+03  0.00000000000E+00 0. -1.
         21    1    1    2  505  503 -0.59258270457E+02 -0.23411835075E+02 -0.20767391703E+02  0.67014484982E+02  0.00000000000E+00 0.  1.
         21    1    1    2  506  502  0.79004974395E+02  0.11688739818E+03  0.22320070218E+02  0.14283779390E+03  0.00000000000E+00 0.  1.
<scales pt_clust_3="48.24812" pt_clust_4="33.50998" pt_clust_5="48.24812" pt_clust_6="131.25444"></scales>
<clustering>
<clus scale="   33.510">  2  4  1 -1</clus>
<clus scale="   48.248">  3  5 -1 -1</clus>
<clus scale="  131.254">  1  6  2 -1</clus>
<clus scale="  131.254">  1  3  2 -1</clus>
</clustering>
</event>
<event>
 6    0  0.5510638E+002  0.8497394E+02  0.7546771E-02  0.1315501E+00
         21   -1    0    0  505  501  0.00000000000E+00  0.00000000000E+00  0.95816112198E+03  0.95816112198E+03  0.00000000000E+00 0.  1.
         21   -1    0    0  503  502 -0.00000000000E+00 -0.00000000000E+00 -0.37649787512E+03  0.37649787512E+03  0.00000000000E+00 0. -1.
         21    1    1    2  503  506  0.35765782105E+02 -0.54113358842E+02 -0.72867425469E+01  0.65272838085E+02  0.00000000000E+00 0. -1.
         21    1    1    2  504  502  0.51631726622E+02  0.42424988911E+02 -0.32333223333E+03  0.33016578864E+03  0.00000000000E+00 0. -1.
         21    1    1    2  505  504 -0.31895139066E+02  0.62036897233E+02  0.91662850161E+02  0.11518660779E+03  0.00000000000E+00 0. -1.
         21    1    1    2  506  501 -0.55502369661E+02 -0.50348527302E+02  0.82061937258E+03  0.82403376259E+03  0.00000000000E+00 0.  1.
<scales pt_clust_3="64.86483" pt_clust_4="14000.00000" pt_clust_5="67.52714" pt_clust_6="84.97394"></scales>
<clustering>
<clus scale="   64.865">  2  3  1 -1</clus>
<clus scale="   67.527">  1  5  2 -1</clus>
<clus scale="   84.974">  1  6  2 -1</clus>
<clus scale="   67.527">  1  3  2 -1</clus>
</clustering>
</event>
<event>
 6    0  0.5510638E+002  0.2306692E+03  0.7546771E-02  0.1126170E+00
         21   -1    0    0  504  501  0.00000000000E+00  0.00000000000E+00  0.10432546601E+03  0.10432546601E+03  0.00000000000E+00 0.  1.
         21   -1    0    0  503  502 -0.00000000000E+00 -0.00000000000E+00 -0.13589483408E+04  0.13589483408E+04  0.00000000000E+00 0.  1.
         21    1    1    2  503  505 -0.23814946358E+02  0.89381967343E+02 -0.19690257019E+03  0.21754748885E+03  0.00000000000E+00 0.  1.
         21    1    1    2  504  506 -0.12361843369E+03  0.26694912930E+02 -0.15274979907E+03  0.19830944667E+03  0.00000000000E+00 0. -1.
         21    1    1    2  505  501  0.22801469649E+03  0.89486112637E+02 -0.71619790405E+03  0.75692661728E+03  0.00000000000E+00 0.  1.
         21    1    1    2  506  502 -0.80581316437E+02 -0.20556299291E+03 -0.18877260153E+03  0.29049025405E+03  0.00000000000E+00 0.  1.
<scales pt_clust_3="92.50020" pt_clust_4="133.48232" pt_clust_5="14000.00000" pt_clust_6="230.66923"></scales>
<clustering>
<clus scale="   92.500">  2  3  1 -1</clus>
<clus scale="  133.482">  1  4  2 -1</clus>
<clus scale="  230.669">  1  6  2 -1</clus>
<clus scale="  133.482">  1  3  2 -1</clus>
</clustering>
</event>
<event>
 6    0  0.5510638E+002  0.2095551E+03  0.7546771E-02  0.1141919E+00
         21   -1    0    0  506  501  0.00000000000E+00  0.00000000000E+00  0.22741963917E+03  0.22741963917E+03  0.00000000000E+00 0. -1.
         21   -1    0    0  504  502 -0.00000000000E+00 -0.00000000000E+00 -0.18839468032E+04  0.18839468032E+04  0.00000000000E+00 0. -1.
         21    1    1    2  503  501  0.11622557196E+03 -0.12773680820E+03  0.48179198575E+02  0.17929392327E+03  0.00000000000E+00 0. -1.
         21    1    1    2  504  505 -0.16611921275E+03  0.35247785813E+02 -0.97953428834E+02  0.19604303984E+03  0.00000000000E+00 0. -1.
         21    1    1    2  505  503 -0.11989104847E+03  0.48211817135E+01 -0.20659663613E+01  0.12000573117E+03  0.00000000000E+00 0. -1.
         21    1    1    2  506  502  0.16978468926E+03  0.87667840678E+02 -0.16046869674E+04  0.16160237481E+04  0.00000000000E+00 0. -1.
<scales pt_clust_3="172.69938" pt_clust_4="67.64193" pt_clust_5="67.64193" pt_clust_6="193.48841"></scales>
<clustering>
<clus scale="   67.642">  4  5 -1 -1</clus>
<clus scale="  172.699">  1  3  2 -1</clus>
<clus scale="  193.488">  2  6  1 -1</clus>
<clus scale="  172.699">  1  3  2 -1</clus>
</clustering>
</event>
<event>
 6    0  0.5510638E+002  0.1046715E+03  0.7546771E-02  0.1270768E+00
         21   -1    0    0  506  501  0.00000000000E+00  0.00000000000E+00  0.69022103276E+03  0.69022103276E+03  0.00000000000E+00 0. -1.
         21   -1    0    0  505  502 -0.00000000000E+00 -0.00000000000E+00 -0.10878532705E+03  0.10878532705E+03  0.00000000000E+00 0.  1.
         21    1    1    2  503  501 -0.62584167940E+02  0.19189874012E+01  0.41444040703E+03  0.41914354530E+03  0.00000000000E+00 0. -1.
         21    1    1    2  504  502  0.22934688220E+02 -0.80552508089E+02  0.14557883146E+01  0.83766495706E+02  0.00000000000E+00 0.  1.
         21    1    1    2  505  503  0.86764557775E+02  0.11920599959E+03  0.35045486014E+02  0.15154651073E+03  0.00000000000E+00 0.  1.
         21    1    1    2  506  504 -0.47115078054E+02 -0.40572478904E+02  0.13049402435E+03  0.14454980808E+03  0.00000000000E+00 0.  1.
<scales pt_clust_3="104.67148" pt_clust_4="85.87785" pt_clust_5="14000.00000" pt_clust_6="62.17682"></scales>
<clustering>
<clus scale="   62.177">  1  6  2 -1</clus>
<clus scale="   85.878">  2  4  1 -1</clus>
<clus scale="  104.671">  1  3  2 -1</clus>
<clus scale="   62.177">  1  3  2 -1</clus>
</clustering>
</event>
<event>
 6    0  0.5510638E+002  0.2320828E+03  0.7546771E-02  0.1125182E+00
         21   -1    0    0  503  501  0.00000000000E+00  0.00000000000E+00  0.23591792711E+04  0.23591792711E+04  0.00000000000E+00 0.  1.
         21   -1    0    0  506  502 -0.00000000000E+00 -0.00000000000E+00 -0.14961645144E+03  0.14961645144E+03  0.00000000000E+00 0.  1.
         21    1    1    2  503  502 -0.16883152796E+03 -0.15533340485E+03  0.18393477214E+04  0.18535999007E+04  0.00000000000E+00 0.  1.
         21    1    1    2  504  501  0.73885922939E+02  0.30919645191E+03  0.16334573983E+03  0.35741209578E+03  0.00000000000E+00 0.  1.
         21    1    1    2  505  504  0.10833931871E+03 -0.69563002956E+02  0.12860158181E+03  0.18197468562E+03  0.00000000000E+00 0.  1.
         21    1    1    2  506  505 -0.13393713693E+02 -0.84300044107E+02  0.78267776594E+02  0.11580904048E+03  0.00000000000E+00 0.  1.
<scales pt_clust_3="232.08285" pt_clust_4="14000.00000" pt_clust_5="136.67345" pt_clust_6="85.35742"></scales>
<clustering>
<clus scale="   85.357">  2  6  1 -1</clus>
<clus scale="  136.673">  2  5  1 -1</clus>
<clus scale="  232.083">  1  3  2 -1</clus>
<clus scale="  232.083">  1  3  2 -1</clus>
</clustering>
</event>
<event>
 6    0  0.5510638E+002  0.3928461E+03  0.7546771E-02  0.1046285E+00
         21   -1    0    0  506  501  0.00000000000E+00  0.00000000000E+00  0.13265929001E+04  0.13265929001E+04  0.00000000000E+00 0. -1.
         21   -1    0    0  505  502 -0.00000000000E+00 -0.00000000000E+00 -0.68950492913E+03  0.68950492913E+03  0.00000000000E+00 0. -1.
         21    1    1    2  503  504 -0.17223216854E+03  0.20258048022E+03  0.45035749930E+02  0.26968683619E+03  0.00000000000E+00 0. -1.
         21    1    1    2  504  501 -0.14377523995E+03  0.80069422974E+02  0.99184283355E+02  0.19214565877E+03  0.00000000000E+00 0. -1.
         21    1    1    2  505  503  0.15590605870E+02 -0.72049859505E+02 -0.49500542143E+03  0.50046440082E+03  0.00000000000E+00 0. -1.
         21    1    1    2  506  502  0.30041680262E+03 -0.21060004369E+03  0.98787335911E+03  0.10538009335E+04  0.00000000000E+00 0. -1.
<scales pt_clust_3="92.41302" pt_clust_4="92.41302" pt_clust_5="73.71736" pt_clust_6="376.28428"></scales>
<clustering>
<clus scale="   73.717">  2  5  1 -1</clus>
<clus scale="   92.413">  3  4 -1 -1</clus>
<clus scale="  376.284">  1  6  2 -1</clus>
<clus scale="  376.284">  1  3  2 -1</clus>
</clustering>
</event>
<event>
 6    0  0.5510638E+002  0.1501004E+03  0.7546771E-02  0.1200350E+00
         21   -1    0    0  506  501  0.00000000000E+00  0.00000000000E+00  0.22432788891E+04  0.22432788891E+04  0.00000000000E+00 0. -1.
         21   -1    0    0  503  502 -0.00000000000E+00 -0.00000000000E+00 -0.17509379629E+03  0.17509379629E+03  0.00000000000E+00 0.  1.
         21    1    1    2  503  505  0.13003929708E+03 -0.20237992380E+02 -0.12562584281E+03  0.18193858168E+03  0.00000000000E+00 0.  1.
         21    1    1    2  504  501 -0.46653681443E+02  0.55016915472E+02  0.89636140441E+03  0.89925924755E+03  0.00000000000E+00 0.  1.
         21    1    1    2  505  504 -0.75815008354E+02  0.99221129291E+01  0.12887425022E+04  0.12910087532E+04  0.00000000000E+00 0. -1.
         21    1    1    2  506  502 -0.75706072862E+01 -0.44701036021E+02  0.87070290703E+01  0.46166103055E+02  0.00000000000E+00 0. -1.
<scales pt_clust_3="138.38703" pt_clust_4="56.35148" pt_clust_5="56.35148" pt_clust_6="45.33759"></scales>
<clustering>
<clus scale="   45.338">  2  6  1 -1</clus>
<clus scale="   56.351">  4  5 -1 -1</clus>
<clus scale="  138.387">  2  3  1 -1</clus>
<clus scale="  150.100">  1  3  2 -1</clus>
</clustering>
</event>
<event>
 6    0  0.5510638E+002  0.2004438E+03  0.7546771E-02  0.1149365E+00
         21   -1    0    0  504  501  0.00000000000E+00  0.00000000000E+00  0.11751837478E+04  0.11751837478E+04  0.00000000000E+00 0. -1.
         21   -1    0    0  503  502 -0.00000000000E+00 -0.00000000000E+00 -0.38341676358E+03  0.38341676358E+03  0.00000000000E+00 0. -1.
         21    1    1    2  503  506 -0.52553339324E+02  0.37376133381E+02 -0.47289859243E+02  0.79969741827E+02  0.00000000000E+00 0.  1.
         21    1    1    2  504  502  0.53679012362E+02 -0.23068744095E+02  0.11875122580E+03  0.13234597444E+03  0.00000000000E+00 0. -1.
         21    1    1    2  505  501  0.15049559151E+03  0.15669853768E+01  0.10088118831E+04  0.10199768595E+04  0.00000000000E+00 0. -1.
         21    1    1    2  506  505 -0.15162126455E+03 -0.15874374663E+02 -0.28850626542E+03  0.32630793558E+03  0.00000000000E+00 0. -1.
<scales pt_clust_3="63.60016" pt_clust_4="58.42605" pt_clust_5="14000.00000" pt_clust_6="200.44380"></scales>
<clustering>
<clus scale="   58.426">  1  4  2 -1</clus>
<clus scale="   63.600">  2  3  1 -1</clus>
<clus scale="  200.444">  2  6  1 -1</clus>
<clus scale="   58.426">  1  3  2 -1</clus>
</clustering>
</event>
<event>
 6    0  0.5510638E+002  0.1202263E+03  0.7546771E-02  0.1242724E+00
         21   -1    0    0  503  501  0.00000000000E+00  0.00000000000E+00  0.56330836894E+02  0.56330836894E+02  0.00000000000E+00 0. -1.
         21   -1    0    0  505  502 -0.00000000000E+00 -0.00000000000E+00 -0.11384638642E+04  0.11384638642E+04  0.00000000000E+00 0.  1.
         21    1    1    2  503  506  0.40273929578E+02 -0.54776315923E+02 -0.20044239122E+02  0.70881631694E+02  0.00000000000E+00 0. -1.
         21    1    1    2  504  502  0.36629694410E+02 -0.20052843165E+02 -0.13274127234E+03  0.13915493672E+03  0.00000000000E+00 0. -1.
         21    1    1    2  505  501 -0.15879697782E+03  0.65721586628E+02 -0.86017113338E+03  0.87717169688E+03  0.00000000000E+00 0.  1.
         21    1    1    2  506  504  0.81893353833E+02  0.91075724598E+01 -0.69176382489E+02  0.10758643582E+03  0.00000000000E+00 0.  1.
<scales pt_clust_3="69.70971" pt_clust_4="41.75944" pt_clust_5="120.22627" pt_clust_6="14000.00000"></scales>
<clustering>
<clus scale="   41.759">  2  4  1 -1</clus>
<clus scale="   69.710">  1  3  2 -1</clus>
<clus scale="  120.226">  2  5  1 -1</clus>
<clus scale="   69.710">  1  3  2 -1</clus>
</clustering>
</event>
<event>
 6    0  0.5510638E+002  0.5616578E+02  0.7546771E-02  0.1414665E+00
         21   -1    0    0  503  501  0.00000000000E+00  0.00000000000E+00  0.15935367421E+03  0.15935367421E+03  0.00000000000E+00 0. -1.
         21   -1    0    0  505  502 -0.00000000000E+00 -0.00000000000E+00 -0.11485978045E+04  0.11485978045E+04  0.00000000000E+00 0.  1.
         21    1    1    2  503  502  0.80846062236E+02 -0.99614819335E+01 -0.10229014190E+04  0.10261396737E+04  0.00000000000E+00 0.  1.
         21    1    1    2  504  506 -0.92813191518E+02 -0.78116175224E+01 -0.14246548522E+02  0.94224593567E+02  0.00000000000E+00 0. -1.
         21    1    1    2  505  504 -0.40036989760E+02  0.19359887627E+02 -0.55925105326E+02  0.71451964310E+02  0.00000000000E+00 0. -1.
         21    1    1    2  506  501  0.52004119043E+02 -0.15867881706E+01  0.10382894262E+03  0.11613524710E+03  0.00000000000E+00 0. -1.
<scales pt_clust_3="43.83461" pt_clust_4="56.16578" pt_clust_5="44.47208" pt_clust_6="14000.00000"></scales>
<clustering>
<clus scale="   44.472">  2  5  1 -1</clus>
<clus scale="   43.835">  2  3  1 -1</clus>
<clus scale="   56.166">  2  4  1 -1</clus>
<clus scale="   56.166">  1  3  2 -1</clus>
</clustering>
</event>
<event>
 6    0  0.5510638E+002  0.1247004E+03  0.7546771E-02  0.1235538E+00
         21   -1    0    0  506  501  0.00000000000E+00  0.00000000000E+00  0.15131116089E+04  0.15131116089E+04  0.00000000000E+00 0. -1.
         21   -1    0    0  505  502 -0.00000000000E+00 -0.00000000000E+00 -0.15220395197E+02  0.15220395197E+02  0.00000000000E+00 0. -1.
         21    1    1    2  503  502 -0.87255931494E+02  0.23685538930E+02  0.37392258191E+03  0.38469819287E+03  0.00000000000E+00 0. -1.
         21    1    1    2  504  501  0.30709205520E+02  0.28060923389E+02  0.47045343611E+03  0.47228900715E+03  0.00000000000E+00 0. -1.
         21    1    1    2  505  504  0.98950666590E+02 -0.33339273223E+02  0.50960804850E+03  0.52019525628E+03  0.00000000000E+00 0. -1.
         21    1    1    2  506  503 -0.42403940617E+02 -0.18407189096E+02  0.14390714717E+03  0.15114954779E+03  0.00000000000E+00 0. -1.
<scales pt_clust_3="33.12133" pt_clust_4="41.59893" pt_clust_5="115.77810" pt_clust_6="33.12133"></scales>
<clustering>
<clus scale="   33.121">  3  6 -1 -1</clus>
<clus scale="   41.599">  1  4  2 -1</clus>
<clus scale="  115.778">  1  5  2 -1</clus>
<clus scale="   41.599">  1  3  2 -1</clus>
</clustering>
</event>
<event>
 6    0  0.5510638E+002  0.1223952E+03  0.7546771E-02  0.1239197E+00
         21   -1    0    0  506  501  0.00000000000E+00  0.00000000000E+00  0.11561083745E+03  0.11561083745E+03  0.00000000000E+00 0. -1.
         21   -1    0    0  504  502 -0.00000000000E+00 -0.00000000000E+00 -0.19171430281E+03  0.19171430281E+03  0.00000000000E+00 0. -1.
         21    1    1    2  503  502 -0.12196975675E+02 -0.39159988886E+02 -0.29729832481E+02  0.50657022065E+02  0.00000000000E+00 0. -1.
         21    1    1    2  504  505 -0.47923088021E+02  0.31593061000E+02  0.19696528805E+02  0.60685229799E+02  0.00000000000E+00 0. -1.
         21    1    1    2  505  501 -0.59590566428E+02  0.18597115461E+02 -0.95858242495E+01  0.63156760028E+02  0.00000000000E+00 0. -1.
         21    1    1    2  506  503  0.11971063012E+03 -0.11030187576E+02 -0.56484337434E+02  0.13282612837E+03  0.00000000000E+00 0. -1.
<scales pt_clust_3="41.01550" pt_clust_4="32.60805" pt_clust_5="32.60805" pt_clust_6="117.57643"></scales>
<clustering>
<clus scale="   32.608">  4  5 -1 -1</clus>
<clus scale="   41.015">  2  3  1 -1</clus>
<clus scale="  117.576">  2  6  1 -1</clus>
<clus scale="  122.395">  1  3  2 -1</clus>
</clustering>
</event>
<event>
 6    0  0.5510638E+002  0.7767936E+02  0.7546771E-02  0.1335769E+00
         21   -1    0    0  503  501  0.00000000000E+00  0.00000000000E+00  0.37731722227E+03  0.37731722227E+03  0.00000000000E+00 0. -1.
         21   -1    0    0  505  502 -0.00000000000E+00 -0.00000000000E+00 -0.23261948004E+03  0.23261948004E+03  0.00000000000E+00 0. -1.
         21    1    1    2  503  506 -0.64551051133E+02 -0.37547459234E+02  0.22843939530E+03  0.24033561372E+03  0.00000000000E+00 0. -1.
         21    1    1    2  504  501  0.40790441523E+02 -0.28613149311E+02  0.45183407232E+02  0.67261524828E+02  0.00000000000E+00 0. -1.
         21    1    1    2  505  504 -0.61971613351E+02  0.25162387149E+01 -0.17528587031E+03  0.18593533459E+03  0.00000000000E+00 0. -1.
         21    1    1    2  506  502  0.85732222962E+02  0.63644369829E+02  0.46360810001E+02  0.11640422917E+03  0.00000000000E+00 0. -1.
<scales pt_clust_3="77.67936" pt_clust_4="49.82542" pt_clust_5="61.32918" pt_clust_6="14000.00000"></scales>
<clustering>
<clus scale="   49.825">  1  4  2 -1</clus>
<clus scale="   61.329">  2  5  1 -1</clus>
<clus scale="   77.679">  1  3  2 -1</clus>
<clus scale="   49.825">  1  3  2 -1</clus>
</clustering>
</event>
<event>
 6    0  0.5510638E+002  0.1297650E+03  0.7546771E-02  0.1227805E+00
         21   -1    0    0  506  501  0.00000000000E+00  0.00000000000E+00  0.21962731805E+03  0.21962731805E+03  0.00000000000E+00 0. -1.
         21   -1    0    0  501  502 -0.00000000000E+00 -0.00000000000E+00 -0.30621556152E+03  0.30621556152E+03  0.00000000000E+00 0. -1.
         21    1    1    2  503  502  0.57391157977E+02  0.27730615882E+02 -0.18195150779E+03  0.19279285064E+03  0.00000000000E+00 0. -1.
         21    1    1    2  504  503  0.40803684359E+02  0.45621249800E+02 -0.84484313260E+02  0.10432563576E+03  0.00000000000E+00 0. -1.
         21    1    1    2  505  504 -0.90590422471E+02 -0.43421368759E+02  0.16780594835E+03  0.19557831222E+03  0.00000000000E+00 0. -1.
         21    1    1    2  506  505 -0.76044198654E+01 -0.29930496924E+02  0.12041629229E+02  0.33146080946E+02  0.00000000000E+00 0. -1.
<scales pt_clust_3="46.34507" pt_clust_4="46.34507" pt_clust_5="120.70767" pt_clust_6="30.88142"></scales>
<clustering>
<clus scale="   30.881">  1  6  2 -1</clus>
<clus scale="   46.345">  3  4 -1 -1</clus>
<clus scale="  120.708">  1  5  2 -1</clus>
<clus scale="   30.881">  1  3  2 -1</clus>
</clustering>
</event>
<event>
 6    0  0.5510638E+002  0.6343730E+02  0.7546771E-02  0.1383948E+00
         21   -1    0    0  505  501  0.00000000000E+00  0.00000000000E+00  0.90970101566E+03  0.90970101566E+03  0.00000000000E+00 0.  1.
         21   -1    0    0  506  502 -0.00000000000E+00 -0.00000000000E+00 -0.11180914228E+03  0.11180914228E+03  0.00000000000E+00 0.  1.
         21    1    1    2  503  504  0.81107260246E+01  0.91183252054E+02 -0.66076693001E+02  0.11289950704E+03  0.00000000000E+00 0.  1.
         21    1    1    2  504  501 -0.54548251386E+02  0.50536587567E+01  0.66979981502E+03  0.67203634083E+03  0.00000000000E+00 0.  1.
         21    1    1    2  505  502  0.27730796056E+02 -0.62922518783E+02  0.18488131313E+03  0.19725450658E+03  0.00000000000E+00 0.  1.
         21    1    1    2  506  503  0.18706729306E+02 -0.33314392028E+02  0.92874382345E+01  0.39319803489E+02  0.00000000000E+00 0.  1.
<scales pt_clust_3="63.43730" pt_clust_4="54.53236" pt_clust_5="14000.00000" pt_clust_6="38.20720"></scales>
<clustering>
<clus scale="   38.207">  2  6  1 -1</clus>
<clus scale="   54.532">  1  4  2 -1</clus>
<clus scale="   63.437">  2  3  1 -1</clus>
<clus scale="   54.532">  1  3  2 -1</clus>
</clustering>
</event>
<event>
 6    0  0.5510638E+002  0.7478348E+02  0.7546771E-02  0.1344543E+00
         21   -1    0    0  505  501  0.00000000000E+00  0.00000000000E+00  0.35364006631E+02  0.35364006631E+02  0.00000000000E+00 0. -1.
         21   -1    0    0  506  502 -0.00000000000E+00 -0.00000000000E+00 -0.26698186583E+04  0.26698186583E+04  0.00000000000E+00 0. -1.
         21    1    1    2  503  502  0.19381546795E+02  0.52060779232E+02 -0.13313991399E+04  0.13325575556E+04  0.00000000000E+00 0.  1.
         21    1    1    2  504  501  0.57409222682E+02 -0.11054322824E+02 -0.11025170214E+03  0.12479364859E+03  0.00000000000E+00 0. -1.
         21    1    1    2  505  503  0.17272511197E+02  0.31538892634E+02  0.11446380942E+02  0.37736733143E+02  0.00000000000E+00 0. -1.
         21    1    1    2  506  504 -0.94063280674E+02 -0.72545349042E+02 -0.12042501905E+04  0.12100947276E+04  0.00000000000E+00 0. -1.
<scales pt_clust_3="57.46540" pt_clust_4="74.78348" pt_clust_5="35.95888" pt_clust_6="14000.00000"></scales>
<clustering>
<clus scale="   35.959">  1  5  2 -1</clus>
<clus scale="   57.465">  2  3  1 -1</clus>
<clus scale="   74.783">  1  4  2 -1</clus>
<clus scale="   35.959">  1  3  2 -1</clus>
</clustering>
</event>
<event>
 6    0  0.5510638E+002  0.1478052E+03  0.7546771E-02  0.1203196E+00
         21   -1    0    0  503  501  0.00000000000E+00  0.00000000000E+00  0.37081412246E+03  0.37081412246E+03  0.00000000000E+00 0. -1.
         21   -1    0    0  501  502 -0.00000000000E+00 -0.00000000000E+00 -0.15415162653E+03  0.15415162653E+03  0.00000000000E+00 0. -1.
         21    1    1    2  503  504 -0.49281429188E+02 -0.64290939705E+02  0.10266397920E+03  0.13077414429E+03  0.00000000000E+00 0. -1.
         21    1    1    2  504  506 -0.48785184958E+02 -0.18451089027E+02  0.12956604600E+03  0.13967031622E+03  0.00000000000E+00 0. -1.
         21    1    1    2  505  502 -0.23905878791E+02 -0.41682122159E+02 -0.57873666578E+02  0.75221350903E+02  0.00000000000E+00 0. -1.
         21    1    1    2  506  505  0.12197249294E+03  0.12442415089E+03  0.42306137315E+02  0.17929993757E+03  0.00000000000E+00 0. -1.
<scales pt_clust_3="42.04946" pt_clust_4="42.04946" pt_clust_5="48.05091" pt_clust_6="138.20365"></scales>
<clustering>
<clus scale="   42.049">  3  4 -1 -1</clus>
<clus scale="   48.051">  2  5  1 -1</clus>
<clus scale="  138.204">  2  6  1 -1</clus>
<clus scale="  147.805">  1  3  2 -1</clus>
</clustering>
</event>
<event>
 6    0  0.5510638E+002  0.2063355E+03  0.7546771E-02  0.1144501E+00
         21   -1    0    0  505  501  0.00000000000E+00  0.00000000000E+00  0.75521691221E+03  0.75521691221E+03  0.00000000000E+00 0.  1.
         21   -1    0    0  503  502 -0.00000000000E+00 -0.00000000000E+00 -0.16358636646E+03  0.16358636646E+03  0.00000000000E+00 0.  1.
         21    1    1    2  503  501 -0.32120414214E+02  0.46501876306E+02 -0.92472619261E+02  0.10837587749E+03  0.00000000000E+00 0. -1.
         21    1    1    2  504  502 -0.45993332831E+02 -0.27393947016E+02  0.82233675358E+02  0.98123352780E+02  0.00000000000E+00 0.  1.
         21    1    1    2  505  506  0.15687868277E+03  0.11742091693E+03  0.46095798854E+03  0.50088008549E+03  0.00000000000E+00 0.  1.
         21    1    1    2  506  504 -0.78764935728E+02 -0.13652884622E+03  0.14091150111E+03  0.21142396291E+03  0.00000000000E+00 0.  1.
<scales pt_clust_3="56.51677" pt_clust_4="34.92060" pt_clust_5="197.44336" pt_clust_6="34.92060"></scales>
<clustering>
<clus scale="   34.921">  4  6 -1 -1</clus>
<clus scale="   56.517">  2  3  1 -1</clus>
<clus scale="  197.443">  1  5  2 -1</clus>
<clus scale="  197.443">  1  3  2 -1</clus>
</clustering>
</event>
<event>
 6    0  0.5510638E+002  0.1527571E+03  0.7546771E-02  0.1197126E+00
         21   -1    0    0  503  501  0.00000000000E+00  0.00000000000E+00  0.75878275557E+02  0.75878275557E+02  0.00000000000E+00 0. -1.
         21   -1    0    0  504  502 -0.00000000000E+00 -0.00000000000E+00 -0.89904456497E+03  0.89904456497E+03  0.00000000000E+00 0. -1.
         21    1    1    2  503  502  0.46076698383E+02  0.18682250648E+03 -0.13198829033E+03  0.23333799486E+03  0.00000000000E+00 0. -1.
         21    1    1    2  504  506 -0.18398688986E+02 -0.85002590508E+02 -0.55971388362E+03  0.56643056386E+03  0.00000000000E+00 0. -1.
         21    1    1    2  505  501  0.17382229921E+01 -0.62239148945E+02 -0.49688561476E+02  0.79659815605E+02  0.00000000000E+00 0. -1.
         21    1    1    2  506  505 -0.29416232389E+02 -0.39580767028E+02 -0.81775553984E+02  0.95494466205E+02  0.00000000000E+00 0.  1.
<scales pt_clust_3="145.16156" pt_clust_4="86.97098" pt_clust_5="42.33498" pt_clust_6="42.33498"></scales>
<clustering>
<clus scale="   42.335">  5  6 -1 -1</clus>
<clus scale="   86.971">  2  4  1 -1</clus>
<clus scale="  145.162">  2  3  1 -1</clus>
<clus scale="  152.757">  1  3  2 -1</clus>
</clustering>
</event>
<event>
 6    0  0.5510638E+002  0.1318436E+03  0.7546771E-02  0.1224745E+00
         21   -1    0    0  505  501  0.00000000000E+00  0.00000000000E+00  0.19687104821E+03  0.19687104821E+03  0.00000000000E+00 0.  1.
         21   -1    0    0  506  502 -0.00000000000E+00 -0.00000000000E+00 -0.25240039567E+03  0.25240039567E+03  0.00000000000E+00 0. -1.
         21    1    1    2  503  501 -0.23372595489E+01  0.50828387145E+02  0.58272869775E+02  0.77360940233E+02  0.00000000000E+00 0. -1.
         21    1    1    2  504  503 -0.36262035825E+01  0.67351048702E+02  0.24210555931E+02  0.71662152718E+02  0.00000000000E+00 0.  1.
         21    1    1    2  505  502  0.30009784271E+02 -0.14006884652E+03  0.14803776599E+02  0.14401048822E+03  0.00000000000E+00 0.  1.
         21    1    1    2  506  504 -0.24046321140E+02  0.21889410669E+02 -0.15281654977E+03  0.15623786271E+03  0.00000000000E+00 0. -1.
<scales pt_clust_3="31.90126" pt_clust_4="31.90126" pt_clust_5="126.41328" pt_clust_6="32.51725"></scales>
<clustering>
<clus scale="   32.517">  2  6  1 -1</clus>
<clus scale="   31.901">  3  4 -1 -1</clus>
<clus scale="  126.413">  2  5  1 -1</clus>
<clus scale="  131.844">  1  3  2 -1</clus>
</clustering>
</event>
<event>
 6    0  0.5510638E+002  0.1931059E+03  0.7546771E-02  0.1155689E+00
         21   -1    0    0  506  501  0.00000000000E+00  0.00000000000E+00  0.19008545768E+03  0.19008545768E+03  0.00000000000E+00 0.  1.
         21   -1    0    0  504  502 -0.00000000000E+00 -0.00000000000E+00 -0.25721777962E+04  0.25721777962E+04  0.00000000000E+00 0.  1.
         21    1    1    2  503  505  0.83549594642E+02 -0.57595207779E+02  0.25023538730E+02  0.10451755936E+03  0.00000000000E+00 0.  1.
         21    1    1    2  504  503 -0.89952293940E+02 -0.92858227418E+01 -0.12900158482E+04  0.12931815535E+04  0.00000000000E+00 0.  1.
         21    1    1    2  505  501  0.70377899815E+02 -0.27692636838E+02  0.10926993329E+03  0.13289036548E+03  0.00000000000E+00 0.  1.
         21    1    1    2  506  502 -0.63975200517E+02  0.94573667360E+02 -0.12263699624E+04  0.12316737756E+04  0.00000000000E+00 0.  1.
<scales pt_clust_3="74.06345" pt_clust_4="90.43031" pt_clust_5="74.06345" pt_clust_6="173.00232"></scales>
<clustering>
<clus scale="   74.063">  3  5 -1 -1</clus>
<clus scale="   90.430">  2  4  1 -1</clus>
<clus scale="  173.002">  2  6  1 -1</clus>
<clus scale="  193.106">  1  3  2 -1</clus>
</clustering>
</event>
<event>
 6    0  0.5510638E+002  0.1247024E+03  0.7546771E-02  0.1235535E+00
         21   -1    0    0  506  501  0.00000000000E+00  0.00000000000E+00  0.48701086451E+03  0.48701086451E+03  0.00000000000E+00 0.  1.
         21   -1    0    0  505  502 -0.00000000000E+00 -0.00000000000E+00 -0.30111022055E+03  0.30111022055E+03  0.00000000000E+00 0.  1.
         21    1    1    2  503  502 -0.10256321507E+03 -0.28605965902E+02 -0.15760844945E+02  0.10763790505E+03  0.00000000000E+00 0.  1.
         21    1    1    2  504  501 -0.47250556842E+02  0.21129179631E+02  0.88954630285E+02  0.10291736298E+03  0.00000000000E+00 0.  1.
         21    1    1    2  505  504  0.12232872892E+03  0.50935489956E+02 -0.21135006634E+03  0.24945459025E+03  0.00000000000E+00 0.  1.
         21    1    1    2  506  503  0.27485042998E+02 -0.43458703685E+02  0.32405692496E+03  0.32811122677E+03  0.00000000000E+00 0.  1.
<scales pt_clust_3="124.70243" pt_clust_4="31.23316" pt_clust_5="14000.00000" pt_clust_6="51.42068"></scales>
<clustering>
<clus scale="   51.421">  1  6  2 -1</clus>
<clus scale="   31.233">  1  4  2 -1</clus>
<clus scale="  124.702">  1  3  2 -1</clus>
<clus scale="   51.421">  1  3  2 -1</clus>
</clustering>
</event>
<event>
 6    0  0.5510638E+002  0.2160620E+03  0.7546771E-02  0.1136854E+00
         21   -1    0    0  506  501  0.00000000000E+00  0.00000000000E+00  0.12532134754E+04  0.12532134754E+04  0.00000000000E+00 0.  1.
         21   -1    0    0  504  502 -0.00000000000E+00 -0.00000000000E+00 -0.10363105812E+03  0.10363105812E+03  0.00000000000E+00 0.  1.
         21    1    1    2  503  501 -0.71298046680E+02 -0.65728075137E+02  0.40229919967E+03  0.41382150424E+03  0.00000000000E+00 0.  1.
         21    1    1    2  504  503 -0.10806534367E+03 -0.21248011707E+02  0.42586543573E+03  0.43987608011E+03  0.00000000000E+00 0.  1.
         21    1    1    2  505  502 -0.60089840265E+02  0.46134856677E+02 -0.25241575274E+02  0.79852057118E+02  0.00000000000E+00 0.  1.
         21    1    1    2  506  505  0.23945323061E+03  0.40841230167E+02  0.34665935717E+03  0.42329489206E+03  0.00000000000E+00 0.  1.
<scales pt_clust_3="53.13740" pt_clust_4="53.13740" pt_clust_5="75.75760" pt_clust_6="208.50884"></scales>
<clustering>
<clus scale="   53.137">  3  4 -1 -1</clus>
<clus scale="   75.758">  2  5  1 -1</clus>
<clus scale="  208.509">  2  6  1 -1</clus>
<clus scale="  216.062">  1  3  2 -1</clus>
</clustering>
</event>
<event>
 6    0  0.5510638E+002  0.9884320E+02  0.7546771E-02  0.1282747E+00
         21   -1    0    0  503  501  0.00000000000E+00  0.00000000000E+00  0.61372194124E+03  0.61372194124E+03  0.00000000000E+00 0. -1.
         21   -1    0    0  505  502 -0.00000000000E+00 -0.00000000000E+00 -0.23545926726E+03  0.23545926726E+03  0.00000000000E+00 0.  1.
         21    1    1    2  503  504  0.89437872188E+02  0.57672767567E+02  0.54166767162E+03  0.55202277813E+03  0.00000000000E+00 0. -1.
         21    1    1    2  504  506 -0.47219587665E+02 -0.52261864721E+02  0.38673819994E+02  0.80353321750E+02  0.00000000000E+00 0. -1.
         21    1    1    2  505  501 -0.12069572470E+02  0.27788889660E+02 -0.52139122881E+02  0.60302446907E+02  0.00000000000E+00 0. -1.
         21    1    1    2  506  502 -0.30148712054E+02 -0.33199792506E+02 -0.14993969475E+03  0.15650266171E+03  0.00000000000E+00 0.  1.
<scales pt_clust_3="14000.00000" pt_clust_4="98.84320" pt_clust_5="30.29681" pt_clust_6="41.55387"></scales>
<clustering>
<clus scale="   30.297">  2  5  1 -1</clus>
<clus scale="   41.554">  2  6  1 -1</clus>
<clus scale="   98.843">  2  4  1 -1</clus>
<clus scale="   98.843">  1  3  2 -1</clus>
</clustering>
</event>
<event>
 6    0  0.5510638E+002  0.1069594E+03  0.7546771E-02  0.1266306E+00
         21   -1    0    0  504  501  0.00000000000E+00  0.00000000000E+00  0.63198075549E+03  0.63198075549E+03  0.00000000000E+00 0. -1.
         21   -1    0    0  503  502 -0.00000000000E+00 -0.00000000000E+00 -0.11844791169E+03  0.11844791169E+03  0.00000000000E+00 0.  1.
         21    1    1    2  503  506 -0.36304723573E+02  0.32290393867E+02 -0.14570382140E+02  0.50724732878E+02  0.00000000000E+00 0.  1.
         21    1    1    2  504  505 -0.66692309263E+01 -0.50855539172E+02  0.33155298182E+03  0.33549686177E+03  0.00000000000E+00 0. -1.
         21    1    1    2  505  502  0.13263105158E+03  0.21455708062E+02 -0.14255308689E+02  0.13510942631E+03  0.00000000000E+00 0.  1.
         21    1    1    2  506  501 -0.89657097078E+02 -0.28905627571E+01  0.21080555281E+03  0.22909764622E+03  0.00000000000E+00 0. -1.
<scales pt_clust_3="48.58706" pt_clust_4="50.67207" pt_clust_5="14000.00000" pt_clust_6="106.95942"></scales>
<clustering>
<clus scale="   48.587">  2  3  1 -1</clus>
<clus scale="   50.672">  1  4  2 -1</clus>
<clus scale="  106.959">  1  6  2 -1</clus>
<clus scale="   50.672">  1  3  2 -1</clus>
</clustering>
</event>
<event>
 6    0  0.5510638E+002  0.7619552E+02  0.7546771E-02  0.1340208E+00
         21   -1    0    0  506  501  0.00000000000E+00  0.00000000000E+00  0.51280556083E+03  0.51280556083E+03  0.00000000000E+00 0.  1.
         21   -1    0    0  505  502 -0.00000000000E+00 -0.00000000000E+00 -0.45014584362E+03  0.45014584362E+03  0.00000000000E+00 0.  1.
         21    1    1    2  503  502 -0.30229089588E+02  0.69210560707E+02 -0.41275413206E+03  0.41960680774E+03  0.00000000000E+00 0.  1.
         21    1    1    2  504  501  0.36206810471E+02  0.24802836126E+02  0.24922896201E+03  0.25306360724E+03  0.00000000000E+00 0.  1.
         21    1    1    2  505  504  0.12390262034E+02 -0.12741801827E+03  0.21555584607E+03  0.25070539034E+03  0.00000000000E+00 0.  1.
         21    1    1    2  506  503 -0.18367982917E+02  0.33404621436E+02  0.10629041198E+02  0.39575599130E+02  0.00000000000E+00 0. -1.
<scales pt_clust_3="76.19552" pt_clust_4="49.79821" pt_clust_5="14000.00000" pt_clust_6="38.12154"></scales>
<clustering>
<clus scale="   38.122">  1  6  2 -1</clus>
<clus scale="   49.798">  1  4  2 -1</clus>
<clus scale="   76.196">  2  3  1 -1</clus>
<clus scale="   38.122">  1  3  2 -1</clus>
</clustering>
</event>
<event>
 6    0  0.5510638E+002  0.5465234E+02  0.7546771E-02  0.1421750E+00
         21   -1    0    0  505  501  0.00000000000E+00  0.00000000000E+00  0.15250666513E+04  0.15250666513E+04  0.00000000000E+00 0. -1.
         21   -1    0    0  503  502 -0.00000000000E+00 -0.00000000000E+00 -0.83870276499E+02  0.83870276499E+02  0.00000000000E+00 0.  1.
         21    1    1    2  503  501 -0.18561923501E+02 -0.75050227578E+02  0.12411066493E+04  0.12435122824E+04  0.00000000000E+00 0. -1.
         21    1    1    2  504  506  0.18981615596E+02  0.93792427269E+02  0.80349686836E+02  0.12495356465E+03  0.00000000000E+00 0.  1.
         21    1    1    2  505  504  0.14260628335E+02  0.26447872861E+02  0.16922256167E+03  0.17186951701E+03  0.00000000000E+00 0. -1.
         21    1    1    2  506  502 -0.14680320430E+02 -0.45190072552E+02 -0.49482522974E+02  0.68601563722E+02  0.00000000000E+00 0.  1.
<scales pt_clust_3="54.65234" pt_clust_4="14000.00000" pt_clust_5="30.04755" pt_clust_6="47.30618"></scales>
<clustering>
<clus scale="   30.048">  1  5  2 -1</clus>
<clus scale="   47.306">  2  6  1 -1</clus>
<clus scale="   54.652">  1  3  2 -1</clus>
<clus scale="   30.048">  1  3  2 -1</clus>
</clustering>
</event>
<event>
 6    0  0.5510638E+002  0.7882169E+02  0.7546771E-02  0.1332429E+00
         21   -1    0    0  504  501  0.00000000000E+00  0.00000000000E+00  0.77932109333E+03  0.77932109333E+03  0.00000000000E+00 0. -1.
         21   -1    0    0  503  502 -0.00000000000E+00 -0.00000000000E+00 -0.59288383540E+02  0.59288383540E+02  0.00000000000E+00 0. -1.
         21    1    1    2  503  501  0.32244723503E+02 -0.56034150368E+01  0.17493830513E+03  0.17797339985E+03  0.00000000000E+00 0.  1.
         21    1    1    2  504  505 -0.44127412845E+02  0.58682077877E+02  0.47283185549E+03  0.47849846227E+03  0.00000000000E+00 0. -1.
         21    1    1    2  505  506 -0.36170443352E+02 -0.94885367461E+02  0.30708877093E+02  0.10608755376E+03  0.00000000000E+00 0. -1.
         21    1    1    2  506  502  0.48053132695E+02  0.41806704621E+02  0.41553672078E+02  0.76050060987E+02  0.00000000000E+00 0. -1.
<scales pt_clust_3="32.72798" pt_clust_4="57.38832" pt_clust_5="78.82169" pt_clust_6="14000.00000"></scales>
<clustering>
<clus scale="   32.728">  1  3  2 -1</clus>
<clus scale="   57.388">  1  4  2 -1</clus>
<clus scale="   78.822">  1  5  2 -1</clus>
<clus scale="   32.728">  1  3  2 -1</clus>
</clustering>
</event>
<event>
 6    0  0.5510638E+002  0.8279631E+02  0.7546771E-02  0.1321298E+00
         21   -1    0    0  504  501  0.00000000000E+00  0.00000000000E+00  0.94731325436E+03  0.94731325436E+03  0.00000000000E+00 0.  1.
         21   -1    0    0  506  502 -0.00000000000E+00 -0.00000000000E+00 -0.29305768313E+03  0.29305768313E+03  0.00000000000E+00 0. -1.
         21    1    1    2  503  505 -0.14355836559E+03  0.66938650995E+02  0.97517186977E+02  0.18600911022E+03  0.00000000000E+00 0.  1.
         21    1    1    2  504  503  0.49236636074E+02 -0.79199578492E+01  0.64163563361E+03  0.64357070970E+03  0.00000000000E+00 0.  1.
         21    1    1    2  505  502  0.57967767158E+02 -0.54678845957E+02 -0.23924160468E+03  0.25216380318E+03  0.00000000000E+00 0. -1.
         21    1    1    2  506  501  0.36353962360E+02 -0.43398471890E+01  0.15434435532E+03  0.15862731439E+03  0.00000000000E+00 0.  1.
<scales pt_clust_3="82.79631" pt_clust_4="79.60405" pt_clust_5="14000.00000" pt_clust_6="36.61209"></scales>
<clustering>
<clus scale="   36.612">  1  6  2 -1</clus>
<clus scale="   79.604">  1  4  2 -1</clus>
<clus scale="   82.796">  1  3  2 -1</clus>
<clus scale="   36.612">  1  3  2 -1</clus>
</clustering>
</event>
<event>
 6    0  0.5510638E+002  0.1404051E+03  0.7546771E-02  0.1212785E+00
         21   -1    0    0  505  501  0.00000000000E+00  0.00000000000E+00  0.49684734480E+03  0.49684734480E+03  0.00000000000E+00 0.  1.
         21   -1    0    0  503  502 -0.00000000000E+00 -0.00000000000E+00 -0.97132392887E+02  0.97132392887E+02  0.00000000000E+00 0.  1.
         21    1    1    2  503  504 -0.60632014485E+02  0.48006727589E+00 -0.31567475867E+02  0.68359177714E+02  0.00000000000E+00 0.  1.
         21    1    1    2  504  501  0.11426478143E+03  0.11298606700E+03  0.17379104141E+03  0.23669731237E+03  0.00000000000E+00 0.  1.
         21    1    1    2  505  506 -0.14120076758E+02 -0.59776560007E+02  0.15426619054E+03  0.16604418460E+03  0.00000000000E+00 0.  1.
         21    1    1    2  506  502 -0.39512690187E+02 -0.53689574267E+02  0.10322519583E+03  0.12287906300E+03  0.00000000000E+00 0.  1.
<scales pt_clust_3="60.63391" pt_clust_4="135.23978" pt_clust_5="36.21968" pt_clust_6="36.21968"></scales>
<clustering>
<clus scale="   36.220">  5  6 -1 -1</clus>
<clus scale="   60.634">  2  3  1 -1</clus>
<clus scale="  135.240">  2  4  1 -1</clus>
<clus scale="  140.405">  1  3  2 -1</clus>
</clustering>
</event>
<event>
 6    0  0.5510638E+002  0.1010582E+03  0.7546771E-02  0.1278086E+00
         21   -1    0    0  503  501  0.00000000000E+00  0.00000000000E+00  0.55737602327E+02  0.55737602327E+02  0.00000000000E+00 0. -1.
         21   -1    0    0  505  502 -0.00000000000E+00 -0.00000000000E+00 -0.60987359946E+03  0.60987359946E+03  0.00000000000E+00 0.  1.
         21    1    1    2  503  506  0.29311815533E+02 -0.76013757420E+01 -0.69633183627E+01  0.31071711340E+02  0.00000000000E+00 0.  1.
         21    1    1    2  504  502  0.75979371338E+01  0.70147122186E+02 -0.20069730088E+03  0.21273869883E+03  0.00000000000E+00 0.  1.
         21    1    1    2  505  501 -0.12089594770E+03 -0.42300835671E+02 -0.10592918400E+03  0.16621125982E+03  0.00000000000E+00 0. -1.
         21    1    1    2  506  504  0.83986195032E+02 -0.20244910773E+02 -0.24054619390E+03  0.25558953180E+03  0.00000000000E+00 0.  1.
<scales pt_clust_3="30.28140" pt_clust_4="70.07264" pt_clust_5="101.05820" pt_clust_6="14000.00000"></scales>
<clustering>
<clus scale="   30.281">  1  3  2 -1</clus>
<clus scale="   70.073">  2  4  1 -1</clus>
<clus scale="  101.058">  1  5  2 -1</clus>
<clus scale="   30.281">  1  3  2 -1</clus>
</clustering>
</event>
<event>
 6    0  0.5510638E+002  0.1194731E+03  0.7546771E-02  0.1243969E+00
         21   -1    0    0  505  501  0.00000000000E+00  0.00000000000E+00  0.33497451348E+03  0.33497451348E+03  0.00000000000E+00 0. -1.
         21   -1    0    0  503  502 -0.00000000000E+00 -0.00000000000E+00 -0.12716556110E+03  0.12716556110E+03  0.00000000000E+00 0.  1.
         21    1    1    2  503  501  0.13541627907E+01  0.40076799333E+02  0.62057043825E+02  0.73885453846E+02  0.00000000000E+00 0. -1.
         21    1    1    2  504  506 -0.12800399559E+03  0.69858205014E+02  0.96670009613E+00  0.14582909931E+03  0.00000000000E+00 0.  1.
         21    1    1    2  505  504  0.94329549649E+02 -0.82324877054E+02  0.15446062239E+03  0.19883041314E+03  0.00000000000E+00 0. -1.
         21    1    1    2  506  502  0.32320283154E+02 -0.27610127293E+02 -0.96754139358E+01  0.43595108294E+02  0.00000000000E+00 0.  1.
<scales pt_clust_3="40.09967" pt_clust_4="119.47312" pt_clust_5="14000.00000" pt_clust_6="40.96824"></scales>
<clustering>
<clus scale="   40.100">  1  3  2 -1</clus>
<clus scale="   40.968">  2  6  1 -1</clus>
<clus scale="  119.473">  2  4  1 -1</clus>
<clus scale="   40.100">  1  3  2 -1</clus>
</clustering>
</event>
<event>
 6    0  0.5510638E+002  0.1182248E+03  0.7546771E-02  0.1246055E+00
         21   -1    0    0  505  501  0.00000000000E+00  0.00000000000E+00  0.15965893775E+04  0.15965893775E+04  0.00000000000E+00 0.  1.
         21   -1    0    0  506  502 -0.00000000000E+00 -0.00000000000E+00 -0.63505089777E+03  0.63505089777E+03  0.00000000000E+00 0. -1.
         21    1    1    2  503  504 -0.31623434234E+02 -0.19187792225E+02 -0.15952973056E+03  0.16376186337E+03  0.00000000000E+00 0. -1.
         21    1    1    2  504  501  0.75852212362E+02  0.29864992359E+02  0.14178230382E+04  0.14201646537E+04  0.00000000000E+00 0.  1.
         21    1    1    2  505  502 -0.28980534593E+02  0.68293875875E+02  0.16399571742E+03  0.17999588940E+03  0.00000000000E+00 0.  1.
         21    1    1    2  506  503 -0.15248243535E+02 -0.78971076008E+02 -0.46075054535E+03  0.46771786882E+03  0.00000000000E+00 0. -1.
<scales pt_clust_3="31.71363" pt_clust_4="108.58260" pt_clust_5="74.18844" pt_clust_6="31.71363"></scales>
<clustering>
<clus scale="   31.714">  3  6 -1 -1</clus>
<clus scale="   74.188">  1  5  2 -1</clus>
<clus scale="  108.583">  1  4  2 -1</clus>
<clus scale="   74.188">  1  3  2 -1</clus>
</clustering>
</event>
<event>
 6    0  0.5510638E+002  0.8922685E+02  0.7546771E-02  0.1304735E+00
         21   -1    0    0  503  501  0.00000000000E+00  0.00000000000E+00  0.19841047746E+02  0.19841047746E+02  0.00000000000E+00 0.  1.
         21   -1    0    0  506  502 -0.00000000000E+00 -0.00000000000E+00 -0.28751749950E+04  0.28751749950E+04  0.00000000000E+00 0.  1.
         21    1    1    2  503  504 -0.14944142969E+02  0.41787334173E+02 -0.18285717534E+03  0.18816549971E+03  0.00000000000E+00 0.  1.
         21    1    1    2  504  502  0.11171068645E+03 -0.36443102811E+02 -0.12139989923E+04  0.12196724685E+04  0.00000000000E+00 0.  1.
         21    1    1    2  505  501 -0.25988224610E+02  0.50826568400E+02 -0.50240808655E+02  0.76045162424E+02  0.00000000000E+00 0.  1.
         21    1    1    2  506  505 -0.70778318868E+02 -0.56170799762E+02 -0.14082369710E+04  0.14111329121E+04  0.00000000000E+00 0.  1.
<scales pt_clust_3="44.37915" pt_clust_4="88.31885" pt_clust_5="14000.00000" pt_clust_6="89.22685"></scales>
<clustering>
<clus scale="   44.379">  1  3  2 -1</clus>
<clus scale="   89.227">  2  6  1 -1</clus>
<clus scale="   88.319">  2  4  1 -1</clus>
<clus scale="   44.379">  1  3  2 -1</clus>
</clustering>
</event>
<event>
 6    0  0.5510638E+002  0.1552129E+03  0.7546771E-02  0.1194210E+00
         21   -1    0    0  505  501  0.00000000000E+00  0.00000000000E+00  0.95922859079E+02  0.95922859079E+02  0.00000000000E+00 0. -1.
         21   -1    0    0  506  502 -0.00000000000E+00 -0.00000000000E+00 -0.26289048625E+03  0.26289048625E+03  0.00000000000E+00 0. -1.
         21    1    1    2  503  502  0.69971083367E+01 -0.82189081875E+02 -0.91806798900E+02  0.12341998634E+03  0.00000000000E+00 0. -1.
         21    1    1    2  504  501 -0.11609312282E+02  0.52894123063E+02  0.39430158089E+01  0.54296517015E+02  0.00000000000E+00 0. -1.
         21    1    1    2  505  503 -0.18489540896E+02 -0.64081611916E+02 -0.33762459744E+02  0.74754396501E+02  0.00000000000E+00 0. -1.
         21    1    1    2  506  504  0.23101744841E+02  0.93376570728E+02 -0.45341384339E+02  0.10634244547E+03  0.00000000000E+00 0. -1.
<scales pt_clust_3="153.31486" pt_clust_4="37.99180" pt_clust_5="39.99438" pt_clust_6="37.99180"></scales>
<clustering>
<clus scale="   37.992">  4  6 -1 -1</clus>
<clus scale="   39.994">  3  5 -1 -1</clus>
<clus scale="  153.315">  2  3  1 -1</clus>
<clus scale="  155.213">  1  3  2 -1</clus>
</clustering>
</event>
<event>
 6    0  0.5510638E+002  0.1526450E+03  0.7546771E-02  0.1197260E+00
         21   -1    0    0  506  501  0.00000000000E+00  0.00000000000E+00  0.31863487539E+03  0.31863487539E+03  0.00000000000E+00 0. -1.
         21   -1    0    0  504  502 -0.00000000000E+00 -0.00000000000E+00 -0.41144388807E+03  0.41144388807E+03  0.00000000000E+00 0. -1.
         21    1    1    2  503  502 -0.13953868819E+03  0.23141472980E+03 -0.97479697523E+02  0.28727358754E+03  0.00000000000E+00 0. -1.
         21    1    1    2  504  505  0.97941173989E+02 -0.81191923788E+02 -0.15775134959E+03  0.20265756919E+03  0.00000000000E+00 0. -1.
         21    1    1    2  505  501 -0.94604958942E+01 -0.79624028958E+02  0.39249600789E+02  0.89274958035E+02  0.00000000000E+00 0. -1.
         21    1    1    2  506  503  0.51058010096E+02 -0.70598777051E+02  0.12317243364E+03  0.15087264870E+03  0.00000000000E+00 0. -1.
<scales pt_clust_3="14000.00000" pt_clust_4="152.64501" pt_clust_5="80.18408" pt_clust_6="122.44355"></scales>
<clustering>
<clus scale="   80.184">  1  5  2 -1</clus>
<clus scale="  122.444">  1  6  2 -1</clus>
<clus scale="  152.645">  2  4  1 -1</clus>
<clus scale="   80.184">  1  3  2 -1</clus>
</clustering>
</event>
<event>
 6    0  0.5510638E+002  0.9955860E+02  0.7546771E-02  0.1281227E+00
         21   -1    0    0  506  501  0.00000000000E+00  0.00000000000E+00  0.75093217538E+02  0.75093217538E+02  0.00000000000E+00 0.  1.
         21   -1    0    0  504  502 -0.00000000000E+00 -0.00000000000E+00 -0.48547824852E+03  0.48547824852E+03  0.00000000000E+00 0. -1.
         21    1    1    2  503  501  0.15739171502E+02 -0.69515617991E+02 -0.28925113301E+02  0.76920769911E+02  0.00000000000E+00 0.  1.
         21    1    1    2  504  505  0.33786111291E+02  0.48256043462E+01 -0.18803448759E+03  0.19110666209E+03  0.00000000000E+00 0. -1.
         21    1    1    2  505  503  0.39374804907E+02  0.51182382808E+02 -0.19204696444E+03  0.20261305023E+03  0.00000000000E+00 0. -1.
         21    1    1    2  506  502 -0.88900087700E+02  0.13507630836E+02 -0.13784656479E+01  0.89930983823E+02  0.00000000000E+00 0.  1.
<scales pt_clust_3="71.27512" pt_clust_4="33.02710" pt_clust_5="33.02710" pt_clust_6="88.58909"></scales>
<clustering>
<clus scale="   33.027">  4  5 -1 -1</clus>
<clus scale="   71.275">  1  3  2 -1</clus>
<clus scale="   88.589">  1  6  2 -1</clus>
<clus scale="   71.275">  1  3  2 -1</clus>
</clustering>
</event>
<event>
 6    0  0.5510638E+002  0.1749015E+03  0.7546771E-02  0.1172831E+00
         21   -1    0    0  503  501  0.00000000000E+00  0.00000000000E+00  0.33748689449E+03  0.33748689449E+03  0.00000000000E+00 0.  1.
         21   -1    0    0  505  502 -0.00000000000E+00 -0.00000000000E+00 -0.15743411054E+03  0.15743411054E+03  0.00000000000E+00 0.  1.
         21    1    1    2  503  502  0.16508226104E+03 -0.87868213114E+01  0.59775809994E+02  0.17579109363E+03  0.00000000000E+00 0.  1.
         21    1    1    2  504  506 -0.29629212162E+02  0.59311285403E+02  0.47390776664E+02  0.81496039795E+02  0.00000000000E+00 0.  1.
         21    1    1    2  505  504 -0.30539589357E+02 -0.62225675793E+02 -0.42449573563E+02  0.81281409570E+02  0.00000000000E+00 0.  1.
         21    1    1    2  506  501 -0.10491345952E+03  0.11701211701E+02  0.11533577085E+03  0.15635246203E+03  0.00000000000E+00 0.  1.
<scales pt_clust_3="153.76303" pt_clust_4="66.05613" pt_clust_5="69.31595" pt_clust_6="66.05613"></scales>
<clustering>
<clus scale="   66.056">  4  6 -1 -1</clus>
<clus scale="   69.316">  2  5  1 -1</clus>
<clus scale="  153.763">  2  3  1 -1</clus>
<clus scale="  174.902">  1  3  2 -1</clus>
</clustering>
</event>
<event>
 6    0  0.5510638E+002  0.1296501E+03  0.7546771E-02  0.1227976E+00
         21   -1    0    0  506  501  0.00000000000E+00  0.00000000000E+00  0.18771799081E+03  0.18771799081E+03  0.00000000000E+00 0. -1.
         21   -1    0    0  505  502 -0.00000000000E+00 -0.00000000000E+00 -0.17070239856E+04  0.17070239856E+04  0.00000000000E+00 0. -1.
         21    1    1    2  503  502 -0.97290954971E+02 -0.14322095440E+02  0.14609596877E+03  0.17610986465E+03  0.00000000000E+00 0. -1.
         21    1    1    2  504  501  0.91553026437E+02  0.94764046850E+02 -0.12510746510E+04  0.12579944211E+04  0.00000000000E+00 0. -1.
         21    1    1    2  505  504  0.30062077032E+02 -0.45632173435E+02 -0.41458491583E+03  0.41817063043E+03  0.00000000000E+00 0. -1.
         21    1    1    2  506  503 -0.24324148498E+02 -0.34809777975E+02  0.25760324611E+00  0.42467060203E+02  0.00000000000E+00 0.  1.
<scales pt_clust_3="129.65013" pt_clust_4="14000.00000" pt_clust_5="54.81523" pt_clust_6="42.46628"></scales>
<clustering>
<clus scale="   42.466">  1  6  2 -1</clus>
<clus scale="   54.815">  2  5  1 -1</clus>
<clus scale="  129.650">  1  3  2 -1</clus>
<clus scale="   42.466">  1  3  2 -1</clus>
</clustering>
</event>
<event>
 6    0  0.5510638E+002  0.1205646E+03  0.7546771E-02  0.1242169E+00
         21   -1    0    0  506  501  0.00000000000E+00  0.00000000000E+00  0.79513385443E+03  0.79513385443E+03  0.00000000000E+00 0.  1.
         21   -1    0    0  505  502 -0.00000000000E+00 -0.00000000000E+00 -0.49757176228E+02  0.49757176228E+02  0.00000000000E+00 0. -1.
         21    1    1    2  503  502  0.19605224938E+02  0.41206260886E+02  0.32406896799E+02  0.55968989103E+02  0.00000000000E+00 0.  1.
         21    1    1    2  504  501 -0.31607423902E+02  0.62650569051E+02  0.49180662590E+03  0.49678756056E+03  0.00000000000E+00 0.  1.
         21    1    1    2  505  504 -0.25146357359E+02  0.27945607448E+02  0.10843242576E+03  0.11476448588E+03  0.00000000000E+00 0. -1.
         21    1    1    2  506  503  0.37148556324E+02 -0.13180243738E+03  0.11273072975E+03  0.17736999512E+03  0.00000000000E+00 0. -1.
<scales pt_clust_3="45.63245" pt_clust_4="34.95221" pt_clust_5="34.95221" pt_clust_6="110.70449"></scales>
<clustering>
<clus scale="   34.952">  4  5 -1 -1</clus>
<clus scale="   45.632">  2  3  1 -1</clus>
<clus scale="  110.704">  2  6  1 -1</clus>
<clus scale="  120.565">  1  3  2 -1</clus>
</clustering>
</event>
<event>
 6    0  0.5510638E+002  0.9549476E+02  0.7546771E-02  0.1290066E+00
         21   -1    0    0  502  501  0.00000000000E+00  0.00000000000E+00  0.16932272131E+04  0.16932272131E+04  0.00000000000E+00 0.  1.
         21   -1    0    0  506  502 -0.00000000000E+00 -0.00000000000E+00 -0.10476802261E+03  0.10476802261E+03  0.00000000000E+00 0. -1.
         21    1    1    2  503  504  0.10824384722E+03  0.11758478841E+02  0.11916693815E+04  0.11966331547E+04  0.00000000000E+00 0.  1.
         21    1    1    2  504  505 -0.13353207411E+01  0.37701368803E+02  0.13296205685E+03  0.13821029213E+03  0.00000000000E+00 0.  1.
         21    1    1    2  505  501 -0.29834377992E+02  0.69508945165E+01  0.33975750976E+03  0.34113570685E+03  0.00000000000E+00 0.  1.
         21    1    1    2  506  503 -0.77074148489E+02 -0.56410742160E+02 -0.75929757540E+02  0.12201608204E+03  0.00000000000E+00 0. -1.
<scales pt_clust_3="14000.00000" pt_clust_4="38.64091" pt_clust_5="30.63340" pt_clust_6="95.49476"></scales>
<clustering>
<clus scale="   30.633">  1  5  2 -1</clus>
<clus scale="   38.641">  1  4  2 -1</clus>
<clus scale="   95.495">  2  6  1 -1</clus>
<clus scale="   30.633">  1  3  2 -1</clus>
</clustering>
</event>
<event>
 6    0  0.5510638E+002  0.1160597E+03  0.7546771E-02  0.1249742E+00
         21   -1    0    0  503  501  0.00000000000E+00  0.00000000000E+00  0.43002698847E+03  0.43002698847E+03  0.00000000000E+00 0.  1.
         21   -1    0    0  506  502 -0.00000000000E+00 -0.00000000000E+00 -0.16994006267E+03  0.16994006267E+03  0.00000000000E+00 0. -1.
         21    1    1    2  503  502  0.87806716667E+02  0.15956893195E+02  0.21410740807E+03  0.23196254896E+03  0.00000000000E+00 0.  1.
         21    1    1    2  504  501 -0.33195245770E+02  0.18641886851E+02  0.35002169797E+02  0.51716498118E+02  0.00000000000E+00 0.  1.
         21    1    1    2  505  504 -0.10280157507E+03 -0.39019062309E+02  0.14027272048E+03  0.17823323812E+03  0.00000000000E+00 0.  1.
         21    1    1    2  506  505  0.48190104171E+02  0.44202822621E+01 -0.12929537255E+03  0.13805476594E+03  0.00000000000E+00 0. -1.
<scales pt_clust_3="101.11694" pt_clust_4="33.52051" pt_clust_5="33.52051" pt_clust_6="48.39241"></scales>
<clustering>
<clus scale="   33.521">  4  5 -1 -1</clus>
<clus scale="   48.392">  2  6  1 -1</clus>
<clus scale="  101.117">  1  3  2 -1</clus>
<clus scale="  101.117">  1  3  2 -1</clus>
</clustering>
</event>
<event>
 6    0  0.5510638E+002  0.1556724E+03  0.7546771E-02  0.1193671E+00
         21   -1    0    0  506  501  0.00000000000E+00  0.00000000000E+00  0.20663488552E+03  0.20663488552E+03  0.00000000000E+00 0. -1.
         21   -1    0    0  501  502 -0.00000000000E+00 -0.00000000000E+00 -0.28095049129E+03  0.28095049129E+03  0.00000000000E+00 0.  1.
         21    1    1    2  503  504 -0.54225267227E+02  0.88060458734E+02 -0.68180049296E+02  0.12386905635E+03  0.00000000000E+00 0.  1.
         21    1    1    2  504  502  0.73919823000E+02  0.29368716737E+02 -0.11287403539E+03  0.13808406722E+03  0.00000000000E+00 0.  1.
         21    1    1    2  505  503 -0.54062346931E+01  0.37642813540E+02  0.22462900306E+01  0.38095335720E+02  0.00000000000E+00 0.  1.
         21    1    1    2  506  505 -0.14288321080E+02 -0.15507198901E+03  0.10449218889E+03  0.18753691752E+03  0.00000000000E+00 0. -1.
<scales pt_clust_3="30.48939" pt_clust_4="79.54032" pt_clust_5="30.48939" pt_clust_6="147.32935"></scales>
<clustering>
<clus scale="   30.489">  3  5 -1 -1</clus>
<clus scale="   79.540">  2  4  1 -1</clus>
<clus scale="  147.329">  1  6  2 -1</clus>
<clus scale="  147.329">  1  3  2 -1</clus>
</clustering>
</event>
<event>
 6    0  0.5510638E+002  0.2229096E+03  0.7546771E-02  0.1131732E+00
         21   -1    0    0  503  501  0.00000000000E+00  0.00000000000E+00  0.33265904905E+04  0.33265904905E+04  0.00000000000E+00 0.  1.
         21   -1    0    0  505  502 -0.00000000000E+00 -0.00000000000E+00 -0.24954174869E+03  0.24954174869E+03  0.00000000000E+00 0.  1.
         21    1    1    2  503  502  0.13258409863E+03 -0.13940168519E+03  0.21898139231E+04  0.21982484825E+04  0.00000000000E+00 0.  1.
         21    1    1    2  504  506 -0.14343952716E+03  0.17857204366E+03  0.80863256122E+03  0.84044600766E+03  0.00000000000E+00 0.  1.
         21    1    1    2  505  504  0.23959637486E+02 -0.71618529945E+02 -0.22216069958E+03  0.23464580648E+03  0.00000000000E+00 0.  1.
         21    1    1    2  506  501 -0.13104208959E+02  0.32448171483E+02  0.30076295711E+03  0.30279194258E+03  0.00000000000E+00 0.  1.
<scales pt_clust_3="206.12999" pt_clust_4="33.16467" pt_clust_5="75.52005" pt_clust_6="33.16467"></scales>
<clustering>
<clus scale="   33.165">  4  6 -1 -1</clus>
<clus scale="   75.520">  2  5  1 -1</clus>
<clus scale="  206.130">  1  3  2 -1</clus>
<clus scale="  206.130">  1  3  2 -1</clus>
</clustering>
</event>
<event>
 6    0  0.5510638E+002  0.7861725E+02  0.7546771E-02  0.1333022E+00
         21   -1    0    0  506  501  0.00000000000E+00  0.00000000000E+00  0.10909458340E+03  0.10909458340E+03  0.00000000000E+00 0.  1.
         21   -1    0    0  504  502 -0.00000000000E+00 -0.00000000000E+00 -0.44236249875E+03  0.44236249875E+03  0.00000000000E+00 0. -1.
         21    1    1    2  503  502 -0.16207910632E+02  0.46038711763E+02 -0.26274469092E+03  0.26723965266E+03  0.00000000000E+00 0. -1.
         21    1    1    2  504  505  0.15720079003E+02  0.56862938592E+02 -0.90995411696E+02  0.10844666716E+03  0.00000000000E+00 0. -1.
         21    1    1    2  505  501  0.68594091297E+02 -0.36372853682E+02  0.21479817344E+02  0.80557534713E+02  0.00000000000E+00 0.  1.
         21    1    1    2  506  503 -0.68106259669E+02 -0.66528796673E+02 -0.10076300681E+01  0.95213227606E+02  0.00000000000E+00 0.  1.
<scales pt_clust_3="48.80839" pt_clust_4="78.61725" pt_clust_5="71.87592" pt_clust_6="14000.00000"></scales>
<clustering>
<clus scale="   48.808">  2  3  1 -1</clus>
<clus scale="   71.876">  1  5  2 -1</clus>
<clus scale="   78.617">  2  4  1 -1</clus>
<clus scale="   71.876">  1  3  2 -1</clus>
</clustering>
</event>
<event>
 6    0  0.5510638E+002  0.1770376E+03  0.7546771E-02  0.1170701E+00
         21   -1    0    0  503  501  0.00000000000E+00  0.00000000000E+00  0.15810638428E+04  0.15810638428E+04  0.00000000000E+00 0. -1.
         21   -1    0    0  505  502 -0.00000000000E+00 -0.00000000000E+00 -0.63080916600E+02  0.63080916600E+02  0.00000000000E+00 0. -1.
         21    1    1    2  503  506  0.63133289688E+02  0.22687243787E+02  0.46740645097E+03  0.47219626609E+03  0.00000000000E+00 0. -1.
         21    1    1    2  504  502 -0.35270378569E+02  0.92260906365E+02  0.81148008655E+02  0.12783220939E+03  0.00000000000E+00 0. -1.
         21    1    1    2  505  501 -0.10363292482E+03  0.10938474493E+03  0.39829263217E+03  0.42584249010E+03  0.00000000000E+00 0. -1.
         21    1    1    2  506  504  0.75770013704E+02 -0.22433289508E+03  0.57113583435E+03  0.61827379378E+03  0.00000000000E+00 0. -1.
<scales pt_clust_3="67.08594" pt_clust_4="98.84707" pt_clust_5="14000.00000" pt_clust_6="177.03761"></scales>
<clustering>
<clus scale="   67.086">  1  3  2 -1</clus>
<clus scale="   98.847">  2  4  1 -1</clus>
<clus scale="  177.038">  2  6  1 -1</clus>
<clus scale="   67.086">  1  3  2 -1</clus>
</clustering>
</event>
<event>
 6    0  0.5510638E+002  0.1455060E+03  0.7546771E-02  0.1206106E+00
         21   -1    0    0  504  501  0.00000000000E+00  0.00000000000E+00  0.21227752816E+03  0.21227752816E+03  0.00000000000E+00 0.  1.
         21   -1    0    0  505  502 -0.00000000000E+00 -0.00000000000E+00 -0.89035056258E+03  0.89035056258E+03  0.00000000000E+00 0.  1.
         21    1    1    2  503  501 -0.10705043700E+02 -0.43882052582E+02  0.13880702465E+00  0.45169146182E+02  0.00000000000E+00 0.  1.
         21    1    1    2  504  502  0.91926139129E+02  0.10694368708E+03 -0.16396463848E+03  0.21626781992E+03  0.00000000000E+00 0.  1.
         21    1    1    2  505  506 -0.33553524721E+02  0.38726993933E+02 -0.65728342754E+03  0.65927772843E+03  0.00000000000E+00 0.  1.
         21    1    1    2  506  503 -0.47667570708E+02 -0.10178862843E+03  0.14303622458E+03  0.18191339620E+03  0.00000000000E+00 0.  1.
<scales pt_clust_3="45.16893" pt_clust_4="145.50603" pt_clust_5="51.10362" pt_clust_6="14000.00000"></scales>
<clustering>
<clus scale="   45.169">  1  3  2 -1</clus>
<clus scale="   51.104">  2  5  1 -1</clus>
<clus scale="  145.506">  2  4  1 -1</clus>
<clus scale="   45.169">  1  3  2 -1</clus>
</clustering>
</event>
<event>
 6    0  0.5510638E+002  0.2129979E+03  0.7546771E-02  0.1139214E+00
         21   -1    0    0  505  501  0.00000000000E+00  0.00000000000E+00  0.11885001083E+03  0.11885001083E+03  0.00000000000E+00 0.  1.
         21   -1    0    0  503  502 -0.00000000000E+00 -0.00000000000E+00 -0.25098323183E+04  0.25098323183E+04  0.00000000000E+00 0.  1.
         21    1    1    2  503  501 -0.47176729682E+02  0.55321147132E+02  0.45958596411E+02  0.86013171826E+02  0.00000000000E+00 0.  1.
         21    1    1    2  504  506 -0.18978202106E+03 -0.47735800334E+02 -0.25671896803E+03  0.32280110083E+03  0.00000000000E+00 0.  1.
         21    1    1    2  505  504  0.23125657375E+02 -0.37907228204E+02 -0.19699809734E+02  0.48578148201E+02  0.00000000000E+00 0.  1.
         21    1    1    2  506  502  0.21383309337E+03  0.30321881406E+02 -0.21605221261E+04  0.21712899083E+04  0.00000000000E+00 0.  1.
<scales pt_clust_3="45.21052" pt_clust_4="14000.00000" pt_clust_5="44.40444" pt_clust_6="212.99787"></scales>
<clustering>
<clus scale="   44.404">  1  5  2 -1</clus>
<clus scale="   45.211">  1  3  2 -1</clus>
<clus scale="  212.998">  2  6  1 -1</clus>
<clus scale="   44.404">  1  3  2 -1</clus>
</clustering>
</event>
<event>
 6    0  0.5510638E+002  0.1665422E+03  0.7546771E-02  0.1181503E+00
         21   -1    0    0  505  501  0.00000000000E+00  0.00000000000E+00  0.13643434508E+04  0.13643434508E+04  0.00000000000E+00 0.  1.
         21   -1    0    0  504  502 -0.00000000000E+00 -0.00000000000E+00 -0.78741461170E+03  0.78741461170E+03  0.00000000000E+00 0. -1.
         21    1    1    2  503  502 -0.62916974594E+02 -0.23249800924E+02  0.11488149045E+04  0.11507713864E+04  0.00000000000E+00 0.  1.
         21    1    1    2  504  506  0.19367973592E+03  0.21688886889E+02 -0.67577571249E+03  0.70331718415E+03  0.00000000000E+00 0. -1.
         21    1    1    2  505  503 -0.24814110607E+02 -0.17832104426E+02  0.16904655946E+03  0.17178609751E+03  0.00000000000E+00 0.  1.
         21    1    1    2  506  501 -0.10594865072E+03  0.19393018461E+02 -0.65156912405E+02  0.12588339441E+03  0.00000000000E+00 0.  1.
<scales pt_clust_3="95.76344" pt_clust_4="166.54218" pt_clust_5="30.55690" pt_clust_6="14000.00000"></scales>
<clustering>
<clus scale="   30.557">  1  5  2 -1</clus>
<clus scale="   95.763">  1  3  2 -1</clus>
<clus scale="  166.542">  2  4  1 -1</clus>
<clus scale="   30.557">  1  3  2 -1</clus>
</clustering>
</event>
<event>
 6    0  0.5510638E+002  0.1029280E+03  0.7546771E-02  0.1274257E+00
         21   -1    0    0  504  501  0.00000000000E+00  0.00000000000E+00  0.83954940432E+02  0.83954940432E+02  0.00000000000E+00 0. -1.
         21   -1    0    0  505  502 -0.00000000000E+00 -0.00000000000E+00 -0.90663815468E+03  0.90663815468E+03  0.00000000000E+00 0. -1.
         21    1    1    2  503  502  0.12519086167E+02  0.34289697694E+02 -0.19328062317E+03  0.19669750934E+03  0.00000000000E+00 0. -1.
         21    1    1    2  504  503 -0.21554612945E+02  0.32844446550E+02 -0.21578670974E+02  0.44821847903E+02  0.00000000000E+00 0. -1.
         21    1    1    2  505  506  0.68985933997E+02 -0.10103701759E+03 -0.65452483437E+03  0.66586056860E+03  0.00000000000E+00 0. -1.
         21    1    1    2  506  501 -0.59950407219E+02  0.33902873347E+02  0.46700914265E+02  0.83213169271E+02  0.00000000000E+00 0. -1.
<scales pt_clust_3="36.50357" pt_clust_4="40.32572" pt_clust_5="102.92801" pt_clust_6="14000.00000"></scales>
<clustering>
<clus scale="   36.504">  2  3  1 -1</clus>
<clus scale="   40.326">  1  4  2 -1</clus>
<clus scale="  102.928">  2  5  1 -1</clus>
<clus scale="   40.326">  1  3  2 -1</clus>
</clustering>
</event>
<event>
 6    0  0.5510638E+002  0.1567016E+03  0.7546771E-02  0.1192472E+00
         21   -1    0    0  503  501  0.00000000000E+00  0.00000000000E+00  0.12855291049E+04  0.12855291049E+04  0.00000000000E+00 0.  1.
         21   -1    0    0  505  502 -0.00000000000E+00 -0.00000000000E+00 -0.16375934032E+03  0.16375934032E+03  0.00000000000E+00 0.  1.
         21    1    1    2  503  506 -0.85501703116E+02  0.39385880413E+02  0.23883024119E+03  0.25671321142E+03  0.00000000000E+00 0.  1.
         21    1    1    2  504  501  0.13286897206E+03 -0.11217993686E+02  0.92038065998E+03  0.92998955176E+03  0.00000000000E+00 0.  1.
         21    1    1    2  505  504  0.34122871084E+02 -0.27414841256E+02 -0.13123013293E+03  0.13833760024E+03  0.00000000000E+00 0.  1.
         21    1    1    2  506  502 -0.81490140026E+02 -0.75304547154E+00  0.93788996360E+02  0.12424808183E+03  0.00000000000E+00 0.  1.
<scales pt_clust_3="64.20821" pt_clust_4="139.42094" pt_clust_5="43.77150" pt_clust_6="64.20821"></scales>
<clustering>
<clus scale="   43.771">  2  5  1 -1</clus>
<clus scale="   64.208">  3  6 -1 -1</clus>
<clus scale="  139.421">  1  4  2 -1</clus>
<clus scale="  139.421">  1  3  2 -1</clus>
</clustering>
</event>
<event>
 6    0  0.5510638E+002  0.2099856E+03  0.7546771E-02  0.1141577E+00
         21   -1    0    0  503  501  0.00000000000E+00  0.00000000000E+00  0.26110413087E+02  0.26110413087E+02  0.00000000000E+00 0.  1.
         21   -1    0    0  501  502 -0.00000000000E+00 -0.00000000000E+00 -0.20201280697E+04  0.20201280697E+04  0.00000000000E+00 0. -1.
         21    1    1    2  503  506 -0.72519636247E+02 -0.73115489890E+01 -0.16584235540E+03  0.18115254134E+03  0.00000000000E+00 0. -1.
         21    1    1    2  504  505  0.56889141480E+02 -0.40694859484E+02 -0.64213665836E+03  0.64593493017E+03  0.00000000000E+00 0. -1.
         21    1    1    2  505  502  0.13088797196E+03 -0.23105947050E+02 -0.77671063496E+03  0.78800060689E+03  0.00000000000E+00 0.  1.
         21    1    1    2  506  504 -0.11525747719E+03  0.71112355524E+02 -0.40932800790E+03  0.43115040439E+03  0.00000000000E+00 0. -1.
<scales pt_clust_3="50.63098" pt_clust_4="44.20225" pt_clust_5="207.46923" pt_clust_6="50.63098"></scales>
<clustering>
<clus scale="   44.202">  4  5 -1 -1</clus>
<clus scale="   50.631">  3  6 -1 -1</clus>
<clus scale="  207.469">  2  4  1 -1</clus>
<clus scale="  209.986">  1  3  2 -1</clus>
</clustering>
</event>
<event>
 6    0  0.5510638E+002  0.9575250E+02  0.7546771E-02  0.1289490E+00
         21   -1    0    0  504  501  0.00000000000E+00  0.00000000000E+00  0.20181566810E+03  0.20181566810E+03  0.00000000000E+00 0. -1.
         21   -1    0    0  503  502 -0.00000000000E+00 -0.00000000000E+00 -0.27742405658E+03  0.27742405658E+03  0.00000000000E+00 0. -1.
         21    1    1    2  503  506 -0.36868351697E+02  0.26568847732E+02 -0.15646424011E+03  0.16293016129E+03  0.00000000000E+00 0. -1.
         21    1    1    2  504  505 -0.55843814097E+02  0.52225029505E+02  0.47893943080E+02  0.90220923646E+02  0.00000000000E+00 0. -1.
         21    1    1    2  505  502  0.30830463775E+02  0.54255693538E+02 -0.26454470359E+02  0.67779324132E+02  0.00000000000E+00 0.  1.
         21    1    1    2  506  501  0.61881702018E+02 -0.13304957077E+03  0.59416378905E+02  0.15830931561E+03  0.00000000000E+00 0. -1.
<scales pt_clust_3="45.44424" pt_clust_4="14000.00000" pt_clust_5="66.85060" pt_clust_6="95.75250"></scales>
<clustering>
<clus scale="   45.444">  2  3  1 -1</clus>
<clus scale="   66.851">  2  5  1 -1</clus>
<clus scale="   95.753">  2  6  1 -1</clus>
<clus scale="   95.753">  1  3  2 -1</clus>
</clustering>
</event>
<event>
 6    0  0.5510638E+002  0.9023951E+02  0.7546771E-02  0.1302273E+00
         21   -1    0    0  504  501  0.00000000000E+00  0.00000000000E+00  0.70993233602E+02  0.70993233602E+02  0.00000000000E+00 0. -1.
         21   -1    0    0  503  502 -0.00000000000E+00 -0.00000000000E+00 -0.16483162498E+04  0.16483162498E+04  0.00000000000E+00 0. -1.
         21    1    1    2  503  506  0.61543153602E+02 -0.33486371870E+02 -0.61527352538E+03  0.61924987517E+03  0.00000000000E+00 0. -1.
         21    1    1    2  504  505 -0.60392860349E+02 -0.13142925233E+02  0.46731713497E+02  0.77484754056E+02  0.00000000000E+00 0. -1.
         21    1    1    2  505  502  0.23440597015E+02  0.79002411575E+02 -0.93252279019E+03  0.93615682279E+03  0.00000000000E+00 0. -1.
         21    1    1    2  506  501 -0.24590890268E+02 -0.32373114472E+02 -0.76258414073E+02  0.86418031346E+02  0.00000000000E+00 0. -1.
<scales pt_clust_3="69.88920" pt_clust_4="14000.00000" pt_clust_5="90.23951" pt_clust_6="40.65379"></scales>
<clustering>
<clus scale="   40.654">  1  6  2 -1</clus>
<clus scale="   69.889">  2  3  1 -1</clus>
<clus scale="   90.240">  2  5  1 -1</clus>
<clus scale="   40.654">  1  3  2 -1</clus>
</clustering>
</event>
<event>
 6    0  0.5510638E+002  0.1198127E+03  0.7546771E-02  0.1243406E+00
         21   -1    0    0  505  501  0.00000000000E+00  0.00000000000E+00  0.55109498270E+03  0.55109498270E+03  0.00000000000E+00 0. -1.
         21   -1    0    0  506  502 -0.00000000000E+00 -0.00000000000E+00 -0.13999723229E+03  0.13999723229E+03  0.00000000000E+00 0. -1.
         21    1    1    2  503  502  0.26679848467E+02 -0.80627795805E+02 -0.35070289464E+02  0.91883518510E+02  0.00000000000E+00 0. -1.
         21    1    1    2  504  501 -0.25637266562E+02  0.13812320557E+03  0.39960326088E+03  0.42357768528E+03  0.00000000000E+00 0. -1.
         21    1    1    2  505  503  0.20443184949E+02 -0.85529117041E+02  0.85785267116E+02  0.12285058293E+03  0.00000000000E+00 0. -1.
         21    1    1    2  506  504 -0.21485766854E+02  0.28033707272E+02 -0.39220488120E+02  0.52780428277E+02  0.00000000000E+00 0. -1.
<scales pt_clust_3="62.88528" pt_clust_4="119.81268" pt_clust_5="14000.00000" pt_clust_6="35.32035"></scales>
<clustering>
<clus scale="   35.320">  2  6  1 -1</clus>
<clus scale="   62.885">  2  3  1 -1</clus>
<clus scale="  119.813">  1  4  2 -1</clus>
<clus scale="  119.813">  1  3  2 -1</clus>
</clustering>
</event>
<event>
 6    0  0.5510638E+002  0.1165961E+03  0.7546771E-02  0.1248820E+00
         21   -1    0    0  504  501  0.00000000000E+00  0.00000000000E+00  0.10164984812E+03  0.10164984812E+03  0.00000000000E+00 0. -1.
         21   -1    0    0  505  502 -0.00000000000E+00 -0.00000000000E+00 -0.35404418630E+03  0.35404418630E+03  0.00000000000E+00 0. -1.
         21    1    1    2  503  501 -0.88847161920E+02  0.82634509693E+02  0.45954893356E+01  0.12142239866E+03  0.00000000000E+00 0. -1.
         21    1    1    2  504  506  0.25889841213E+02  0.25687377668E+02 -0.31653550352E+01  0.36607987134E+02  0.00000000000E+00 0. -1.
         21    1    1    2  505  503  0.17214860760E+02 -0.10758855447E+03 -0.19187710896E+03  0.22065464742E+03  0.00000000000E+00 0. -1.
         21    1    1    2  506  502  0.45742459947E+02 -0.73333289067E+00 -0.61947363523E+02  0.77009001205E+02  0.00000000000E+00 0. -1.
<scales pt_clust_3="116.59608" pt_clust_4="36.47088" pt_clust_5="14000.00000" pt_clust_6="48.06300"></scales>
<clustering>
<clus scale="   36.471">  1  4  2 -1</clus>
<clus scale="   48.063">  2  6  1 -1</clus>
<clus scale="  116.596">  1  3  2 -1</clus>
<clus scale="   36.471">  1  3  2 -1</clus>
</clustering>
</event>
<event>
 6    0  0.5510638E+002  0.1253437E+03  0.7546771E-02  0.1234533E+00
         21   -1    0    0  503  501  0.00000000000E+00  0.00000000000E+00  0.18902439149E+03  0.18902439149E+03  0.00000000000E+00 0. -1.
         21   -1    0    0  506  502 -0.00000000000E+00 -0.00000000000E+00 -0.14308883680E+04  0.14308883680E+04  0.00000000000E+00 0.  1.
         21    1    1    2  503  502 -0.18270579546E+03  0.55203826076E+02 -0.99470038262E+03  0.10128463463E+04  0.00000000000E+00 0.  1.
         21    1    1    2  504  501  0.49297991658E+02 -0.23349485634E+02  0.11233727978E+03  0.12488056249E+03  0.00000000000E+00 0. -1.
         21    1    1    2  505  504  0.54352780790E+02  0.11740224976E+02  0.42616660722E+02  0.70058814101E+02  0.00000000000E+00 0. -1.
         21    1    1    2  506  505  0.79055023012E+02 -0.43594565418E+02 -0.40211753436E+03  0.41212703652E+03  0.00000000000E+00 0.  1.
<scales pt_clust_3="125.34369" pt_clust_4="54.54806" pt_clust_5="94.05141" pt_clust_6="14000.00000"></scales>
<clustering>
<clus scale="   54.548">  1  4  2 -1</clus>
<clus scale="   94.051">  1  5  2 -1</clus>
<clus scale="  125.344">  1  3  2 -1</clus>
<clus scale="   54.548">  1  3  2 -1</clus>
</clustering>
</event>
<event>
 6    0  0.5510638E+002  0.1367972E+03  0.7546771E-02  0.1217705E+00
         21   -1    0    0  505  501  0.00000000000E+00  0.00000000000E+00  0.20943419964E+03  0.20943419964E+03  0.00000000000E+00 0. -1.
         21   -1    0    0  504  502 -0.00000000000E+00 -0.00000000000E+00 -0.12353117408E+04  0.12353117408E+04  0.00000000000E+00 0. -1.
         21    1    1    2  503  506  0.96272817957E+02  0.47384782274E+02 -0.43995190047E+03  0.45284815092E+03  0.00000000000E+00 0. -1.
         21    1    1    2  504  503 -0.21021789418E+02  0.80047847588E+02 -0.71763802100E+03  0.72239456166E+03  0.00000000000E+00 0. -1.
         21    1    1    2  505  502 -0.88021444455E+02  0.17192442244E+02  0.56395232630E+02  0.10594232873E+03  0.00000000000E+00 0. -1.
         21    1    1    2  506  501  0.12770415916E+02 -0.14462507211E+03  0.75317147635E+02  0.16356089915E+03  0.00000000000E+00 0. -1.
<scales pt_clust_3="136.79716" pt_clust_4="82.76215" pt_clust_5="91.48460" pt_clust_6="14000.00000"></scales>
<clustering>
<clus scale="   82.762">  2  4  1 -1</clus>
<clus scale="   91.485">  1  5  2 -1</clus>
<clus scale="  136.797">  2  3  1 -1</clus>
<clus scale="   91.485">  1  3  2 -1</clus>
</clustering>
</event>
<event>
 6    0  0.5510638E+002  0.8672063E+02  0.7546771E-02  0.1310993E+00
         21   -1    0    0  503  501  0.00000000000E+00  0.00000000000E+00  0.18492936505E+03  0.18492936505E+03  0.00000000000E+00 0. -1.
         21   -1    0    0  506  502 -0.00000000000E+00 -0.00000000000E+00 -0.13144863314E+04  0.13144863314E+04  0.00000000000E+00 0. -1.
         21    1    1    2  503  505  0.49059008491E+02  0.21608396100E+02  0.15764889361E+03  0.16651391159E+03  0.00000000000E+00 0. -1.
         21    1    1    2  504  501  0.64138908541E+01  0.44379720163E+02 -0.22189041461E+02  0.50030501883E+02  0.00000000000E+00 0. -1.
         21    1    1    2  505  502 -0.81974225525E+02 -0.11713419444E+03 -0.10704818345E+04  0.10799868292E+04  0.00000000000E+00 0. -1.
         21    1    1    2  506  504  0.26501326179E+02  0.51146078173E+02 -0.19453498396E+03  0.20288445378E+03  0.00000000000E+00 0. -1.
<scales pt_clust_3="14000.00000" pt_clust_4="44.84080" pt_clust_5="86.72063" pt_clust_6="58.63927"></scales>
<clustering>
<clus scale="   44.841">  1  4  2 -1</clus>
<clus scale="   58.639">  2  6  1 -1</clus>
<clus scale="   86.721">  2  5  1 -1</clus>
<clus scale="   44.841">  1  3  2 -1</clus>
</clustering>
</event>
<event>
 6    0  0.5510638E+002  0.6765076E+02  0.7546771E-02  0.1368269E+00
         21   -1    0    0  506  501  0.00000000000E+00  0.00000000000E+00  0.98125837580E+02  0.98125837580E+02  0.00000000000E+00 0.  1.
         21   -1    0    0  505  502 -0.00000000000E+00 -0.00000000000E+00 -0.90253502455E+03  0.90253502455E+03  0.00000000000E+00 0. -1.
         21    1    1    2  503  501 -0.52162695579E+02 -0.64344599891E+02  0.41017898104E+02  0.92431825201E+02  0.00000000000E+00 0.  1.
         21    1    1    2  504  502  0.43995543960E+02  0.86541631997E+02 -0.63994296048E+03  0.64726505747E+03  0.00000000000E+00 0. -1.
         21    1    1    2  505  503 -0.56511677189E+02 -0.20701249451E+02 -0.18272532724E+03  0.19238153914E+03  0.00000000000E+00 0. -1.
         21    1    1    2  506  504  0.64678828808E+02 -0.14957826558E+01 -0.22758797345E+02  0.68582440306E+02  0.00000000000E+00 0. -1.
<scales pt_clust_3="67.65076" pt_clust_4="14000.00000" pt_clust_5="60.18398" pt_clust_6="61.13404"></scales>
<clustering>
<clus scale="   60.184">  2  5  1 -1</clus>
<clus scale="   61.134">  1  6  2 -1</clus>
<clus scale="   67.651">  1  3  2 -1</clus>
<clus scale="   61.134">  1  3  2 -1</clus>
</clustering>
</event>
<event>
 6    0  0.5510638E+002  0.9796171E+02  0.7546771E-02  0.1284642E+00
         21   -1    0    0  504  501  0.00000000000E+00  0.00000000000E+00  0.34336783299E+03  0.34336783299E+03  0.00000000000E+00 0. -1.
         21   -1    0    0  503  502 -0.00000000000E+00 -0.00000000000E+00 -0.14957016073E+03  0.14957016073E+03  0.00000000000E+00 0. -1.
         21    1    1    2  503  506  0.23213303384E+02  0.24189357161E+02 -0.14567574207E+02  0.36554024021E+02  0.00000000000E+00 0. -1.
         21    1    1    2  504  505  0.41990415432E+02 -0.21306527449E+01  0.88468559937E+02  0.97951114168E+02  0.00000000000E+00 0. -1.
         21    1    1    2  505  502 -0.84825726688E+02  0.57424051738E+02 -0.87970213723E+02  0.13502475376E+03  0.00000000000E+00 0.  1.
         21    1    1    2  506  501  0.19622007872E+02 -0.79482756154E+02  0.20786690025E+03  0.22340810178E+03  0.00000000000E+00 0. -1.
<scales pt_clust_3="33.52585" pt_clust_4="42.89489" pt_clust_5="14000.00000" pt_clust_6="97.96171"></scales>
<clustering>
<clus scale="   33.526">  2  3  1 -1</clus>
<clus scale="   42.895">  1  4  2 -1</clus>
<clus scale="   97.962">  1  6  2 -1</clus>
<clus scale="   42.895">  1  3  2 -1</clus>
</clustering>
</event>
<event>
 6    0  0.5510638E+002  0.9949605E+02  0.7546771E-02  0.1281359E+00
         21   -1    0    0  503  501  0.00000000000E+00  0.00000000000E+00  0.25111586844E+02  0.25111586844E+02  0.00000000000E+00 0.  1.
         21   -1    0    0  506  502 -0.00000000000E+00 -0.00000000000E+00 -0.14448839032E+04  0.14448839032E+04  0.00000000000E+00 0.  1.
         21    1    1    2  503  502 -0.16998829913E+02 -0.29194194906E+02 -0.31354562531E+02  0.46090886585E+02  0.00000000000E+00 0.  1.
         21    1    1    2  504  505  0.31848882559E+02 -0.91517199092E+02 -0.35810679622E+03  0.37098548024E+03  0.00000000000E+00 0.  1.
         21    1    1    2  505  501  0.40294444920E+02  0.35606777333E+02 -0.75242458177E+02  0.92481957137E+02  0.00000000000E+00 0.  1.
         21    1    1    2  506  504 -0.55144497565E+02  0.85104616666E+02 -0.95506849940E+03  0.96043716606E+03  0.00000000000E+00 0.  1.
<scales pt_clust_3="33.78256" pt_clust_4="14000.00000" pt_clust_5="38.53999" pt_clust_6="99.49605"></scales>
<clustering>
<clus scale="   33.783">  1  3  2 -1</clus>
<clus scale="   38.540">  1  5  2 -1</clus>
<clus scale="   99.496">  2  6  1 -1</clus>
<clus scale="   33.783">  1  3  2 -1</clus>
</clustering>
</event>
<event>
 6    0  0.5510638E+002  0.1394216E+03  0.7546771E-02  0.1214109E+00
         21   -1    0    0  503  501  0.00000000000E+00  0.00000000000E+00  0.22859360296E+04  0.22859360296E+04  0.00000000000E+00 0.  1.
         21   -1    0    0  505  502 -0.00000000000E+00 -0.00000000000E+00 -0.96831645046E+02  0.96831645046E+02  0.00000000000E+00 0. -1.
         21    1    1    2  503  506 -0.93065648274E+01 -0.54794372972E+02  0.12121545355E+04  0.12134280586E+04  0.00000000000E+00 0.  1.
         21    1    1    2  504  502 -0.86490596315E+01  0.10346178927E+03 -0.38578529976E+02  0.11075852584E+03  0.00000000000E+00 0. -1.
         21    1    1    2  505  501  0.34361917928E+02  0.29557484957E+02  0.58007494250E+01  0.45695021770E+02  0.00000000000E+00 0. -1.
         21    1    1    2  506  504 -0.16406293469E+02 -0.78224901256E+02  0.10097276296E+04  0.10128860684E+04  0.00000000000E+00 0.  1.
<scales pt_clust_3="30.74061" pt_clust_4="134.45971" pt_clust_5="45.32534" pt_clust_6="30.74061"></scales>
<clustering>
<clus scale="   30.741">  3  6 -1 -1</clus>
<clus scale="   45.325">  2  5  1 -1</clus>
<clus scale="  134.460">  2  4  1 -1</clus>
<clus scale="  139.422">  1  3  2 -1</clus>
</clustering>
</event>
<event>
 6    0  0.5510638E+002  0.1161563E+03  0.7546771E-02  0.1249576E+00
         21   -1    0    0  506  501  0.00000000000E+00  0.00000000000E+00  0.15977642111E+03  0.15977642111E+03  0.00000000000E+00 0. -1.
         21   -1    0    0  503  502 -0.00000000000E+00 -0.00000000000E+00 -0.12328707664E+04  0.12328707664E+04  0.00000000000E+00 0.  1.
         21    1    1    2  503  501  0.55888818591E+02 -0.77087949309E+01 -0.10967685005E+02  0.57474130503E+02  0.00000000000E+00 0. -1.
         21    1    1    2  504  502 -0.68220737548E+01 -0.42607573293E+02 -0.10371373737E+04  0.10380346227E+04  0.00000000000E+00 0.  1.
         21    1    1    2  505  504  0.65508943354E+02 -0.10709082768E+02 -0.11940872740E+03  0.13661826486E+03  0.00000000000E+00 0.  1.
         21    1    1    2  506  505 -0.11457568819E+03  0.61025450992E+02  0.94419440829E+02  0.16052016945E+03  0.00000000000E+00 0. -1.
<scales pt_clust_3="56.75956" pt_clust_4="43.15027" pt_clust_5="14000.00000" pt_clust_6="116.15632"></scales>
<clustering>
<clus scale="   43.150">  2  4  1 -1</clus>
<clus scale="   56.760">  2  3  1 -1</clus>
<clus scale="  116.156">  1  6  2 -1</clus>
<clus scale="  116.156">  1  3  2 -1</clus>
</clustering>
</event>
<event>
 6    0  0.5510638E+002  0.1976225E+03  0.7546771E-02  0.1151761E+00
         21   -1    0    0  505  501  0.00000000000E+00  0.00000000000E+00  0.36018052269E+03  0.36018052269E+03  0.00000000000E+00 0. -1.
         21   -1    0    0  504  502 -0.00000000000E+00 -0.00000000000E+00 -0.64505731620E+03  0.64505731620E+03  0.00000000000E+00 0. -1.
         21    1    1    2  503  501  0.12775205187E+02 -0.30856655137E+02  0.24029229550E+02  0.41142956950E+02  0.00000000000E+00 0.  1.
         21    1    1    2  504  506  0.45287355805E+02  0.13360872539E+03 -0.52742460336E+03  0.54596606884E+03  0.00000000000E+00 0. -1.
         21    1    1    2  505  502 -0.90047802285E+02 -0.13592569331E+03  0.29022672825E+03  0.33289030414E+03  0.00000000000E+00 0. -1.
         21    1    1    2  506  503  0.31985241293E+02  0.33173623067E+02 -0.71708147958E+02  0.85238508970E+02  0.00000000000E+00 0.  1.
<scales pt_clust_3="33.39669" pt_clust_4="43.02410" pt_clust_5="182.70986" pt_clust_6="43.02410"></scales>
<clustering>
<clus scale="   33.397">  1  3  2 -1</clus>
<clus scale="   43.024">  4  6 -1 -1</clus>
<clus scale="  182.710">  1  5  2 -1</clus>
<clus scale="   33.397">  1  3  2 -1</clus>
</clustering>
</event>
<event>
 6    0  0.5510638E+002  0.7017102E+02  0.7546771E-02  0.1359512E+00
         21   -1    0    0  505  501  0.00000000000E+00  0.00000000000E+00  0.16025573499E+04  0.16025573499E+04  0.00000000000E+00 0.  1.
         21   -1    0    0  503  502 -0.00000000000E+00 -0.00000000000E+00 -0.30335871025E+04  0.30335871025E+04  0.00000000000E+00 0. -1.
         21    1    1    2  503  506  0.24170984952E+02  0.42769090117E+02 -0.30228722127E+04  0.30232713814E+04  0.00000000000E+00 0. -1.
         21    1    1    2  504  501 -0.73358544427E+02 -0.41189727409E+02  0.51800115448E+03  0.52478878201E+03  0.00000000000E+00 0.  1.
         21    1    1    2  505  502  0.35568623552E+02  0.57669320254E+02  0.92255861766E+03  0.92504339385E+03  0.00000000000E+00 0. -1.
         21    1    1    2  506  504  0.13618935923E+02 -0.59248682963E+02  0.15128268783E+03  0.16304089513E+03  0.00000000000E+00 0. -1.
<scales pt_clust_3="49.12669" pt_clust_4="14000.00000" pt_clust_5="70.17102" pt_clust_6="44.55181"></scales>
<clustering>
<clus scale="   49.127">  2  3  1 -1</clus>
<clus scale="   44.552">  2  6  1 -1</clus>
<clus scale="   70.171">  1  5  2 -1</clus>
<clus scale="   70.171">  1  3  2 -1</clus>
</clustering>
</event>
<event>
 6    0  0.5510638E+002  0.1136010E+03  0.7546771E-02  0.1254043E+00
         21   -1    0    0  505  501  0.00000000000E+00  0.00000000000E+00  0.76291496986E+03  0.76291496986E+03  0.00000000000E+00 0.  1.
         21   -1    0    0  504  502 -0.00000000000E+00 -0.00000000000E+00 -0.47801215808E+02  0.47801215808E+02  0.00000000000E+00 0.  1.
         21    1    1    2  503  501 -0.13546639641E+03 -0.38157633911E+02  0.18943994163E+03  0.23599712089E+03  0.00000000000E+00 0.  1.
         21    1    1    2  504  503  0.27799944830E+02  0.44827604417E+02  0.42894117897E+02  0.67987178207E+02  0.00000000000E+00 0.  1.
         21    1    1    2  505  506  0.10101717366E+03  0.31786832719E+02  0.41708138886E+03  0.43031588054E+03  0.00000000000E+00 0.  1.
         21    1    1    2  506  502  0.66492779243E+01 -0.38456803225E+02  0.65698305657E+02  0.76416006029E+02  0.00000000000E+00 0. -1.
<scales pt_clust_3="113.60099" pt_clust_4="44.78293" pt_clust_5="14000.00000" pt_clust_6="39.02741"></scales>
<clustering>
<clus scale="   39.027">  2  6  1 -1</clus>
<clus scale="   44.783">  2  4  1 -1</clus>
<clus scale="  113.601">  2  3  1 -1</clus>
<clus scale="  113.601">  1  3  2 -1</clus>
</clustering>
</event>
<event>
 6    0  0.5510638E+002  0.8481666E+02  0.7546771E-02  0.1315913E+00
         21   -1    0    0  505  501  0.00000000000E+00  0.00000000000E+00  0.93919784200E+02  0.93919784200E+02  0.00000000000E+00 0.  1.
         21   -1    0    0  503  502 -0.00000000000E+00 -0.00000000000E+00 -0.29603670717E+03  0.29603670717E+03  0.00000000000E+00 0. -1.
         21    1    1    2  503  506 -0.42145698382E+02  0.11340638247E+02 -0.65492622468E+02  0.78702945089E+02  0.00000000000E+00 0.  1.
         21    1    1    2  504  502  0.38092853434E+02  0.70573245802E+02 -0.14503103804E+03  0.16572763952E+03  0.00000000000E+00 0. -1.
         21    1    1    2  505  504  0.24041228649E+02 -0.10497617952E+03 -0.12669584425E+02  0.10843660503E+03  0.00000000000E+00 0.  1.
         21    1    1    2  506  501 -0.19988383700E+02  0.23062295470E+02  0.21076321963E+02  0.37089301729E+02  0.00000000000E+00 0. -1.
<scales pt_clust_3="46.25436" pt_clust_4="84.81666" pt_clust_5="14000.00000" pt_clust_6="30.51893"></scales>
<clustering>
<clus scale="   30.519">  1  6  2 -1</clus>
<clus scale="   46.254">  2  3  1 -1</clus>
<clus scale="   84.817">  2  4  1 -1</clus>
<clus scale="   30.519">  1  3  2 -1</clus>
</clustering>
</event>
<event>
 6    0  0.5510638E+002  0.1801703E+03  0.7546771E-02  0.1167638E+00
         21   -1    0    0  506  501  0.00000000000E+00  0.00000000000E+00  0.32189211673E+03  0.32189211673E+03  0.00000000000E+00 0.  1.
         21   -1    0    0  505  502 -0.00000000000E+00 -0.00000000000E+00 -0.47740488365E+03  0.47740488365E+03  0.00000000000E+00 0.  1.
         21    1    1    2  503  501 -0.39739517717E+02  0.17041025203E+02  0.10863348879E+03  0.11692245591E+03  0.00000000000E+00 0.  1.
         21    1    1    2  504  502  0.20067989286E+01  0.18080577499E+03 -0.35309023894E+03  0.39669569237E+03  0.00000000000E+00 0.  1.
         21    1    1    2  505  503  0.66921565690E+02 -0.17566139238E+03 -0.16103517658E+01  0.18798407901E+03  0.00000000000E+00 0.  1.
         21    1    1    2  506  504 -0.29188846902E+02 -0.22185407808E+02  0.90554334998E+02  0.97694773095E+02  0.00000000000E+00 0.  1.
<scales pt_clust_3="54.52956" pt_clust_4="180.17031" pt_clust_5="14000.00000" pt_clust_6="36.66308"></scales>
<clustering>
<clus scale="   36.663">  1  6  2 -1</clus>
<clus scale="   54.530">  1  3  2 -1</clus>
<clus scale="  180.170">  2  4  1 -1</clus>
<clus scale="   36.663">  1  3  2 -1</clus>
</clustering>
</event>
<event>
 6    0  0.5510638E+002  0.9767548E+02  0.7546771E-02  0.1285261E+00
         21   -1    0    0  503  501  0.00000000000E+00  0.00000000000E+00  0.57331623936E+03  0.57331623936E+03  0.00000000000E+00 0. -1.
         21   -1    0    0  505  502 -0.00000000000E+00 -0.00000000000E+00 -0.72282392365E+02  0.72282392365E+02  0.00000000000E+00 0. -1.
         21    1    1    2  503  502  0.14034319089E+02  0.27762088934E+02 -0.35922087919E+02  0.47519386515E+02  0.00000000000E+00 0.  1.
         21    1    1    2  504  506 -0.49601152990E+00  0.75993048589E+02  0.71581636289E+02  0.10439885112E+03  0.00000000000E+00 0. -1.
         21    1    1    2  505  504 -0.47588493459E+02 -0.32872456870E+00  0.78724837071E+02  0.91991155778E+02  0.00000000000E+00 0. -1.
         21    1    1    2  506  501  0.34050185900E+02 -0.10342641295E+03  0.38664946155E+03  0.40168923831E+03  0.00000000000E+00 0. -1.
<scales pt_clust_3="31.10781" pt_clust_4="14000.00000" pt_clust_5="44.90528" pt_clust_6="97.67548"></scales>
<clustering>
<clus scale="   31.108">  2  3  1 -1</clus>
<clus scale="   44.905">  2  5  1 -1</clus>
<clus scale="   97.675">  1  6  2 -1</clus>
<clus scale="   97.675">  1  3  2 -1</clus>
</clustering>
</event>
<event>
 6    0  0.5510638E+002  0.6997712E+02  0.7546771E-02  0.1360171E+00
         21   -1    0    0  506  501  0.00000000000E+00  0.00000000000E+00  0.40486925032E+03  0.40486925032E+03  0.00000000000E+00 0.  1.
         21   -1    0    0  505  502 -0.00000000000E+00 -0.00000000000E+00 -0.11430900801E+03  0.11430900801E+03  0.00000000000E+00 0.  1.
         21    1    1    2  503  502  0.22655680235E+02  0.36232677023E+02 -0.64432088311E+02  0.77314815755E+02  0.00000000000E+00 0.  1.
         21    1    1    2  504  503 -0.62999693212E+02 -0.45423851792E+01  0.40197398724E+02  0.74869389420E+02  0.00000000000E+00 0.  1.
         21    1    1    2  505  501  0.88638902637E+02 -0.38174262687E+02  0.74802397296E+02  0.12210457827E+03  0.00000000000E+00 0.  1.
         21    1    1    2  506  504 -0.48294889660E+02  0.64839708431E+01  0.23999253460E+03  0.24488947488E+03  0.00000000000E+00 0.  1.
<scales pt_clust_3="42.73274" pt_clust_4="14000.00000" pt_clust_5="69.97712" pt_clust_6="47.78464"></scales>
<clustering>
<clus scale="   42.733">  2  3  1 -1</clus>
<clus scale="   47.785">  1  6  2 -1</clus>
<clus scale="   69.977">  1  5  2 -1</clus>
<clus scale="   47.785">  1  3  2 -1</clus>
</clustering>
</event>
<event>
 6    0  0.5510638E+002  0.2891949E+03  0.7546771E-02  0.1090770E+00
         21   -1    0    0  505  501  0.00000000000E+00  0.00000000000E+00  0.78702528806E+03  0.78702528806E+03  0.00000000000E+00 0. -1.
         21   -1    0    0  504  502 -0.00000000000E+00 -0.00000000000E+00 -0.10711182506E+04  0.10711182506E+04  0.00000000000E+00 0. -1.
         21    1    1    2  503  502  0.74694491318E+02  0.19518561086E+03  0.42256702509E+03  0.47142293157E+03  0.00000000000E+00 0. -1.
         21    1    1    2  504  506 -0.17745876595E+02 -0.36906165378E+02 -0.93504114665E+03  0.93593745897E+03  0.00000000000E+00 0. -1.
         21    1    1    2  505  503  0.64425129885E+02  0.63719224272E+02  0.16767127582E+03  0.19058959478E+03  0.00000000000E+00 0. -1.
         21    1    1    2  506  501 -0.12137374461E+03 -0.22199866975E+03  0.60709883242E+02  0.26019355329E+03  0.00000000000E+00 0. -1.
<scales pt_clust_3="38.91833" pt_clust_4="40.95096" pt_clust_5="38.91833" pt_clust_6="283.09072"></scales>
<clustering>
<clus scale="   38.918">  3  5 -1 -1</clus>
<clus scale="   40.951">  2  4  1 -1</clus>
<clus scale="  283.091">  2  6  1 -1</clus>
<clus scale="  289.195">  1  3  2 -1</clus>
</clustering>
</event>
<event>
 6    0  0.5510638E+002  0.6787596E+02  0.7546771E-02  0.1367469E+00
         21   -1    0    0  504  501  0.00000000000E+00  0.00000000000E+00  0.42646785235E+03  0.42646785235E+03  0.00000000000E+00 0.  1.
         21   -1    0    0  506  502 -0.00000000000E+00 -0.00000000000E+00 -0.86743289435E+03  0.86743289435E+03  0.00000000000E+00 0. -1.
         21    1    1    2  503  501 -0.97817947037E+02  0.40232114343E+02  0.12769302256E+03  0.16580856974E+03  0.00000000000E+00 0.  1.
         21    1    1    2  504  502  0.26081366903E+02 -0.58466876850E+02  0.25618441993E+03  0.26406262591E+03  0.00000000000E+00 0.  1.
         21    1    1    2  505  503  0.43491206137E+02  0.33080883156E+02 -0.19443893657E+02  0.57999093460E+02  0.00000000000E+00 0. -1.
         21    1    1    2  506  505  0.28245373997E+02 -0.14846120649E+02 -0.80539859084E+03  0.80603045759E+03  0.00000000000E+00 0. -1.
<scales pt_clust_3="67.87596" pt_clust_4="65.63227" pt_clust_5="14000.00000" pt_clust_6="31.90938"></scales>
<clustering>
<clus scale="   31.909">  2  6  1 -1</clus>
<clus scale="   65.632">  1  4  2 -1</clus>
<clus scale="   67.876">  1  3  2 -1</clus>
<clus scale="   65.632">  1  3  2 -1</clus>
</clustering>
</event>
<event>
 6    0  0.5510638E+002  0.7306641E+02  0.7546771E-02  0.1349965E+00
         21   -1    0    0  506  501  0.00000000000E+00  0.00000000000E+00  0.60053567793E+02  0.60053567793E+02  0.00000000000E+00 0. -1.
         21   -1    0    0  503  502 -0.00000000000E+00 -0.00000000000E+00 -0.82982990738E+03  0.82982990738E+03  0.00000000000E+00 0.  1.
         21    1    1    2  503  504 -0.12858251074E+02  0.38510956612E+02 -0.36206400010E+03  0.36433332069E+03  0.00000000000E+00 0. -1.
         21    1    1    2  504  501  0.70483672789E+02 -0.22751424249E+02  0.78238219742E+01  0.74476758962E+02  0.00000000000E+00 0. -1.
         21    1    1    2  505  502 -0.26772369013E+02 -0.88658753255E+02 -0.26940362612E+03  0.28487795288E+03  0.00000000000E+00 0.  1.
         21    1    1    2  506  505 -0.30853052702E+02  0.72899220892E+02 -0.14613253535E+03  0.16619544264E+03  0.00000000000E+00 0. -1.
<scales pt_clust_3="40.60084" pt_clust_4="72.38354" pt_clust_5="14000.00000" pt_clust_6="73.06641"></scales>
<clustering>
<clus scale="   40.601">  2  3  1 -1</clus>
<clus scale="   72.384">  1  4  2 -1</clus>
<clus scale="   73.066">  1  6  2 -1</clus>
<clus scale="   72.384">  1  3  2 -1</clus>
</clustering>
</event>
<event>
 6    0  0.5510638E+002  0.1030761E+03  0.7546771E-02  0.1273957E+00
         21   -1    0    0  506  501  0.00000000000E+00  0.00000000000E+00  0.67050697897E+03  0.67050697897E+03  0.00000000000E+00 0. -1.
         21   -1    0    0  505  502 -0.00000000000E+00 -0.00000000000E+00 -0.87072091779E+02  0.87072091779E+02  0.00000000000E+00 0. -1.
         21    1    1    2  503  504  0.55457551271E+02  0.10289119488E+03  0.14950735353E+02  0.11783744085E+03  0.00000000000E+00 0. -1.
         21    1    1    2  504  502  0.41250255065E+02 -0.61428169631E+02  0.26943817691E+02  0.78746256285E+02  0.00000000000E+00 0. -1.
         21    1    1    2  505  501  0.12828483333E+02 -0.32001126441E+02  0.93234130932E+02  0.99404452862E+02  0.00000000000E+00 0.  1.
         21    1    1    2  506  503 -0.10953628967E+03 -0.94618988117E+01  0.44830620321E+03  0.46159092075E+03  0.00000000000E+00 0. -1.
<scales pt_clust_3="14000.00000" pt_clust_4="77.09938" pt_clust_5="34.47669" pt_clust_6="103.07609"></scales>
<clustering>
<clus scale="   34.477">  1  5  2 -1</clus>
<clus scale="   77.099">  2  4  1 -1</clus>
<clus scale="  103.076">  1  6  2 -1</clus>
<clus scale="   34.477">  1  3  2 -1</clus>
</clustering>
</event>
<event>
 6    0  0.5510638E+002  0.8869438E+02  0.7546771E-02  0.1306045E+00
         21   -1    0    0  504  501  0.00000000000E+00  0.00000000000E+00  0.69756608469E+03  0.69756608469E+03  0.00000000000E+00 0. -1.
         21   -1    0    0  506  502 -0.00000000000E+00 -0.00000000000E+00 -0.31261816917E+02  0.31261816917E+02  0.00000000000E+00 0. -1.
         21    1    1    2  503  502  0.75435381957E+01  0.64170225527E+02  0.16276319594E+03  0.17511876189E+03  0.00000000000E+00 0. -1.
         21    1    1    2  504  505  0.31236695353E+02  0.12211586825E+02  0.12057808651E+03  0.12515561887E+03  0.00000000000E+00 0. -1.
         21    1    1    2  505  503 -0.38600634206E+02  0.34119154241E+02  0.25194637890E+03  0.25715968480E+03  0.00000000000E+00 0. -1.
         21    1    1    2  506  501 -0.17959934303E+00 -0.11050096659E+03  0.13101660642E+03  0.17139383604E+03  0.00000000000E+00 0. -1.
<scales pt_clust_3="14000.00000" pt_clust_4="33.53884" pt_clust_5="46.64512" pt_clust_6="88.69438"></scales>
<clustering>
<clus scale="   33.539">  1  4  2 -1</clus>
<clus scale="   46.645">  1  5  2 -1</clus>
<clus scale="   88.694">  2  6  1 -1</clus>
<clus scale="   33.539">  1  3  2 -1</clus>
</clustering>
</event>
<event>
 6    0  0.5510638E+002  0.1142045E+03  0.7546771E-02  0.1252976E+00
         21   -1    0    0  504  501  0.00000000000E+00  0.00000000000E+00  0.58372928494E+03  0.58372928494E+03  0.00000000000E+00 0. -1.
         21   -1    0    0  506  502 -0.00000000000E+00 -0.00000000000E+00 -0.12511312787E+04  0.12511312787E+04  0.00000000000E+00 0.  1.
         21    1    1    2  503  505 -0.46956778806E+02 -0.63069151653E+02  0.33445561668E+03  0.34357417903E+03  0.00000000000E+00 0. -1.
         21    1    1    2  504  503  0.37285396574E+02 -0.52352355861E+02  0.22259384045E+03  0.23168726285E+03  0.00000000000E+00 0.  1.
         21    1    1    2  505  502  0.38797135506E+02 -0.55901943760E+02 -0.94994992847E+02  0.11685158837E+03  0.00000000000E+00 0.  1.
         21    1    1    2  506  501 -0.29125753275E+02  0.17132345127E+03 -0.11294564580E+04  0.11427475333E+04  0.00000000000E+00 0.  1.
<scales pt_clust_3="114.20454" pt_clust_4="64.27262" pt_clust_5="70.01551" pt_clust_6="14000.00000"></scales>
<clustering>
<clus scale="   64.273">  1  4  2 -1</clus>
<clus scale="   70.016">  2  5  1 -1</clus>
<clus scale="  114.205">  1  3  2 -1</clus>
<clus scale="   64.273">  1  3  2 -1</clus>
</clustering>
</event>
<event>
 6    0  0.5510638E+002  0.8101312E+02  0.7546771E-02  0.1326201E+00
         21   -1    0    0  504  501  0.00000000000E+00  0.00000000000E+00  0.98120304121E+03  0.98120304121E+03  0.00000000000E+00 0. -1.
         21   -1    0    0  505  502 -0.00000000000E+00 -0.00000000000E+00 -0.33927942342E+02  0.33927942342E+02  0.00000000000E+00 0. -1.
         21    1    1    2  503  501  0.10065011160E+02 -0.58429452999E+02  0.24469923921E+03  0.25177971145E+03  0.00000000000E+00 0. -1.
         21    1    1    2  504  506 -0.65185610808E+02 -0.29852687191E+01  0.54212776059E+03  0.54604082676E+03  0.00000000000E+00 0. -1.
         21    1    1    2  505  503 -0.13060168226E+02 -0.28748301332E+02  0.50894089608E+02  0.59893582132E+02  0.00000000000E+00 0. -1.
         21    1    1    2  506  502  0.68180767874E+02  0.90163023050E+02  0.10955400945E+03  0.15741686320E+03  0.00000000000E+00 0. -1.
<scales pt_clust_3="62.46805" pt_clust_4="14000.00000" pt_clust_5="31.57583" pt_clust_6="81.01312"></scales>
<clustering>
<clus scale="   31.576">  2  5  1 -1</clus>
<clus scale="   62.468">  1  3  2 -1</clus>
<clus scale="   81.013">  2  6  1 -1</clus>
<clus scale="   62.468">  1  3  2 -1</clus>
</clustering>
</event>
<event>
 6    0  0.5510638E+002  0.8189673E+02  0.7546771E-02  0.1323753E+00
         21   -1    0    0  502  501  0.00000000000E+00  0.00000000000E+00  0.63503723025E+02  0.63503723025E+02  0.00000000000E+00 0. -1.
         21   -1    0    0  503  502 -0.00000000000E+00 -0.00000000000E+00 -0.53220571989E+03  0.53220571989E+03  0.00000000000E+00 0. -1.
         21    1    1    2  503  504  0.24298874740E+02  0.34345904348E+02 -0.34118953854E+03  0.34377373034E+03  0.00000000000E+00 0. -1.
         21    1    1    2  504  505  0.27147420857E+02 -0.76701188076E+02 -0.32071373591E+02  0.87456433242E+02  0.00000000000E+00 0. -1.
         21    1    1    2  505  506 -0.88615853836E+02  0.37992939544E+02 -0.65656515829E+02  0.11664909377E+03  0.00000000000E+00 0. -1.
         21    1    1    2  506  501  0.37169558239E+02  0.43623441842E+01 -0.29784568901E+02  0.47830185565E+02  0.00000000000E+00 0. -1.
<scales pt_clust_3="42.67097" pt_clust_4="81.89673" pt_clust_5="14000.00000" pt_clust_6="37.42467"></scales>
<clustering>
<clus scale="   37.425">  1  6  2 -1</clus>
<clus scale="   42.671">  2  3  1 -1</clus>
<clus scale="   81.897">  2  4  1 -1</clus>
<clus scale="   37.425">  1  3  2 -1</clus>
</clustering>
</event>
<event>
 6    0  0.5510638E+002  0.1394182E+03  0.7546771E-02  0.1214114E+00
         21   -1    0    0  505  501  0.00000000000E+00  0.00000000000E+00  0.22179822092E+04  0.22179822092E+04  0.00000000000E+00 0.  1.
         21   -1    0    0  503  502 -0.00000000000E+00 -0.00000000000E+00 -0.19512228561E+03  0.19512228561E+03  0.00000000000E+00 0. -1.
         21    1    1    2  503  506 -0.25850977292E+02  0.48375764323E+02  0.66999889850E+03  0.67224029305E+03  0.00000000000E+00 0.  1.
         21    1    1    2  504  502  0.29853738835E+02 -0.56295277354E+02 -0.10817606497E+03  0.12554865594E+03  0.00000000000E+00 0. -1.
         21    1    1    2  505  504  0.53109045888E+02 -0.46917534418E+02 -0.59613864449E+02  0.92604744077E+02  0.00000000000E+00 0. -1.
         21    1    1    2  506  501 -0.57111807430E+02  0.54837047450E+02  0.15206509545E+04  0.15227108017E+04  0.00000000000E+00 0.  1.
<scales pt_clust_3="30.32912" pt_clust_4="41.35254" pt_clust_5="41.35254" pt_clust_6="137.34457"></scales>
<clustering>
<clus scale="   30.329">  3  6 -1 -1</clus>
<clus scale="   41.353">  4  5 -1 -1</clus>
<clus scale="  137.345">  1  3  2 -1</clus>
<clus scale="  137.345">  1  3  2 -1</clus>
</clustering>
</event>
<event>
 6    0  0.5510638E+002  0.1401929E+03  0.7546771E-02  0.1213070E+00
         21   -1    0    0  503  501  0.00000000000E+00  0.00000000000E+00  0.52684578253E+03  0.52684578253E+03  0.00000000000E+00 0.  1.
         21   -1    0    0  505  502 -0.00000000000E+00 -0.00000000000E+00 -0.86804768429E+03  0.86804768429E+03  0.00000000000E+00 0.  1.
         21    1    1    2  503  504 -0.29258790052E+02 -0.28651994837E+02  0.13861924765E+03  0.14454172208E+03  0.00000000000E+00 0.  1.
         21    1    1    2  504  502 -0.38383826133E+02 -0.85662479454E+02 -0.93966222345E+02  0.13281953710E+03  0.00000000000E+00 0.  1.
         21    1    1    2  505  506  0.25497922566E+02  0.16031935811E+03 -0.74017171248E+03  0.75776421438E+03  0.00000000000E+00 0.  1.
         21    1    1    2  506  501  0.42144693619E+02 -0.46004883814E+02  0.35431678542E+03  0.35976799325E+03  0.00000000000E+00 0.  1.
<scales pt_clust_3="40.95136" pt_clust_4="140.19293" pt_clust_5="14000.00000" pt_clust_6="74.09815"></scales>
<clustering>
<clus scale="   40.951">  1  3  2 -1</clus>
<clus scale="   74.098">  1  6  2 -1</clus>
<clus scale="  140.193">  1  4  2 -1</clus>
<clus scale="   40.951">  1  3  2 -1</clus>
</clustering>
</event>
<event>
 6    0  0.5510638E+002  0.1331893E+03  0.7546771E-02  0.1222799E+00
         21   -1    0    0  506  501  0.00000000000E+00  0.00000000000E+00  0.54456659958E+03  0.54456659958E+03  0.00000000000E+00 0.  1.
         21   -1    0    0  501  502 -0.00000000000E+00 -0.00000000000E+00 -0.93914187431E+02  0.93914187431E+02  0.00000000000E+00 0.  1.
         21    1    1    2  503  504  0.63073512894E+02  0.41053779443E+02 -0.47780156645E+02  0.89143839969E+02  0.00000000000E+00 0.  1.
         21    1    1    2  504  502  0.25554082776E+02  0.48733080180E+02  0.34538791972E+02  0.64968087560E+02  0.00000000000E+00 0.  1.
         21    1    1    2  505  503 -0.42251261003E+02 -0.64123938144E+02  0.18203406403E+03  0.19756884614E+03  0.00000000000E+00 0.  1.
         21    1    1    2  506  505 -0.46376334667E+02 -0.25662921479E+02  0.28185971279E+03  0.28680001334E+03  0.00000000000E+00 0.  1.
<scales pt_clust_3="119.33212" pt_clust_4="55.02658" pt_clust_5="49.14493" pt_clust_6="49.14493"></scales>
<clustering>
<clus scale="   49.145">  5  6 -1 -1</clus>
<clus scale="   55.027">  2  4  1 -1</clus>
<clus scale="  119.332">  2  3  1 -1</clus>
<clus scale="  133.189">  1  3  2 -1</clus>
</clustering>
</event>
<event>
 6    0  0.5510638E+002  0.8382204E+02  0.7546771E-02  0.1318542E+00
         21   -1    0    0  504  501  0.00000000000E+00  0.00000000000E+00  0.24928113717E+02  0.24928113717E+02  0.00000000000E+00 0.  1.
         21   -1    0    0  503  502 -0.00000000000E+00 -0.00000000000E+00 -0.17218371799E+04  0.17218371799E+04  0.00000000000E+00 0. -1.
         21    1    1    2  503  506 -0.27664620799E+02  0.35199959008E+02 -0.74519507135E+03  0.74653872152E+03  0.00000000000E+00 0. -1.
         21    1    1    2  504  505  0.31522400553E+02  0.84714615304E+02 -0.56923165803E+03  0.57636352096E+03  0.00000000000E+00 0. -1.
         21    1    1    2  505  502 -0.36244395018E+02 -0.67499767586E+02 -0.34120499610E+03  0.34970090671E+03  0.00000000000E+00 0.  1.
         21    1    1    2  506  501  0.32386615264E+02 -0.52414806727E+02 -0.41277340723E+02  0.74162144451E+02  0.00000000000E+00 0.  1.
<scales pt_clust_3="44.77017" pt_clust_4="14000.00000" pt_clust_5="83.82204" pt_clust_6="58.98313"></scales>
<clustering>
<clus scale="   44.770">  2  3  1 -1</clus>
<clus scale="   58.983">  1  6  2 -1</clus>
<clus scale="   83.822">  2  5  1 -1</clus>
<clus scale="   58.983">  1  3  2 -1</clus>
</clustering>
</event>
<event>
 6    0  0.5510638E+002  0.1309622E+03  0.7546771E-02  0.1226035E+00
         21   -1    0    0  504  501  0.00000000000E+00  0.00000000000E+00  0.26747575683E+03  0.26747575683E+03  0.00000000000E+00 0.  1.
         21   -1    0    0  505  502 -0.00000000000E+00 -0.00000000000E+00 -0.18389151757E+04  0.18389151757E+04  0.00000000000E+00 0. -1.
         21    1    1    2  503  501 -0.11917119931E+03  0.24832563250E+02  0.22996891221E+03  0.26020017587E+03  0.00000000000E+00 0.  1.
         21    1    1    2  504  506  0.15238007755E+01  0.33640914771E+02  0.35594821297E+01  0.33863003831E+02  0.00000000000E+00 0.  1.
         21    1    1    2  505  503  0.12483940697E+03 -0.23297984542E+02 -0.13624355330E+04  0.13683414249E+04  0.00000000000E+00 0. -1.
         21    1    1    2  506  502 -0.71920084429E+01 -0.35175493479E+02 -0.44253228024E+03  0.44398632792E+03  0.00000000000E+00 0. -1.
<scales pt_clust_3="130.96218" pt_clust_4="33.67541" pt_clust_5="14000.00000" pt_clust_6="35.80599"></scales>
<clustering>
<clus scale="   33.675">  1  4  2 -1</clus>
<clus scale="   35.806">  2  6  1 -1</clus>
<clus scale="  130.962">  1  3  2 -1</clus>
<clus scale="   33.675">  1  3  2 -1</clus>
</clustering>
</event>
<event>
 6    0  0.5510638E+002  0.1262634E+03  0.7546771E-02  0.1233108E+00
         21   -1    0    0  505  501  0.00000000000E+00  0.00000000000E+00  0.14050975161E+03  0.14050975161E+03  0.00000000000E+00 0. -1.
         21   -1    0    0  504  502 -0.00000000000E+00 -0.00000000000E+00 -0.37389528265E+03  0.37389528265E+03  0.00000000000E+00 0. -1.
         21    1    1    2  503  502 -0.36471264345E+01 -0.65037527723E+02 -0.24553735108E+03  0.25403104598E+03  0.00000000000E+00 0. -1.
         21    1    1    2  504  501  0.61487545567E+02  0.13290087369E+03  0.54846017191E+02  0.15636958172E+03  0.00000000000E+00 0. -1.
         21    1    1    2  505  506 -0.18166747894E+02 -0.41789182375E+02 -0.10857310627E+02  0.46842797597E+02  0.00000000000E+00 0. -1.
         21    1    1    2  506  503 -0.39673671238E+02 -0.26074163589E+02 -0.31836886520E+02  0.57161608967E+02  0.00000000000E+00 0. -1.
<scales pt_clust_3="65.13971" pt_clust_4="122.06255" pt_clust_5="31.64263" pt_clust_6="31.64263"></scales>
<clustering>
<clus scale="   31.643">  5  6 -1 -1</clus>
<clus scale="   65.140">  2  3  1 -1</clus>
<clus scale="  122.063">  1  4  2 -1</clus>
<clus scale="  122.063">  1  3  2 -1</clus>
</clustering>
</event>
<event>
 6    0  0.5510638E+002  0.1132116E+03  0.7546771E-02  0.1254736E+00
         21   -1    0    0  504  501  0.00000000000E+00  0.00000000000E+00  0.22008969053E+03  0.22008969053E+03  0.00000000000E+00 0.  1.
         21   -1    0    0  506  502 -0.00000000000E+00 -0.00000000000E+00 -0.10862225762E+03  0.10862225762E+03  0.00000000000E+00 0.  1.
         21    1    1    2  503  502  0.29078880713E+02 -0.49249032279E+02 -0.33028794060E+02  0.66045058263E+02  0.00000000000E+00 0.  1.
         21    1    1    2  504  505  0.43492030653E+02  0.34968095203E+00  0.52947628514E+02  0.68521021390E+02  0.00000000000E+00 0.  1.
         21    1    1    2  505  503  0.33746687652E+02 -0.23177540713E+02  0.10493458835E+02  0.42262867855E+02  0.00000000000E+00 0.  1.
         21    1    1    2  506  501 -0.10631759902E+03  0.72076892040E+02  0.81055139621E+02  0.15188300065E+03  0.00000000000E+00 0.  1.
<scales pt_clust_3="38.12049" pt_clust_4="43.49344" pt_clust_5="38.12049" pt_clust_6="103.85929"></scales>
<clustering>
<clus scale="   38.120">  3  5 -1 -1</clus>
<clus scale="   43.493">  1  4  2 -1</clus>
<clus scale="  103.859">  1  6  2 -1</clus>
<clus scale="   43.493">  1  3  2 -1</clus>
</clustering>
</event>
<event>
 6    0  0.5510638E+002  0.1022722E+03  0.7546771E-02  0.1275589E+00
         21   -1    0    0  506  501  0.00000000000E+00  0.00000000000E+00  0.23209037403E+03  0.23209037403E+03  0.00000000000E+00 0. -1.
         21   -1    0    0  503  502 -0.00000000000E+00 -0.00000000000E+00 -0.20217196438E+04  0.20217196438E+04  0.00000000000E+00 0.  1.
         21    1    1    2  503  505 -0.97580374431E+02  0.99808692590E+01 -0.15926064519E+04  0.15956242847E+04  0.00000000000E+00 0.  1.
         21    1    1    2  504  502 -0.41391721068E+00 -0.39169016474E+02 -0.40087939501E+03  0.40278862015E+03  0.00000000000E+00 0. -1.
         21    1    1    2  505  501 -0.36832946771E+01 -0.33953129677E+02  0.46539532821E+02  0.57726162091E+02  0.00000000000E+00 0. -1.
         21    1    1    2  506  504  0.10167758632E+03  0.63141276891E+02  0.15731704431E+03  0.19767095092E+03  0.00000000000E+00 0. -1.
<scales pt_clust_3="14000.00000" pt_clust_4="39.35151" pt_clust_5="34.15233" pt_clust_6="102.27221"></scales>
<clustering>
<clus scale="   34.152">  1  5  2 -1</clus>
<clus scale="   39.352">  2  4  1 -1</clus>
<clus scale="  102.272">  1  6  2 -1</clus>
<clus scale="   34.152">  1  3  2 -1</clus>
</clustering>
</event>
<event>
 6    0  0.5510638E+002  0.1613764E+03  0.7546771E-02  0.1187152E+00
         21   -1    0    0  504  501  0.00000000000E+00  0.00000000000E+00  0.52326989747E+03  0.52326989747E+03  0.00000000000E+00 0. -1.
         21   -1    0    0  506  502 -0.00000000000E+00 -0.00000000000E+00 -0.10138621139E+03  0.10138621139E+03  0.00000000000E+00 0. -1.
         21    1    1    2  503  505  0.53879389610E+02  0.35952931665E+02  0.67128189349E+02  0.93283416132E+02  0.00000000000E+00 0. -1.
         21    1    1    2  504  502 -0.42358174742E+02  0.68809308246E+02  0.12945946253E+03  0.15260631805E+03  0.00000000000E+00 0. -1.
         21    1    1    2  505  501  0.64964360462E+02  0.32409269452E+02  0.20854574873E+03  0.22082132639E+03  0.00000000000E+00 0.  1.
         21    1    1    2  506  503 -0.76485575329E+02 -0.13717150936E+03  0.16750285476E+02  0.15794504829E+03  0.00000000000E+00 0. -1.
<scales pt_clust_3="58.74879" pt_clust_4="80.80183" pt_clust_5="58.74879" pt_clust_6="148.90905"></scales>
<clustering>
<clus scale="   58.749">  3  5 -1 -1</clus>
<clus scale="   80.802">  1  4  2 -1</clus>
<clus scale="  148.909">  2  6  1 -1</clus>
<clus scale="   80.802">  1  3  2 -1</clus>
</clustering>
</event>
<event>
 6    0  0.5510638E+002  0.1724680E+03  0.7546771E-02  0.1175298E+00
         21   -1    0    0  505  501  0.00000000000E+00  0.00000000000E+00  0.21540224855E+03  0.21540224855E+03  0.00000000000E+00 0.  1.
         21   -1    0    0  506  502 -0.00000000000E+00 -0.00000000000E+00 -0.17539434018E+03  0.17539434018E+03  0.00000000000E+00 0.  1.
         21    1    1    2  503  502 -0.15207946342E+02 -0.27112121053E+02 -0.35198444983E+02  0.46960401076E+02  0.00000000000E+00 0.  1.
         21    1    1    2  504  503  0.45673831225E+02 -0.23307021450E+02  0.44794199446E+02  0.68086976814E+02  0.00000000000E+00 0.  1.
         21    1    1    2  505  504  0.95854652499E+02 -0.53076498040E+02 -0.37152195757E+00  0.10956900601E+03  0.00000000000E+00 0.  1.
         21    1    1    2  506  501 -0.12632053738E+03  0.10349564054E+03  0.30783675864E+02  0.16618020482E+03  0.00000000000E+00 0.  1.
<scales pt_clust_3="31.08615" pt_clust_4="41.60339" pt_clust_5="41.60339" pt_clust_6="161.31238"></scales>
<clustering>
<clus scale="   31.086">  2  3  1 -1</clus>
<clus scale="   41.603">  4  5 -1 -1</clus>
<clus scale="  161.312">  2  6  1 -1</clus>
<clus scale="  172.468">  1  3  2 -1</clus>
</clustering>
</event>
<event>
 6    0  0.5510638E+002  0.8226329E+02  0.7546771E-02  0.1322749E+00
         21   -1    0    0  503  501  0.00000000000E+00  0.00000000000E+00  0.37018642733E+03  0.37018642733E+03  0.00000000000E+00 0.  1.
         21   -1    0    0  505  502 -0.00000000000E+00 -0.00000000000E+00 -0.41374382163E+03  0.41374382163E+03  0.00000000000E+00 0. -1.
         21    1    1    2  503  506 -0.39720993115E+02 -0.62799437389E+02  0.22768226535E+03  0.23950102419E+03  0.00000000000E+00 0.  1.
         21    1    1    2  504  502 -0.97721595378E+00 -0.88412824984E+02 -0.22208524288E+03  0.23903898777E+03  0.00000000000E+00 0. -1.
         21    1    1    2  505  501 -0.32625809000E+02  0.48258965865E+02 -0.13873557832E+03  0.15046903964E+03  0.00000000000E+00 0. -1.
         21    1    1    2  506  504  0.73324018069E+02  0.10295329651E+03  0.89581161536E+02  0.15492119735E+03  0.00000000000E+00 0.  1.
<scales pt_clust_3="82.26329" pt_clust_4="55.24901" pt_clust_5="58.25265" pt_clust_6="14000.00000"></scales>
<clustering>
<clus scale="   58.253">  2  5  1 -1</clus>
<clus scale="   55.249">  2  4  1 -1</clus>
<clus scale="   82.263">  1  3  2 -1</clus>
<clus scale="   82.263">  1  3  2 -1</clus>
</clustering>
</event>
<event>
 6    0  0.5510638E+002  0.1710459E+03  0.7546771E-02  0.1176762E+00
         21   -1    0    0  503  501  0.00000000000E+00  0.00000000000E+00  0.28021078906E+03  0.28021078906E+03  0.00000000000E+00 0. -1.
         21   -1    0    0  505  502 -0.00000000000E+00 -0.00000000000E+00 -0.36961386854E+03  0.36961386854E+03  0.00000000000E+00 0. -1.
         21    1    1    2  503  504  0.10071684342E+02 -0.36003027008E+02  0.97903648943E+02  0.10479876553E+03  0.00000000000E+00 0. -1.
         21    1    1    2  504  502 -0.73031561093E+02 -0.11685668774E+03  0.12577578795E+03  0.18657074588E+03  0.00000000000E+00 0. -1.
         21    1    1    2  505  506  0.29445580680E+02  0.26427741912E+02 -0.10996741794E+03  0.11686873308E+03  0.00000000000E+00 0.  1.
         21    1    1    2  506  501  0.33514296071E+02  0.12643197283E+03 -0.20311509843E+03  0.24158641312E+03  0.00000000000E+00 0. -1.
<scales pt_clust_3="37.38525" pt_clust_4="161.60845" pt_clust_5="30.81643" pt_clust_6="30.81643"></scales>
<clustering>
<clus scale="   30.816">  5  6 -1 -1</clus>
<clus scale="   37.385">  1  3  2 -1</clus>
<clus scale="  161.608">  1  4  2 -1</clus>
<clus scale="   37.385">  1  3  2 -1</clus>
</clustering>
</event>
<event>
 6    0  0.5510638E+002  0.1656728E+03  0.7546771E-02  0.1182437E+00
         21   -1    0    0  505  501  0.00000000000E+00  0.00000000000E+00  0.95654564645E+02  0.95654564645E+02  0.00000000000E+00 0.  1.
         21   -1    0    0  503  502 -0.00000000000E+00 -0.00000000000E+00 -0.10664056182E+04  0.10664056182E+04  0.00000000000E+00 0. -1.
         21    1    1    2  503  504  0.45125664954E+02 -0.21226285335E+01 -0.79816210750E+03  0.79943954183E+03  0.00000000000E+00 0. -1.
         21    1    1    2  504  501 -0.16288934958E+03 -0.50899610043E+02 -0.81472919278E+02  0.18910723700E+03  0.00000000000E+00 0.  1.
         21    1    1    2  505  506  0.53692142748E+02  0.52441483444E+02 -0.19758339034E+02  0.77610227033E+02  0.00000000000E+00 0.  1.
         21    1    1    2  506  502  0.64071541881E+02  0.58075513191E+00 -0.71357687739E+02  0.95903176981E+02  0.00000000000E+00 0.  1.
<scales pt_clust_3="45.17556" pt_clust_4="149.40667" pt_clust_5="70.38223" pt_clust_6="70.38223"></scales>
<clustering>
<clus scale="   45.176">  2  3  1 -1</clus>
<clus scale="   70.382">  5  6 -1 -1</clus>
<clus scale="  149.407">  2  4  1 -1</clus>
<clus scale="  165.673">  1  3  2 -1</clus>
</clustering>
</event>
<event>
 6    0  0.5510638E+002  0.7188742E+02  0.7546771E-02  0.1353790E+00
         21   -1    0    0  506  501  0.00000000000E+00  0.00000000000E+00  0.72360532820E+03  0.72360532820E+03  0.00000000000E+00 0.  1.
         21   -1    0    0  503  502 -0.00000000000E+00 -0.00000000000E+00 -0.68665585091E+03  0.68665585091E+03  0.00000000000E+00 0. -1.
         21    1    1    2  503  505  0.23915437305E+02 -0.10754311545E+03 -0.63191758639E+03  0.64144937899E+03  0.00000000000E+00 0. -1.
         21    1    1    2  504  502 -0.40583069179E+02  0.38392257526E+02 -0.26320370093E+02  0.61755265555E+02  0.00000000000E+00 0. -1.
         21    1    1    2  505  501 -0.99599739968E+01  0.90156494598E+02  0.57748954778E+03  0.58456956164E+03  0.00000000000E+00 0.  1.
         21    1    1    2  506  504  0.26627605871E+02 -0.21005636669E+02  0.11769788599E+03  0.12248697291E+03  0.00000000000E+00 0.  1.
<scales pt_clust_3="71.88742" pt_clust_4="54.87389" pt_clust_5="14000.00000" pt_clust_6="33.91557"></scales>
<clustering>
<clus scale="   33.916">  1  6  2 -1</clus>
<clus scale="   54.874">  2  4  1 -1</clus>
<clus scale="   71.887">  2  3  1 -1</clus>
<clus scale="   33.916">  1  3  2 -1</clus>
</clustering>
</event>
<event>
 6    0  0.5510638E+002  0.9307193E+02  0.7546771E-02  0.1295579E+00
         21   -1    0    0  505  501  0.00000000000E+00  0.00000000000E+00  0.16124658044E+04  0.16124658044E+04  0.00000000000E+00 0.  1.
         21   -1    0    0  503  502 -0.00000000000E+00 -0.00000000000E+00 -0.29448411669E+03  0.29448411669E+03  0.00000000000E+00 0. -1.
         21    1    1    2  503  506 -0.85706717252E+02  0.36129944160E+01  0.10839242508E+03  0.13823028947E+03  0.00000000000E+00 0.  1.
         21    1    1    2  504  502 -0.11781321834E+02  0.39078329165E+02 -0.27481635394E+03  0.27783078258E+03  0.00000000000E+00 0. -1.
         21    1    1    2  505  504  0.74665288495E+02  0.90227788372E+01  0.60291634129E+03  0.60758903088E+03  0.00000000000E+00 0.  1.
         21    1    1    2  506  501  0.22822750592E+02 -0.51714102418E+02  0.88148927526E+03  0.88329981815E+03  0.00000000000E+00 0.  1.
<scales pt_clust_3="14000.00000" pt_clust_4="40.81563" pt_clust_5="93.07193" pt_clust_6="54.50764"></scales>
<clustering>
<clus scale="   40.816">  2  4  1 -1</clus>
<clus scale="   54.508">  1  6  2 -1</clus>
<clus scale="   93.072">  1  5  2 -1</clus>
<clus scale="   54.508">  1  3  2 -1</clus>
</clustering>
</event>
<event>
 6    0  0.5510638E+002  0.6689012E+02  0.7546771E-02  0.1370999E+00
         21   -1    0    0  503  501  0.00000000000E+00  0.00000000000E+00  0.36309737996E+03  0.36309737996E+03  0.00000000000E+00 0.  1.
         21   -1    0    0  506  502 -0.00000000000E+00 -0.00000000000E+00 -0.36108984450E+03  0.36108984450E+03  0.00000000000E+00 0. -1.
         21    1    1    2  503  505 -0.19067244729E+02  0.47515731615E+02  0.57691764771E+02  0.77133937375E+02  0.00000000000E+00 0.  1.
         21    1    1    2  504  501  0.44568228609E+02  0.16025255443E+02  0.27371103509E+03  0.27777844866E+03  0.00000000000E+00 0.  1.
         21    1    1    2  505  502 -0.85557154825E+02 -0.42191159182E+02 -0.13974526431E+03  0.16920064879E+03  0.00000000000E+00 0. -1.
         21    1    1    2  506  504  0.60056170945E+02 -0.21349827876E+02 -0.18965000010E+03  0.20007418963E+03  0.00000000000E+00 0. -1.
<scales pt_clust_3="61.81342" pt_clust_4="47.36175" pt_clust_5="66.89012" pt_clust_6="14000.00000"></scales>
<clustering>
<clus scale="   47.362">  1  4  2 -1</clus>
<clus scale="   61.813">  1  3  2 -1</clus>
<clus scale="   66.890">  1  5  2 -1</clus>
<clus scale="   47.362">  1  3  2 -1</clus>
</clustering>
</event>
<event>
 6    0  0.5510638E+002  0.1909314E+03  0.7546771E-02  0.1157624E+00
         21   -1    0    0  505  501  0.00000000000E+00  0.00000000000E+00  0.60295042445E+02  0.60295042445E+02  0.00000000000E+00 0.  1.
         21   -1    0    0  503  502 -0.00000000000E+00 -0.00000000000E+00 -0.28096682170E+04  0.28096682170E+04  0.00000000000E+00 0. -1.
         21    1    1    2  503  501  0.16711852533E+03  0.23948709925E+02 -0.12841237144E+03  0.21211289295E+03  0.00000000000E+00 0.  1.
         21    1    1    2  504  506 -0.71432364147E+02  0.89980336767E+01 -0.35889224434E+03  0.36604260722E+03  0.00000000000E+00 0. -1.
         21    1    1    2  505  504 -0.11200343704E+03  0.45756023423E+02 -0.24605286269E+03  0.27419043533E+03  0.00000000000E+00 0. -1.
         21    1    1    2  506  502  0.16317275857E+02 -0.78702767025E+02 -0.20160156961E+04  0.20176173240E+04  0.00000000000E+00 0. -1.
<scales pt_clust_3="170.76810" pt_clust_4="65.87772" pt_clust_5="65.87772" pt_clust_6="80.37648"></scales>
<clustering>
<clus scale="   65.878">  4  5 -1 -1</clus>
<clus scale="   80.376">  2  6  1 -1</clus>
<clus scale="  170.768">  1  3  2 -1</clus>
<clus scale="  170.768">  1  3  2 -1</clus>
</clustering>
</event>
<event>
 6    0  0.5510638E+002  0.1092241E+03  0.7546771E-02  0.1262013E+00
         21   -1    0    0  505  501  0.00000000000E+00  0.00000000000E+00  0.12878450058E+04  0.12878450058E+04  0.00000000000E+00 0. -1.
         21   -1    0    0  503  502 -0.00000000000E+00 -0.00000000000E+00 -0.44288007241E+03  0.44288007241E+03  0.00000000000E+00 0.  1.
         21    1    1    2  503  504  0.79903128921E+02  0.74816307292E+02 -0.42375673552E+03  0.43766626641E+03  0.00000000000E+00 0.  1.
         21    1    1    2  504  506 -0.73065460441E+02 -0.48017133018E+02  0.67060029787E+03  0.67627580622E+03  0.00000000000E+00 0. -1.
         21    1    1    2  505  502 -0.56742208870E+00 -0.71102082463E+02  0.14538937990E+03  0.16184529615E+03  0.00000000000E+00 0. -1.
         21    1    1    2  506  501 -0.62702463919E+01  0.44302908189E+02  0.45273199113E+03  0.45493770942E+03  0.00000000000E+00 0. -1.
<scales pt_clust_3="109.22413" pt_clust_4="14000.00000" pt_clust_5="62.96544" pt_clust_6="44.74443"></scales>
<clustering>
<clus scale="   44.744">  1  6  2 -1</clus>
<clus scale="   62.965">  1  5  2 -1</clus>
<clus scale="  109.224">  2  3  1 -1</clus>
<clus scale="   44.744">  1  3  2 -1</clus>
</clustering>
</event>
<event>
 6    0  0.5510638E+002  0.8799874E+02  0.7546771E-02  0.1307772E+00
         21   -1    0    0  503  501  0.00000000000E+00  0.00000000000E+00  0.84422820013E+03  0.84422820013E+03  0.00000000000E+00 0. -1.
         21   -1    0    0  506  502 -0.00000000000E+00 -0.00000000000E+00 -0.46501466587E+02  0.46501466587E+02  0.00000000000E+00 0. -1.
         21    1    1    2  503  502  0.30791075294E+02  0.63108679186E+02  0.22595817078E+02  0.73765619741E+02  0.00000000000E+00 0. -1.
         21    1    1    2  504  501  0.46876080651E+02 -0.21790263051E+02  0.29241049130E+03  0.29694457045E+03  0.00000000000E+00 0. -1.
         21    1    1    2  505  504 -0.24240490904E+02 -0.79020361967E+02  0.42448357701E+03  0.43245592394E+03  0.00000000000E+00 0. -1.
         21    1    1    2  506  505 -0.53426665041E+02  0.37701945832E+02  0.58236848163E+02  0.87563552583E+02  0.00000000000E+00 0. -1.
<scales pt_clust_3="87.99874" pt_clust_4="51.69316" pt_clust_5="14000.00000" pt_clust_6="58.65544"></scales>
<clustering>
<clus scale="   51.693">  1  4  2 -1</clus>
<clus scale="   58.655">  2  6  1 -1</clus>
<clus scale="   87.999">  2  3  1 -1</clus>
<clus scale="   51.693">  1  3  2 -1</clus>
</clustering>
</event>
<event>
 6    0  0.5510638E+002  0.2074006E+03  0.7546771E-02  0.1143641E+00
         21   -1    0    0  504  501  0.00000000000E+00  0.00000000000E+00  0.29787872462E+03  0.29787872462E+03  0.00000000000E+00 0. -1.
         21   -1    0    0  503  502 -0.00000000000E+00 -0.00000000000E+00 -0.26810480594E+03  0.26810480594E+03  0.00000000000E+00 0. -1.
         21    1    1    2  503  501  0.19987679196E+03  0.11213782176E+03 -0.35671591079E+02  0.23194414294E+03  0.00000000000E+00 0. -1.
         21    1    1    2  504  505 -0.10481912412E+03 -0.15106655448E+02  0.14365102031E+02  0.10687196066E+03  0.00000000000E+00 0. -1.
         21    1    1    2  505  506 -0.88713658853E+02  0.21722712033E+02  0.57744796614E+02  0.10805762824E+03  0.00000000000E+00 0.  1.
         21    1    1    2  506  502 -0.63440089881E+01 -0.11875387835E+03 -0.66643888904E+01  0.11910979872E+03  0.00000000000E+00 0. -1.
<scales pt_clust_3="198.79345" pt_clust_4="54.91133" pt_clust_5="54.91133" pt_clust_6="118.92321"></scales>
<clustering>
<clus scale="   54.911">  4  5 -1 -1</clus>
<clus scale="  118.923">  2  6  1 -1</clus>
<clus scale="  198.793">  2  3  1 -1</clus>
<clus scale="  207.401">  1  3  2 -1</clus>
</clustering>
</event>
<event>
 6    0  0.5510638E+002  0.1176250E+03  0.7546771E-02  0.1247067E+00
         21   -1    0    0  506  501  0.00000000000E+00  0.00000000000E+00  0.16243902537E+03  0.16243902537E+03  0.00000000000E+00 0. -1.
         21   -1    0    0  504  502 -0.00000000000E+00 -0.00000000000E+00 -0.55001506131E+03  0.55001506131E+03  0.00000000000E+00 0.  1.
         21    1    1    2  503  502  0.78230364601E+02  0.53230808301E+02 -0.40842751907E+03  0.41924521134E+03  0.00000000000E+00 0.  1.
         21    1    1    2  504  505 -0.23337284936E+01  0.47081960589E+02 -0.85257281161E+02  0.97421564823E+02  0.00000000000E+00 0. -1.
         21    1    1    2  505  501  0.15971577437E+02 -0.61405375110E+02  0.29347298075E+02  0.69906904398E+02  0.00000000000E+00 0. -1.
         21    1    1    2  506  503 -0.91868213544E+02 -0.38907393781E+02  0.76761466217E+02  0.12588040613E+03  0.00000000000E+00 0. -1.
<scales pt_clust_3="117.62505" pt_clust_4="47.13976" pt_clust_5="61.40934" pt_clust_6="14000.00000"></scales>
<clustering>
<clus scale="   47.140">  2  4  1 -1</clus>
<clus scale="   61.409">  1  5  2 -1</clus>
<clus scale="  117.625">  2  3  1 -1</clus>
<clus scale="   61.409">  1  3  2 -1</clus>
</clustering>
</event>
<event>
 6    0  0.5510638E+002  0.7769599E+02  0.7546771E-02  0.1335720E+00
         21   -1    0    0  505  501  0.00000000000E+00  0.00000000000E+00  0.57512183333E+03  0.57512183333E+03  0.00000000000E+00 0. -1.
         21   -1    0    0  506  502 -0.00000000000E+00 -0.00000000000E+00 -0.22960209205E+03  0.22960209205E+03  0.00000000000E+00 0. -1.
         21    1    1    2  503  502  0.46811773113E+02  0.11232992306E+02 -0.18808522512E+03  0.19414833022E+03  0.00000000000E+00 0. -1.
         21    1    1    2  504  501  0.60584299772E+02 -0.24850669390E+02  0.26772387992E+03  0.27561583595E+03  0.00000000000E+00 0. -1.
         21    1    1    2  505  503 -0.13064954058E+03  0.48103451774E+02  0.25720960868E+03  0.29247226761E+03  0.00000000000E+00 0. -1.
         21    1    1    2  506  504  0.23253467690E+02 -0.34485774690E+02  0.86714778006E+01  0.42487491604E+02  0.00000000000E+00 0. -1.
<scales pt_clust_3="14000.00000" pt_clust_4="66.12624" pt_clust_5="77.69599" pt_clust_6="41.59318"></scales>
<clustering>
<clus scale="   41.593">  2  6  1 -1</clus>
<clus scale="   66.126">  1  4  2 -1</clus>
<clus scale="   77.696">  1  5  2 -1</clus>
<clus scale="   66.126">  1  3  2 -1</clus>
</clustering>
</event>
<event>
 6    0  0.5510638E+002  0.1181867E+03  0.7546771E-02  0.1246119E+00
         21   -1    0    0  504  501  0.00000000000E+00  0.00000000000E+00  0.83056620934E+02  0.83056620934E+02  0.00000000000E+00 0.  1.
         21   -1    0    0  506  502 -0.00000000000E+00 -0.00000000000E+00 -0.17348793350E+04  0.17348793350E+04  0.00000000000E+00 0. -1.
         21    1    1    2  503  502  0.10195766070E+03  0.46797018037E+02 -0.27090227045E+03  0.29321215119E+03  0.00000000000E+00 0.  1.
         21    1    1    2  504  505 -0.69655087520E+02 -0.36981222995E+02  0.27179509721E+02  0.83415632949E+02  0.00000000000E+00 0.  1.
         21    1    1    2  505  503 -0.12313304775E+02 -0.34706017335E+02 -0.42214675239E+01  0.37066776253E+02  0.00000000000E+00 0.  1.
         21    1    1    2  506  501 -0.19989268407E+02  0.24890222292E+02 -0.14038784858E+04  0.14042413955E+04  0.00000000000E+00 0. -1.
<scales pt_clust_3="108.79812" pt_clust_4="31.54533" pt_clust_5="31.54533" pt_clust_6="31.92325"></scales>
<clustering>
<clus scale="   31.545">  4  5 -1 -1</clus>
<clus scale="   31.923">  2  6  1 -1</clus>
<clus scale="  108.798">  2  3  1 -1</clus>
<clus scale="  118.187">  1  3  2 -1</clus>
</clustering>
</event>
<event>
 6    0  0.5510638E+002  0.1049762E+03  0.7546771E-02  0.1270167E+00
         21   -1    0    0  506  501  0.00000000000E+00  0.00000000000E+00  0.26493535800E+03  0.26493535800E+03  0.00000000000E+00 0.  1.
         21   -1    0    0  505  502 -0.00000000000E+00 -0.00000000000E+00 -0.95215552381E+03  0.95215552381E+03  0.00000000000E+00 0. -1.
         21    1    1    2  503  504  0.40217028947E+02  0.49804517752E+02  0.16928722246E+03  0.18098636162E+03  0.00000000000E+00 0.  1.
         21    1    1    2  504  501  0.37551482079E+02  0.11165093710E+02  0.60517469869E+02  0.72091173407E+02  0.00000000000E+00 0.  1.
         21    1    1    2  505  503  0.30869189400E+02 -0.65318176359E+02 -0.80379599490E+03  0.80703616551E+03  0.00000000000E+00 0. -1.
         21    1    1    2  506  502 -0.10863770043E+03  0.43485648972E+01 -0.11322886324E+03  0.15697718128E+03  0.00000000000E+00 0.  1.
<scales pt_clust_3="30.02228" pt_clust_4="30.02228" pt_clust_5="72.24521" pt_clust_6="97.70971"></scales>
<clustering>
<clus scale="   30.022">  3  4 -1 -1</clus>
<clus scale="   72.245">  2  5  1 -1</clus>
<clus scale="   97.710">  2  6  1 -1</clus>
<clus scale="  104.976">  1  3  2 -1</clus>
</clustering>
</event>
<event>
 6    0  0.5510638E+002  0.7996241E+02  0.7546771E-02  0.1329158E+00
         21   -1    0    0  505  501  0.00000000000E+00  0.00000000000E+00  0.15576594238E+04  0.15576594238E+04  0.00000000000E+00 0.  1.
         21   -1    0    0  503  502 -0.00000000000E+00 -0.00000000000E+00 -0.40282795255E+03  0.40282795255E+03  0.00000000000E+00 0. -1.
         21    1    1    2  503  501 -0.18794473752E+02  0.12249374026E+03  0.99245420533E+03  0.10001616361E+04  0.00000000000E+00 0.  1.
         21    1    1    2  504  506 -0.51012380994E+02 -0.83938255554E+02 -0.35906583574E+03  0.37225820092E+03  0.00000000000E+00 0. -1.
         21    1    1    2  505  504  0.38841723269E+01 -0.45696973187E+02  0.51971712166E+03  0.52173670247E+03  0.00000000000E+00 0. -1.
         21    1    1    2  506  502  0.65922682419E+02  0.71414884787E+01  0.17259800291E+01  0.66330836887E+02  0.00000000000E+00 0. -1.
<scales pt_clust_3="79.96241" pt_clust_4="14000.00000" pt_clust_5="45.86175" pt_clust_6="66.29067"></scales>
<clustering>
<clus scale="   45.862">  1  5  2 -1</clus>
<clus scale="   66.291">  2  6  1 -1</clus>
<clus scale="   79.962">  1  3  2 -1</clus>
<clus scale="   45.862">  1  3  2 -1</clus>
</clustering>
</event>
<event>
 6    0  0.1189669E+003  0.9882775E+02  0.7546771E-02  0.1282781E+00
         21   -1    0    0  506  501  0.00000000000E+00  0.00000000000E+00  0.28517418442E+03  0.28517418442E+03  0.00000000000E+00 0.  1.
         21   -1    0    0  505  502 -0.00000000000E+00 -0.00000000000E+00 -0.10985961155E+04  0.10985961155E+04  0.00000000000E+00 0.  1.
         21    1    1    2  503  501 -0.77693605789E+01 -0.99605922128E+02  0.26063057385E+03  0.27912362622E+03  0.00000000000E+00 0.  1.
         21    1    1    2  504  503  0.53961221692E+02  0.70396312796E+02 -0.19520753734E+03  0.21441417149E+03  0.00000000000E+00 0.  1.
         21    1    1    2  505  504 -0.31713999999E+02 -0.16610808561E+01 -0.83031304815E+03  0.83092014954E+03  0.00000000000E+00 0.  1.
         21    1    1    2  506  502 -0.14477861114E+02  0.30870690188E+02 -0.48531919473E+02  0.59312352701E+02  0.00000000000E+00 0.  1.
<scales pt_clust_3="14000.00000" pt_clust_4="98.82775" pt_clust_5="31.75747" pt_clust_6="36.98086"></scales>
<clustering>
<clus scale="   31.757">  2  5  1 -1</clus>
<clus scale="   36.981">  2  6  1 -1</clus>
<clus scale="   98.828">  2  4  1 -1</clus>
<clus scale="   98.828">  1  3  2 -1</clus>
</clustering>
</event>
<event>
 6    0  0.5510638E+002  0.7791994E+02  0.7546771E-02  0.1335060E+00
         21   -1    0    0  503  501  0.00000000000E+00  0.00000000000E+00  0.23626196367E+03  0.23626196367E+03  0.00000000000E+00 0.  1.
         21   -1    0    0  506  502 -0.00000000000E+00 -0.00000000000E+00 -0.26750454252E+03  0.26750454252E+03  0.00000000000E+00 0. -1.
         21    1    1    2  503  504 -0.40048598349E+02  0.66986704217E+02 -0.23835738488E+02  0.81604235189E+02  0.00000000000E+00 0.  1.
         21    1    1    2  504  502 -0.46350076539E+02 -0.24809394392E+02 -0.17526312801E+03  0.18297813991E+03  0.00000000000E+00 0. -1.
         21    1    1    2  505  501  0.90468668243E+01 -0.78726210941E+02  0.11129843631E+03  0.13662724477E+03  0.00000000000E+00 0.  1.
         21    1    1    2  506  505  0.77351808063E+02  0.36548901116E+02  0.56557851329E+02  0.10255688631E+03  0.00000000000E+00 0.  1.
<scales pt_clust_3="14000.00000" pt_clust_4="52.57219" pt_clust_5="77.91994" pt_clust_6="71.89178"></scales>
<clustering>
<clus scale="   52.572">  2  4  1 -1</clus>
<clus scale="   71.892">  2  6  1 -1</clus>
<clus scale="   77.920">  1  5  2 -1</clus>
<clus scale="   77.920">  1  3  2 -1</clus>
</clustering>
</event>
<event>
 6    0  0.5510638E+002  0.1094344E+03  0.7546771E-02  0.1261621E+00
         21   -1    0    0  505  501  0.00000000000E+00  0.00000000000E+00  0.59126710472E+02  0.59126710472E+02  0.00000000000E+00 0. -1.
         21   -1    0    0  504  502 -0.00000000000E+00 -0.00000000000E+00 -0.78232471644E+03  0.78232471644E+03  0.00000000000E+00 0.  1.
         21    1    1    2  503  501  0.41563595976E+02  0.35655907800E+02 -0.23894642212E+02  0.59748056018E+02  0.00000000000E+00 0. -1.
         21    1    1    2  504  506  0.98198736001E+01 -0.63927162312E+02 -0.56904055675E+03  0.57270434538E+03  0.00000000000E+00 0.  1.
         21    1    1    2  505  502 -0.10440298587E+03  0.34718011424E+02 -0.88414694562E+02  0.14114702261E+03  0.00000000000E+00 0. -1.
         21    1    1    2  506  503  0.53019516295E+02 -0.64467569127E+01 -0.41848112451E+02  0.67852002907E+02  0.00000000000E+00 0.  1.
<scales pt_clust_3="45.90409" pt_clust_4="64.67698" pt_clust_5="99.07255" pt_clust_6="45.90409"></scales>
<clustering>
<clus scale="   45.904">  3  6 -1 -1</clus>
<clus scale="   64.677">  2  4  1 -1</clus>
<clus scale="   99.073">  2  5  1 -1</clus>
<clus scale="  109.434">  1  3  2 -1</clus>
</clustering>
</event>
<event>
 6    0  0.5510638E+002  0.1111113E+03  0.7546771E-02  0.1258526E+00
         21   -1    0    0  503  501  0.00000000000E+00  0.00000000000E+00  0.68140618263E+03  0.68140618263E+03  0.00000000000E+00 0. -1.
         21   -1    0    0  506  502 -0.00000000000E+00 -0.00000000000E+00 -0.85866460061E+02  0.85866460061E+02  0.00000000000E+00 0.  1.
         21    1    1    2  503  505  0.17105331400E+02  0.12156686663E+03  0.46812667409E+03  0.48395627738E+03  0.00000000000E+00 0. -1.
         21    1    1    2  504  501 -0.37748527685E+02 -0.10749912993E+02  0.97053808414E+02  0.10468979749E+03  0.00000000000E+00 0.  1.
         21    1    1    2  505  502  0.70129493642E+02 -0.90474112212E+02  0.45247086741E+02  0.12308943788E+03  0.00000000000E+00 0.  1.
         21    1    1    2  506  504 -0.49486297357E+02 -0.20342841422E+02 -0.14887846672E+02  0.55537129938E+02  0.00000000000E+00 0.  1.
<scales pt_clust_3="14000.00000" pt_clust_4="39.24936" pt_clust_5="111.11127" pt_clust_6="54.87008"></scales>
<clustering>
<clus scale="   39.249">  1  4  2 -1</clus>
<clus scale="   54.870">  2  6  1 -1</clus>
<clus scale="  111.111">  2  5  1 -1</clus>
<clus scale="   39.249">  1  3  2 -1</clus>
</clustering>
</event>
<event>
 6    0  0.5510638E+002  0.9807697E+02  0.7546771E-02  0.1284393E+00
         21   -1    0    0  505  501  0.00000000000E+00  0.00000000000E+00  0.15665064688E+04  0.15665064688E+04  0.00000000000E+00 0. -1.
         21   -1    0    0  503  502 -0.00000000000E+00 -0.00000000000E+00 -0.32242978783E+02  0.32242978783E+02  0.00000000000E+00 0. -1.
         21    1    1    2  503  506  0.38245142442E+02  0.16289891035E+02 -0.25034801991E+01  0.41645154382E+02  0.00000000000E+00 0. -1.
         21    1    1    2  504  502 -0.51789667283E+02 -0.10562750506E+03  0.68876078340E+03  0.69873511162E+03  0.00000000000E+00 0. -1.
         21    1    1    2  505  504  0.36846559878E+02 -0.17338442478E+01  0.17636689169E+03  0.18018311707E+03  0.00000000000E+00 0.  1.
         21    1    1    2  506  501 -0.23302035038E+02  0.91071458269E+02  0.67163929516E+03  0.67818606455E+03  0.00000000000E+00 0. -1.
<scales pt_clust_3="42.03877" pt_clust_4="14000.00000" pt_clust_5="36.88733" pt_clust_6="98.07697"></scales>
<clustering>
<clus scale="   36.887">  1  5  2 -1</clus>
<clus scale="   42.039">  2  3  1 -1</clus>
<clus scale="   98.077">  1  6  2 -1</clus>
<clus scale="   36.887">  1  3  2 -1</clus>
</clustering>
</event>
<event>
 6    0  0.5510638E+002  0.1081533E+03  0.7546771E-02  0.1264028E+00
         21   -1    0    0  503  501  0.00000000000E+00  0.00000000000E+00  0.40273652147E+03  0.40273652147E+03  0.00000000000E+00 0. -1.
         21   -1    0    0  506  502 -0.00000000000E+00 -0.00000000000E+00 -0.59938119989E+03  0.59938119989E+03  0.00000000000E+00 0.  1.
         21    1    1    2  503  504  0.10097823189E+03  0.50061334793E+02  0.36867255229E+03  0.38551548785E+03  0.00000000000E+00 0. -1.
         21    1    1    2  504  505 -0.52729912222E+02 -0.52258621556E+02 -0.49312861377E+02  0.89124438102E+02  0.00000000000E+00 0. -1.
         21    1    1    2  505  502 -0.20463357708E+02 -0.42554757677E+02 -0.35373566305E+03  0.35687333288E+03  0.00000000000E+00 0.  1.
         21    1    1    2  506  501 -0.27784961959E+02  0.44752044440E+02 -0.16226870628E+03  0.17060446252E+03  0.00000000000E+00 0.  1.
<scales pt_clust_3="108.15327" pt_clust_4="14000.00000" pt_clust_5="47.21924" pt_clust_6="44.60601"></scales>
<clustering>
<clus scale="   47.219">  2  5  1 -1</clus>
<clus scale="   44.606">  2  6  1 -1</clus>
<clus scale="  108.153">  1  3  2 -1</clus>
<clus scale="  108.153">  1  3  2 -1</clus>
</clustering>
</event>
<event>
 6    0  0.5510638E+002  0.8757988E+02  0.7546771E-02  0.1308820E+00
         21   -1    0    0  504  501  0.00000000000E+00  0.00000000000E+00  0.10064059925E+04  0.10064059925E+04  0.00000000000E+00 0.  1.
         21   -1    0    0  505  502 -0.00000000000E+00 -0.00000000000E+00 -0.14669299840E+03  0.14669299840E+03  0.00000000000E+00 0.  1.
         21    1    1    2  503  502 -0.10544166381E+03  0.37365247668E+02  0.47631048114E+03  0.48927066195E+03  0.00000000000E+00 0.  1.
         21    1    1    2  504  503  0.31337331979E+02 -0.76910082047E+02  0.43098703267E+03  0.43891572246E+03  0.00000000000E+00 0.  1.
         21    1    1    2  505  506 -0.25015973740E+02  0.24002353291E+02 -0.10412616797E+03  0.10974593733E+03  0.00000000000E+00 0.  1.
         21    1    1    2  506  501  0.99120305569E+02  0.15542481088E+02  0.56541648229E+02  0.11516666913E+03  0.00000000000E+00 0.  1.
<scales pt_clust_3="87.57988" pt_clust_4="79.90400" pt_clust_5="34.66860" pt_clust_6="14000.00000"></scales>
<clustering>
<clus scale="   34.669">  2  5  1 -1</clus>
<clus scale="   79.904">  1  4  2 -1</clus>
<clus scale="   87.580">  1  3  2 -1</clus>
<clus scale="   79.904">  1  3  2 -1</clus>
</clustering>
</event>
<event>
 6    0  0.5510638E+002  0.1117348E+03  0.7546771E-02  0.1257391E+00
         21   -1    0    0  503  501  0.00000000000E+00  0.00000000000E+00  0.15276602893E+03  0.15276602893E+03  0.00000000000E+00 0.  1.
         21   -1    0    0  506  502 -0.00000000000E+00 -0.00000000000E+00 -0.66029021574E+03  0.66029021574E+03  0.00000000000E+00 0. -1.
         21    1    1    2  503  505  0.85542813817E+02  0.22459829852E+02 -0.21831228253E+03  0.23554674622E+03  0.00000000000E+00 0. -1.
         21    1    1    2  504  501 -0.49764838866E+02  0.23658807391E+01  0.28175500344E+02  0.57236311889E+02  0.00000000000E+00 0.  1.
         21    1    1    2  505  502  0.14051040092E+02 -0.53920023395E+02 -0.40857829764E+03  0.41236031084E+03  0.00000000000E+00 0. -1.
         21    1    1    2  506  504 -0.49829015043E+02  0.29094312805E+02  0.91190893020E+02  0.10791287573E+03  0.00000000000E+00 0.  1.
<scales pt_clust_3="101.82051" pt_clust_4="42.75624" pt_clust_5="55.72074" pt_clust_6="42.75624"></scales>
<clustering>
<clus scale="   42.756">  4  6 -1 -1</clus>
<clus scale="   55.721">  2  5  1 -1</clus>
<clus scale="  101.821">  2  3  1 -1</clus>
<clus scale="  111.735">  1  3  2 -1</clus>
</clustering>
</event>
<event>
 6    0  0.5510638E+002  0.1220766E+03  0.7546771E-02  0.1239710E+00
         21   -1    0    0  505  501  0.00000000000E+00  0.00000000000E+00  0.15755081123E+03  0.15755081123E+03  0.00000000000E+00 0. -1.
         21   -1    0    0  503  502 -0.00000000000E+00 -0.00000000000E+00 -0.59314591743E+03  0.59314591743E+03  0.00000000000E+00 0. -1.
         21    1    1    2  503  506 -0.26525517627E+02 -0.42147074723E+02 -0.20109628399E+03  0.20717068911E+03  0.00000000000E+00 0.  1.
         21    1    1    2  504  502 -0.90849709999E+02  0.86051120512E+02 -0.31769719066E+03  0.34145273480E+03  0.00000000000E+00 0. -1.
         21    1    1    2  505  504  0.40053311933E+02  0.47501037902E+02  0.13649939618E+02  0.63615542521E+02  0.00000000000E+00 0. -1.
         21    1    1    2  506  501  0.77321915692E+02 -0.91405083692E+02  0.69548428829E+02  0.13845776224E+03  0.00000000000E+00 0. -1.
<scales pt_clust_3="49.79939" pt_clust_4="14000.00000" pt_clust_5="58.96811" pt_clust_6="122.07658"></scales>
<clustering>
<clus scale="   49.799">  2  3  1 -1</clus>
<clus scale="   58.968">  1  5  2 -1</clus>
<clus scale="  122.077">  1  6  2 -1</clus>
<clus scale="   58.968">  1  3  2 -1</clus>
</clustering>
</event>
<event>
 6    0  0.5510638E+002  0.9541394E+02  0.7546771E-02  0.1290247E+00
         21   -1    0    0  505  501  0.00000000000E+00  0.00000000000E+00  0.15595441385E+04  0.15595441385E+04  0.00000000000E+00 0.  1.
         21   -1    0    0  506  502 -0.00000000000E+00 -0.00000000000E+00 -0.14468237692E+03  0.14468237692E+03  0.00000000000E+00 0.  1.
         21    1    1    2  503  502  0.82130866616E+02  0.23332302047E+02  0.10445478930E+03  0.13490989059E+03  0.00000000000E+00 0.  1.
         21    1    1    2  504  501 -0.80082359279E+02  0.56667843420E+01  0.13726956339E+04  0.13750413084E+04  0.00000000000E+00 0.  1.
         21    1    1    2  505  503  0.97347871447E+01  0.29593442924E+02  0.54674505668E+02  0.62927255740E+02  0.00000000000E+00 0. -1.
         21    1    1    2  506  504 -0.11783294481E+02 -0.58592529314E+02 -0.11696316729E+03  0.13134806060E+03  0.00000000000E+00 0.  1.
<scales pt_clust_3="30.66393" pt_clust_4="80.78891" pt_clust_5="30.66393" pt_clust_6="59.76563"></scales>
<clustering>
<clus scale="   30.664">  3  5 -1 -1</clus>
<clus scale="   59.766">  2  6  1 -1</clus>
<clus scale="   80.789">  1  4  2 -1</clus>
<clus scale="   80.789">  1  3  2 -1</clus>
</clustering>
</event>
<event>
 6    0  0.5510638E+002  0.8114444E+02  0.7546771E-02  0.1325835E+00
         21   -1    0    0  505  501  0.00000000000E+00  0.00000000000E+00  0.13291258391E+04  0.13291258391E+04  0.00000000000E+00 0.  1.
         21   -1    0    0  503  502 -0.00000000000E+00 -0.00000000000E+00 -0.13387483981E+03  0.13387483981E+03  0.00000000000E+00 0.  1.
         21    1    1    2  503  506  0.42892814339E+02 -0.69127619049E+02 -0.10931472090E+03  0.13626492374E+03  0.00000000000E+00 0.  1.
         21    1    1    2  504  502 -0.56820374162E+02 -0.40573377800E+02  0.27892812698E+03  0.28753374398E+03  0.00000000000E+00 0. -1.
         21    1    1    2  505  504  0.45653226094E+02  0.38840376712E+02  0.76243370489E+03  0.76478620951E+03  0.00000000000E+00 0.  1.
         21    1    1    2  506  501 -0.31725666270E+02  0.70860620137E+02  0.26320388827E+03  0.27441580164E+03  0.00000000000E+00 0.  1.
<scales pt_clust_3="14000.00000" pt_clust_4="39.98831" pt_clust_5="59.93990" pt_clust_6="81.14444"></scales>
<clustering>
<clus scale="   59.940">  1  5  2 -1</clus>
<clus scale="   39.988">  1  4  2 -1</clus>
<clus scale="   81.144">  1  6  2 -1</clus>
<clus scale="   59.940">  1  3  2 -1</clus>
</clustering>
</event>
<event>
 6    0  0.5510638E+002  0.1542002E+03  0.7546771E-02  0.1195405E+00
         21   -1    0    0  505  501  0.00000000000E+00  0.00000000000E+00  0.91221087840E+02  0.91221087840E+02  0.00000000000E+00 0.  1.
         21   -1    0    0  504  502 -0.00000000000E+00 -0.00000000000E+00 -0.10494546481E+04  0.10494546481E+04  0.00000000000E+00 0.  1.
         21    1    1    2  503  502 -0.14406027412E+03 -0.65513603466E+02 -0.92955825964E+03  0.94293369485E+03  0.00000000000E+00 0.  1.
         21    1    1    2  504  501  0.28390913790E+02  0.13903279194E+02 -0.37442367911E+02  0.49002816990E+02  0.00000000000E+00 0. -1.
         21    1    1    2  505  506  0.32626941867E-01  0.30134801550E+02 -0.41451307575E+01  0.30418570610E+02  0.00000000000E+00 0.  1.
         21    1    1    2  506  503  0.11563673339E+03  0.21475522722E+02  0.12912198043E+02  0.11832065349E+03  0.00000000000E+00 0.  1.
<scales pt_clust_3="14000.00000" pt_clust_4="32.65712" pt_clust_5="30.13482" pt_clust_6="154.20025"></scales>
<clustering>
<clus scale="   30.135">  1  5  2 -1</clus>
<clus scale="   32.657">  1  4  2 -1</clus>
<clus scale="  154.200">  1  6  2 -1</clus>
<clus scale="   30.135">  1  3  2 -1</clus>
</clustering>
</event>
<event>
 6    0  0.5510638E+002  0.1033605E+03  0.7546771E-02  0.1273384E+00
         21   -1    0    0  505  501  0.00000000000E+00  0.00000000000E+00  0.20796604771E+03  0.20796604771E+03  0.00000000000E+00 0. -1.
         21   -1    0    0  503  502 -0.00000000000E+00 -0.00000000000E+00 -0.29550516637E+03  0.29550516637E+03  0.00000000000E+00 0. -1.
         21    1    1    2  503  504  0.24110254119E+02  0.55923516788E+02 -0.17147750632E+03  0.18197054503E+03  0.00000000000E+00 0. -1.
         21    1    1    2  504  506 -0.31051433167E+02  0.69560106811E+02 -0.71575393508E+02  0.10452672824E+03  0.00000000000E+00 0. -1.
         21    1    1    2  505  502 -0.23124453896E+02 -0.86175312651E+02  0.13828752071E+03  0.16457327627E+03  0.00000000000E+00 0. -1.
         21    1    1    2  506  501  0.30065632943E+02 -0.39308310949E+02  0.17226260470E+02  0.52400664535E+02  0.00000000000E+00 0. -1.
<scales pt_clust_3="60.18062" pt_clust_4="14000.00000" pt_clust_5="103.36053" pt_clust_6="49.48824"></scales>
<clustering>
<clus scale="   49.488">  1  6  2 -1</clus>
<clus scale="   60.181">  2  3  1 -1</clus>
<clus scale="  103.361">  1  5  2 -1</clus>
<clus scale="   49.488">  1  3  2 -1</clus>
</clustering>
</event>
<event>
 6    0  0.5510638E+002  0.1180406E+03  0.7546771E-02  0.1246365E+00
         21   -1    0    0  505  501  0.00000000000E+00  0.00000000000E+00  0.57356814810E+02  0.57356814810E+02  0.00000000000E+00 0.  1.
         21   -1    0    0  504  502 -0.00000000000E+00 -0.00000000000E+00 -0.13418626426E+04  0.13418626426E+04  0.00000000000E+00 0.  1.
         21    1    1    2  503  502 -0.79995178383E+02 -0.55453574422E+01 -0.39341348181E+03  0.40150236266E+03  0.00000000000E+00 0.  1.
         21    1    1    2  504  506  0.70284637763E+02  0.12556134142E+03 -0.83184308284E+03  0.84419695287E+03  0.00000000000E+00 0.  1.
         21    1    1    2  505  503 -0.17575493218E+02 -0.10744618158E+03 -0.58213763044E+02  0.12346020454E+03  0.00000000000E+00 0.  1.
         21    1    1    2  506  501  0.27286033837E+02 -0.12569802403E+02 -0.10355001406E+01  0.30059937385E+02  0.00000000000E+00 0.  1.
<scales pt_clust_3="77.71157" pt_clust_4="118.04063" pt_clust_5="14000.00000" pt_clust_6="30.04210"></scales>
<clustering>
<clus scale="   30.042">  1  6  2 -1</clus>
<clus scale="   77.712">  2  3  1 -1</clus>
<clus scale="  118.041">  2  4  1 -1</clus>
<clus scale="   30.042">  1  3  2 -1</clus>
</clustering>
</event>
<event>
 6    0  0.5510638E+002  0.1837273E+03  0.7546771E-02  0.1164244E+00
         21   -1    0    0  506  501  0.00000000000E+00  0.00000000000E+00  0.11277746411E+04  0.11277746411E+04  0.00000000000E+00 0.  1.
         21   -1    0    0  505  502 -0.00000000000E+00 -0.00000000000E+00 -0.39241753810E+02  0.39241753810E+02  0.00000000000E+00 0.  1.
         21    1    1    2  503  502 -0.31298374769E+02 -0.54133070397E+01  0.17146938135E+02  0.36095839701E+02  0.00000000000E+00 0. -1.
         21    1    1    2  504  503 -0.11440779437E+02 -0.49857217282E+02  0.14199622483E+03  0.15092899461E+03  0.00000000000E+00 0. -1.
         21    1    1    2  505  501  0.13854616728E+03  0.12939033514E+03  0.55296866584E+03  0.58456072798E+03  0.00000000000E+00 0.  1.
         21    1    1    2  506  504 -0.95807013074E+02 -0.74119810821E+02  0.37642105847E+03  0.39543083260E+03  0.00000000000E+00 0.  1.
<scales pt_clust_3="31.76306" pt_clust_4="34.30051" pt_clust_5="175.71437" pt_clust_6="34.30051"></scales>
<clustering>
<clus scale="   31.763">  2  3  1 -1</clus>
<clus scale="   34.301">  4  6 -1 -1</clus>
<clus scale="  175.714">  2  5  1 -1</clus>
<clus scale="  183.727">  1  3  2 -1</clus>
</clustering>
</event>
<event>
 6    0  0.5510638E+002  0.1308963E+03  0.7546771E-02  0.1226132E+00
         21   -1    0    0  503  501  0.00000000000E+00  0.00000000000E+00  0.74528156037E+02  0.74528156037E+02  0.00000000000E+00 0.  1.
         21   -1    0    0  505  502 -0.00000000000E+00 -0.00000000000E+00 -0.23156054802E+04  0.23156054802E+04  0.00000000000E+00 0.  1.
         21    1    1    2  503  506 -0.14736301336E+03 -0.16002299432E+01 -0.95206954064E+02  0.17545022811E+03  0.00000000000E+00 0.  1.
         21    1    1    2  504  501  0.24666738784E+01  0.31881696378E+02  0.97318507567E+01  0.33425079852E+02  0.00000000000E+00 0.  1.
         21    1    1    2  505  504  0.40090043024E+02 -0.16019155255E+02 -0.19460109441E+04  0.19464897687E+04  0.00000000000E+00 0.  1.
         21    1    1    2  506  502  0.10480629646E+03 -0.14262311180E+02 -0.20959127678E+03  0.23476855965E+03  0.00000000000E+00 0.  1.
<scales pt_clust_3="14000.00000" pt_clust_4="31.97698" pt_clust_5="43.12913" pt_clust_6="130.89628"></scales>
<clustering>
<clus scale="   31.977">  1  4  2 -1</clus>
<clus scale="   43.129">  2  5  1 -1</clus>
<clus scale="  130.896">  2  6  1 -1</clus>
<clus scale="   31.977">  1  3  2 -1</clus>
</clustering>
</event>
<event>
 6    0  0.5510638E+002  0.1616375E+03  0.7546771E-02  0.1186860E+00
         21   -1    0    0  506  501  0.00000000000E+00  0.00000000000E+00  0.23081386777E+04  0.23081386777E+04  0.00000000000E+00 0. -1.
         21   -1    0    0  504  502 -0.00000000000E+00 -0.00000000000E+00 -0.31089746599E+02  0.31089746599E+02  0.00000000000E+00 0. -1.
         21    1    1    2  503  505  0.96678690862E+02 -0.10424374814E+03  0.96939383660E+03  0.97976422610E+03  0.00000000000E+00 0. -1.
         21    1    1    2  504  501 -0.74318815469E+02  0.14627922067E+03  0.40092362110E+03  0.43319816099E+03  0.00000000000E+00 0. -1.
         21    1    1    2  505  502 -0.34948959702E+02 -0.35241007253E+01  0.23855756133E+02  0.42461113632E+02  0.00000000000E+00 0. -1.
         21    1    1    2  506  503  0.12589084309E+02 -0.38511371804E+02  0.88287571722E+03  0.88380492353E+03  0.00000000000E+00 0. -1.
<scales pt_clust_3="161.63753" pt_clust_4="14000.00000" pt_clust_5="35.12619" pt_clust_6="40.36329"></scales>
<clustering>
<clus scale="   35.126">  2  5  1 -1</clus>
<clus scale="   40.363">  1  6  2 -1</clus>
<clus scale="  161.638">  1  3  2 -1</clus>
<clus scale="   40.363">  1  3  2 -1</clus>
</clustering>
</event>
<event>
 6    0  0.5510638E+002  0.9635530E+02  0.7546771E-02  0.1288152E+00
         21   -1    0    0  505  501  0.00000000000E+00  0.00000000000E+00  0.21778337098E+03  0.21778337098E+03  0.00000000000E+00 0.  1.
         21   -1    0    0  504  502 -0.00000000000E+00 -0.00000000000E+00 -0.55347941617E+03  0.55347941617E+03  0.00000000000E+00 0.  1.
         21    1    1    2  503  502  0.45319365853E+02  0.77874849912E+02 -0.14638039161E+03  0.17188820849E+03  0.00000000000E+00 0.  1.
         21    1    1    2  504  501 -0.73131836982E+02  0.10078096709E+02 -0.37878592962E+03  0.38591270268E+03  0.00000000000E+00 0.  1.
         21    1    1    2  505  506 -0.15363615922E+01 -0.50239460118E+02  0.10501871506E+03  0.11642720590E+03  0.00000000000E+00 0.  1.
         21    1    1    2  506  503  0.29348832721E+02 -0.37713486503E+02  0.84451560976E+02  0.97034670080E+02  0.00000000000E+00 0.  1.
<scales pt_clust_3="90.14772" pt_clust_4="73.82299" pt_clust_5="33.17707" pt_clust_6="33.17707"></scales>
<clustering>
<clus scale="   33.177">  5  6 -1 -1</clus>
<clus scale="   73.823">  2  4  1 -1</clus>
<clus scale="   90.148">  2  3  1 -1</clus>
<clus scale="   96.355">  1  3  2 -1</clus>
</clustering>
</event>
<event>
 6    0  0.5510638E+002  0.1466049E+03  0.7546771E-02  0.1204708E+00
         21   -1    0    0  506  501  0.00000000000E+00  0.00000000000E+00  0.85024982489E+02  0.85024982489E+02  0.00000000000E+00 0.  1.
         21   -1    0    0  505  502 -0.00000000000E+00 -0.00000000000E+00 -0.68815267630E+03  0.68815267630E+03  0.00000000000E+00 0.  1.
         21    1    1    2  503  502  0.33751653759E+02  0.30770976280E+02 -0.74266226115E+02  0.87186578405E+02  0.00000000000E+00 0. -1.
         21    1    1    2  504  503  0.46785307444E+02 -0.10336565006E+03 -0.43126704336E+03  0.44594235647E+03  0.00000000000E+00 0.  1.
         21    1    1    2  505  501  0.12361178328E+02 -0.50749193600E+02 -0.62945110599E+02  0.81794659538E+02  0.00000000000E+00 0.  1.
         21    1    1    2  506  504 -0.92898139531E+02  0.12334386738E+03 -0.34649313738E+02  0.15825406438E+03  0.00000000000E+00 0.  1.
<scales pt_clust_3="45.67305" pt_clust_4="146.60490" pt_clust_5="49.85178" pt_clust_6="14000.00000"></scales>
<clustering>
<clus scale="   45.673">  2  3  1 -1</clus>
<clus scale="   49.852">  2  5  1 -1</clus>
<clus scale="  146.605">  2  4  1 -1</clus>
<clus scale="  146.605">  1  3  2 -1</clus>
</clustering>
</event>
<event>
 6    0  0.5510638E+002  0.1826372E+03  0.7546771E-02  0.1165275E+00
         21   -1    0    0  504  501  0.00000000000E+00  0.00000000000E+00  0.17712825414E+04  0.17712825414E+04  0.00000000000E+00 0.  1.
         21   -1    0    0  506  502 -0.00000000000E+00 -0.00000000000E+00 -0.12515223197E+04  0.12515223197E+04  0.00000000000E+00 0. -1.
         21    1    1    2  503  501  0.12527954548E+02 -0.13232211762E+03  0.12870357534E+04  0.12938806448E+04  0.00000000000E+00 0.  1.
         21    1    1    2  504  502 -0.18023013321E+01  0.39087608228E+02 -0.10014403923E+04  0.10022045444E+04  0.00000000000E+00 0. -1.
         21    1    1    2  505  503 -0.36286961219E+02 -0.34903856987E+02  0.46164576163E+03  0.46438328137E+03  0.00000000000E+00 0.  1.
         21    1    1    2  506  505  0.25561308002E+02  0.12813836638E+03 -0.22748090112E+03  0.26233639049E+03  0.00000000000E+00 0. -1.
<scales pt_clust_3="43.87705" pt_clust_4="39.12914" pt_clust_5="43.87705" pt_clust_6="168.16772"></scales>
<clustering>
<clus scale="   39.129">  2  4  1 -1</clus>
<clus scale="   43.877">  3  5 -1 -1</clus>
<clus scale="  168.168">  2  6  1 -1</clus>
<clus scale="  182.637">  1  3  2 -1</clus>
</clustering>
</event>
<event>
 6    0  0.5510638E+002  0.1830702E+03  0.7546771E-02  0.1164864E+00
         21   -1    0    0  503  501  0.00000000000E+00  0.00000000000E+00  0.76568044031E+03  0.76568044031E+03  0.00000000000E+00 0. -1.
         21   -1    0    0  506  502 -0.00000000000E+00 -0.00000000000E+00 -0.74393826276E+02  0.74393826276E+02  0.00000000000E+00 0. -1.
         21    1    1    2  503  505  0.98335508567E+02 -0.15312768675E+03  0.47723236842E+03  0.51075306573E+03  0.00000000000E+00 0. -1.
         21    1    1    2  504  501 -0.61760285006E+02  0.84296895669E+02  0.18345774945E+03  0.21113276689E+03  0.00000000000E+00 0. -1.
         21    1    1    2  505  502 -0.38150186922E+02  0.11894617179E+02 -0.17513947075E+02  0.43630918190E+02  0.00000000000E+00 0. -1.
         21    1    1    2  506  504  0.15749633601E+01  0.56936173902E+02  0.48110443245E+02  0.74557515767E+02  0.00000000000E+00 0. -1.
<scales pt_clust_3="170.55387" pt_clust_4="48.60889" pt_clust_5="39.96146" pt_clust_6="48.60889"></scales>
<clustering>
<clus scale="   39.961">  2  5  1 -1</clus>
<clus scale="   48.609">  4  6 -1 -1</clus>
<clus scale="  170.554">  1  3  2 -1</clus>
<clus scale="  170.554">  1  3  2 -1</clus>
</clustering>
</event>
<event>
 6    0  0.5510638E+002  0.9214588E+02  0.7546771E-02  0.1297737E+00
         21   -1    0    0  504  501  0.00000000000E+00  0.00000000000E+00  0.52395940788E+03  0.52395940788E+03  0.00000000000E+00 0. -1.
         21   -1    0    0  506  502 -0.00000000000E+00 -0.00000000000E+00 -0.11403954631E+03  0.11403954631E+03  0.00000000000E+00 0. -1.
         21    1    1    2  503  502  0.10459942312E+03  0.42460132215E+02 -0.93231909181E+01  0.11327322735E+03  0.00000000000E+00 0.  1.
         21    1    1    2  504  503 -0.32193442345E+02 -0.60467696846E+02  0.38451269650E+03  0.39056724628E+03  0.00000000000E+00 0. -1.
         21    1    1    2  505  501 -0.32718555158E+02 -0.89226437769E+01  0.67863148425E+02  0.75865172100E+02  0.00000000000E+00 0. -1.
         21    1    1    2  506  505 -0.39687425616E+02  0.26930208408E+02 -0.33132792445E+02  0.58293308468E+02  0.00000000000E+00 0. -1.
<scales pt_clust_3="92.14588" pt_clust_4="14000.00000" pt_clust_5="33.91338" pt_clust_6="48.58098"></scales>
<clustering>
<clus scale="   33.913">  1  5  2 -1</clus>
<clus scale="   48.581">  2  6  1 -1</clus>
<clus scale="   92.146">  2  3  1 -1</clus>
<clus scale="   33.913">  1  3  2 -1</clus>
</clustering>
</event>
<event>
 6    0  0.5510638E+002  0.1303829E+03  0.7546771E-02  0.1226889E+00
         21   -1    0    0  504  501  0.00000000000E+00  0.00000000000E+00  0.23296388269E+03  0.23296388269E+03  0.00000000000E+00 0.  1.
         21   -1    0    0  503  502 -0.00000000000E+00 -0.00000000000E+00 -0.35352750913E+03  0.35352750913E+03  0.00000000000E+00 0. -1.
         21    1    1    2  503  505 -0.18047939356E+02  0.13326159691E+03 -0.29851091080E+03  0.32740364260E+03  0.00000000000E+00 0. -1.
         21    1    1    2  504  502 -0.13018857841E+02 -0.32958610611E+02 -0.93871543320E+01  0.36658959878E+02  0.00000000000E+00 0.  1.
         21    1    1    2  505  506  0.21796882898E+01 -0.88698707657E+02  0.13549564230E+03  0.16196073865E+03  0.00000000000E+00 0.  1.
         21    1    1    2  506  501  0.28887108907E+02 -0.11604278638E+02  0.51838796389E+02  0.60468050694E+02  0.00000000000E+00 0.  1.
<scales pt_clust_3="14000.00000" pt_clust_4="35.53181" pt_clust_5="130.38289" pt_clust_6="31.13076"></scales>
<clustering>
<clus scale="   31.131">  1  6  2 -1</clus>
<clus scale="   35.532">  1  4  2 -1</clus>
<clus scale="  130.383">  1  5  2 -1</clus>
<clus scale="   31.131">  1  3  2 -1</clus>
</clustering>
</event>
<event>
 6    0  0.5510638E+002  0.9223467E+02  0.7546771E-02  0.1297529E+00
         21   -1    0    0  503  501  0.00000000000E+00  0.00000000000E+00  0.24018195771E+03  0.24018195771E+03  0.00000000000E+00 0. -1.
         21   -1    0    0  504  502 -0.00000000000E+00 -0.00000000000E+00 -0.17541658771E+04  0.17541658771E+04  0.00000000000E+00 0.  1.
         21    1    1    2  503  502 -0.13492687006E+01  0.76630318650E+02  0.16189189130E+03  0.17911730997E+03  0.00000000000E+00 0. -1.
         21    1    1    2  504  505  0.96318145691E+02 -0.21281919741E+02 -0.14141984887E+04  0.14176344630E+04  0.00000000000E+00 0.  1.
         21    1    1    2  505  506 -0.76660220223E+02 -0.18916407464E+01 -0.31239415726E+03  0.32166827192E+03  0.00000000000E+00 0.  1.
         21    1    1    2  506  501 -0.18308656767E+02 -0.53456758162E+02  0.50716835246E+02  0.75927789927E+02  0.00000000000E+00 0.  1.
<scales pt_clust_3="31.47588" pt_clust_4="14000.00000" pt_clust_5="92.23467" pt_clust_6="56.50515"></scales>
<clustering>
<clus scale="   56.505">  1  6  2 -1</clus>
<clus scale="   31.476">  1  3  2 -1</clus>
<clus scale="   92.235">  1  5  2 -1</clus>
<clus scale="   56.505">  1  3  2 -1</clus>
</clustering>
</event>
<event>
 6    0  0.5510638E+002  0.1320391E+03  0.7546771E-02  0.1224461E+00
         21   -1    0    0  503  501  0.00000000000E+00  0.00000000000E+00  0.10046831979E+03  0.10046831979E+03  0.00000000000E+00 0.  1.
         21   -1    0    0  504  502 -0.00000000000E+00 -0.00000000000E+00 -0.56361647814E+03  0.56361647814E+03  0.00000000000E+00 0. -1.
         21    1    1    2  503  506  0.66185851506E+02  0.10219663736E+03 -0.30073960611E+03  0.32445189214E+03  0.00000000000E+00 0. -1.
         21    1    1    2  504  505 -0.10871889556E+03 -0.89231791056E+02 -0.11649058557E+03  0.18262575753E+03  0.00000000000E+00 0.  1.
         21    1    1    2  505  501  0.65815288551E+02 -0.51881805056E+02  0.10678319780E+02  0.84483136875E+02  0.00000000000E+00 0.  1.
         21    1    1    2  506  502 -0.23282244497E+02  0.38916958753E+02 -0.56596286443E+02  0.72524011380E+02  0.00000000000E+00 0. -1.
<scales pt_clust_3="132.03912" pt_clust_4="14000.00000" pt_clust_5="80.68089" pt_clust_6="45.34967"></scales>
<clustering>
<clus scale="   45.350">  2  6  1 -1</clus>
<clus scale="   80.681">  1  5  2 -1</clus>
<clus scale="  132.039">  2  3  1 -1</clus>
<clus scale="   80.681">  1  3  2 -1</clus>
</clustering>
</event>
<event>
 6    0  0.5510638E+002  0.8408531E+02  0.7546771E-02  0.1317842E+00
         21   -1    0    0  505  501  0.00000000000E+00  0.00000000000E+00  0.39873256933E+03  0.39873256933E+03  0.00000000000E+00 0. -1.
         21   -1    0    0  503  502 -0.00000000000E+00 -0.00000000000E+00 -0.52651135158E+03  0.52651135158E+03  0.00000000000E+00 0. -1.
         21    1    1    2  503  501 -0.34681610786E+02  0.49843512857E+02  0.30717302117E+03  0.31311731801E+03  0.00000000000E+00 0. -1.
         21    1    1    2  504  502  0.37958587960E+02  0.46080113900E+02 -0.32506352672E+03  0.33050042012E+03  0.00000000000E+00 0. -1.
         21    1    1    2  505  506 -0.30515144656E+02  0.52300747194E+01  0.68264091903E+02  0.74956747383E+02  0.00000000000E+00 0. -1.
         21    1    1    2  506  504  0.27238167482E+02 -0.10115370148E+03 -0.17815236860E+03  0.20666943540E+03  0.00000000000E+00 0. -1.
<scales pt_clust_3="14000.00000" pt_clust_4="59.57392" pt_clust_5="30.96010" pt_clust_6="84.08531"></scales>
<clustering>
<clus scale="   30.960">  1  5  2 -1</clus>
<clus scale="   59.574">  2  4  1 -1</clus>
<clus scale="   84.085">  2  6  1 -1</clus>
<clus scale="   30.960">  1  3  2 -1</clus>
</clustering>
</event>
<event>
 6    0  0.1209774E+003  0.1328443E+03  0.7546771E-02  0.1223295E+00
         21   -1    0    0  503  501  0.00000000000E+00  0.00000000000E+00  0.11482450672E+04  0.11482450672E+04  0.00000000000E+00 0. -1.
         21   -1    0    0  505  502 -0.00000000000E+00 -0.00000000000E+00 -0.23557052045E+03  0.23557052045E+03  0.00000000000E+00 0. -1.
         21    1    1    2  503  504  0.68813539353E+01 -0.36044664331E+02  0.33941052235E+02  0.49985656798E+02  0.00000000000E+00 0.  1.
         21    1    1    2  504  502  0.13837775936E+02 -0.92275622533E+02 -0.61031880346E+02  0.11149513431E+03  0.00000000000E+00 0. -1.
         21    1    1    2  505  506  0.12722198347E+02 -0.42436032417E+02 -0.13060480073E+03  0.13791404987E+03  0.00000000000E+00 0. -1.
         21    1    1    2  506  501 -0.33441328218E+02  0.17075631928E+03  0.10703701756E+04  0.10844207467E+04  0.00000000000E+00 0. -1.
<scales pt_clust_3="36.69565" pt_clust_4="14000.00000" pt_clust_5="44.42263" pt_clust_6="132.84430"></scales>
<clustering>
<clus scale="   36.696">  1  3  2 -1</clus>
<clus scale="   44.423">  2  5  1 -1</clus>
<clus scale="  132.844">  1  6  2 -1</clus>
<clus scale="   36.696">  1  3  2 -1</clus>
</clustering>
</event>
<event>
 6    0  0.5510638E+002  0.2162609E+03  0.7546771E-02  0.1136702E+00
         21   -1    0    0  505  501  0.00000000000E+00  0.00000000000E+00  0.10579165233E+04  0.10579165233E+04  0.00000000000E+00 0.  1.
         21   -1    0    0  501  502 -0.00000000000E+00 -0.00000000000E+00 -0.17519435677E+03  0.17519435677E+03  0.00000000000E+00 0.  1.
         21    1    1    2  503  502  0.14082053481E+03 -0.37628381022E+02 -0.50698145608E+02  0.15432634269E+03  0.00000000000E+00 0.  1.
         21    1    1    2  504  503  0.47219773379E+02  0.37131408645E+02 -0.63643928249E+01  0.60406572506E+02  0.00000000000E+00 0.  1.
         21    1    1    2  505  506  0.95017363002E+02  0.40933494630E+02  0.30773148378E+03  0.32465753705E+03  0.00000000000E+00 0.  1.
         21    1    1    2  506  504 -0.28305767119E+03 -0.40436522253E+02  0.63205322117E+03  0.69372042779E+03  0.00000000000E+00 0.  1.
<scales pt_clust_3="55.57583" pt_clust_4="55.57583" pt_clust_5="103.45941" pt_clust_6="198.17686"></scales>
<clustering>
<clus scale="   55.576">  3  4 -1 -1</clus>
<clus scale="  103.459">  1  5  2 -1</clus>
<clus scale="  198.177">  1  6  2 -1</clus>
<clus scale="  103.459">  1  3  2 -1</clus>
</clustering>
</event>
<event>
 6    0  0.5510638E+002  0.8838110E+02  0.7546771E-02  0.1306820E+00
         21   -1    0    0  503  501  0.00000000000E+00  0.00000000000E+00  0.46948264271E+03  0.46948264271E+03  0.00000000000E+00 0. -1.
         21   -1    0    0  505  502 -0.00000000000E+00 -0.00000000000E+00 -0.11422983518E+03  0.11422983518E+03  0.00000000000E+00 0. -1.
         21    1    1    2  503  504 -0.10978628351E+03 -0.36275575001E+02  0.26755035446E+03  0.29146549978E+03  0.00000000000E+00 0. -1.
         21    1    1    2  504  506  0.59026797510E+02 -0.53847123433E+02  0.46924818652E+02  0.92658589088E+02  0.00000000000E+00 0.  1.
         21    1    1    2  505  501  0.99690967230E+01  0.35446158072E+02  0.10168004084E+03  0.10814177600E+03  0.00000000000E+00 0. -1.
         21    1    1    2  506  502  0.40790389279E+02  0.54676540362E+02 -0.60902406425E+02  0.91446613015E+02  0.00000000000E+00 0. -1.
<scales pt_clust_3="88.38110" pt_clust_4="14000.00000" pt_clust_5="36.82137" pt_clust_6="69.65775"></scales>
<clustering>
<clus scale="   36.821">  1  5  2 -1</clus>
<clus scale="   69.658">  2  6  1 -1</clus>
<clus scale="   88.381">  1  3  2 -1</clus>
<clus scale="   36.821">  1  3  2 -1</clus>
</clustering>
</event>
<event>
 6    0  0.5510638E+002  0.2525403E+03  0.7546771E-02  0.1111710E+00
         21   -1    0    0  506  501  0.00000000000E+00  0.00000000000E+00  0.31110259813E+03  0.31110259813E+03  0.00000000000E+00 0.  1.
         21   -1    0    0  504  502 -0.00000000000E+00 -0.00000000000E+00 -0.42828000548E+03  0.42828000548E+03  0.00000000000E+00 0.  1.
         21    1    1    2  503  505 -0.74114673281E+02 -0.16763941519E+03  0.12960498299E+03  0.22448476549E+03  0.00000000000E+00 0.  1.
         21    1    1    2  504  503 -0.16615114212E+02 -0.30280816495E+02 -0.14585036955E+02  0.37492841595E+02  0.00000000000E+00 0.  1.
         21    1    1    2  505  501  0.60366816170E+01 -0.63678001452E+02  0.51650449231E+02  0.82213735468E+02  0.00000000000E+00 0.  1.
         21    1    1    2  506  502  0.84693105876E+02  0.26159823314E+03 -0.28384780262E+03  0.39519126106E+03  0.00000000000E+00 0.  1.
<scales pt_clust_3="32.72108" pt_clust_4="34.53969" pt_clust_5="32.72108" pt_clust_6="246.39103"></scales>
<clustering>
<clus scale="   32.721">  3  5 -1 -1</clus>
<clus scale="   34.540">  2  4  1 -1</clus>
<clus scale="  246.391">  2  6  1 -1</clus>
<clus scale="  252.540">  1  3  2 -1</clus>
</clustering>
</event>
<event>
 6    0  0.5510638E+002  0.1221556E+03  0.7546771E-02  0.1239583E+00
         21   -1    0    0  502  501  0.00000000000E+00  0.00000000000E+00  0.36245635409E+04  0.36245635409E+04  0.00000000000E+00 0. -1.
         21   -1    0    0  504  502 -0.00000000000E+00 -0.00000000000E+00 -0.36932651803E+03  0.36932651803E+03  0.00000000000E+00 0. -1.
         21    1    1    2  503  501 -0.53248928893E+02 -0.50871416824E+02  0.22356436001E+04  0.22368561992E+04  0.00000000000E+00 0. -1.
         21    1    1    2  504  505 -0.32610154567E+02  0.69324873092E+01 -0.35840848092E+03  0.35995572055E+03  0.00000000000E+00 0. -1.
         21    1    1    2  505  506  0.97005308562E+02  0.87390718345E+02  0.46521374022E+03  0.48318836041E+03  0.00000000000E+00 0. -1.
         21    1    1    2  506  503 -0.11146225102E+02 -0.43451788830E+02  0.91278816348E+03  0.91388977874E+03  0.00000000000E+00 0. -1.
<scales pt_clust_3="30.56857" pt_clust_4="33.33889" pt_clust_5="115.70629" pt_clust_6="30.56857"></scales>
<clustering>
<clus scale="   30.569">  3  6 -1 -1</clus>
<clus scale="   33.339">  2  4  1 -1</clus>
<clus scale="  115.706">  2  5  1 -1</clus>
<clus scale="  122.156">  1  3  2 -1</clus>
</clustering>
</event>
<event>
 6    0  0.5510638E+002  0.1136501E+03  0.7546771E-02  0.1253956E+00
         21   -1    0    0  503  501  0.00000000000E+00  0.00000000000E+00  0.17041828538E+03  0.17041828538E+03  0.00000000000E+00 0.  1.
         21   -1    0    0  506  502 -0.00000000000E+00 -0.00000000000E+00 -0.92524843887E+03  0.92524843887E+03  0.00000000000E+00 0. -1.
         21    1    1    2  503  504  0.11854897259E+03 -0.91883432104E+02 -0.15141503982E+02  0.15075042003E+03  0.00000000000E+00 0.  1.
         21    1    1    2  504  502 -0.21068493270E+02 -0.24751483251E+02 -0.62369211123E+03  0.62453852319E+03  0.00000000000E+00 0. -1.
         21    1    1    2  505  501 -0.47611896479E+02  0.93240830899E+02  0.70301346673E+02  0.12610719479E+03  0.00000000000E+00 0.  1.
         21    1    1    2  506  505 -0.49868582839E+02  0.23394084456E+02 -0.18629788495E+03  0.19427058625E+03  0.00000000000E+00 0.  1.
<scales pt_clust_3="14000.00000" pt_clust_4="32.50411" pt_clust_5="113.65006" pt_clust_6="63.65564"></scales>
<clustering>
<clus scale="   32.504">  2  4  1 -1</clus>
<clus scale="   63.656">  2  6  1 -1</clus>
<clus scale="  113.650">  1  5  2 -1</clus>
<clus scale="  113.650">  1  3  2 -1</clus>
</clustering>
</event>
<event>
 6    0  0.5510638E+002  0.1571688E+03  0.7546771E-02  0.1191931E+00
         21   -1    0    0  506  501  0.00000000000E+00  0.00000000000E+00  0.11260550047E+04  0.11260550047E+04  0.00000000000E+00 0.  1.
         21   -1    0    0  503  502 -0.00000000000E+00 -0.00000000000E+00 -0.87399141078E+03  0.87399141078E+03  0.00000000000E+00 0. -1.
         21    1    1    2  503  505 -0.11506661759E+03 -0.14479082438E+03 -0.53393127058E+03  0.56505513980E+03  0.00000000000E+00 0. -1.
         21    1    1    2  504  502  0.29818678805E+02 -0.11600261727E+02 -0.55681276719E+01  0.32476510336E+02  0.00000000000E+00 0.  1.
         21    1    1    2  505  501  0.81416503438E+02  0.10491157741E+03 -0.29039889563E+03  0.31932210179E+03  0.00000000000E+00 0. -1.
         21    1    1    2  506  504  0.38314353470E+01  0.51479508704E+02  0.10819618878E+04  0.10831926636E+04  0.00000000000E+00 0.  1.
<scales pt_clust_3="14000.00000" pt_clust_4="31.99562" pt_clust_5="157.16876" pt_clust_6="51.61516"></scales>
<clustering>
<clus scale="   31.996">  2  4  1 -1</clus>
<clus scale="   51.615">  1  6  2 -1</clus>
<clus scale="  157.169">  1  5  2 -1</clus>
<clus scale="   51.615">  1  3  2 -1</clus>
</clustering>
</event>
<event>
 6    0  0.5510638E+002  0.9733181E+02  0.7546771E-02  0.1286009E+00
         21   -1    0    0  506  501  0.00000000000E+00  0.00000000000E+00  0.52453206127E+03  0.52453206127E+03  0.00000000000E+00 0. -1.
         21   -1    0    0  505  502 -0.00000000000E+00 -0.00000000000E+00 -0.17056395486E+03  0.17056395486E+03  0.00000000000E+00 0.  1.
         21    1    1    2  503  502 -0.41372402987E+02  0.10987640387E+03 -0.97032182046E+02  0.15231462244E+03  0.00000000000E+00 0.  1.
         21    1    1    2  504  501  0.34906350156E+02 -0.59544404822E+02  0.24273721360E+03  0.25235955360E+03  0.00000000000E+00 0. -1.
         21    1    1    2  505  504  0.85867460284E+02 -0.55647993447E+01  0.31668687982E+02  0.91690204089E+02  0.00000000000E+00 0.  1.
         21    1    1    2  506  503 -0.79401407452E+02 -0.44767199705E+02  0.17659438686E+03  0.19873163600E+03  0.00000000000E+00 0.  1.
<scales pt_clust_3="97.33181" pt_clust_4="69.02166" pt_clust_5="95.51386" pt_clust_6="14000.00000"></scales>
<clustering>
<clus scale="   69.022">  1  4  2 -1</clus>
<clus scale="   95.514">  2  5  1 -1</clus>
<clus scale="   97.332">  2  3  1 -1</clus>
<clus scale="   69.022">  1  3  2 -1</clus>
</clustering>
</event>
<event>
 6    0  0.5510638E+002  0.1425749E+03  0.7546771E-02  0.1209906E+00
         21   -1    0    0  503  501  0.00000000000E+00  0.00000000000E+00  0.79754499714E+02  0.79754499714E+02  0.00000000000E+00 0.  1.
         21   -1    0    0  505  502 -0.00000000000E+00 -0.00000000000E+00 -0.90053605745E+03  0.90053605745E+03  0.00000000000E+00 0. -1.
         21    1    1    2  503  502 -0.16028968872E+02  0.31661213109E+02  0.21132514336E+02  0.41303067934E+02  0.00000000000E+00 0.  1.
         21    1    1    2  504  501  0.26195781895E+02  0.52737195711E+02 -0.18958991936E+02  0.61861734342E+02  0.00000000000E+00 0.  1.
         21    1    1    2  505  506 -0.11916896887E+03 -0.11766340672E+03 -0.64025620268E+03  0.66179598480E+03  0.00000000000E+00 0. -1.
         21    1    1    2  506  504  0.10900215585E+03  0.33264997899E+02 -0.18269887746E+03  0.21532977009E+03  0.00000000000E+00 0.  1.
<scales pt_clust_3="35.48747" pt_clust_4="69.41310" pt_clust_5="14000.00000" pt_clust_6="142.57489"></scales>
<clustering>
<clus scale="   35.487">  1  3  2 -1</clus>
<clus scale="   69.413">  1  4  2 -1</clus>
<clus scale="  142.575">  1  6  2 -1</clus>
<clus scale="   35.487">  1  3  2 -1</clus>
</clustering>
</event>
<event>
 6    0  0.5510638E+002  0.1031599E+03  0.7546771E-02  0.1273788E+00
         21   -1    0    0  503  501  0.00000000000E+00  0.00000000000E+00  0.75001808000E+02  0.75001808000E+02  0.00000000000E+00 0.  1.
         21   -1    0    0  504  502 -0.00000000000E+00 -0.00000000000E+00 -0.98879410463E+03  0.98879410463E+03  0.00000000000E+00 0.  1.
         21    1    1    2  503  506  0.81300580702E+02 -0.21745445664E+01 -0.60850570580E+03  0.61391669391E+03  0.00000000000E+00 0.  1.
         21    1    1    2  504  505 -0.45631261580E+02  0.71214502643E+02 -0.20080648330E+02  0.86930718722E+02  0.00000000000E+00 0. -1.
         21    1    1    2  505  501 -0.52034502092E+02 -0.65286397536E+01  0.16047487079E+02  0.54842815268E+02  0.00000000000E+00 0.  1.
         21    1    1    2  506  502  0.16365182970E+02 -0.62511318323E+02 -0.30125342958E+03  0.30810568473E+03  0.00000000000E+00 0. -1.
<scales pt_clust_3="103.15995" pt_clust_4="14000.00000" pt_clust_5="52.44247" pt_clust_6="64.18178"></scales>
<clustering>
<clus scale="   52.442">  1  5  2 -1</clus>
<clus scale="   64.182">  2  6  1 -1</clus>
<clus scale="  103.160">  2  3  1 -1</clus>
<clus scale="   52.442">  1  3  2 -1</clus>
</clustering>
</event>
<event>
 6    0  0.5510638E+002  0.9428693E+02  0.7546771E-02  0.1292790E+00
         21   -1    0    0  505  501  0.00000000000E+00  0.00000000000E+00  0.20128288134E+03  0.20128288134E+03  0.00000000000E+00 0.  1.
         21   -1    0    0  504  502 -0.00000000000E+00 -0.00000000000E+00 -0.21837611218E+03  0.21837611218E+03  0.00000000000E+00 0.  1.
         21    1    1    2  503  501  0.25881889833E+01 -0.60796730697E+02  0.67311149514E+02  0.90739914230E+02  0.00000000000E+00 0.  1.
         21    1    1    2  504  503  0.51203878454E+02 -0.59811612533E+02 -0.52133532132E+01  0.78907827332E+02  0.00000000000E+00 0.  1.
         21    1    1    2  505  506 -0.82850044959E+02  0.94858634436E+02  0.33910840383E+02  0.13043096094E+03  0.00000000000E+00 0.  1.
         21    1    1    2  506  502  0.29057977521E+02  0.25749708794E+02 -0.11310186752E+03  0.11958029101E+03  0.00000000000E+00 0.  1.
<scales pt_clust_3="58.14307" pt_clust_4="14000.00000" pt_clust_5="94.28693" pt_clust_6="38.82542"></scales>
<clustering>
<clus scale="   38.825">  2  6  1 -1</clus>
<clus scale="   58.143">  1  3  2 -1</clus>
<clus scale="   94.287">  1  5  2 -1</clus>
<clus scale="   58.143">  1  3  2 -1</clus>
</clustering>
</event>
<event>
 6    0  0.5510638E+002  0.2784219E+03  0.7546771E-02  0.1096554E+00
         21   -1    0    0  503  501  0.00000000000E+00  0.00000000000E+00  0.10264412535E+04  0.10264412535E+04  0.00000000000E+00 0. -1.
         21   -1    0    0  506  502 -0.00000000000E+00 -0.00000000000E+00 -0.13735705736E+03  0.13735705736E+03  0.00000000000E+00 0. -1.
         21    1    1    2  503  502  0.16529388286E+03 -0.19055197038E+03  0.54923815036E+03  0.60439611758E+03  0.00000000000E+00 0. -1.
         21    1    1    2  504  501  0.45171127447E+01  0.16234923539E+03  0.22467738959E+03  0.27723204709E+03  0.00000000000E+00 0. -1.
         21    1    1    2  505  504 -0.92979553174E+02  0.75885390946E+02  0.14381679563E+03  0.18731540399E+03  0.00000000000E+00 0. -1.
         21    1    1    2  506  505 -0.76831442433E+02 -0.47682655959E+02 -0.28648139445E+02  0.94854742208E+02  0.00000000000E+00 0. -1.
<scales pt_clust_3="249.16604" pt_clust_4="117.01124" pt_clust_5="117.01124" pt_clust_6="90.42514"></scales>
<clustering>
<clus scale="   90.425">  2  6  1 -1</clus>
<clus scale="  117.011">  4  5 -1 -1</clus>
<clus scale="  249.166">  1  3  2 -1</clus>
<clus scale="  249.166">  1  3  2 -1</clus>
</clustering>
</event>
<event>
 6    0  0.5510638E+002  0.7761658E+02  0.7546771E-02  0.1335955E+00
         21   -1    0    0  505  501  0.00000000000E+00  0.00000000000E+00  0.11597803281E+04  0.11597803281E+04  0.00000000000E+00 0. -1.
         21   -1    0    0  503  502 -0.00000000000E+00 -0.00000000000E+00 -0.48205650785E+03  0.48205650785E+03  0.00000000000E+00 0. -1.
         21    1    1    2  503  506 -0.12494767058E+02 -0.28467696682E+02 -0.38613238831E+02  0.49573290905E+02  0.00000000000E+00 0. -1.
         21    1    1    2  504  502 -0.18777090169E+02  0.40334732472E+02 -0.42043612039E+03  0.42278363389E+03  0.00000000000E+00 0. -1.
         21    1    1    2  505  504 -0.62235009471E+02  0.41335209400E+02  0.95745189578E+03  0.96036239445E+03  0.00000000000E+00 0. -1.
         21    1    1    2  506  501  0.93506866698E+02 -0.53202245191E+02  0.17932128371E+03  0.20911751673E+03  0.00000000000E+00 0. -1.
<scales pt_clust_3="31.08905" pt_clust_4="33.40886" pt_clust_5="77.61658" pt_clust_6="14000.00000"></scales>
<clustering>
<clus scale="   31.089">  2  3  1 -1</clus>
<clus scale="   33.409">  2  4  1 -1</clus>
<clus scale="   77.617">  1  5  2 -1</clus>
<clus scale="   77.617">  1  3  2 -1</clus>
</clustering>
</event>
<event>
 6    0  0.5510638E+002  0.9991946E+02  0.7546771E-02  0.1280465E+00
         21   -1    0    0  505  501  0.00000000000E+00  0.00000000000E+00  0.35530082904E+02  0.35530082904E+02  0.00000000000E+00 0. -1.
         21   -1    0    0  506  502 -0.00000000000E+00 -0.00000000000E+00 -0.21047749021E+04  0.21047749021E+04  0.00000000000E+00 0. -1.
         21    1    1    2  503  501  0.47626054637E+02 -0.26259277570E+02 -0.75707510109E+01  0.54909990071E+02  0.00000000000E+00 0. -1.
         21    1    1    2  504  503  0.29054608831E+02 -0.56268685632E+02 -0.10667577408E+03  0.12405666468E+03  0.00000000000E+00 0. -1.
         21    1    1    2  505  502 -0.10485286213E+03  0.57723653651E+02 -0.15415261217E+04  0.15461658795E+04  0.00000000000E+00 0. -1.
         21    1    1    2  506  504  0.28172198660E+02  0.24804309551E+02 -0.41347217242E+03  0.41517245082E+03  0.00000000000E+00 0.  1.
<scales pt_clust_3="54.62407" pt_clust_4="99.91946" pt_clust_5="14000.00000" pt_clust_6="37.53567"></scales>
<clustering>
<clus scale="   37.536">  2  6  1 -1</clus>
<clus scale="   54.624">  1  3  2 -1</clus>
<clus scale="   99.919">  1  4  2 -1</clus>
<clus scale="   54.624">  1  3  2 -1</clus>
</clustering>
</event>
<event>
 6    0  0.7206182E+002  0.5766498E+02  0.7546771E-02  0.1407900E+00
         21   -1    0    0  506  501  0.00000000000E+00  0.00000000000E+00  0.92647092966E+03  0.92647092966E+03  0.00000000000E+00 0. -1.
         21   -1    0    0  505  502 -0.00000000000E+00 -0.00000000000E+00 -0.41416742628E+03  0.41416742628E+03  0.00000000000E+00 0.  1.
         21    1    1    2  503  502 -0.54644294127E+00  0.48250320398E+02  0.15780534786E+02  0.50768270568E+02  0.00000000000E+00 0. -1.
         21    1    1    2  504  501 -0.67271592261E+02  0.58271079636E+02  0.81022962635E+03  0.81510308137E+03  0.00000000000E+00 0. -1.
         21    1    1    2  505  504  0.52812119110E+02 -0.68629733716E+02 -0.38392947175E+03  0.39357464292E+03  0.00000000000E+00 0.  1.
         21    1    1    2  506  503  0.15005916092E+02 -0.37891666318E+02  0.70222813994E+02  0.81192361090E+02  0.00000000000E+00 0.  1.
<scales pt_clust_3="46.76835" pt_clust_4="14000.00000" pt_clust_5="57.66498" pt_clust_6="40.75483"></scales>
<clustering>
<clus scale="   40.755">  1  6  2 -1</clus>
<clus scale="   46.768">  2  3  1 -1</clus>
<clus scale="   57.665">  2  5  1 -1</clus>
<clus scale="   40.755">  1  3  2 -1</clus>
</clustering>
</event>
<event>
 6    0  0.5510638E+002  0.9059225E+02  0.7546771E-02  0.1301424E+00
         21   -1    0    0  504  501  0.00000000000E+00  0.00000000000E+00  0.92100975109E+03  0.92100975109E+03  0.00000000000E+00 0.  1.
         21   -1    0    0  503  502 -0.00000000000E+00 -0.00000000000E+00 -0.38766861032E+02  0.38766861032E+02  0.00000000000E+00 0. -1.
         21    1    1    2  503  501  0.57353523428E+02  0.74985605130E+02  0.51746535308E+02  0.10765673013E+03  0.00000000000E+00 0. -1.
         21    1    1    2  504  505 -0.50360074995E+02  0.12963046211E+02  0.16688500426E+03  0.17479926306E+03  0.00000000000E+00 0.  1.
         21    1    1    2  505  506 -0.33357020490E+02 -0.64056858579E+02  0.60085889609E+03  0.60518376132E+03  0.00000000000E+00 0.  1.
         21    1    1    2  506  502  0.26363572057E+02 -0.23891792762E+02  0.62752454396E+02  0.72136857609E+02  0.00000000000E+00 0. -1.
<scales pt_clust_3="14000.00000" pt_clust_4="48.38334" pt_clust_5="90.59225" pt_clust_6="35.57887"></scales>
<clustering>
<clus scale="   35.579">  2  6  1 -1</clus>
<clus scale="   48.383">  1  4  2 -1</clus>
<clus scale="   90.592">  1  5  2 -1</clus>
<clus scale="   48.383">  1  3  2 -1</clus>
</clustering>
</event>
<event>
 6    0  0.5510638E+002  0.1615063E+03  0.7546771E-02  0.1187007E+00
         21   -1    0    0  503  501  0.00000000000E+00  0.00000000000E+00  0.13515081723E+03  0.13515081723E+03  0.00000000000E+00 0.  1.
         21   -1    0    0  504  502 -0.00000000000E+00 -0.00000000000E+00 -0.37170888717E+03  0.37170888717E+03  0.00000000000E+00 0.  1.
         21    1    1    2  503  506 -0.76235403941E+02 -0.46927404635E+02 -0.93602799102E+02  0.12952027687E+03  0.00000000000E+00 0.  1.
         21    1    1    2  504  505  0.54457776497E+01 -0.60947438477E+02 -0.71244341335E+02  0.93914870619E+02  0.00000000000E+00 0.  1.
         21    1    1    2  505  501  0.10413256721E+03  0.12220231503E+03  0.40424294609E+02  0.16556304221E+03  0.00000000000E+00 0.  1.
         21    1    1    2  506  502 -0.33342940921E+02 -0.14327471916E+02 -0.11213522411E+03  0.11786151470E+03  0.00000000000E+00 0.  1.
<scales pt_clust_3="35.50744" pt_clust_4="61.19025" pt_clust_5="151.57254" pt_clust_6="35.50744"></scales>
<clustering>
<clus scale="   35.507">  3  6 -1 -1</clus>
<clus scale="   61.190">  2  4  1 -1</clus>
<clus scale="  151.573">  1  5  2 -1</clus>
<clus scale="  151.573">  1  3  2 -1</clus>
</clustering>
</event>
<event>
 6    0  0.5510638E+002  0.1509503E+03  0.7546771E-02  0.1199310E+00
         21   -1    0    0  504  501  0.00000000000E+00  0.00000000000E+00  0.30465624419E+03  0.30465624419E+03  0.00000000000E+00 0. -1.
         21   -1    0    0  503  502 -0.00000000000E+00 -0.00000000000E+00 -0.19957042858E+04  0.19957042858E+04  0.00000000000E+00 0. -1.
         21    1    1    2  503  501  0.14616219679E+02 -0.49419790776E+02 -0.15536433550E+02  0.53826855430E+02  0.00000000000E+00 0. -1.
         21    1    1    2  504  505  0.74000253334E+02 -0.67984811952E+02  0.18451789260E+03  0.21010669870E+03  0.00000000000E+00 0. -1.
         21    1    1    2  505  506 -0.19567955238E+03  0.10853496656E+03 -0.57947306681E+02  0.23114544456E+03  0.00000000000E+00 0. -1.
         21    1    1    2  506  502  0.10706307937E+03  0.88696361630E+01 -0.18020821940E+04  0.18052815313E+04  0.00000000000E+00 0. -1.
<scales pt_clust_3="51.53591" pt_clust_4="150.95033" pt_clust_5="14000.00000" pt_clust_6="107.48898"></scales>
<clustering>
<clus scale="   51.536">  1  3  2 -1</clus>
<clus scale="  107.489">  2  6  1 -1</clus>
<clus scale="  150.950">  1  4  2 -1</clus>
<clus scale="   51.536">  1  3  2 -1</clus>
</clustering>
</event>
<event>
 6    0  0.5510638E+002  0.1625289E+03  0.7546771E-02  0.1185871E+00
         21   -1    0    0  503  501  0.00000000000E+00  0.00000000000E+00  0.28759374896E+03  0.28759374896E+03  0.00000000000E+00 0. -1.
         21   -1    0    0  505  502 -0.00000000000E+00 -0.00000000000E+00 -0.20327662929E+03  0.20327662929E+03  0.00000000000E+00 0. -1.
         21    1    1    2  503  506 -0.20196611704E+03  0.19123705579E+02  0.61729747110E+02  0.21205327214E+03  0.00000000000E+00 0. -1.
         21    1    1    2  504  501  0.66514410505E+02  0.27100774322E+01  0.21138084438E+02  0.69845042331E+02  0.00000000000E+00 0. -1.
         21    1    1    2  505  504  0.60400694529E+02  0.40225752274E+02  0.61017113849E+02  0.94812674406E+02  0.00000000000E+00 0. -1.
         21    1    1    2  506  502  0.75051012002E+02 -0.62059535285E+02 -0.59567825721E+02  0.11415938938E+03  0.00000000000E+00 0. -1.
<scales pt_clust_3="154.93190" pt_clust_4="47.03566" pt_clust_5="47.03566" pt_clust_6="97.38604"></scales>
<clustering>
<clus scale="   47.036">  4  5 -1 -1</clus>
<clus scale="   97.386">  2  6  1 -1</clus>
<clus scale="  154.932">  2  3  1 -1</clus>
<clus scale="  162.529">  1  3  2 -1</clus>
</clustering>
</event>
<event>
 6    0  0.5510638E+002  0.1356606E+03  0.7546771E-02  0.1219290E+00
         21   -1    0    0  505  501  0.00000000000E+00  0.00000000000E+00  0.72376893230E+03  0.72376893230E+03  0.00000000000E+00 0. -1.
         21   -1    0    0  504  502 -0.00000000000E+00 -0.00000000000E+00 -0.12457431965E+03  0.12457431965E+03  0.00000000000E+00 0. -1.
         21    1    1    2  503  506  0.15844939487E+02  0.55828626343E+02  0.21417096721E+03  0.22189434608E+03  0.00000000000E+00 0. -1.
         21    1    1    2  504  503 -0.58040251295E+02 -0.98797918629E+02  0.20445046227E+02  0.11639458497E+03  0.00000000000E+00 0. -1.
         21    1    1    2  505  502  0.65722338929E+02 -0.34090882577E+02 -0.48945477767E+02  0.88754007814E+02  0.00000000000E+00 0. -1.
         21    1    1    2  506  501 -0.23527027121E+02  0.77060174864E+02  0.41352407698E+03  0.42130031307E+03  0.00000000000E+00 0. -1.
<scales pt_clust_3="37.76288" pt_clust_4="128.15596" pt_clust_5="74.03792" pt_clust_6="37.76288"></scales>
<clustering>
<clus scale="   37.763">  3  6 -1 -1</clus>
<clus scale="   74.038">  2  5  1 -1</clus>
<clus scale="  128.156">  2  4  1 -1</clus>
<clus scale="  135.661">  1  3  2 -1</clus>
</clustering>
</event>
<event>
 6    0  0.5510638E+002  0.1383418E+03  0.7546771E-02  0.1215578E+00
         21   -1    0    0  502  501  0.00000000000E+00  0.00000000000E+00  0.23087964385E+04  0.23087964385E+04  0.00000000000E+00 0. -1.
         21   -1    0    0  505  502 -0.00000000000E+00 -0.00000000000E+00 -0.33696469038E+02  0.33696469038E+02  0.00000000000E+00 0. -1.
         21    1    1    2  503  506 -0.72184418124E+02 -0.36127748159E+02  0.58678557481E+03  0.59231167067E+03  0.00000000000E+00 0. -1.
         21    1    1    2  504  503  0.12548818003E+03  0.19769565566E+02  0.90990097233E+03  0.91872623697E+03  0.00000000000E+00 0. -1.
         21    1    1    2  505  504 -0.38633063425E+01  0.31192348936E+02 -0.16067191640E+02  0.35299325988E+02  0.00000000000E+00 0. -1.
         21    1    1    2  506  501 -0.49440455559E+02 -0.14834166342E+02  0.79448061398E+03  0.79615567393E+03  0.00000000000E+00 0. -1.
<scales pt_clust_3="41.00542" pt_clust_4="128.77463" pt_clust_5="31.43068" pt_clust_6="41.00542"></scales>
<clustering>
<clus scale="   31.431">  2  5  1 -1</clus>
<clus scale="   41.005">  3  6 -1 -1</clus>
<clus scale="  128.775">  2  4  1 -1</clus>
<clus scale="  138.342">  1  3  2 -1</clus>
</clustering>
</event>
<event>
 6    0  0.5510638E+002  0.2523098E+03  0.7546771E-02  0.1111854E+00
         21   -1    0    0  505  501  0.00000000000E+00  0.00000000000E+00  0.94271165375E+02  0.94271165375E+02  0.00000000000E+00 0. -1.
         21   -1    0    0  506  502 -0.00000000000E+00 -0.00000000000E+00 -0.90182589604E+03  0.90182589604E+03  0.00000000000E+00 0. -1.
         21    1    1    2  503  501  0.19362606028E+03  0.16741046967E+03 -0.22938433620E+03  0.34370698315E+03  0.00000000000E+00 0. -1.
         21    1    1    2  504  502 -0.14641983982E+03 -0.97983452736E+02 -0.30004977395E+03  0.34795027425E+03  0.00000000000E+00 0. -1.
         21    1    1    2  505  504 -0.20636127485E+02 -0.47681893349E+02 -0.44791256598E+02  0.68597881735E+02  0.00000000000E+00 0. -1.
         21    1    1    2  506  503 -0.26570092972E+02 -0.21745123581E+02 -0.23332936392E+03  0.23584192228E+03  0.00000000000E+00 0. -1.
<scales pt_clust_3="241.22455" pt_clust_4="39.35078" pt_clust_5="39.35078" pt_clust_6="34.33395"></scales>
<clustering>
<clus scale="   34.334">  2  6  1 -1</clus>
<clus scale="   39.351">  4  5 -1 -1</clus>
<clus scale="  241.225">  1  3  2 -1</clus>
<clus scale="  241.225">  1  3  2 -1</clus>
</clustering>
</event>
<event>
 6    0  0.5510638E+002  0.1076010E+03  0.7546771E-02  0.1265078E+00
         21   -1    0    0  503  501  0.00000000000E+00  0.00000000000E+00  0.27741603275E+03  0.27741603275E+03  0.00000000000E+00 0. -1.
         21   -1    0    0  505  502 -0.00000000000E+00 -0.00000000000E+00 -0.13435110956E+04  0.13435110956E+04  0.00000000000E+00 0.  1.
         21    1    1    2  503  504 -0.69078795260E+02  0.63872164551E+01  0.21525165251E+03  0.22615470456E+03  0.00000000000E+00 0. -1.
         21    1    1    2  504  506 -0.28950033263E+02 -0.66842568278E+02  0.21358385820E+02  0.75909248480E+02  0.00000000000E+00 0. -1.
         21    1    1    2  505  501 -0.18706202761E+02  0.31873784064E+02 -0.60763598803E+02  0.71120145330E+02  0.00000000000E+00 0.  1.
         21    1    1    2  506  502  0.11673503128E+03  0.28581567759E+02 -0.12419415024E+04  0.12477430300E+04  0.00000000000E+00 0.  1.
<scales pt_clust_3="69.46558" pt_clust_4="107.60100" pt_clust_5="36.95754" pt_clust_6="14000.00000"></scales>
<clustering>
<clus scale="   36.958">  2  5  1 -1</clus>
<clus scale="   69.466">  1  3  2 -1</clus>
<clus scale="  107.601">  1  4  2 -1</clus>
<clus scale="   69.466">  1  3  2 -1</clus>
</clustering>
</event>
<event>
 6    0  0.5510638E+002  0.9763070E+02  0.7546771E-02  0.1285359E+00
         21   -1    0    0  506  501  0.00000000000E+00  0.00000000000E+00  0.32786608575E+04  0.32786608575E+04  0.00000000000E+00 0.  1.
         21   -1    0    0  504  502 -0.00000000000E+00 -0.00000000000E+00 -0.17336331296E+02  0.17336331296E+02  0.00000000000E+00 0.  1.
         21    1    1    2  503  505  0.98048722753E+02  0.21064089130E+02  0.10536472662E+04  0.10584090936E+04  0.00000000000E+00 0.  1.
         21    1    1    2  504  503  0.23877825505E+02  0.44527097711E+02  0.43376860076E+02  0.66591027710E+02  0.00000000000E+00 0.  1.
         21    1    1    2  505  501 -0.79486731627E+02 -0.59790414264E+02  0.19456368531E+04  0.19481775582E+04  0.00000000000E+00 0.  1.
         21    1    1    2  506  502 -0.42439816630E+02 -0.58007725776E+01  0.21866354687E+03  0.22281950931E+03  0.00000000000E+00 0.  1.
<scales pt_clust_3="97.63070" pt_clust_4="40.98577" pt_clust_5="14000.00000" pt_clust_6="42.83441"></scales>
<clustering>
<clus scale="   42.834">  2  6  1 -1</clus>
<clus scale="   40.986">  2  4  1 -1</clus>
<clus scale="   97.631">  2  3  1 -1</clus>
<clus scale="   97.631">  1  3  2 -1</clus>
</clustering>
</event>
<event>
 6    0  0.5510638E+002  0.1355652E+03  0.7546771E-02  0.1219424E+00
         21   -1    0    0  506  501  0.00000000000E+00  0.00000000000E+00  0.44921957551E+02  0.44921957551E+02  0.00000000000E+00 0. -1.
         21   -1    0    0  504  502 -0.00000000000E+00 -0.00000000000E+00 -0.84891949401E+03  0.84891949401E+03  0.00000000000E+00 0. -1.
         21    1    1    2  503  501  0.41805430134E+02 -0.71338955948E+02 -0.12722658279E+03  0.15173511127E+03  0.00000000000E+00 0. -1.
         21    1    1    2  504  505  0.21512994372E+02  0.22318759287E+02 -0.44546473228E+03  0.44654200659E+03  0.00000000000E+00 0. -1.
         21    1    1    2  505  503 -0.10016353474E+02 -0.60468407663E+02 -0.91867604994E+02  0.11043736917E+03  0.00000000000E+00 0. -1.
         21    1    1    2  506  502 -0.53302071032E+02  0.10948860432E+03 -0.13943861639E+03  0.18512696453E+03  0.00000000000E+00 0. -1.
<scales pt_clust_3="40.08997" pt_clust_4="30.99897" pt_clust_5="40.08997" pt_clust_6="126.60770"></scales>
<clustering>
<clus scale="   30.999">  2  4  1 -1</clus>
<clus scale="   40.090">  3  5 -1 -1</clus>
<clus scale="  126.608">  1  6  2 -1</clus>
<clus scale="  126.608">  1  3  2 -1</clus>
</clustering>
</event>
<event>
 6    0  0.5510638E+002  0.2155643E+03  0.7546771E-02  0.1137234E+00
         21   -1    0    0  505  501  0.00000000000E+00  0.00000000000E+00  0.14618826850E+04  0.14618826850E+04  0.00000000000E+00 0.  1.
         21   -1    0    0  506  502 -0.00000000000E+00 -0.00000000000E+00 -0.10375060051E+03  0.10375060051E+03  0.00000000000E+00 0. -1.
         21    1    1    2  503  502  0.47255105884E+02  0.20167248311E+03  0.42629282353E+02  0.21147598254E+03  0.00000000000E+00 0. -1.
         21    1    1    2  504  501 -0.76892070841E+02 -0.14744040833E+03  0.87226548604E+03  0.88797417907E+03  0.00000000000E+00 0.  1.
         21    1    1    2  505  503  0.69941846117E+02 -0.41086657156E+02  0.15595398045E+03  0.17578856406E+03  0.00000000000E+00 0.  1.
         21    1    1    2  506  504 -0.40304881159E+02 -0.13145417626E+02  0.28728333568E+03  0.29039455988E+03  0.00000000000E+00 0. -1.
<scales pt_clust_3="204.91821" pt_clust_4="33.78273" pt_clust_5="81.11705" pt_clust_6="33.78273"></scales>
<clustering>
<clus scale="   33.783">  4  6 -1 -1</clus>
<clus scale="   81.117">  1  5  2 -1</clus>
<clus scale="  204.918">  2  3  1 -1</clus>
<clus scale="   81.117">  1  3  2 -1</clus>
</clustering>
</event>
<event>
 6    0  0.5510638E+002  0.1528012E+03  0.7546771E-02  0.1197073E+00
         21   -1    0    0  504  501  0.00000000000E+00  0.00000000000E+00  0.75960747085E+03  0.75960747085E+03  0.00000000000E+00 0. -1.
         21   -1    0    0  505  502 -0.00000000000E+00 -0.00000000000E+00 -0.83660682050E+03  0.83660682050E+03  0.00000000000E+00 0. -1.
         21    1    1    2  503  502  0.21076709850E+02 -0.41810499894E+02 -0.64339094752E+02  0.79573014980E+02  0.00000000000E+00 0.  1.
         21    1    1    2  504  506 -0.28508861147E+02 -0.10330504578E+03  0.51551187727E+03  0.52653317393E+03  0.00000000000E+00 0. -1.
         21    1    1    2  505  501  0.96852341371E+02 -0.34621759822E+02  0.20531888861E+03  0.22964078101E+03  0.00000000000E+00 0. -1.
         21    1    1    2  506  503 -0.89420190074E+02  0.17973730550E+03 -0.73349102078E+03  0.76046732142E+03  0.00000000000E+00 0. -1.
<scales pt_clust_3="46.82249" pt_clust_4="14000.00000" pt_clust_5="103.39522" pt_clust_6="152.80120"></scales>
<clustering>
<clus scale="   46.822">  2  3  1 -1</clus>
<clus scale="  103.395">  1  5  2 -1</clus>
<clus scale="  152.801">  2  6  1 -1</clus>
<clus scale="  103.395">  1  3  2 -1</clus>
</clustering>
</event>
<event>
 6    0  0.5510638E+002  0.1155761E+03  0.7546771E-02  0.1250579E+00
         21   -1    0    0  505  501  0.00000000000E+00  0.00000000000E+00  0.25850044759E+03  0.25850044759E+03  0.00000000000E+00 0. -1.
         21   -1    0    0  503  502 -0.00000000000E+00 -0.00000000000E+00 -0.19738941670E+03  0.19738941670E+03  0.00000000000E+00 0. -1.
         21    1    1    2  503  504  0.48412000801E+02 -0.19420109436E+02 -0.32953731006E+02  0.61699358662E+02  0.00000000000E+00 0. -1.
         21    1    1    2  504  501  0.89989786499E+02  0.58869055237E+02  0.13178748249E+03  0.17009311532E+03  0.00000000000E+00 0. -1.
         21    1    1    2  505  506 -0.11088405737E+03 -0.88398922478E+02  0.20412684241E+02  0.14327009929E+03  0.00000000000E+00 0. -1.
         21    1    1    2  506  502 -0.27517729932E+02  0.48949976678E+02 -0.58135404837E+02  0.80827291016E+02  0.00000000000E+00 0. -1.
<scales pt_clust_3="52.16189" pt_clust_4="115.57612" pt_clust_5="14000.00000" pt_clust_6="40.28261"></scales>
<clustering>
<clus scale="   52.162">  2  3  1 -1</clus>
<clus scale="   40.283">  2  6  1 -1</clus>
<clus scale="  115.576">  1  4  2 -1</clus>
<clus scale="  115.576">  1  3  2 -1</clus>
</clustering>
</event>
<event>
 6    0  0.5510638E+002  0.1013976E+03  0.7546771E-02  0.1277384E+00
         21   -1    0    0  503  501  0.00000000000E+00  0.00000000000E+00  0.10963321037E+04  0.10963321037E+04  0.00000000000E+00 0.  1.
         21   -1    0    0  506  502 -0.00000000000E+00 -0.00000000000E+00 -0.10660110654E+03  0.10660110654E+03  0.00000000000E+00 0. -1.
         21    1    1    2  503  505 -0.49951111638E+02  0.25320977152E+02  0.50224818654E+03  0.50536076848E+03  0.00000000000E+00 0.  1.
         21    1    1    2  504  501  0.89277314103E+02 -0.11689309121E+03  0.94198112991E+02  0.17466458736E+03  0.00000000000E+00 0. -1.
         21    1    1    2  505  502 -0.93890549951E+01  0.40888603194E+02  0.44353327093E+03  0.44551295677E+03  0.00000000000E+00 0.  1.
         21    1    1    2  506  504 -0.29937147469E+02  0.50683510859E+02 -0.50248573260E+02  0.77394897676E+02  0.00000000000E+00 0. -1.
<scales pt_clust_3="36.24153" pt_clust_4="92.34800" pt_clust_5="36.24153" pt_clust_6="58.86468"></scales>
<clustering>
<clus scale="   36.242">  3  5 -1 -1</clus>
<clus scale="   58.865">  2  6  1 -1</clus>
<clus scale="   92.348">  2  4  1 -1</clus>
<clus scale="  101.398">  1  3  2 -1</clus>
</clustering>
</event>
<event>
 6    0  0.5510638E+002  0.1046937E+03  0.7546771E-02  0.1270724E+00
         21   -1    0    0  503  501  0.00000000000E+00  0.00000000000E+00  0.16679999220E+03  0.16679999220E+03  0.00000000000E+00 0. -1.
         21   -1    0    0  504  502 -0.00000000000E+00 -0.00000000000E+00 -0.60238767046E+03  0.60238767046E+03  0.00000000000E+00 0. -1.
         21    1    1    2  503  502  0.25679326628E+02 -0.44915698497E+02  0.93323310800E+02  0.10670561431E+03  0.00000000000E+00 0. -1.
         21    1    1    2  504  506 -0.63341984352E+02  0.83637203274E+02 -0.27264164583E+03  0.29213157275E+03  0.00000000000E+00 0. -1.
         21    1    1    2  505  501 -0.80817074888E+02 -0.13918571779E+02  0.52504505293E+01  0.82174773895E+02  0.00000000000E+00 0. -1.
         21    1    1    2  506  505  0.11847973261E+03 -0.24802932997E+02 -0.26151979376E+03  0.28817570171E+03  0.00000000000E+00 0. -1.
<scales pt_clust_3="51.73826" pt_clust_4="104.69366" pt_clust_5="77.28877" pt_clust_6="14000.00000"></scales>
<clustering>
<clus scale="   51.738">  1  3  2 -1</clus>
<clus scale="   77.289">  1  5  2 -1</clus>
<clus scale="  104.694">  2  4  1 -1</clus>
<clus scale="   51.738">  1  3  2 -1</clus>
</clustering>
</event>
<event>
 6    0  0.5510638E+002  0.1158078E+03  0.7546771E-02  0.1250178E+00
         21   -1    0    0  503  501  0.00000000000E+00  0.00000000000E+00  0.10374589115E+04  0.10374589115E+04  0.00000000000E+00 0.  1.
         21   -1    0    0  505  502 -0.00000000000E+00 -0.00000000000E+00 -0.26455045484E+02  0.26455045484E+02  0.00000000000E+00 0.  1.
         21    1    1    2  503  502  0.87128080328E+02  0.88766489454E+02  0.78911039486E+03  0.79885293222E+03  0.00000000000E+00 0.  1.
         21    1    1    2  504  501 -0.35216073025E+02 -0.23891720500E+02  0.11973500524E+03  0.12707264689E+03  0.00000000000E+00 0.  1.
         21    1    1    2  505  506 -0.33888777348E+02 -0.22639684421E+02  0.23883091322E+02  0.47237766585E+02  0.00000000000E+00 0.  1.
         21    1    1    2  506  504 -0.18023229955E+02 -0.42235084532E+02  0.78275374638E+02  0.90750611338E+02  0.00000000000E+00 0.  1.
<scales pt_clust_3="111.26438" pt_clust_4="30.92085" pt_clust_5="40.75542" pt_clust_6="30.92085"></scales>
<clustering>
<clus scale="   30.921">  4  6 -1 -1</clus>
<clus scale="   40.755">  2  5  1 -1</clus>
<clus scale="  111.264">  1  3  2 -1</clus>
<clus scale="  111.264">  1  3  2 -1</clus>
</clustering>
</event>
<event>
 6    0  0.5510638E+002  0.1077089E+03  0.7546771E-02  0.1264872E+00
         21   -1    0    0  506  501  0.00000000000E+00  0.00000000000E+00  0.55572011318E+03  0.55572011318E+03  0.00000000000E+00 0.  1.
         21   -1    0    0  504  502 -0.00000000000E+00 -0.00000000000E+00 -0.52290414051E+02  0.52290414051E+02  0.00000000000E+00 0.  1.
         21    1    1    2  503  502 -0.24012030356E+02  0.11767372123E+03  0.55272156120E+02  0.13220701007E+03  0.00000000000E+00 0.  1.
         21    1    1    2  504  501 -0.26543154470E+02 -0.23571757045E+02  0.74956334947E+02  0.82937439845E+02  0.00000000000E+00 0. -1.
         21    1    1    2  505  503  0.22783451882E+02 -0.62902361061E+02  0.30980755792E+03  0.31694875871E+03  0.00000000000E+00 0.  1.
         21    1    1    2  506  505  0.27771732943E+02 -0.31199603120E+02  0.63393650144E+02  0.75917318605E+02  0.00000000000E+00 0.  1.
<scales pt_clust_3="107.70889" pt_clust_4="35.49883" pt_clust_5="14000.00000" pt_clust_6="42.08420"></scales>
<clustering>
<clus scale="   35.499">  1  4  2 -1</clus>
<clus scale="   42.084">  1  6  2 -1</clus>
<clus scale="  107.709">  2  3  1 -1</clus>
<clus scale="   35.499">  1  3  2 -1</clus>
</clustering>
</event>
<event>
 6    0  0.5510638E+002  0.8295978E+02  0.7546771E-02  0.1320856E+00
         21   -1    0    0  506  501  0.00000000000E+00  0.00000000000E+00  0.10941145314E+04  0.10941145314E+04  0.00000000000E+00 0. -1.
         21   -1    0    0  505  502 -0.00000000000E+00 -0.00000000000E+00 -0.13451725032E+03  0.13451725032E+03  0.00000000000E+00 0. -1.
         21    1    1    2  503  501  0.71563344033E+02  0.41628907597E+02  0.76267879898E+03  0.76715919376E+03  0.00000000000E+00 0. -1.
         21    1    1    2  504  502 -0.61151041342E+01 -0.31109086596E+02  0.24223866679E+02  0.39899442155E+02  0.00000000000E+00 0. -1.
         21    1    1    2  505  503  0.10856224278E+01 -0.55881050943E+02 -0.11228963062E+03  0.12543058469E+03  0.00000000000E+00 0. -1.
         21    1    1    2  506  504 -0.66533862327E+02  0.45361229943E+02  0.28498424609E+03  0.29614256117E+03  0.00000000000E+00 0.  1.
<scales pt_clust_3="14000.00000" pt_clust_4="31.70441" pt_clust_5="82.95978" pt_clust_6="79.98678"></scales>
<clustering>
<clus scale="   31.704">  2  4  1 -1</clus>
<clus scale="   79.987">  1  6  2 -1</clus>
<clus scale="   82.960">  2  5  1 -1</clus>
<clus scale="   79.987">  1  3  2 -1</clus>
</clustering>
</event>
<event>
 6    0  0.5510638E+002  0.9913292E+02  0.7546771E-02  0.1282130E+00
         21   -1    0    0  504  501  0.00000000000E+00  0.00000000000E+00  0.93477607840E+03  0.93477607840E+03  0.00000000000E+00 0. -1.
         21   -1    0    0  505  502 -0.00000000000E+00 -0.00000000000E+00 -0.49490645067E+02  0.49490645067E+02  0.00000000000E+00 0.  1.
         21    1    1    2  503  506 -0.93439972795E+02  0.23887322008E+02  0.61833810377E+03  0.62581438401E+03  0.00000000000E+00 0. -1.
         21    1    1    2  504  502  0.37494370590E+02  0.57190250918E+02  0.63771903569E+02  0.93506193970E+02  0.00000000000E+00 0. -1.
         21    1    1    2  505  503  0.46907313502E+02 -0.11326382114E+03  0.10560311942E+03  0.16180546366E+03  0.00000000000E+00 0.  1.
         21    1    1    2  506  501  0.90382887020E+01  0.32186248209E+02  0.97572306577E+02  0.10314068182E+03  0.00000000000E+00 0. -1.
<scales pt_clust_3="99.13292" pt_clust_4="71.39547" pt_clust_5="14000.00000" pt_clust_6="33.43120"></scales>
<clustering>
<clus scale="   33.431">  1  6  2 -1</clus>
<clus scale="   71.395">  2  4  1 -1</clus>
<clus scale="   99.133">  1  3  2 -1</clus>
<clus scale="   33.431">  1  3  2 -1</clus>
</clustering>
</event>
<event>
 6    0  0.5510638E+002  0.7582125E+02  0.7546771E-02  0.1341347E+00
         21   -1    0    0  503  501  0.00000000000E+00  0.00000000000E+00  0.16543535589E+03  0.16543535589E+03  0.00000000000E+00 0.  1.
         21   -1    0    0  504  502 -0.00000000000E+00 -0.00000000000E+00 -0.27873978461E+03  0.27873978461E+03  0.00000000000E+00 0. -1.
         21    1    1    2  503  502  0.18239250528E+02  0.43699108022E+02 -0.10555744377E+03  0.11569207509E+03  0.00000000000E+00 0. -1.
         21    1    1    2  504  505 -0.66902918863E+01 -0.12037604155E+03 -0.12801277304E+03  0.17584772232E+03  0.00000000000E+00 0. -1.
         21    1    1    2  505  506  0.18519276377E+02  0.46540133088E+02  0.77612625895E+02  0.92372437901E+02  0.00000000000E+00 0.  1.
         21    1    1    2  506  501 -0.30068235019E+02  0.30136800436E+02  0.42653162197E+02  0.60262905200E+02  0.00000000000E+00 0. -1.
<scales pt_clust_3="48.10614" pt_clust_4="14000.00000" pt_clust_5="75.82125" pt_clust_6="42.57142"></scales>
<clustering>
<clus scale="   42.571">  1  6  2 -1</clus>
<clus scale="   48.106">  2  3  1 -1</clus>
<clus scale="   75.821">  1  5  2 -1</clus>
<clus scale="   42.571">  1  3  2 -1</clus>
</clustering>
</event>
<event>
 6    0  0.5510638E+002  0.1478672E+03  0.7546771E-02  0.1203119E+00
         21   -1    0    0  503  501  0.00000000000E+00  0.00000000000E+00  0.10679951681E+04  0.10679951681E+04  0.00000000000E+00 0. -1.
         21   -1    0    0  504  502 -0.00000000000E+00 -0.00000000000E+00 -0.18008710975E+03  0.18008710975E+03  0.00000000000E+00 0.  1.
         21    1    1    2  503  502  0.53486229116E+02 -0.42356936964E-02  0.20044680108E+03  0.20746010891E+03  0.00000000000E+00 0.  1.
         21    1    1    2  504  505 -0.56506809484E+02  0.12572927136E+03 -0.14314986831E+03  0.19872783899E+03  0.00000000000E+00 0.  1.
         21    1    1    2  505  506 -0.22872118024E+02 -0.91951558176E+02  0.58476054276E+03  0.59238763930E+03  0.00000000000E+00 0. -1.
         21    1    1    2  506  501  0.25892698392E+02 -0.33773477488E+02  0.24585058282E+03  0.24950669067E+03  0.00000000000E+00 0.  1.
<scales pt_clust_3="53.48623" pt_clust_4="137.14732" pt_clust_5="37.04372" pt_clust_6="37.04372"></scales>
<clustering>
<clus scale="   37.044">  5  6 -1 -1</clus>
<clus scale="   53.486">  1  3  2 -1</clus>
<clus scale="  137.147">  2  4  1 -1</clus>
<clus scale="   53.486">  1  3  2 -1</clus>
</clustering>
</event>
<event>
 6    0  0.5510638E+002  0.2143058E+03  0.7546771E-02  0.1138201E+00
         21   -1    0    0  503  501  0.00000000000E+00  0.00000000000E+00  0.10654649232E+04  0.10654649232E+04  0.00000000000E+00 0. -1.
         21   -1    0    0  505  502 -0.00000000000E+00 -0.00000000000E+00 -0.12329538973E+03  0.12329538973E+03  0.00000000000E+00 0.  1.
         21    1    1    2  503  504  0.80067474637E+02  0.74420262870E+02  0.62441597093E+03  0.63391204498E+03  0.00000000000E+00 0. -1.
         21    1    1    2  504  502  0.48642416119E+02  0.85060801341E+02  0.32837746352E+03  0.34268525372E+03  0.00000000000E+00 0. -1.
         21    1    1    2  505  506 -0.79394002135E+02 -0.11283153628E+03 -0.30765982598E+02  0.14135384268E+03  0.00000000000E+00 0.  1.
         21    1    1    2  506  501 -0.49315888621E+02 -0.46649527932E+02  0.20142081648E+02  0.70809171580E+02  0.00000000000E+00 0.  1.
<scales pt_clust_3="59.32705" pt_clust_4="59.32705" pt_clust_5="211.89686" pt_clust_6="37.77335"></scales>
<clustering>
<clus scale="   37.773">  5  6 -1 -1</clus>
<clus scale="   59.327">  3  4 -1 -1</clus>
<clus scale="  211.897">  2  5  1 -1</clus>
<clus scale="  214.306">  1  3  2 -1</clus>
</clustering>
</event>
<event>
 6    0  0.5510638E+002  0.5219505E+02  0.7546771E-02  0.1433849E+00
         21   -1    0    0  506  501  0.00000000000E+00  0.00000000000E+00  0.34437298194E+03  0.34437298194E+03  0.00000000000E+00 0.  1.
         21   -1    0    0  503  502 -0.00000000000E+00 -0.00000000000E+00 -0.33310608833E+03  0.33310608833E+03  0.00000000000E+00 0. -1.
         21    1    1    2  503  505 -0.45597248294E+02  0.13822743956E+02 -0.54064381055E+02  0.72063406812E+02  0.00000000000E+00 0.  1.
         21    1    1    2  504  502  0.80876632563E+02 -0.52344990498E+02 -0.25063726879E+03  0.26851455870E+03  0.00000000000E+00 0. -1.
         21    1    1    2  505  501 -0.52961361171E+02 -0.18954826480E+02  0.13695543452E+03  0.14805736141E+03  0.00000000000E+00 0.  1.
         21    1    1    2  506  504  0.17681976902E+02  0.57477073021E+02  0.17901310894E+03  0.18884374335E+03  0.00000000000E+00 0.  1.
<scales pt_clust_3="47.64638" pt_clust_4="53.83289" pt_clust_5="52.19505" pt_clust_6="14000.00000"></scales>
<clustering>
<clus scale="   47.646">  2  3  1 -1</clus>
<clus scale="   53.833">  2  4  1 -1</clus>
<clus scale="   52.195">  2  5  1 -1</clus>
<clus scale="   52.195">  1  3  2 -1</clus>
</clustering>
</event>
<event>
 6    0  0.5510638E+002  0.1088117E+03  0.7546771E-02  0.1262786E+00
         21   -1    0    0  506  501  0.00000000000E+00  0.00000000000E+00  0.87587265164E+03  0.87587265164E+03  0.00000000000E+00 0. -1.
         21   -1    0    0  505  502 -0.00000000000E+00 -0.00000000000E+00 -0.59196357869E+03  0.59196357869E+03  0.00000000000E+00 0.  1.
         21    1    1    2  503  502 -0.17694123984E+02  0.25901834320E+02 -0.70471210877E+02  0.77137400832E+02  0.00000000000E+00 0. -1.
         21    1    1    2  504  501  0.91363421411E+02 -0.11268936213E+02  0.69968046066E+02  0.11562781311E+03  0.00000000000E+00 0.  1.
         21    1    1    2  505  504  0.35447258064E+02  0.14127155721E+02 -0.49050186234E+03  0.49198390380E+03  0.00000000000E+00 0.  1.
         21    1    1    2  506  503 -0.10911655549E+03 -0.28760053828E+02  0.77491410010E+03  0.78308711260E+03  0.00000000000E+00 0. -1.
<scales pt_clust_3="31.36857" pt_clust_4="108.81170" pt_clust_5="42.95423" pt_clust_6="14000.00000"></scales>
<clustering>
<clus scale="   31.369">  2  3  1 -1</clus>
<clus scale="   42.954">  2  5  1 -1</clus>
<clus scale="  108.812">  2  4  1 -1</clus>
<clus scale="  108.812">  1  3  2 -1</clus>
</clustering>
</event>
<event>
 6    0  0.5510638E+002  0.5720502E+02  0.7546771E-02  0.1409950E+00
         21   -1    0    0  504  501  0.00000000000E+00  0.00000000000E+00  0.36453164892E+03  0.36453164892E+03  0.00000000000E+00 0.  1.
         21   -1    0    0  503  502 -0.00000000000E+00 -0.00000000000E+00 -0.11353632196E+04  0.11353632196E+04  0.00000000000E+00 0.  1.
         21    1    1    2  503  506 -0.50119901748E+02  0.18915303393E+02 -0.95435076272E+02  0.10944243709E+03  0.00000000000E+00 0.  1.
         21    1    1    2  504  505  0.35967360884E+02  0.88356421393E+01  0.29180914384E+02  0.47151303113E+02  0.00000000000E+00 0.  1.
         21    1    1    2  505  502  0.94227491176E+02  0.15451630602E+02 -0.10151726339E+04  0.10196533968E+04  0.00000000000E+00 0.  1.
         21    1    1    2  506  501 -0.80074950312E+02 -0.43202576135E+02  0.31059522511E+03  0.32364773151E+03  0.00000000000E+00 0.  1.
<scales pt_clust_3="52.91718" pt_clust_4="37.03673" pt_clust_5="57.20502" pt_clust_6="14000.00000"></scales>
<clustering>
<clus scale="   37.037">  1  4  2 -1</clus>
<clus scale="   52.917">  2  3  1 -1</clus>
<clus scale="   57.205">  2  5  1 -1</clus>
<clus scale="   37.037">  1  3  2 -1</clus>
</clustering>
</event>
<event>
 6    0  0.5510638E+002  0.1469317E+03  0.7546771E-02  0.1204295E+00
         21   -1    0    0  504  501  0.00000000000E+00  0.00000000000E+00  0.27627301315E+03  0.27627301315E+03  0.00000000000E+00 0.  1.
         21   -1    0    0  505  502 -0.00000000000E+00 -0.00000000000E+00 -0.64431987397E+03  0.64431987397E+03  0.00000000000E+00 0.  1.
         21    1    1    2  503  501 -0.13479954886E+03 -0.66502806765E+02  0.18554873693E+03  0.23879253644E+03  0.00000000000E+00 0.  1.
         21    1    1    2  504  506  0.33229415263E+02 -0.38580315798E+02  0.70272193823E+01  0.51400550757E+02  0.00000000000E+00 0.  1.
         21    1    1    2  505  503  0.38158998407E+02  0.18350200117E+03 -0.36279270669E+03  0.40834745208E+03  0.00000000000E+00 0.  1.
         21    1    1    2  506  502  0.63411135194E+02 -0.78418878602E+02 -0.19783011044E+03  0.22205234784E+03  0.00000000000E+00 0.  1.
<scales pt_clust_3="146.93170" pt_clust_4="50.91792" pt_clust_5="14000.00000" pt_clust_6="103.34374"></scales>
<clustering>
<clus scale="   50.918">  1  4  2 -1</clus>
<clus scale="  103.344">  2  6  1 -1</clus>
<clus scale="  146.932">  1  3  2 -1</clus>
<clus scale="   50.918">  1  3  2 -1</clus>
</clustering>
</event>
<event>
 6    0  0.5510638E+002  0.1332096E+03  0.7546771E-02  0.1222770E+00
         21   -1    0    0  504  501  0.00000000000E+00  0.00000000000E+00  0.34014856463E+03  0.34014856463E+03  0.00000000000E+00 0. -1.
         21   -1    0    0  503  502 -0.00000000000E+00 -0.00000000000E+00 -0.32576028214E+03  0.32576028214E+03  0.00000000000E+00 0. -1.
         21    1    1    2  503  501  0.61816672547E+01 -0.38338920745E+02  0.13623785340E+03  0.14166452821E+03  0.00000000000E+00 0.  1.
         21    1    1    2  504  506  0.10794566532E+03 -0.36187054157E+02  0.15858594689E+03  0.19522108519E+03  0.00000000000E+00 0. -1.
         21    1    1    2  505  502  0.16757378103E+02  0.28926307151E+02 -0.51355289473E+02  0.61277293700E+02  0.00000000000E+00 0.  1.
         21    1    1    2  506  505 -0.13088471068E+03  0.45599667751E+02 -0.22908022834E+03  0.26774593966E+03  0.00000000000E+00 0. -1.
<scales pt_clust_3="38.57395" pt_clust_4="14000.00000" pt_clust_5="33.42964" pt_clust_6="133.20956"></scales>
<clustering>
<clus scale="   33.430">  2  5  1 -1</clus>
<clus scale="   38.574">  1  3  2 -1</clus>
<clus scale="  133.210">  2  6  1 -1</clus>
<clus scale="   38.574">  1  3  2 -1</clus>
</clustering>
</event>
<event>
 6    0  0.5510638E+002  0.1207168E+03  0.7546771E-02  0.1241919E+00
         21   -1    0    0  504  501  0.00000000000E+00  0.00000000000E+00  0.26573291429E+03  0.26573291429E+03  0.00000000000E+00 0. -1.
         21   -1    0    0  506  502 -0.00000000000E+00 -0.00000000000E+00 -0.63345013470E+03  0.63345013470E+03  0.00000000000E+00 0.  1.
         21    1    1    2  503  502  0.15751519096E+02  0.53742246957E+02 -0.21818166026E+03  0.22525447018E+03  0.00000000000E+00 0. -1.
         21    1    1    2  504  505  0.48507857342E+02 -0.12172774648E+02  0.75084441625E+02  0.90215641885E+02  0.00000000000E+00 0. -1.
         21    1    1    2  505  503  0.29341689055E+02 -0.62329302902E+02  0.16693480957E+03  0.18059099469E+03  0.00000000000E+00 0. -1.
         21    1    1    2  506  501 -0.93601065494E+02  0.20759830593E+02 -0.39155481134E+03  0.40312194224E+03  0.00000000000E+00 0.  1.
<scales pt_clust_3="56.00303" pt_clust_4="47.83405" pt_clust_5="47.83405" pt_clust_6="106.86785"></scales>
<clustering>
<clus scale="   47.834">  4  5 -1 -1</clus>
<clus scale="   56.003">  2  3  1 -1</clus>
<clus scale="  106.868">  2  6  1 -1</clus>
<clus scale="  120.717">  1  3  2 -1</clus>
</clustering>
</event>
<event>
 6    0  0.5510638E+002  0.1102778E+03  0.7546771E-02  0.1260056E+00
         21   -1    0    0  503  501  0.00000000000E+00  0.00000000000E+00  0.12484608130E+03  0.12484608130E+03  0.00000000000E+00 0. -1.
         21   -1    0    0  504  502 -0.00000000000E+00 -0.00000000000E+00 -0.55932667140E+03  0.55932667140E+03  0.00000000000E+00 0. -1.
         21    1    1    2  503  505  0.20846277203E+02  0.55476856122E+02 -0.57305697662E+01  0.59540643835E+02  0.00000000000E+00 0. -1.
         21    1    1    2  504  501  0.18471008985E+02 -0.84634418346E+02 -0.37891883951E+03  0.38869480300E+03  0.00000000000E+00 0. -1.
         21    1    1    2  505  506 -0.10132325856E+03  0.35598292731E+02  0.49824367240E+02  0.11838964795E+03  0.00000000000E+00 0. -1.
         21    1    1    2  506  502  0.62005972376E+02 -0.64407305070E+01 -0.99655548067E+02  0.11754765791E+03  0.00000000000E+00 0. -1.
<scales pt_clust_3="59.26423" pt_clust_4="110.27776" pt_clust_5="14000.00000" pt_clust_6="63.92485"></scales>
<clustering>
<clus scale="   59.264">  1  3  2 -1</clus>
<clus scale="   63.925">  2  6  1 -1</clus>
<clus scale="  110.278">  2  4  1 -1</clus>
<clus scale="   59.264">  1  3  2 -1</clus>
</clustering>
</event>
<event>
 6    0  0.5510638E+002  0.1086750E+03  0.7546771E-02  0.1263043E+00
         21   -1    0    0  506  501  0.00000000000E+00  0.00000000000E+00  0.15703315128E+03  0.15703315128E+03  0.00000000000E+00 0. -1.
         21   -1    0    0  505  502 -0.00000000000E+00 -0.00000000000E+00 -0.45634331266E+03  0.45634331266E+03  0.00000000000E+00 0.  1.
         21    1    1    2  503  502  0.12655911867E+03  0.43450740869E+02 -0.34736940012E+03  0.37225082611E+03  0.00000000000E+00 0.  1.
         21    1    1    2  504  501 -0.22770477042E+02 -0.63880386134E+02  0.48000106011E+02  0.83085549492E+02  0.00000000000E+00 0. -1.
         21    1    1    2  505  504 -0.74935402375E+02  0.66761289087E+01 -0.55810457957E+02  0.93673328347E+02  0.00000000000E+00 0. -1.
         21    1    1    2  506  503 -0.28853239257E+02  0.13753516356E+02  0.55869590685E+02  0.64366759986E+02  0.00000000000E+00 0. -1.
<scales pt_clust_3="108.67499" pt_clust_4="69.04185" pt_clust_5="14000.00000" pt_clust_6="31.96355"></scales>
<clustering>
<clus scale="   31.964">  1  6  2 -1</clus>
<clus scale="   69.042">  1  4  2 -1</clus>
<clus scale="  108.675">  2  3  1 -1</clus>
<clus scale="   31.964">  1  3  2 -1</clus>
</clustering>
</event>
<event>
 6    0  0.5510638E+002  0.2025943E+03  0.7546771E-02  0.1147569E+00
         21   -1    0    0  505  501  0.00000000000E+00  0.00000000000E+00  0.16621528330E+04  0.16621528330E+04  0.00000000000E+00 0.  1.
         21   -1    0    0  504  502 -0.00000000000E+00 -0.00000000000E+00 -0.79077709542E+02  0.79077709542E+02  0.00000000000E+00 0. -1.
         21    1    1    2  503  506 -0.39243720026E+02 -0.56100853478E+02  0.10308721555E+03  0.12375115891E+03  0.00000000000E+00 0.  1.
         21    1    1    2  504  501  0.17566673611E+03  0.73638934174E+02  0.13191311611E+04  0.13328122580E+04  0.00000000000E+00 0.  1.
         21    1    1    2  505  503 -0.11027947529E+03  0.73318362925E+01  0.20180557960E+03  0.23008870126E+03  0.00000000000E+00 0.  1.
         21    1    1    2  506  502 -0.26143540803E+02 -0.24869916988E+02 -0.40948832822E+02  0.54578424366E+02  0.00000000000E+00 0. -1.
<scales pt_clust_3="70.19423" pt_clust_4="183.13113" pt_clust_5="70.19423" pt_clust_6="36.08320"></scales>
<clustering>
<clus scale="   36.083">  2  6  1 -1</clus>
<clus scale="   70.194">  3  5 -1 -1</clus>
<clus scale="  183.131">  1  4  2 -1</clus>
<clus scale="  183.131">  1  3  2 -1</clus>
</clustering>
</event>
<event>
 6    0  0.5510638E+002  0.8400485E+02  0.7546771E-02  0.1318056E+00
         21   -1    0    0  506  501  0.00000000000E+00  0.00000000000E+00  0.42644804849E+03  0.42644804849E+03  0.00000000000E+00 0.  1.
         21   -1    0    0  503  502 -0.00000000000E+00 -0.00000000000E+00 -0.13985636286E+03  0.13985636286E+03  0.00000000000E+00 0. -1.
         21    1    1    2  503  505  0.20096982464E+02 -0.52849506052E+02 -0.93795885173E+02  0.10951998480E+03  0.00000000000E+00 0. -1.
         21    1    1    2  504  502  0.10560344249E+02 -0.29374529666E+02  0.15541167331E+02  0.34869926093E+02  0.00000000000E+00 0.  1.
         21    1    1    2  505  501  0.61759242951E+02 -0.19880409788E+01  0.39416297870E+02  0.73292570801E+02  0.00000000000E+00 0. -1.
         21    1    1    2  506  504 -0.92416569664E+02  0.84212076697E+02  0.32543010560E+03  0.34862192966E+03  0.00000000000E+00 0.  1.
<scales pt_clust_3="84.00485" pt_clust_4="31.21512" pt_clust_5="63.39991" pt_clust_6="14000.00000"></scales>
<clustering>
<clus scale="   31.215">  2  4  1 -1</clus>
<clus scale="   63.400">  1  5  2 -1</clus>
<clus scale="   84.005">  2  3  1 -1</clus>
<clus scale="   63.400">  1  3  2 -1</clus>
</clustering>
</event>
<event>
 6    0  0.5510638E+002  0.7301887E+02  0.7546771E-02  0.1350118E+00
         21   -1    0    0  505  501  0.00000000000E+00  0.00000000000E+00  0.43660095334E+03  0.43660095334E+03  0.00000000000E+00 0. -1.
         21   -1    0    0  506  502 -0.00000000000E+00 -0.00000000000E+00 -0.18190543758E+03  0.18190543758E+03  0.00000000000E+00 0.  1.
         21    1    1    2  503  501 -0.66831363295E+02 -0.12192348258E+02  0.25990021773E+03  0.26863210466E+03  0.00000000000E+00 0. -1.
         21    1    1    2  504  502  0.20743225900E+02  0.32785472257E+02 -0.12874146771E+03  0.13446015811E+03  0.00000000000E+00 0.  1.
         21    1    1    2  505  504  0.76710020050E+02 -0.68611038888E+02  0.12037824630E+03  0.15837557897E+03  0.00000000000E+00 0. -1.
         21    1    1    2  506  503 -0.30621882655E+02  0.48017914889E+02  0.31585194412E+01  0.57038549181E+02  0.00000000000E+00 0. -1.
<scales pt_clust_3="65.69934" pt_clust_4="38.79650" pt_clust_5="73.01887" pt_clust_6="14000.00000"></scales>
<clustering>
<clus scale="   38.797">  2  4  1 -1</clus>
<clus scale="   65.699">  1  3  2 -1</clus>
<clus scale="   73.019">  1  5  2 -1</clus>
<clus scale="   65.699">  1  3  2 -1</clus>
</clustering>
</event>
<event>
 6    0  0.5510638E+002  0.2113196E+03  0.7546771E-02  0.1140525E+00
         21   -1    0    0  506  501  0.00000000000E+00  0.00000000000E+00  0.16215858404E+03  0.16215858404E+03  0.00000000000E+00 0. -1.
         21   -1    0    0  503  502 -0.00000000000E+00 -0.00000000000E+00 -0.10101092270E+04  0.10101092270E+04  0.00000000000E+00 0. -1.
         21    1    1    2  503  504  0.22242083623E+03 -0.16299884415E+03 -0.66484142860E+03  0.71975952704E+03  0.00000000000E+00 0. -1.
         21    1    1    2  504  501  0.29339431497E+02  0.48439687544E+02 -0.26074489945E+02  0.62346488239E+02  0.00000000000E+00 0. -1.
         21    1    1    2  505  502 -0.59892643511E+02  0.46787154965E+02 -0.17004974358E+03  0.18626079004E+03  0.00000000000E+00 0. -1.
         21    1    1    2  506  505 -0.19186762421E+03  0.67772001637E+02  0.13015019131E+02  0.20390100576E+03  0.00000000000E+00 0. -1.
<scales pt_clust_3="211.31955" pt_clust_4="56.63220" pt_clust_5="76.44366" pt_clust_6="14000.00000"></scales>
<clustering>
<clus scale="   56.632">  1  4  2 -1</clus>
<clus scale="   76.444">  2  5  1 -1</clus>
<clus scale="  211.320">  2  3  1 -1</clus>
<clus scale="   56.632">  1  3  2 -1</clus>
</clustering>
</event>
<event>
 6    0  0.5510638E+002  0.1021196E+03  0.7546771E-02  0.1275901E+00
         21   -1    0    0  506  501  0.00000000000E+00  0.00000000000E+00  0.14273319769E+03  0.14273319769E+03  0.00000000000E+00 0.  1.
         21   -1    0    0  505  502 -0.00000000000E+00 -0.00000000000E+00 -0.38990646016E+03  0.38990646016E+03  0.00000000000E+00 0. -1.
         21    1    1    2  503  502  0.30461170278E+02 -0.83094276029E+01 -0.12910255955E+03  0.13290748799E+03  0.00000000000E+00 0. -1.
         21    1    1    2  504  501  0.26792919203E+02 -0.22798155904E+02  0.37107776296E+01  0.35374938907E+02  0.00000000000E+00 0. -1.
         21    1    1    2  505  504  0.70653304533E+02 -0.10067139865E+02  0.89189855719E+02  0.11422813624E+03  0.00000000000E+00 0.  1.
         21    1    1    2  506  503 -0.12790739401E+03  0.41174723371E+02 -0.21097133627E+03  0.25012909470E+03  0.00000000000E+00 0. -1.
<scales pt_clust_3="31.57419" pt_clust_4="36.93683" pt_clust_5="14000.00000" pt_clust_6="102.11957"></scales>
<clustering>
<clus scale="   31.574">  2  3  1 -1</clus>
<clus scale="   36.937">  1  4  2 -1</clus>
<clus scale="  102.120">  2  6  1 -1</clus>
<clus scale="   36.937">  1  3  2 -1</clus>
</clustering>
</event>
<event>
 6    0  0.5510638E+002  0.1482262E+03  0.7546771E-02  0.1202670E+00
         21   -1    0    0  504  501  0.00000000000E+00  0.00000000000E+00  0.15363670227E+04  0.15363670227E+04  0.00000000000E+00 0. -1.
         21   -1    0    0  503  502 -0.00000000000E+00 -0.00000000000E+00 -0.46910239475E+02  0.46910239475E+02  0.00000000000E+00 0. -1.
         21    1    1    2  503  505  0.44506459311E+02  0.43466752730E+02  0.87887106777E+01  0.62828536101E+02  0.00000000000E+00 0. -1.
         21    1    1    2  504  502  0.90224449348E+02 -0.11036716350E+03  0.10960632304E+04  0.11052945160E+04  0.00000000000E+00 0. -1.
         21    1    1    2  505  506 -0.39837472344E+02  0.39746437896E+02  0.11452902307E+03  0.12760760422E+03  0.00000000000E+00 0. -1.
         21    1    1    2  506  501 -0.94893436315E+02  0.27153972869E+02  0.27007581910E+03  0.28754660589E+03  0.00000000000E+00 0. -1.
<scales pt_clust_3="62.21080" pt_clust_4="142.01042" pt_clust_5="32.07129" pt_clust_6="32.07129"></scales>
<clustering>
<clus scale="   32.071">  5  6 -1 -1</clus>
<clus scale="   62.211">  2  3  1 -1</clus>
<clus scale="  142.010">  1  4  2 -1</clus>
<clus scale="  142.010">  1  3  2 -1</clus>
</clustering>
</event>
<event>
 6    0  0.5510638E+002  0.1314969E+03  0.7546771E-02  0.1225251E+00
         21   -1    0    0  502  501  0.00000000000E+00  0.00000000000E+00  0.25721766399E+03  0.25721766399E+03  0.00000000000E+00 0. -1.
         21   -1    0    0  503  502 -0.00000000000E+00 -0.00000000000E+00 -0.32085157322E+03  0.32085157322E+03  0.00000000000E+00 0.  1.
         21    1    1    2  503  505 -0.32766668438E+02  0.13590060023E+02 -0.19796379335E+03  0.20111690076E+03  0.00000000000E+00 0.  1.
         21    1    1    2  504  506  0.48042483301E+02 -0.16039835006E+02  0.41876003329E+02  0.65718765689E+02  0.00000000000E+00 0.  1.
         21    1    1    2  505  504 -0.87611676277E+02  0.26325604527E+02 -0.80748063578E+02  0.12202087135E+03  0.00000000000E+00 0.  1.
         21    1    1    2  506  501  0.72335861415E+02 -0.23875829543E+02  0.17320194437E+03  0.18921269941E+03  0.00000000000E+00 0. -1.
<scales pt_clust_3="35.47315" pt_clust_4="41.12471" pt_clust_5="121.01291" pt_clust_6="41.12471"></scales>
<clustering>
<clus scale="   35.473">  2  3  1 -1</clus>
<clus scale="   41.125">  4  6 -1 -1</clus>
<clus scale="  121.013">  2  5  1 -1</clus>
<clus scale="  131.497">  1  3  2 -1</clus>
</clustering>
</event>
<event>
 6    0  0.5510638E+002  0.9649547E+02  0.7546771E-02  0.1287843E+00
         21   -1    0    0  504  501  0.00000000000E+00  0.00000000000E+00  0.84388197906E+02  0.84388197906E+02  0.00000000000E+00 0. -1.
         21   -1    0    0  506  502 -0.00000000000E+00 -0.00000000000E+00 -0.57706685447E+03  0.57706685447E+03  0.00000000000E+00 0.  1.
         21    1    1    2  503  501  0.33534747119E+02  0.77366363510E+01 -0.23055229081E+02  0.41424369570E+02  0.00000000000E+00 0. -1.
         21    1    1    2  504  505 -0.96018398395E+02  0.84075574918E+02 -0.92958963844E+01  0.12796346673E+03  0.00000000000E+00 0. -1.
         21    1    1    2  505  502  0.56993882106E+02 -0.14666432770E+02 -0.36306105264E+03  0.36779985698E+03  0.00000000000E+00 0.  1.
         21    1    1    2  506  503  0.54897691707E+01 -0.77145778499E+02 -0.97266478456E+02  0.12426735910E+03  0.00000000000E+00 0. -1.
<scales pt_clust_3="34.41562" pt_clust_4="14000.00000" pt_clust_5="59.81528" pt_clust_6="96.49547"></scales>
<clustering>
<clus scale="   34.416">  1  3  2 -1</clus>
<clus scale="   59.815">  2  5  1 -1</clus>
<clus scale="   96.495">  2  6  1 -1</clus>
<clus scale="   34.416">  1  3  2 -1</clus>
</clustering>
</event>
<event>
 6    0  0.5510638E+002  0.1202773E+03  0.7546771E-02  0.1242640E+00
         21   -1    0    0  506  501  0.00000000000E+00  0.00000000000E+00  0.28982306414E+03  0.28982306414E+03  0.00000000000E+00 0. -1.
         21   -1    0    0  504  502 -0.00000000000E+00 -0.00000000000E+00 -0.69627726437E+03  0.69627726437E+03  0.00000000000E+00 0.  1.
         21    1    1    2  503  502 -0.45363628833E+02  0.85325250396E+02  0.74908720258E+02  0.12226844870E+03  0.00000000000E+00 0. -1.
         21    1    1    2  504  505 -0.13958961688E+02 -0.12177490411E+03 -0.65826969473E+03  0.66958417759E+03  0.00000000000E+00 0.  1.
         21    1    1    2  505  501  0.27245309053E+02  0.28742894284E+02  0.13625526743E+03  0.14189418149E+03  0.00000000000E+00 0. -1.
         21    1    1    2  506  503  0.32077281468E+02  0.77067594300E+01  0.40651506815E+02  0.52353520738E+02  0.00000000000E+00 0. -1.
<scales pt_clust_3="120.27728" pt_clust_4="14000.00000" pt_clust_5="56.35859" pt_clust_6="32.99009"></scales>
<clustering>
<clus scale="   32.990">  1  6  2 -1</clus>
<clus scale="   56.359">  1  5  2 -1</clus>
<clus scale="  120.277">  1  3  2 -1</clus>
<clus scale="   32.990">  1  3  2 -1</clus>
</clustering>
</event>
<event>
 6    0  0.5510638E+002  0.1478381E+03  0.7546771E-02  0.1203155E+00
         21   -1    0    0  503  501  0.00000000000E+00  0.00000000000E+00  0.17085709810E+03  0.17085709810E+03  0.00000000000E+00 0.  1.
         21   -1    0    0  505  502 -0.00000000000E+00 -0.00000000000E+00 -0.40128706589E+03  0.40128706589E+03  0.00000000000E+00 0. -1.
         21    1    1    2  503  506 -0.33234268084E+02  0.46294798799E+02  0.49600465390E+02  0.75550851337E+02  0.00000000000E+00 0.  1.
         21    1    1    2  504  502 -0.42447719223E+02 -0.12090513410E+03 -0.14295192693E+03  0.19197685728E+03  0.00000000000E+00 0. -1.
         21    1    1    2  505  501  0.93881551838E+02 -0.21269649856E+02 -0.17515179322E+03  0.19986068760E+03  0.00000000000E+00 0. -1.
         21    1    1    2  506  504 -0.18199564531E+02  0.95879985153E+02  0.38073286958E+02  0.10475576777E+03  0.00000000000E+00 0.  1.
<scales pt_clust_3="33.87145" pt_clust_4="141.03694" pt_clust_5="96.26081" pt_clust_6="33.87145"></scales>
<clustering>
<clus scale="   33.871">  3  6 -1 -1</clus>
<clus scale="   96.261">  2  5  1 -1</clus>
<clus scale="  141.037">  2  4  1 -1</clus>
<clus scale="  147.838">  1  3  2 -1</clus>
</clustering>
</event>
<event>
 6    0  0.5510638E+002  0.7655010E+02  0.7546771E-02  0.1339137E+00
         21   -1    0    0  506  501  0.00000000000E+00  0.00000000000E+00  0.25433455813E+03  0.25433455813E+03  0.00000000000E+00 0.  1.
         21   -1    0    0  503  502 -0.00000000000E+00 -0.00000000000E+00 -0.18702906219E+03  0.18702906219E+03  0.00000000000E+00 0. -1.
         21    1    1    2  503  504 -0.55605277696E+02  0.35916285228E+02 -0.76434995472E+02  0.10111495925E+03  0.00000000000E+00 0. -1.
         21    1    1    2  504  501 -0.75771049983E+02 -0.18002793134E+01  0.62823644719E+02  0.98444417602E+02  0.00000000000E+00 0.  1.
         21    1    1    2  505  502  0.72589114926E+02  0.38648068831E+02 -0.37927236176E+02  0.90561184147E+02  0.00000000000E+00 0.  1.
         21    1    1    2  506  505  0.58787212753E+02 -0.72764074746E+02  0.11884408287E+03  0.15124305931E+03  0.00000000000E+00 0.  1.
<scales pt_clust_3="66.19612" pt_clust_4="76.55010" pt_clust_5="71.92433" pt_clust_6="14000.00000"></scales>
<clustering>
<clus scale="   66.196">  2  3  1 -1</clus>
<clus scale="   71.924">  2  5  1 -1</clus>
<clus scale="   76.550">  2  4  1 -1</clus>
<clus scale="   76.550">  1  3  2 -1</clus>
</clustering>
</event>
<event>
 6    0  0.5510638E+002  0.1027390E+03  0.7546771E-02  0.1274640E+00
         21   -1    0    0  504  501  0.00000000000E+00  0.00000000000E+00  0.14709114388E+04  0.14709114388E+04  0.00000000000E+00 0. -1.
         21   -1    0    0  506  502 -0.00000000000E+00 -0.00000000000E+00 -0.84704612543E+02  0.84704612543E+02  0.00000000000E+00 0. -1.
         21    1    1    2  503  502  0.43957436956E+02 -0.46202086236E+01  0.21124655178E+02  0.48988301133E+02  0.00000000000E+00 0. -1.
         21    1    1    2  504  505  0.32857809122E+01  0.74728144476E+02  0.79735211407E+03  0.80085297386E+03  0.00000000000E+00 0. -1.
         21    1    1    2  505  503 -0.12282652533E+03 -0.67942443739E+02  0.76077794276E+01  0.14057172295E+03  0.00000000000E+00 0. -1.
         21    1    1    2  506  501  0.75583307464E+02 -0.21654921135E+01  0.56012227763E+03  0.56520305344E+03  0.00000000000E+00 0. -1.
<scales pt_clust_3="44.19958" pt_clust_4="74.74191" pt_clust_5="102.73895" pt_clust_6="14000.00000"></scales>
<clustering>
<clus scale="   44.200">  2  3  1 -1</clus>
<clus scale="   74.742">  1  4  2 -1</clus>
<clus scale="  102.739">  2  5  1 -1</clus>
<clus scale="   74.742">  1  3  2 -1</clus>
</clustering>
</event>
<event>
 6    0  0.5510638E+002  0.1602780E+03  0.7546771E-02  0.1188383E+00
         21   -1    0    0  504  501  0.00000000000E+00  0.00000000000E+00  0.65231326517E+03  0.65231326517E+03  0.00000000000E+00 0.  1.
         21   -1    0    0  503  502 -0.00000000000E+00 -0.00000000000E+00 -0.47673108310E+03  0.47673108310E+03  0.00000000000E+00 0.  1.
         21    1    1    2  503  505 -0.94366764522E+02 -0.21581751316E+02 -0.77934525047E+02  0.12427649991E+03  0.00000000000E+00 0.  1.
         21    1    1    2  504  506  0.12905134345E+03 -0.77698370795E+02  0.58096129609E+03  0.60017273649E+03  0.00000000000E+00 0.  1.
         21    1    1    2  505  501 -0.73109056690E+01 -0.32788595486E+02  0.14817386592E+02  0.36716430669E+02  0.00000000000E+00 0. -1.
         21    1    1    2  506  502 -0.27373673256E+02  0.13206871760E+03 -0.34226197558E+03  0.36787868120E+03  0.00000000000E+00 0.  1.
<scales pt_clust_3="97.34357" pt_clust_4="160.27798" pt_clust_5="33.59377" pt_clust_6="14000.00000"></scales>
<clustering>
<clus scale="   33.594">  1  5  2 -1</clus>
<clus scale="   97.344">  2  3  1 -1</clus>
<clus scale="  160.278">  1  4  2 -1</clus>
<clus scale="   33.594">  1  3  2 -1</clus>
</clustering>
</event>
<event>
 6    0  0.5510638E+002  0.1729866E+03  0.7546771E-02  0.1174769E+00
         21   -1    0    0  504  501  0.00000000000E+00  0.00000000000E+00  0.16347838405E+03  0.16347838405E+03  0.00000000000E+00 0.  1.
         21   -1    0    0  505  502 -0.00000000000E+00 -0.00000000000E+00 -0.44400254672E+03  0.44400254672E+03  0.00000000000E+00 0. -1.
         21    1    1    2  503  502  0.37976347343E+02 -0.18212196729E+02 -0.24174012947E+03  0.24538169708E+03  0.00000000000E+00 0. -1.
         21    1    1    2  504  503 -0.16329534093E+03  0.71168738455E+02  0.57346143454E+02  0.18713347609E+03  0.00000000000E+00 0.  1.
         21    1    1    2  505  506  0.70332333362E+02 -0.48700401028E+02 -0.80919791358E+02  0.11775558929E+03  0.00000000000E+00 0. -1.
         21    1    1    2  506  501  0.54986660227E+02 -0.42561406981E+01 -0.15210385299E+02  0.57210168305E+02  0.00000000000E+00 0. -1.
<scales pt_clust_3="42.11754" pt_clust_4="164.50413" pt_clust_5="40.98017" pt_clust_6="40.98017"></scales>
<clustering>
<clus scale="   42.118">  2  3  1 -1</clus>
<clus scale="   40.980">  5  6 -1 -1</clus>
<clus scale="  164.504">  1  4  2 -1</clus>
<clus scale="  164.504">  1  3  2 -1</clus>
</clustering>
</event>
<event>
 6    0  0.5510638E+002  0.8179776E+02  0.7546771E-02  0.1324026E+00
         21   -1    0    0  506  501  0.00000000000E+00  0.00000000000E+00  0.17745112100E+03  0.17745112100E+03  0.00000000000E+00 0.  1.
         21   -1    0    0  503  502 -0.00000000000E+00 -0.00000000000E+00 -0.52106387320E+03  0.52106387320E+03  0.00000000000E+00 0.  1.
         21    1    1    2  503  505  0.83677339155E+02 -0.83372858170E+02 -0.45657320903E+03  0.47160579489E+03  0.00000000000E+00 0.  1.
         21    1    1    2  504  501  0.74759597710E+01  0.50317802518E+02  0.47966513168E+02  0.69918220874E+02  0.00000000000E+00 0.  1.
         21    1    1    2  505  504 -0.46539661968E+02  0.27237122154E+02  0.90444796849E+02  0.10529986817E+03  0.00000000000E+00 0.  1.
         21    1    1    2  506  502 -0.44613636958E+02  0.58179334987E+01 -0.25450853188E+02  0.51691110269E+02  0.00000000000E+00 0.  1.
<scales pt_clust_3="14000.00000" pt_clust_4="50.86220" pt_clust_5="81.79776" pt_clust_6="44.99139"></scales>
<clustering>
<clus scale="   44.991">  2  6  1 -1</clus>
<clus scale="   50.862">  1  4  2 -1</clus>
<clus scale="   81.798">  1  5  2 -1</clus>
<clus scale="   50.862">  1  3  2 -1</clus>
</clustering>
</event>
<event>
 6    0  0.5510638E+002  0.1124620E+03  0.7546771E-02  0.1256077E+00
         21   -1    0    0  506  501  0.00000000000E+00  0.00000000000E+00  0.99403100862E+02  0.99403100862E+02  0.00000000000E+00 0. -1.
         21   -1    0    0  504  502 -0.00000000000E+00 -0.00000000000E+00 -0.22539326600E+04  0.22539326600E+04  0.00000000000E+00 0. -1.
         21    1    1    2  503  502 -0.25019935296E+02 -0.61893693569E+02 -0.99166755360E+03  0.99391215071E+03  0.00000000000E+00 0. -1.
         21    1    1    2  504  505  0.50686043691E+02  0.16217883200E+03 -0.10889516995E+04  0.11021283285E+04  0.00000000000E+00 0. -1.
         21    1    1    2  505  501 -0.47294072892E+02  0.23729823071E+02 -0.11358446104E+03  0.12530468316E+03  0.00000000000E+00 0.  1.
         21    1    1    2  506  503  0.21627964497E+02 -0.12401496150E+03  0.39674154992E+02  0.13199059853E+03  0.00000000000E+00 0. -1.
<scales pt_clust_3="66.71117" pt_clust_4="112.46198" pt_clust_5="52.91346" pt_clust_6="14000.00000"></scales>
<clustering>
<clus scale="   52.913">  1  5  2 -1</clus>
<clus scale="   66.711">  2  3  1 -1</clus>
<clus scale="  112.462">  2  4  1 -1</clus>
<clus scale="   52.913">  1  3  2 -1</clus>
</clustering>
</event>
<event>
 6    0  0.5510638E+002  0.1320862E+03  0.7546771E-02  0.1224393E+00
         21   -1    0    0  505  501  0.00000000000E+00  0.00000000000E+00  0.13467733891E+03  0.13467733891E+03  0.00000000000E+00 0.  1.
         21   -1    0    0  504  502 -0.00000000000E+00 -0.00000000000E+00 -0.66510950786E+03  0.66510950786E+03  0.00000000000E+00 0. -1.
         21    1    1    2  503  502  0.95251407166E+02  0.35527002037E+02  0.57591405347E+02  0.11684078231E+03  0.00000000000E+00 0.  1.
         21    1    1    2  504  506 -0.18322405681E+02 -0.35920996732E+02 -0.52075467646E+03  0.52231356637E+03  0.00000000000E+00 0. -1.
         21    1    1    2  505  503  0.16978544308E+02  0.33924891404E+02  0.38841770378E+01  0.38134709319E+02  0.00000000000E+00 0.  1.
         21    1    1    2  506  501 -0.93907545793E+02 -0.33530896709E+02 -0.71153074874E+02  0.12249778878E+03  0.00000000000E+00 0. -1.
<scales pt_clust_3="32.43397" pt_clust_4="40.32404" pt_clust_5="32.43397" pt_clust_6="120.94516"></scales>
<clustering>
<clus scale="   32.434">  3  5 -1 -1</clus>
<clus scale="   40.324">  2  4  1 -1</clus>
<clus scale="  120.945">  2  6  1 -1</clus>
<clus scale="  132.086">  1  3  2 -1</clus>
</clustering>
</event>
<event>
 6    0  0.5510638E+002  0.1022689E+03  0.7546771E-02  0.1275596E+00
         21   -1    0    0  506  501  0.00000000000E+00  0.00000000000E+00  0.34083391413E+03  0.34083391413E+03  0.00000000000E+00 0.  1.
         21   -1    0    0  505  502 -0.00000000000E+00 -0.00000000000E+00 -0.15885705102E+03  0.15885705102E+03  0.00000000000E+00 0.  1.
         21    1    1    2  503  501 -0.10368421957E+03  0.15394765821E+02  0.26604648488E+03  0.28595130411E+03  0.00000000000E+00 0.  1.
         21    1    1    2  504  502  0.56571582593E+02  0.17500369834E+02 -0.60375705108E+02  0.84568508729E+02  0.00000000000E+00 0.  1.
         21    1    1    2  505  503 -0.35628648350E+02 -0.22502748559E+01  0.57381342078E+01  0.36157855362E+02  0.00000000000E+00 0.  1.
         21    1    1    2  506  504  0.82741285327E+02 -0.30644860799E+02 -0.29432050872E+02  0.93013296950E+02  0.00000000000E+00 0.  1.
<scales pt_clust_3="14000.00000" pt_clust_4="41.92253" pt_clust_5="35.69964" pt_clust_6="102.26890"></scales>
<clustering>
<clus scale="   35.700">  2  5  1 -1</clus>
<clus scale="   41.923">  2  4  1 -1</clus>
<clus scale="  102.269">  2  6  1 -1</clus>
<clus scale="  102.269">  1  3  2 -1</clus>
</clustering>
</event>
<event>
 6    0  0.5510638E+002  0.1416711E+03  0.7546771E-02  0.1211098E+00
         21   -1    0    0  503  501  0.00000000000E+00  0.00000000000E+00  0.13105247883E+03  0.13105247883E+03  0.00000000000E+00 0. -1.
         21   -1    0    0  505  502 -0.00000000000E+00 -0.00000000000E+00 -0.44241518600E+03  0.44241518600E+03  0.00000000000E+00 0. -1.
         21    1    1    2  503  506 -0.14513140737E+03  0.80714330211E+02 -0.58303127270E+01  0.16616835154E+03  0.00000000000E+00 0. -1.
         21    1    1    2  504  501  0.11135741638E+03 -0.12485360397E+02 -0.10045744239E+03  0.15049271125E+03  0.00000000000E+00 0. -1.
         21    1    1    2  505  504  0.36700809201E+02  0.11531443085E+02 -0.16120261592E+03  0.16572931834E+03  0.00000000000E+00 0. -1.
         21    1    1    2  506  502 -0.29268182039E+01 -0.79760412899E+02 -0.43872336121E+02  0.91077283706E+02  0.00000000000E+00 0. -1.
<scales pt_clust_3="141.67109" pt_clust_4="14000.00000" pt_clust_5="38.46977" pt_clust_6="77.20077"></scales>
<clustering>
<clus scale="   38.470">  2  5  1 -1</clus>
<clus scale="   77.201">  2  6  1 -1</clus>
<clus scale="  141.671">  1  3  2 -1</clus>
<clus scale="  141.671">  1  3  2 -1</clus>
</clustering>
</event>
<event>
 6    0  0.7546097E+002  0.1113063E+03  0.7546771E-02  0.1258170E+00
         21   -1    0    0  505  501  0.00000000000E+00  0.00000000000E+00  0.11748560128E+04  0.11748560128E+04  0.00000000000E+00 0.  1.
         21   -1    0    0  504  502 -0.00000000000E+00 -0.00000000000E+00 -0.17241351081E+03  0.17241351081E+03  0.00000000000E+00 0.  1.
         21    1    1    2  503  501  0.13431347034E+02 -0.38675342150E+02  0.70586560259E+02  0.81600524893E+02  0.00000000000E+00 0. -1.
         21    1    1    2  504  503 -0.78092440142E+02  0.10579461606E+03 -0.13057618970E+03  0.18531344071E+03  0.00000000000E+00 0.  1.
         21    1    1    2  505  506  0.33143854658E+02 -0.63866191706E+02  0.10376198350E+04  0.10401116899E+04  0.00000000000E+00 0.  1.
         21    1    1    2  506  502  0.31517238449E+02 -0.32530822001E+01  0.24812296440E+02  0.40243868078E+02  0.00000000000E+00 0. -1.
<scales pt_clust_3="41.40082" pt_clust_4="111.30634" pt_clust_5="14000.00000" pt_clust_6="31.68468"></scales>
<clustering>
<clus scale="   31.685">  2  6  1 -1</clus>
<clus scale="   41.401">  1  3  2 -1</clus>
<clus scale="  111.306">  2  4  1 -1</clus>
<clus scale="   41.401">  1  3  2 -1</clus>
</clustering>
</event>
<event>
 6    0  0.5510638E+002  0.1304496E+03  0.7546771E-02  0.1226790E+00
         21   -1    0    0  506  501  0.00000000000E+00  0.00000000000E+00  0.93997843257E+02  0.93997843257E+02  0.00000000000E+00 0. -1.
         21   -1    0    0  504  502 -0.00000000000E+00 -0.00000000000E+00 -0.62606425718E+03  0.62606425718E+03  0.00000000000E+00 0. -1.
         21    1    1    2  503  502  0.17697748184E+02  0.29944526625E+02 -0.18117673270E+03  0.18448548300E+03  0.00000000000E+00 0. -1.
         21    1    1    2  504  501 -0.73185027778E+02 -0.13739983420E+03 -0.37565340879E+03  0.40663281504E+03  0.00000000000E+00 0. -1.
         21    1    1    2  505  503  0.37966884027E+02  0.35594166989E+02  0.44141032365E+01  0.52229429575E+02  0.00000000000E+00 0. -1.
         21    1    1    2  506  505  0.17520395567E+02  0.71861140589E+02  0.20349624330E+02  0.76714372826E+02  0.00000000000E+00 0. -1.
<scales pt_clust_3="34.78340" pt_clust_4="125.01725" pt_clust_5="31.24808" pt_clust_6="31.24808"></scales>
<clustering>
<clus scale="   31.248">  5  6 -1 -1</clus>
<clus scale="   34.783">  2  3  1 -1</clus>
<clus scale="  125.017">  2  4  1 -1</clus>
<clus scale="  130.450">  1  3  2 -1</clus>
</clustering>
</event>
<event>
 6    0  0.5510638E+002  0.3603811E+03  0.7546771E-02  0.1058433E+00
         21   -1    0    0  506  501  0.00000000000E+00  0.00000000000E+00  0.83186030641E+03  0.83186030641E+03  0.00000000000E+00 0. -1.
         21   -1    0    0  503  502 -0.00000000000E+00 -0.00000000000E+00 -0.23468996930E+03  0.23468996930E+03  0.00000000000E+00 0. -1.
         21    1    1    2  503  501 -0.13996783365E+02 -0.32646533410E+03 -0.45316985318E+02  0.32989263931E+03  0.00000000000E+00 0. -1.
         21    1    1    2  504  502 -0.47115817336E+02  0.15315227577E+03  0.21174265726E+03  0.26553808149E+03  0.00000000000E+00 0. -1.
         21    1    1    2  505  504  0.87173815019E+01  0.94530219519E+02  0.18854466991E+03  0.21109487842E+03  0.00000000000E+00 0. -1.
         21    1    1    2  506  505  0.52395219200E+02  0.78782838807E+02  0.24219999525E+03  0.26002467649E+03  0.00000000000E+00 0.  1.
<scales pt_clust_3="326.76524" pt_clust_4="79.90548" pt_clust_5="49.45310" pt_clust_6="79.90548"></scales>
<clustering>
<clus scale="   49.453">  4  5 -1 -1</clus>
<clus scale="   79.905">  4  6 -1 -1</clus>
<clus scale="  326.765">  2  3  1 -1</clus>
<clus scale="  360.381">  1  3  2 -1</clus>
</clustering>
</event>
<event>
 6    0  0.5510638E+002  0.5965657E+02  0.7546771E-02  0.1399279E+00
         21   -1    0    0  505  501  0.00000000000E+00  0.00000000000E+00  0.56802008904E+03  0.56802008904E+03  0.00000000000E+00 0. -1.
         21   -1    0    0  506  502 -0.00000000000E+00 -0.00000000000E+00 -0.18349288313E+03  0.18349288313E+03  0.00000000000E+00 0.  1.
         21    1    1    2  503  502 -0.55635648374E+02 -0.12880419604E+02 -0.14044407900E+03  0.15161058639E+03  0.00000000000E+00 0.  1.
         21    1    1    2  504  501 -0.55316731720E+02  0.42268853285E+02  0.36819598890E+03  0.37471973928E+03  0.00000000000E+00 0. -1.
         21    1    1    2  505  503  0.18935184540E+02 -0.38787233620E+02  0.11661113908E+03  0.12434286655E+03  0.00000000000E+00 0.  1.
         21    1    1    2  506  504  0.92017195554E+02  0.93987999390E+01  0.40164156940E+02  0.10083977995E+03  0.00000000000E+00 0. -1.
<scales pt_clust_3="14000.00000" pt_clust_4="40.86235" pt_clust_5="43.16238" pt_clust_6="59.65657"></scales>
<clustering>
<clus scale="   43.162">  1  5  2 -1</clus>
<clus scale="   40.862">  1  4  2 -1</clus>
<clus scale="   59.657">  1  6  2 -1</clus>
<clus scale="   43.162">  1  3  2 -1</clus>
</clustering>
</event>
<event>
 6    0  0.5510638E+002  0.8430679E+02  0.7546771E-02  0.1317255E+00
         21   -1    0    0  506  501  0.00000000000E+00  0.00000000000E+00  0.54145356414E+02  0.54145356414E+02  0.00000000000E+00 0. -1.
         21   -1    0    0  503  502 -0.00000000000E+00 -0.00000000000E+00 -0.10439938204E+04  0.10439938204E+04  0.00000000000E+00 0. -1.
         21    1    1    2  503  505 -0.29629380036E+02 -0.11568474457E+02 -0.72038648120E+03  0.72108835246E+03  0.00000000000E+00 0. -1.
         21    1    1    2  504  502  0.40514076867E+02  0.26751205875E+02 -0.48386805332E+02  0.68544149060E+02  0.00000000000E+00 0. -1.
         21    1    1    2  505  501 -0.16894239785E+02 -0.96196703871E+02 -0.20301444505E+03  0.22528667531E+03  0.00000000000E+00 0. -1.
         21    1    1    2  506  504  0.60095429537E+01  0.81013972453E+02 -0.18060732386E+02  0.83219999961E+02  0.00000000000E+00 0. -1.
<scales pt_clust_3="31.80770" pt_clust_4="42.94121" pt_clust_5="84.30679" pt_clust_6="14000.00000"></scales>
<clustering>
<clus scale="   31.808">  2  3  1 -1</clus>
<clus scale="   42.941">  2  4  1 -1</clus>
<clus scale="   84.307">  2  5  1 -1</clus>
<clus scale="   84.307">  1  3  2 -1</clus>
</clustering>
</event>
<event>
 6    0  0.5510638E+002  0.1402756E+03  0.7546771E-02  0.1212959E+00
         21   -1    0    0  506  501  0.00000000000E+00  0.00000000000E+00  0.49354677557E+03  0.49354677557E+03  0.00000000000E+00 0. -1.
         21   -1    0    0  505  502 -0.00000000000E+00 -0.00000000000E+00 -0.87147987148E+02  0.87147987148E+02  0.00000000000E+00 0. -1.
         21    1    1    2  503  502  0.74805788888E+02  0.34411765593E+02 -0.37510110306E+01  0.82426608241E+02  0.00000000000E+00 0. -1.
         21    1    1    2  504  503 -0.14074334693E+02 -0.10376135952E+03  0.17272280701E+03  0.20198434268E+03  0.00000000000E+00 0. -1.
         21    1    1    2  505  501 -0.15016572887E+02  0.11228938172E+03  0.16903399911E+03  0.20348684371E+03  0.00000000000E+00 0. -1.
         21    1    1    2  506  504 -0.45714881308E+02 -0.42939787795E+02  0.68392993332E+02  0.92796968085E+02  0.00000000000E+00 0.  1.
<scales pt_clust_3="82.34121" pt_clust_4="46.84180" pt_clust_5="126.54658" pt_clust_6="46.84180"></scales>
<clustering>
<clus scale="   46.842">  4  6 -1 -1</clus>
<clus scale="   82.341">  2  3  1 -1</clus>
<clus scale="  126.547">  1  5  2 -1</clus>
<clus scale="  126.547">  1  3  2 -1</clus>
</clustering>
</event>
<event>
 6    0  0.5510638E+002  0.1173797E+03  0.7546771E-02  0.1247483E+00
         21   -1    0    0  505  501  0.00000000000E+00  0.00000000000E+00  0.67340882878E+03  0.67340882878E+03  0.00000000000E+00 0. -1.
         21   -1    0    0  504  502 -0.00000000000E+00 -0.00000000000E+00 -0.10873543343E+04  0.10873543343E+04  0.00000000000E+00 0.  1.
         21    1    1    2  503  502 -0.69390080466E+02 -0.49004708414E+02 -0.85490248054E+02  0.12051982088E+03  0.00000000000E+00 0. -1.
         21    1    1    2  504  506  0.10946710045E+03  0.60043700478E+02 -0.97556415186E+03  0.98352107575E+03  0.00000000000E+00 0.  1.
         21    1    1    2  505  503  0.28936202779E+02 -0.14624365251E+02  0.96665639988E+02  0.10195794155E+03  0.00000000000E+00 0. -1.
         21    1    1    2  506  501 -0.69013222762E+02  0.35853731871E+01  0.55044325442E+03  0.55476432488E+03  0.00000000000E+00 0. -1.
<scales pt_clust_3="117.37966" pt_clust_4="14000.00000" pt_clust_5="32.42184" pt_clust_6="42.47641"></scales>
<clustering>
<clus scale="   32.422">  1  5  2 -1</clus>
<clus scale="   42.476">  1  6  2 -1</clus>
<clus scale="  117.380">  1  3  2 -1</clus>
<clus scale="   32.422">  1  3  2 -1</clus>
</clustering>
</event>
<event>
 6    0  0.5510638E+002  0.1279453E+03  0.7546771E-02  0.1230537E+00
         21   -1    0    0  506  501  0.00000000000E+00  0.00000000000E+00  0.10722764806E+03  0.10722764806E+03  0.00000000000E+00 0.  1.
         21   -1    0    0  505  502 -0.00000000000E+00 -0.00000000000E+00 -0.19183785598E+04  0.19183785598E+04  0.00000000000E+00 0.  1.
         21    1    1    2  503  501 -0.37329016762E+02  0.82586169929E+02  0.57045112077E+02  0.10708910200E+03  0.00000000000E+00 0.  1.
         21    1    1    2  504  502  0.48279141051E+02  0.83073300920E+01 -0.71930901080E+02  0.87028396079E+02  0.00000000000E+00 0. -1.
         21    1    1    2  505  503 -0.21337098257E+02 -0.12766769716E+03 -0.17876328074E+04  0.17923128541E+04  0.00000000000E+00 0.  1.
         21    1    1    2  506  504  0.10386973968E+02  0.36774197144E+02 -0.86323153187E+01  0.39175855722E+02  0.00000000000E+00 0. -1.
<scales pt_clust_3="127.94529" pt_clust_4="50.42041" pt_clust_5="14000.00000" pt_clust_6="38.21297"></scales>
<clustering>
<clus scale="   38.213">  1  6  2 -1</clus>
<clus scale="   50.420">  1  4  2 -1</clus>
<clus scale="  127.945">  1  3  2 -1</clus>
<clus scale="   38.213">  1  3  2 -1</clus>
</clustering>
</event>
<event>
 6    0  0.5510638E+002  0.1512671E+03  0.7546771E-02  0.1198925E+00
         21   -1    0    0  505  501  0.00000000000E+00  0.00000000000E+00  0.99877960609E+03  0.99877960609E+03  0.00000000000E+00 0.  1.
         21   -1    0    0  503  502 -0.00000000000E+00 -0.00000000000E+00 -0.13030402951E+03  0.13030402951E+03  0.00000000000E+00 0.  1.
         21    1    1    2  503  506  0.12808185652E+03  0.47388698438E+02  0.63448699991E+02  0.15058681297E+03  0.00000000000E+00 0.  1.
         21    1    1    2  504  502 -0.16624711022E+03 -0.44405270036E+01  0.18210200368E+01  0.16631637337E+03  0.00000000000E+00 0.  1.
         21    1    1    2  505  504 -0.28634246501E+02  0.10154576254E+02  0.12559635781E+03  0.12921873157E+03  0.00000000000E+00 0. -1.
         21    1    1    2  506  501  0.66799500202E+02 -0.53102747688E+02  0.67760949875E+03  0.68296171769E+03  0.00000000000E+00 0.  1.
<scales pt_clust_3="151.26707" pt_clust_4="14000.00000" pt_clust_5="30.38150" pt_clust_6="63.37271"></scales>
<clustering>
<clus scale="   30.381">  1  5  2 -1</clus>
<clus scale="   63.373">  1  6  2 -1</clus>
<clus scale="  151.267">  1  3  2 -1</clus>
<clus scale="   30.381">  1  3  2 -1</clus>
</clustering>
</event>
<event>
 6    0  0.5510638E+002  0.2375379E+03  0.7546771E-02  0.1121444E+00
         21   -1    0    0  503  501  0.00000000000E+00  0.00000000000E+00  0.31764796187E+03  0.31764796187E+03  0.00000000000E+00 0. -1.
         21   -1    0    0  504  502 -0.00000000000E+00 -0.00000000000E+00 -0.69850798144E+03  0.69850798144E+03  0.00000000000E+00 0. -1.
         21    1    1    2  503  506 -0.10650550594E+03  0.21710532685E+03  0.19244712870E+03  0.30905346316E+03  0.00000000000E+00 0. -1.
         21    1    1    2  504  501 -0.24097380863E+02 -0.19078484753E+02  0.23720812454E+02  0.38824596436E+02  0.00000000000E+00 0. -1.
         21    1    1    2  505  502  0.30879087507E+02  0.18894870551E+02 -0.21323195558E+03  0.21628315020E+03  0.00000000000E+00 0. -1.
         21    1    1    2  506  505  0.99723799297E+02 -0.21692171265E+03 -0.38379600515E+03  0.45199473353E+03  0.00000000000E+00 0. -1.
<scales pt_clust_3="14000.00000" pt_clust_4="30.73552" pt_clust_5="36.03876" pt_clust_6="237.53794"></scales>
<clustering>
<clus scale="   30.736">  1  4  2 -1</clus>
<clus scale="   36.039">  2  5  1 -1</clus>
<clus scale="  237.538">  2  6  1 -1</clus>
<clus scale="   30.736">  1  3  2 -1</clus>
</clustering>
</event>
<event>
 6    0  0.5510638E+002  0.1055312E+03  0.7546771E-02  0.1269077E+00
         21   -1    0    0  503  501  0.00000000000E+00  0.00000000000E+00  0.74407869383E+02  0.74407869383E+02  0.00000000000E+00 0.  1.
         21   -1    0    0  504  502 -0.00000000000E+00 -0.00000000000E+00 -0.11811926419E+04  0.11811926419E+04  0.00000000000E+00 0.  1.
         21    1    1    2  503  505 -0.12065356597E+03  0.90233742369E+02 -0.10500464939E+03  0.18364473212E+03  0.00000000000E+00 0.  1.
         21    1    1    2  504  506  0.26390391706E+01 -0.38218278163E+02 -0.10698811906E+03  0.11364004107E+03  0.00000000000E+00 0.  1.
         21    1    1    2  505  502  0.26511845733E+02 -0.68516349901E+02 -0.85337197696E+03  0.85652851630E+03  0.00000000000E+00 0.  1.
         21    1    1    2  506  501  0.91502681065E+02  0.16500885695E+02 -0.41420027061E+02  0.10178722175E+03  0.00000000000E+00 0.  1.
<scales pt_clust_3="14000.00000" pt_clust_4="38.30928" pt_clust_5="105.53117" pt_clust_6="92.73370"></scales>
<clustering>
<clus scale="   38.309">  2  4  1 -1</clus>
<clus scale="   92.734">  1  6  2 -1</clus>
<clus scale="  105.531">  2  5  1 -1</clus>
<clus scale="   92.734">  1  3  2 -1</clus>
</clustering>
</event>
<event>
 6    0  0.5510638E+002  0.1298987E+03  0.7546771E-02  0.1227606E+00
         21   -1    0    0  504  501  0.00000000000E+00  0.00000000000E+00  0.52854066070E+02  0.52854066070E+02  0.00000000000E+00 0. -1.
         21   -1    0    0  503  502 -0.00000000000E+00 -0.00000000000E+00 -0.14597842983E+04  0.14597842983E+04  0.00000000000E+00 0. -1.
         21    1    1    2  503  505  0.92133607755E+02  0.65277799571E+02 -0.65704067457E+03  0.66667251393E+03  0.00000000000E+00 0. -1.
         21    1    1    2  504  506  0.27719475116E+02 -0.18327582812E+02  0.21148540002E+02  0.39389469870E+02  0.00000000000E+00 0. -1.
         21    1    1    2  505  501  0.31403842726E+02  0.15058496865E+02 -0.25085508078E+02  0.42921351113E+02  0.00000000000E+00 0. -1.
         21    1    1    2  506  502 -0.15125692560E+03 -0.62008713624E+02 -0.74595258962E+03  0.76365502949E+03  0.00000000000E+00 0. -1.
<scales pt_clust_3="14000.00000" pt_clust_4="33.23055" pt_clust_5="43.06539" pt_clust_6="129.89871"></scales>
<clustering>
<clus scale="   33.231">  1  4  2 -1</clus>
<clus scale="   43.065">  1  5  2 -1</clus>
<clus scale="  129.899">  1  6  2 -1</clus>
<clus scale="   33.231">  1  3  2 -1</clus>
</clustering>
</event>
<event>
 6    0  0.5510638E+002  0.1208843E+03  0.7546771E-02  0.1241645E+00
         21   -1    0    0  504  501  0.00000000000E+00  0.00000000000E+00  0.17216398590E+03  0.17216398590E+03  0.00000000000E+00 0.  1.
         21   -1    0    0  503  502 -0.00000000000E+00 -0.00000000000E+00 -0.32984305554E+03  0.32984305554E+03  0.00000000000E+00 0. -1.
         21    1    1    2  503  501  0.32235502673E+02 -0.34361737718E+02 -0.20893055417E+02  0.51540046724E+02  0.00000000000E+00 0. -1.
         21    1    1    2  504  505  0.21564041120E+02  0.26865099526E+02  0.30432005666E+02  0.45965730831E+02  0.00000000000E+00 0.  1.
         21    1    1    2  505  506  0.71011197799E+02 -0.19549241952E+02  0.90615742141E+02  0.11677318099E+03  0.00000000000E+00 0. -1.
         21    1    1    2  506  502 -0.12481074159E+03  0.27045880145E+02 -0.25783376203E+03  0.28772808290E+03  0.00000000000E+00 0. -1.
<scales pt_clust_3="46.72498" pt_clust_4="34.44911" pt_clust_5="120.88431" pt_clust_6="14000.00000"></scales>
<clustering>
<clus scale="   34.449">  1  4  2 -1</clus>
<clus scale="   46.725">  1  3  2 -1</clus>
<clus scale="  120.884">  1  5  2 -1</clus>
<clus scale="   34.449">  1  3  2 -1</clus>
</clustering>
</event>
<event>
 6    0  0.5510638E+002  0.1421297E+03  0.7546771E-02  0.1210492E+00
         21   -1    0    0  503  501  0.00000000000E+00  0.00000000000E+00  0.26739943753E+04  0.26739943753E+04  0.00000000000E+00 0. -1.
         21   -1    0    0  504  502 -0.00000000000E+00 -0.00000000000E+00 -0.18778750723E+02  0.18778750723E+02  0.00000000000E+00 0. -1.
         21    1    1    2  503  506 -0.58521142997E+02  0.84460584220E+00  0.18001603836E+03  0.18929134054E+03  0.00000000000E+00 0. -1.
         21    1    1    2  504  505  0.11833583532E+03 -0.51421295997E+02  0.17874573181E+04  0.17921080279E+04  0.00000000000E+00 0. -1.
         21    1    1    2  505  501  0.18858050231E+02  0.34323017578E+02  0.55383310052E+03  0.55521599295E+03  0.00000000000E+00 0. -1.
         21    1    1    2  506  502 -0.78672742553E+02  0.16253672577E+02  0.13390916763E+03  0.15615776468E+03  0.00000000000E+00 0. -1.
<scales pt_clust_3="34.89689" pt_clust_4="136.12240" pt_clust_5="39.16243" pt_clust_6="34.89689"></scales>
<clustering>
<clus scale="   34.897">  3  6 -1 -1</clus>
<clus scale="   39.162">  1  5  2 -1</clus>
<clus scale="  136.122">  1  4  2 -1</clus>
<clus scale="   39.162">  1  3  2 -1</clus>
</clustering>
</event>
<event>
 6    0  0.5510638E+002  0.9226335E+02  0.7546771E-02  0.1297461E+00
         21   -1    0    0  505  501  0.00000000000E+00  0.00000000000E+00  0.50347649624E+03  0.50347649624E+03  0.00000000000E+00 0.  1.
         21   -1    0    0  504  502 -0.00000000000E+00 -0.00000000000E+00 -0.50891337724E+02  0.50891337724E+02  0.00000000000E+00 0.  1.
         21    1    1    2  503  501 -0.53519501710E+02 -0.16282245075E+02  0.16179052810E+03  0.17118885347E+03  0.00000000000E+00 0.  1.
         21    1    1    2  504  503 -0.38461073183E+02 -0.77636774390E+02  0.59307671060E+02  0.10499582246E+03  0.00000000000E+00 0.  1.
         21    1    1    2  505  506  0.35255091406E+02  0.10100887810E+02  0.12913498760E+03  0.13424155254E+03  0.00000000000E+00 0.  1.
         21    1    1    2  506  502  0.56725483487E+02  0.83818131655E+02  0.10235197175E+03  0.14394160549E+03  0.00000000000E+00 0.  1.
<scales pt_clust_3="39.52186" pt_clust_4="92.26335" pt_clust_5="36.67355" pt_clust_6="14000.00000"></scales>
<clustering>
<clus scale="   36.674">  1  5  2 -1</clus>
<clus scale="   39.522">  1  3  2 -1</clus>
<clus scale="   92.263">  2  4  1 -1</clus>
<clus scale="   36.674">  1  3  2 -1</clus>
</clustering>
</event>
<event>
 6    0  0.5510638E+002  0.6931931E+02  0.7546771E-02  0.1362423E+00
         21   -1    0    0  505  501  0.00000000000E+00  0.00000000000E+00  0.26514977840E+03  0.26514977840E+03  0.00000000000E+00 0.  1.
         21   -1    0    0  503  502 -0.00000000000E+00 -0.00000000000E+00 -0.32256756340E+03  0.32256756340E+03  0.00000000000E+00 0.  1.
         21    1    1    2  503  504  0.76941635581E+02  0.18727121827E+02 -0.19484979167E+03  0.21032632192E+03  0.00000000000E+00 0.  1.
         21    1    1    2  504  501 -0.29490866223E+02  0.81500979395E+02  0.14572029812E+03  0.16954800535E+03  0.00000000000E+00 0.  1.
         21    1    1    2  505  506 -0.25645509838E+02 -0.37359388603E+02  0.83184942670E+02  0.94726716287E+02  0.00000000000E+00 0.  1.
         21    1    1    2  506  502 -0.21805259520E+02 -0.62868712619E+02 -0.91473234115E+02  0.11311629824E+03  0.00000000000E+00 0.  1.
<scales pt_clust_3="14000.00000" pt_clust_4="69.31931" pt_clust_5="45.31463" pt_clust_6="69.23072"></scales>
<clustering>
<clus scale="   45.315">  1  5  2 -1</clus>
<clus scale="   69.231">  2  6  1 -1</clus>
<clus scale="   69.319">  1  4  2 -1</clus>
<clus scale="   45.315">  1  3  2 -1</clus>
</clustering>
</event>
<event>
 6    0  0.5510638E+002  0.1640591E+03  0.7546771E-02  0.1184189E+00
         21   -1    0    0  502  501  0.00000000000E+00  0.00000000000E+00  0.36639975074E+03  0.36639975074E+03  0.00000000000E+00 0. -1.
         21   -1    0    0  503  502 -0.00000000000E+00 -0.00000000000E+00 -0.48090160522E+03  0.48090160522E+03  0.00000000000E+00 0. -1.
         21    1    1    2  503  504 -0.20797458087E+02  0.14001774094E+03 -0.18644969189E+03  0.23409611199E+03  0.00000000000E+00 0.  1.
         21    1    1    2  504  505 -0.82471486844E+02 -0.21525401652E+03 -0.20326129260E+03  0.30732879924E+03  0.00000000000E+00 0. -1.
         21    1    1    2  505  506  0.33032520474E+02  0.36058952835E+02  0.69284399840E+02  0.84804030267E+02  0.00000000000E+00 0. -1.
         21    1    1    2  506  501  0.70236424457E+02  0.39177322739E+02  0.20592473018E+03  0.22107241447E+03  0.00000000000E+00 0. -1.
<scales pt_clust_3="14000.00000" pt_clust_4="164.05909" pt_clust_5="30.15388" pt_clust_6="133.49282"></scales>
<clustering>
<clus scale="   30.154">  5  6 -1 -1</clus>
<clus scale="  133.493">  1  5  2 -1</clus>
<clus scale="  164.059">  1  4  2 -1</clus>
<clus scale="  133.493">  1  3  2 -1</clus>
</clustering>
</event>
<event>
 6    0  0.5510638E+002  0.1134100E+03  0.7546771E-02  0.1254382E+00
         21   -1    0    0  504  501  0.00000000000E+00  0.00000000000E+00  0.93657046676E+02  0.93657046676E+02  0.00000000000E+00 0.  1.
         21   -1    0    0  506  502 -0.00000000000E+00 -0.00000000000E+00 -0.22625452887E+04  0.22625452887E+04  0.00000000000E+00 0. -1.
         21    1    1    2  503  502  0.59576908716E+02  0.96714286453E+02 -0.15119794601E+03  0.18911340548E+03  0.00000000000E+00 0.  1.
         21    1    1    2  504  505 -0.41394714762E+02 -0.39661647764E+02  0.21903788263E+01  0.57370432045E+02  0.00000000000E+00 0.  1.
         21    1    1    2  505  503 -0.52075039024E+02 -0.14808596583E+02  0.28116536288E+02  0.61005277107E+02  0.00000000000E+00 0.  1.
         21    1    1    2  506  501  0.33892845070E+02 -0.42244042106E+02 -0.20479972112E+04  0.20487132208E+04  0.00000000000E+00 0. -1.
<scales pt_clust_3="107.10336" pt_clust_4="36.24002" pt_clust_5="36.24002" pt_clust_6="54.15980"></scales>
<clustering>
<clus scale="   36.240">  4  5 -1 -1</clus>
<clus scale="   54.160">  2  6  1 -1</clus>
<clus scale="  107.103">  2  3  1 -1</clus>
<clus scale="  113.410">  1  3  2 -1</clus>
</clustering>
</event>
<event>
 6    0  0.5510638E+002  0.8075339E+02  0.7546771E-02  0.1326927E+00
         21   -1    0    0  506  501  0.00000000000E+00  0.00000000000E+00  0.24022271615E+03  0.24022271615E+03  0.00000000000E+00 0. -1.
         21   -1    0    0  505  502 -0.00000000000E+00 -0.00000000000E+00 -0.74993683175E+03  0.74993683175E+03  0.00000000000E+00 0.  1.
         21    1    1    2  503  501  0.79673551004E+01 -0.39913001644E+02  0.66343933464E+02  0.77833437256E+02  0.00000000000E+00 0. -1.
         21    1    1    2  504  503  0.95047354432E+02  0.12820092209E+02  0.81932616283E+02  0.12614003314E+03  0.00000000000E+00 0. -1.
         21    1    1    2  505  504 -0.39030771424E+02 -0.15224008883E+02 -0.69828157611E+03  0.69953722638E+03  0.00000000000E+00 0.  1.
         21    1    1    2  506  502 -0.63983938108E+02  0.42316918318E+02  0.40290910755E+02  0.86648851124E+02  0.00000000000E+00 0. -1.
<scales pt_clust_3="40.70045" pt_clust_4="14000.00000" pt_clust_5="41.92148" pt_clust_6="80.75339"></scales>
<clustering>
<clus scale="   40.700">  1  3  2 -1</clus>
<clus scale="   41.921">  2  5  1 -1</clus>
<clus scale="   80.753">  1  6  2 -1</clus>
<clus scale="   40.700">  1  3  2 -1</clus>
</clustering>
</event>
<event>
 6    0  0.5510638E+002  0.1637905E+03  0.7546771E-02  0.1184483E+00
         21   -1    0    0  506  501  0.00000000000E+00  0.00000000000E+00  0.77514006735E+03  0.77514006735E+03  0.00000000000E+00 0. -1.
         21   -1    0    0  505  502 -0.00000000000E+00 -0.00000000000E+00 -0.33645815110E+02  0.33645815110E+02  0.00000000000E+00 0.  1.
         21    1    1    2  503  501  0.10091629235E+03 -0.59486313240E+01  0.32944138665E+03  0.34460283156E+03  0.00000000000E+00 0. -1.
         21    1    1    2  504  502 -0.55294268588E+02  0.46684864927E+02  0.17781455017E+03  0.19197642304E+03  0.00000000000E+00 0.  1.
         21    1    1    2  505  503  0.41735482628E+02 -0.27396433457E+02  0.94331859828E+02  0.10672822895E+03  0.00000000000E+00 0.  1.
         21    1    1    2  506  504 -0.87357506391E+02 -0.13339800145E+02  0.13990645559E+03  0.16547839891E+03  0.00000000000E+00 0.  1.
<scales pt_clust_3="155.29315" pt_clust_4="66.28837" pt_clust_5="36.20699" pt_clust_6="66.28837"></scales>
<clustering>
<clus scale="   36.207">  3  5 -1 -1</clus>
<clus scale="   66.288">  4  6 -1 -1</clus>
<clus scale="  155.293">  1  3  2 -1</clus>
<clus scale="  155.293">  1  3  2 -1</clus>
</clustering>
</event>
<event>
 6    0  0.5510638E+002  0.2359931E+03  0.7546771E-02  0.1122491E+00
         21   -1    0    0  503  501  0.00000000000E+00  0.00000000000E+00  0.23489729571E+03  0.23489729571E+03  0.00000000000E+00 0.  1.
         21   -1    0    0  505  502 -0.00000000000E+00 -0.00000000000E+00 -0.19839175866E+04  0.19839175866E+04  0.00000000000E+00 0. -1.
         21    1    1    2  503  506 -0.54082054143E+02  0.15152065775E+02  0.17558551968E+02  0.58845190328E+02  0.00000000000E+00 0. -1.
         21    1    1    2  504  501  0.81525764645E+02 -0.11941088994E+03 -0.65405817004E+03  0.66984886410E+03  0.00000000000E+00 0. -1.
         21    1    1    2  505  504  0.10826767478E+03 -0.21915868642E+02 -0.12528293975E+04  0.12576898243E+04  0.00000000000E+00 0. -1.
         21    1    1    2  506  502 -0.13571138528E+03  0.12617469281E+03  0.14030872474E+03  0.23243100361E+03  0.00000000000E+00 0.  1.
<scales pt_clust_3="34.49094" pt_clust_4="227.52536" pt_clust_5="110.46354" pt_clust_6="34.49094"></scales>
<clustering>
<clus scale="   34.491">  3  6 -1 -1</clus>
<clus scale="  110.464">  2  5  1 -1</clus>
<clus scale="  227.525">  2  4  1 -1</clus>
<clus scale="  235.993">  1  3  2 -1</clus>
</clustering>
</event>
<event>
 6    0  0.5510638E+002  0.2232737E+03  0.7546771E-02  0.1131466E+00
         21   -1    0    0  505  501  0.00000000000E+00  0.00000000000E+00  0.65267207526E+03  0.65267207526E+03  0.00000000000E+00 0.  1.
         21   -1    0    0  506  502 -0.00000000000E+00 -0.00000000000E+00 -0.68102137497E+03  0.68102137497E+03  0.00000000000E+00 0. -1.
         21    1    1    2  503  504  0.72493030444E+02 -0.82142612893E+02  0.28216879168E+03  0.30269105589E+03  0.00000000000E+00 0.  1.
         21    1    1    2  504  502 -0.15292704128E+03  0.18844313137E+03 -0.58845458982E+03  0.63653460078E+03  0.00000000000E+00 0. -1.
         21    1    1    2  505  503  0.10311878682E+03 -0.46507977457E+02  0.30479166293E+03  0.32510680392E+03  0.00000000000E+00 0.  1.
         21    1    1    2  506  501 -0.22684775983E+02 -0.59792541022E+02 -0.26855164500E+02  0.69360989638E+02  0.00000000000E+00 0. -1.
<scales pt_clust_3="46.33814" pt_clust_4="218.25222" pt_clust_5="46.33814" pt_clust_6="63.95113"></scales>
<clustering>
<clus scale="   46.338">  3  5 -1 -1</clus>
<clus scale="   63.951">  2  6  1 -1</clus>
<clus scale="  218.252">  2  4  1 -1</clus>
<clus scale="  223.274">  1  3  2 -1</clus>
</clustering>
</event>
<event>
 6    0  0.5510638E+002  0.6132079E+02  0.7546771E-02  0.1392371E+00
         21   -1    0    0  504  501  0.00000000000E+00  0.00000000000E+00  0.21067911295E+04  0.21067911295E+04  0.00000000000E+00 0.  1.
         21   -1    0    0  506  502 -0.00000000000E+00 -0.00000000000E+00 -0.13450243952E+03  0.13450243952E+03  0.00000000000E+00 0.  1.
         21    1    1    2  503  502  0.16459315738E+02  0.57768467864E+02 -0.10635115923E+02  0.61001726571E+02  0.00000000000E+00 0.  1.
         21    1    1    2  504  503  0.66008178067E+02  0.60200466397E+02  0.19489085850E+04  0.19509551119E+04  0.00000000000E+00 0.  1.
         21    1    1    2  505  501 -0.17239746601E+02 -0.26984203460E+02  0.96120224495E+02  0.10131364003E+03  0.00000000000E+00 0. -1.
         21    1    1    2  506  505 -0.65227747204E+02 -0.90984730801E+02 -0.62105003605E+02  0.12802309056E+03  0.00000000000E+00 0.  1.
<scales pt_clust_3="59.68291" pt_clust_4="61.32079" pt_clust_5="32.02118" pt_clust_6="14000.00000"></scales>
<clustering>
<clus scale="   32.021">  1  5  2 -1</clus>
<clus scale="   59.683">  2  3  1 -1</clus>
<clus scale="   61.321">  1  4  2 -1</clus>
<clus scale="   32.021">  1  3  2 -1</clus>
</clustering>
</event>
<event>
 6    0  0.5510638E+002  0.8863090E+02  0.7546771E-02  0.1306201E+00
         21   -1    0    0  503  501  0.00000000000E+00  0.00000000000E+00  0.85798244733E+02  0.85798244733E+02  0.00000000000E+00 0.  1.
         21   -1    0    0  506  502 -0.00000000000E+00 -0.00000000000E+00 -0.34671992552E+03  0.34671992552E+03  0.00000000000E+00 0.  1.
         21    1    1    2  503  504 -0.39824226212E+02  0.83065076816E+02 -0.51517810925E+02  0.10554553909E+03  0.00000000000E+00 0.  1.
         21    1    1    2  504  502  0.26510505648E+02  0.36442345863E+02 -0.20151214245E+02  0.49365199455E+02  0.00000000000E+00 0.  1.
         21    1    1    2  505  501 -0.48137207217E+01 -0.90695906340E+02 -0.57838222732E+01  0.91007537787E+02  0.00000000000E+00 0.  1.
         21    1    1    2  506  505  0.18127441286E+02 -0.28811516339E+02 -0.18346883334E+03  0.18659989392E+03  0.00000000000E+00 0.  1.
<scales pt_clust_3="88.63090" pt_clust_4="42.89045" pt_clust_5="14000.00000" pt_clust_6="34.03979"></scales>
<clustering>
<clus scale="   34.040">  2  6  1 -1</clus>
<clus scale="   42.890">  2  4  1 -1</clus>
<clus scale="   88.631">  2  3  1 -1</clus>
<clus scale="   88.631">  1  3  2 -1</clus>
</clustering>
</event>
<event>
 6    0  0.5510638E+002  0.8055688E+02  0.7546771E-02  0.1327478E+00
         21   -1    0    0  506  501  0.00000000000E+00  0.00000000000E+00  0.48574144197E+03  0.48574144197E+03  0.00000000000E+00 0. -1.
         21   -1    0    0  505  502 -0.00000000000E+00 -0.00000000000E+00 -0.27323776976E+03  0.27323776976E+03  0.00000000000E+00 0. -1.
         21    1    1    2  503  504  0.60110555766E+02 -0.57291354651E+02  0.40971034318E+02  0.92596997172E+02  0.00000000000E+00 0. -1.
         21    1    1    2  504  501  0.25296743448E+02 -0.16171063087E+02  0.84602599233E+02  0.89772090916E+02  0.00000000000E+00 0.  1.
         21    1    1    2  505  503 -0.35665092205E+02 -0.15068668771E+02 -0.23545128766E+03  0.23861343726E+03  0.00000000000E+00 0. -1.
         21    1    1    2  506  502 -0.49742207010E+02  0.88531086509E+02  0.32238132633E+03  0.33799668638E+03  0.00000000000E+00 0. -1.
<scales pt_clust_3="80.55688" pt_clust_4="30.02380" pt_clust_5="38.65039" pt_clust_6="14000.00000"></scales>
<clustering>
<clus scale="   30.024">  1  4  2 -1</clus>
<clus scale="   38.650">  2  5  1 -1</clus>
<clus scale="   80.557">  2  3  1 -1</clus>
<clus scale="   30.024">  1  3  2 -1</clus>
</clustering>
</event>
<event>
 6    0  0.5510638E+002  0.4118002E+03  0.7546771E-02  0.1039769E+00
         21   -1    0    0  503  501  0.00000000000E+00  0.00000000000E+00  0.70883793064E+03  0.70883793064E+03  0.00000000000E+00 0.  1.
         21   -1    0    0  505  502 -0.00000000000E+00 -0.00000000000E+00 -0.11540702338E+04  0.11540702338E+04  0.00000000000E+00 0. -1.
         21    1    1    2  503  502 -0.23841640146E+03 -0.26854210286E+03  0.54888355856E+03  0.65591950905E+03  0.00000000000E+00 0.  1.
         21    1    1    2  504  506  0.25025243771E+03  0.35488971052E+03 -0.56456104152E+03  0.71225147161E+03  0.00000000000E+00 0. -1.
         21    1    1    2  505  504  0.24915187708E+02 -0.42894376599E+02 -0.43476744591E+03  0.43758819242E+03  0.00000000000E+00 0.  1.
         21    1    1    2  506  501 -0.36751223965E+02 -0.43453231061E+02  0.52126256607E+01  0.57148991407E+02  0.00000000000E+00 0.  1.
<scales pt_clust_3="411.80021" pt_clust_4="14000.00000" pt_clust_5="49.60538" pt_clust_6="57.53830"></scales>
<clustering>
<clus scale="   49.605">  2  5  1 -1</clus>
<clus scale="   57.538">  1  6  2 -1</clus>
<clus scale="  411.800">  1  3  2 -1</clus>
<clus scale="   57.538">  1  3  2 -1</clus>
</clustering>
</event>
<event>
 6    0  0.5510638E+002  0.2054856E+03  0.7546771E-02  0.1145192E+00
         21   -1    0    0  505  501  0.00000000000E+00  0.00000000000E+00  0.83533201744E+03  0.83533201744E+03  0.00000000000E+00 0.  1.
         21   -1    0    0  506  502 -0.00000000000E+00 -0.00000000000E+00 -0.33472896229E+03  0.33472896229E+03  0.00000000000E+00 0.  1.
         21    1    1    2  503  502  0.52710011775E+02 -0.36654543790E+02 -0.17824439810E+03  0.18945439128E+03  0.00000000000E+00 0.  1.
         21    1    1    2  504  503 -0.41314653126E+02  0.10804792142E+03  0.35273776475E+03  0.37122120706E+03  0.00000000000E+00 0.  1.
         21    1    1    2  505  504 -0.34317256686E+02  0.83856310112E+02  0.41787976649E+03  0.42758981992E+03  0.00000000000E+00 0.  1.
         21    1    1    2  506  501  0.22921898037E+02 -0.15524968775E+03 -0.91770077992E+02  0.18179556147E+03  0.00000000000E+00 0.  1.
<scales pt_clust_3="64.20203" pt_clust_4="36.49329" pt_clust_5="36.49329" pt_clust_6="201.30588"></scales>
<clustering>
<clus scale="   36.493">  4  5 -1 -1</clus>
<clus scale="   64.202">  2  3  1 -1</clus>
<clus scale="  201.306">  2  6  1 -1</clus>
<clus scale="  205.486">  1  3  2 -1</clus>
</clustering>
</event>
<event>
 6    0  0.5510638E+002  0.1378270E+03  0.7546771E-02  0.1216283E+00
         21   -1    0    0  506  501  0.00000000000E+00  0.00000000000E+00  0.39561994155E+03  0.39561994155E+03  0.00000000000E+00 0.  1.
         21   -1    0    0  505  502 -0.00000000000E+00 -0.00000000000E+00 -0.15361614342E+03  0.15361614342E+03  0.00000000000E+00 0. -1.
         21    1    1    2  503  501 -0.99240322912E+02 -0.21560911601E+02  0.20061415886E+03  0.22485452038E+03  0.00000000000E+00 0.  1.
         21    1    1    2  504  502 -0.52159228966E+02  0.32783922413E+02 -0.35283786737E+02  0.70995185341E+02  0.00000000000E+00 0. -1.
         21    1    1    2  505  503  0.18882473108E+03 -0.39949151481E+02  0.50796762335E+02  0.19957711501E+03  0.00000000000E+00 0. -1.
         21    1    1    2  506  504 -0.37425179199E+02  0.28726140669E+02  0.25876663667E+02  0.53809264243E+02  0.00000000000E+00 0.  1.
<scales pt_clust_3="14000.00000" pt_clust_4="63.96442" pt_clust_5="137.82705" pt_clust_6="47.17876"></scales>
<clustering>
<clus scale="   47.179">  1  6  2 -1</clus>
<clus scale="   63.964">  2  4  1 -1</clus>
<clus scale="  137.827">  2  5  1 -1</clus>
<clus scale="   47.179">  1  3  2 -1</clus>
</clustering>
</event>
<event>
 6    0  0.5510638E+002  0.9949433E+02  0.7546771E-02  0.1281363E+00
         21   -1    0    0  503  501  0.00000000000E+00  0.00000000000E+00  0.14513570688E+03  0.14513570688E+03  0.00000000000E+00 0.  1.
         21   -1    0    0  506  502 -0.00000000000E+00 -0.00000000000E+00 -0.33978801711E+03  0.33978801711E+03  0.00000000000E+00 0. -1.
         21    1    1    2  503  505 -0.70199453020E+02 -0.56446163509E+02  0.97625602845E+02  0.13283407285E+03  0.00000000000E+00 0.  1.
         21    1    1    2  504  502  0.45325398007E+02  0.19774157108E+02 -0.37091112362E+02  0.61815528875E+02  0.00000000000E+00 0. -1.
         21    1    1    2  505  504  0.44725221119E+02 -0.28485064044E+02 -0.45732603917E+02  0.70022962939E+02  0.00000000000E+00 0. -1.
         21    1    1    2  506  501 -0.19851166105E+02  0.65157070446E+02 -0.20945419680E+03  0.22025115932E+03  0.00000000000E+00 0. -1.
<scales pt_clust_3="86.96261" pt_clust_4="46.68083" pt_clust_5="46.68083" pt_clust_6="68.11397"></scales>
<clustering>
<clus scale="   46.681">  4  5 -1 -1</clus>
<clus scale="   68.114">  2  6  1 -1</clus>
<clus scale="   86.963">  1  3  2 -1</clus>
<clus scale="   86.963">  1  3  2 -1</clus>
</clustering>
</event>
<event>
 6    0  0.5510638E+002  0.1538916E+03  0.7546771E-02  0.1195771E+00
         21   -1    0    0  503  501  0.00000000000E+00  0.00000000000E+00  0.14127578571E+04  0.14127578571E+04  0.00000000000E+00 0. -1.
         21   -1    0    0  505  502 -0.00000000000E+00 -0.00000000000E+00 -0.49808553505E+03  0.49808553505E+03  0.00000000000E+00 0.  1.
         21    1    1    2  503  504  0.10610227229E+03  0.15792242857E+03  0.37376588532E+03  0.41940210140E+03  0.00000000000E+00 0. -1.
         21    1    1    2  504  502  0.84258993823E+02 -0.15872853723E+03 -0.37902694786E+03  0.41947080206E+03  0.00000000000E+00 0.  1.
         21    1    1    2  505  506 -0.12016480214E+03  0.12535977232E+02 -0.25818267042E+02  0.12354478261E+03  0.00000000000E+00 0. -1.
         21    1    1    2  506  501 -0.70196463976E+02 -0.11729868571E+02  0.94575165162E+03  0.94842570606E+03  0.00000000000E+00 0. -1.
<scales pt_clust_3="153.89163" pt_clust_4="14000.00000" pt_clust_5="128.03071" pt_clust_6="71.16975"></scales>
<clustering>
<clus scale="   71.170">  1  6  2 -1</clus>
<clus scale="  128.031">  2  5  1 -1</clus>
<clus scale="  153.892">  1  3  2 -1</clus>
<clus scale="   71.170">  1  3  2 -1</clus>
</clustering>
</event>
<event>
 6    0  0.5510638E+002  0.1248754E+03  0.7546771E-02  0.1235264E+00
         21   -1    0    0  505  501  0.00000000000E+00  0.00000000000E+00  0.36620685714E+03  0.36620685714E+03  0.00000000000E+00 0.  1.
         21   -1    0    0  506  502 -0.00000000000E+00 -0.00000000000E+00 -0.18918848790E+04  0.18918848790E+04  0.00000000000E+00 0.  1.
         21    1    1    2  503  504  0.10261760197E+03  0.18657490624E+02  0.32169621225E+02  0.10914833356E+03  0.00000000000E+00 0.  1.
         21    1    1    2  504  501 -0.25357401032E+02  0.51882090322E+02  0.26519807875E+03  0.27141254587E+03  0.00000000000E+00 0.  1.
         21    1    1    2  505  502  0.47493958826E+02 -0.85738113616E+02 -0.71107765817E+02  0.12109093530E+03  0.00000000000E+00 0.  1.
         21    1    1    2  506  503 -0.12475415976E+03  0.15198532670E+02 -0.17519379560E+04  0.17564399214E+04  0.00000000000E+00 0.  1.
<scales pt_clust_3="14000.00000" pt_clust_4="57.74729" pt_clust_5="83.29526" pt_clust_6="124.87538"></scales>
<clustering>
<clus scale="   57.747">  1  4  2 -1</clus>
<clus scale="   83.295">  1  5  2 -1</clus>
<clus scale="  124.875">  2  6  1 -1</clus>
<clus scale="   57.747">  1  3  2 -1</clus>
</clustering>
</event>
<event>
 6    0  0.5510638E+002  0.1124664E+03  0.7546771E-02  0.1256070E+00
         21   -1    0    0  504  501  0.00000000000E+00  0.00000000000E+00  0.26110700102E+03  0.26110700102E+03  0.00000000000E+00 0. -1.
         21   -1    0    0  506  502 -0.00000000000E+00 -0.00000000000E+00 -0.57877451283E+03  0.57877451283E+03  0.00000000000E+00 0.  1.
         21    1    1    2  503  502  0.23771290540E+02 -0.51420485932E+02 -0.52623380358E+03  0.52927417910E+03  0.00000000000E+00 0.  1.
         21    1    1    2  504  503  0.80404971613E+02 -0.33081270419E+02  0.92196816873E+02  0.12672640985E+03  0.00000000000E+00 0.  1.
         21    1    1    2  505  501 -0.63790503664E+02  0.43197766425E+02  0.94943705425E+02  0.12226848564E+03  0.00000000000E+00 0. -1.
         21    1    1    2  506  505 -0.40385758488E+02  0.41303989926E+02  0.21425769479E+02  0.61612439249E+02  0.00000000000E+00 0. -1.
<scales pt_clust_3="56.64928" pt_clust_4="101.84098" pt_clust_5="41.32100" pt_clust_6="41.32100"></scales>
<clustering>
<clus scale="   41.321">  5  6 -1 -1</clus>
<clus scale="   56.649">  2  3  1 -1</clus>
<clus scale="  101.841">  1  4  2 -1</clus>
<clus scale="  101.841">  1  3  2 -1</clus>
</clustering>
</event>
<event>
 6    0  0.5510638E+002  0.8103123E+02  0.7546771E-02  0.1326150E+00
         21   -1    0    0  504  501  0.00000000000E+00  0.00000000000E+00  0.17816325407E+04  0.17816325407E+04  0.00000000000E+00 0.  1.
         21   -1    0    0  503  502 -0.00000000000E+00 -0.00000000000E+00 -0.19384005789E+03  0.19384005789E+03  0.00000000000E+00 0. -1.
         21    1    1    2  503  505 -0.60007174196E+02  0.51515302467E+01 -0.17968986045E+03  0.18951476240E+03  0.00000000000E+00 0. -1.
         21    1    1    2  504  502 -0.10880839591E+02 -0.31841273495E+02  0.69282227196E+02  0.77021337129E+02  0.00000000000E+00 0. -1.
         21    1    1    2  505  506  0.85443268060E+02 -0.55707731834E+02  0.72400563296E+03  0.73115529130E+03  0.00000000000E+00 0.  1.
         21    1    1    2  506  501 -0.14555254273E+02  0.82397475083E+02  0.97419448307E+03  0.97778120772E+03  0.00000000000E+00 0. -1.
<scales pt_clust_3="60.25131" pt_clust_4="33.64906" pt_clust_5="81.03123" pt_clust_6="14000.00000"></scales>
<clustering>
<clus scale="   33.649">  1  4  2 -1</clus>
<clus scale="   60.251">  2  3  1 -1</clus>
<clus scale="   81.031">  2  5  1 -1</clus>
<clus scale="   33.649">  1  3  2 -1</clus>
</clustering>
</event>
<event>
 6    0  0.5510638E+002  0.2947194E+03  0.7546771E-02  0.1087911E+00
         21   -1    0    0  506  501  0.00000000000E+00  0.00000000000E+00  0.28195623729E+03  0.28195623729E+03  0.00000000000E+00 0.  1.
         21   -1    0    0  505  502 -0.00000000000E+00 -0.00000000000E+00 -0.24949760082E+04  0.24949760082E+04  0.00000000000E+00 0. -1.
         21    1    1    2  503  501 -0.10920461894E+03  0.16302295038E+03  0.19189907399E+03  0.27445834975E+03  0.00000000000E+00 0.  1.
         21    1    1    2  504  503 -0.54010926795E+02  0.54880037088E+02 -0.14858040055E+01  0.77014325275E+02  0.00000000000E+00 0. -1.
         21    1    1    2  505  504 -0.22264512971E+02 -0.44565401117E+02 -0.15667732090E+03  0.16440671033E+03  0.00000000000E+00 0. -1.
         21    1    1    2  506  502  0.18548005871E+03 -0.17333758635E+03 -0.22467557199E+04  0.22610528601E+04  0.00000000000E+00 0. -1.
<scales pt_clust_3="71.80289" pt_clust_4="71.80289" pt_clust_5="49.81750" pt_clust_6="271.48611"></scales>
<clustering>
<clus scale="   49.818">  2  5  1 -1</clus>
<clus scale="   71.803">  3  4 -1 -1</clus>
<clus scale="  271.486">  2  6  1 -1</clus>
<clus scale="  294.719">  1  3  2 -1</clus>
</clustering>
</event>
<event>
 6    0  0.5510638E+002  0.8265724E+02  0.7546771E-02  0.1321675E+00
         21   -1    0    0  503  501  0.00000000000E+00  0.00000000000E+00  0.60554822621E+03  0.60554822621E+03  0.00000000000E+00 0. -1.
         21   -1    0    0  506  502 -0.00000000000E+00 -0.00000000000E+00 -0.39363787104E+03  0.39363787104E+03  0.00000000000E+00 0.  1.
         21    1    1    2  503  505 -0.28193709651E+02  0.38238807158E+02  0.46436963082E+03  0.46679357929E+03  0.00000000000E+00 0. -1.
         21    1    1    2  504  502  0.50616803211E+02  0.22784152805E+02 -0.26733694296E+03  0.27303886071E+03  0.00000000000E+00 0.  1.
         21    1    1    2  505  504 -0.37370102600E+02 -0.10569921585E+03 -0.90399117062E+02  0.14401683639E+03  0.00000000000E+00 0.  1.
         21    1    1    2  506  501  0.14947009040E+02  0.44676255883E+02  0.10527678437E+03  0.11533682086E+03  0.00000000000E+00 0.  1.
<scales pt_clust_3="82.65724" pt_clust_4="55.69275" pt_clust_5="14000.00000" pt_clust_6="47.11031"></scales>
<clustering>
<clus scale="   47.110">  1  6  2 -1</clus>
<clus scale="   55.693">  2  4  1 -1</clus>
<clus scale="   82.657">  1  3  2 -1</clus>
<clus scale="   47.110">  1  3  2 -1</clus>
</clustering>
</event>
<event>
 6    0  0.5510638E+002  0.1738145E+03  0.7546771E-02  0.1173927E+00
         21   -1    0    0  504  501  0.00000000000E+00  0.00000000000E+00  0.31096683394E+03  0.31096683394E+03  0.00000000000E+00 0. -1.
         21   -1    0    0  503  502 -0.00000000000E+00 -0.00000000000E+00 -0.64957585909E+03  0.64957585909E+03  0.00000000000E+00 0. -1.
         21    1    1    2  503  501 -0.78005540361E+02  0.16745710057E+03 -0.36197453787E+03  0.40638935878E+03  0.00000000000E+00 0. -1.
         21    1    1    2  504  505  0.42813297460E+02  0.27148336758E+02  0.27811024646E+02  0.57822692085E+02  0.00000000000E+00 0. -1.
         21    1    1    2  505  506  0.62358620289E+02 -0.16478053671E+03  0.21228724539E+03  0.27587514813E+03  0.00000000000E+00 0. -1.
         21    1    1    2  506  502 -0.27166377388E+02 -0.29824900614E+02 -0.21673275732E+03  0.22045549404E+03  0.00000000000E+00 0.  1.
<scales pt_clust_3="14000.00000" pt_clust_4="49.34175" pt_clust_5="173.81454" pt_clust_6="40.34274"></scales>
<clustering>
<clus scale="   40.343">  2  6  1 -1</clus>
<clus scale="   49.342">  1  4  2 -1</clus>
<clus scale="  173.815">  1  5  2 -1</clus>
<clus scale="   49.342">  1  3  2 -1</clus>
</clustering>
</event>
<event>
 6    0  0.5510638E+002  0.1220371E+03  0.7546771E-02  0.1239774E+00
         21   -1    0    0  506  501  0.00000000000E+00  0.00000000000E+00  0.27264738873E+02  0.27264738873E+02  0.00000000000E+00 0.  1.
         21   -1    0    0  505  502 -0.00000000000E+00 -0.00000000000E+00 -0.39408100795E+04  0.39408100795E+04  0.00000000000E+00 0.  1.
         21    1    1    2  503  502  0.57984973869E+02  0.43168394286E+02 -0.28553246171E+04  0.28562395621E+04  0.00000000000E+00 0.  1.
         21    1    1    2  504  503 -0.69749046358E+02 -0.46356235610E+01 -0.45427379893E+02  0.83367051751E+02  0.00000000000E+00 0.  1.
         21    1    1    2  505  501  0.56777734954E+02 -0.20636775759E+02 -0.93416318030E+03  0.93611454167E+03  0.00000000000E+00 0. -1.
         21    1    1    2  506  504 -0.45013662465E+02 -0.17895994966E+02 -0.78630163350E+02  0.92353662801E+02  0.00000000000E+00 0.  1.
<scales pt_clust_3="114.38408" pt_clust_4="35.40933" pt_clust_5="60.41182" pt_clust_6="35.40933"></scales>
<clustering>
<clus scale="   35.409">  4  6 -1 -1</clus>
<clus scale="   60.412">  2  5  1 -1</clus>
<clus scale="  114.384">  2  3  1 -1</clus>
<clus scale="  122.037">  1  3  2 -1</clus>
</clustering>
</event>
<event>
 6    0  0.5510638E+002  0.1556793E+03  0.7546771E-02  0.1193663E+00
         21   -1    0    0  506  501  0.00000000000E+00  0.00000000000E+00  0.31861505702E+03  0.31861505702E+03  0.00000000000E+00 0.  1.
         21   -1    0    0  504  502 -0.00000000000E+00 -0.00000000000E+00 -0.74362713015E+03  0.74362713015E+03  0.00000000000E+00 0. -1.
         21    1    1    2  503  501  0.24034581458E+01 -0.97470284023E+02  0.15624867665E+03  0.18417351013E+03  0.00000000000E+00 0.  1.
         21    1    1    2  504  505 -0.42252743812E+02  0.12016621384E+03 -0.64674836107E+03  0.65917270564E+03  0.00000000000E+00 0. -1.
         21    1    1    2  505  503  0.24780365762E+02 -0.51231436457E+02  0.13267244405E+03  0.14436309784E+03  0.00000000000E+00 0.  1.
         21    1    1    2  506  502  0.15068919905E+02  0.28535506639E+02 -0.67184832768E+02  0.74532873555E+02  0.00000000000E+00 0. -1.
<scales pt_clust_3="30.65262" pt_clust_4="150.42049" pt_clust_5="30.65262" pt_clust_6="32.26992"></scales>
<clustering>
<clus scale="   30.653">  3  5 -1 -1</clus>
<clus scale="   32.270">  2  6  1 -1</clus>
<clus scale="  150.420">  2  4  1 -1</clus>
<clus scale="  155.679">  1  3  2 -1</clus>
</clustering>
</event>
<event>
 6    0  0.5510638E+002  0.1767791E+03  0.7546771E-02  0.1170957E+00
         21   -1    0    0  506  501  0.00000000000E+00  0.00000000000E+00  0.66286048037E+03  0.66286048037E+03  0.00000000000E+00 0.  1.
         21   -1    0    0  503  502 -0.00000000000E+00 -0.00000000000E+00 -0.14486570578E+03  0.14486570578E+03  0.00000000000E+00 0.  1.
         21    1    1    2  503  504  0.21462175912E+02 -0.38120855735E+02  0.87464775637E+01  0.44613064305E+02  0.00000000000E+00 0.  1.
         21    1    1    2  504  501  0.12562115810E+03  0.87188481657E+02  0.44285808247E+03  0.46851444792E+03  0.00000000000E+00 0.  1.
         21    1    1    2  505  502 -0.13175548801E+03 -0.11282350500E+03 -0.31972558024E+02  0.17638281200E+03  0.00000000000E+00 0.  1.
         21    1    1    2  506  505 -0.15327846003E+02  0.63755879081E+02  0.98362772580E+02  0.11821586192E+03  0.00000000000E+00 0.  1.
<scales pt_clust_3="43.74728" pt_clust_4="176.77907" pt_clust_5="14000.00000" pt_clust_6="62.28861"></scales>
<clustering>
<clus scale="   43.747">  2  3  1 -1</clus>
<clus scale="   62.289">  1  6  2 -1</clus>
<clus scale="  176.779">  1  4  2 -1</clus>
<clus scale="   62.289">  1  3  2 -1</clus>
</clustering>
</event>
<event>
 6    0  0.5510638E+002  0.8515017E+02  0.7546771E-02  0.1315040E+00
         21   -1    0    0  503  501  0.00000000000E+00  0.00000000000E+00  0.48834610723E+02  0.48834610723E+02  0.00000000000E+00 0. -1.
         21   -1    0    0  505  502 -0.00000000000E+00 -0.00000000000E+00 -0.11394294311E+04  0.11394294311E+04  0.00000000000E+00 0. -1.
         21    1    1    2  503  506 -0.69313224249E+02  0.33318221895E+02 -0.96706104193E+02  0.12355766894E+03  0.00000000000E+00 0. -1.
         21    1    1    2  504  501  0.66672662755E+02 -0.62337716376E+02 -0.30676695615E+02  0.96292754119E+02  0.00000000000E+00 0. -1.
         21    1    1    2  505  504  0.45134387404E+02  0.32365334511E+02 -0.44522965096E+03  0.44868036496E+03  0.00000000000E+00 0. -1.
         21    1    1    2  506  502 -0.42493825910E+02 -0.33458400297E+01 -0.51798236959E+03  0.51973325379E+03  0.00000000000E+00 0. -1.
<scales pt_clust_3="14000.00000" pt_clust_4="85.15017" pt_clust_5="33.29305" pt_clust_6="42.62534"></scales>
<clustering>
<clus scale="   42.625">  2  6  1 -1</clus>
<clus scale="   33.293">  2  5  1 -1</clus>
<clus scale="   85.150">  1  4  2 -1</clus>
<clus scale="   85.150">  1  3  2 -1</clus>
</clustering>
</event>
<event>
 6    0  0.5510638E+002  0.1335090E+03  0.7546771E-02  0.1222340E+00
         21   -1    0    0  506  501  0.00000000000E+00  0.00000000000E+00  0.89269074758E+02  0.89269074758E+02  0.00000000000E+00 0. -1.
         21   -1    0    0  505  502 -0.00000000000E+00 -0.00000000000E+00 -0.28363356056E+03  0.28363356056E+03  0.00000000000E+00 0.  1.
         21    1    1    2  503  502  0.15304920485E+02  0.39187761393E+02 -0.32803661329E+02  0.53347928082E+02  0.00000000000E+00 0.  1.
         21    1    1    2  504  503 -0.86389202492E+02 -0.13852323420E+02  0.38986468258E+01  0.87579567357E+02  0.00000000000E+00 0. -1.
         21    1    1    2  505  501  0.11488497716E+03 -0.24946253446E+02 -0.13264588395E+03  0.17724503962E+03  0.00000000000E+00 0.  1.
         21    1    1    2  506  504 -0.43800695153E+02 -0.38918452745E+00 -0.32813587344E+02  0.54730100264E+02  0.00000000000E+00 0.  1.
<scales pt_clust_3="42.07043" pt_clust_4="33.66480" pt_clust_5="124.74337" pt_clust_6="33.66480"></scales>
<clustering>
<clus scale="   33.665">  4  6 -1 -1</clus>
<clus scale="   42.070">  2  3  1 -1</clus>
<clus scale="  124.743">  2  5  1 -1</clus>
<clus scale="  133.509">  1  3  2 -1</clus>
</clustering>
</event>
<event>
 6    0  0.5510638E+002  0.1222467E+03  0.7546771E-02  0.1239436E+00
         21   -1    0    0  504  501  0.00000000000E+00  0.00000000000E+00  0.38972575922E+03  0.38972575922E+03  0.00000000000E+00 0.  1.
         21   -1    0    0  505  502 -0.00000000000E+00 -0.00000000000E+00 -0.11028790451E+04  0.11028790451E+04  0.00000000000E+00 0.  1.
         21    1    1    2  503  501 -0.20198807786E+02  0.67494566192E+02  0.30209971628E+03  0.31020597492E+03  0.00000000000E+00 0.  1.
         21    1    1    2  504  506 -0.66960025909E+02  0.27697877672E+02  0.57828639685E+02  0.92709056004E+02  0.00000000000E+00 0.  1.
         21    1    1    2  505  503 -0.12632871208E+02 -0.29655455672E+02 -0.48869450677E+02  0.58542793711E+02  0.00000000000E+00 0.  1.
         21    1    1    2  506  502  0.99791704903E+02 -0.65536988191E+02 -0.10242121912E+04  0.10311469797E+04  0.00000000000E+00 0.  1.
<scales pt_clust_3="70.35645" pt_clust_4="122.24670" pt_clust_5="32.23407" pt_clust_6="14000.00000"></scales>
<clustering>
<clus scale="   32.234">  2  5  1 -1</clus>
<clus scale="   70.356">  1  3  2 -1</clus>
<clus scale="  122.247">  1  4  2 -1</clus>
<clus scale="   70.356">  1  3  2 -1</clus>
</clustering>
</event>
<event>
 6    0  0.5510638E+002  0.1314922E+03  0.7546771E-02  0.1225258E+00
         21   -1    0    0  504  501  0.00000000000E+00  0.00000000000E+00  0.14262666722E+03  0.14262666722E+03  0.00000000000E+00 0.  1.
         21   -1    0    0  503  502 -0.00000000000E+00 -0.00000000000E+00 -0.15204230958E+04  0.15204230958E+04  0.00000000000E+00 0.  1.
         21    1    1    2  503  506  0.22997460486E+02  0.20085570708E+02 -0.12802665723E+04  0.12806306296E+04  0.00000000000E+00 0.  1.
         21    1    1    2  504  502  0.10601486579E+03  0.17728361535E+01 -0.35484367588E+02  0.11180981647E+03  0.00000000000E+00 0.  1.
         21    1    1    2  505  501 -0.15101004468E+03  0.19133878413E+02  0.40920201864E+02  0.15762170478E+03  0.00000000000E+00 0.  1.
         21    1    1    2  506  505  0.21997718408E+02 -0.40992285275E+02 -0.10296569052E+03  0.11298761212E+03  0.00000000000E+00 0.  1.
<scales pt_clust_3="30.53381" pt_clust_4="131.49215" pt_clust_5="14000.00000" pt_clust_6="45.46795"></scales>
<clustering>
<clus scale="   30.534">  2  3  1 -1</clus>
<clus scale="   45.468">  2  6  1 -1</clus>
<clus scale="  131.492">  2  4  1 -1</clus>
<clus scale="  131.492">  1  3  2 -1</clus>
</clustering>
</event>
<event>
 6    0  0.5510638E+002  0.1373053E+03  0.7546771E-02  0.1217002E+00
         21   -1    0    0  503  501  0.00000000000E+00  0.00000000000E+00  0.65479609950E+03  0.65479609950E+03  0.00000000000E+00 0.  1.
         21   -1    0    0  501  502 -0.00000000000E+00 -0.00000000000E+00 -0.47541944476E+03  0.47541944476E+03  0.00000000000E+00 0.  1.
         21    1    1    2  503  505  0.12793745919E+03 -0.29405095229E+02  0.51071773968E+03  0.52731893833E+03  0.00000000000E+00 0.  1.
         21    1    1    2  504  502 -0.11689420814E+02  0.32564861462E+02 -0.43654132310E+03  0.43791030992E+03  0.00000000000E+00 0.  1.
         21    1    1    2  505  506 -0.84227459923E+02 -0.16652977382E+02  0.48844535128E+02  0.98779427376E+02  0.00000000000E+00 0.  1.
         21    1    1    2  506  504 -0.32020578449E+02  0.13493211149E+02  0.56355703029E+02  0.66206868641E+02  0.00000000000E+00 0.  1.
<scales pt_clust_3="127.36930" pt_clust_4="34.59932" pt_clust_5="32.62363" pt_clust_6="32.62363"></scales>
<clustering>
<clus scale="   32.624">  5  6 -1 -1</clus>
<clus scale="   34.599">  2  4  1 -1</clus>
<clus scale="  127.369">  1  3  2 -1</clus>
<clus scale="  127.369">  1  3  2 -1</clus>
</clustering>
</event>
<event>
 6    0  0.5510638E+002  0.1934170E+03  0.7546771E-02  0.1155415E+00
         21   -1    0    0  503  501  0.00000000000E+00  0.00000000000E+00  0.11470473919E+04  0.11470473919E+04  0.00000000000E+00 0.  1.
         21   -1    0    0  505  502 -0.00000000000E+00 -0.00000000000E+00 -0.55832994166E+03  0.55832994166E+03  0.00000000000E+00 0. -1.
         21    1    1    2  503  504 -0.55945554775E+02  0.22565470564E+01  0.88058798644E+02  0.10435204417E+03  0.00000000000E+00 0.  1.
         21    1    1    2  504  502 -0.13592436739E+03 -0.73683869315E+02  0.22947399372E+02  0.15630524427E+03  0.00000000000E+00 0.  1.
         21    1    1    2  505  506  0.20797270363E+03 -0.23804367798E+02 -0.45824514003E+03  0.50379351102E+03  0.00000000000E+00 0. -1.
         21    1    1    2  506  501 -0.16102781467E+02  0.95231690057E+02  0.93595639224E+03  0.94092653408E+03  0.00000000000E+00 0.  1.
<scales pt_clust_3="55.99104" pt_clust_4="193.41697" pt_clust_5="14000.00000" pt_clust_6="117.56463"></scales>
<clustering>
<clus scale="   55.991">  1  3  2 -1</clus>
<clus scale="  117.565">  1  6  2 -1</clus>
<clus scale="  193.417">  1  4  2 -1</clus>
<clus scale="   55.991">  1  3  2 -1</clus>
</clustering>
</event>
<event>
 6    0  0.5510638E+002  0.1260302E+03  0.7546771E-02  0.1233468E+00
         21   -1    0    0  506  501  0.00000000000E+00  0.00000000000E+00  0.92699997128E+02  0.92699997128E+02  0.00000000000E+00 0. -1.
         21   -1    0    0  504  502 -0.00000000000E+00 -0.00000000000E+00 -0.22724611132E+04  0.22724611132E+04  0.00000000000E+00 0. -1.
         21    1    1    2  503  502  0.30238666618E+02 -0.61894124333E+01 -0.17829094911E+04  0.17831766427E+04  0.00000000000E+00 0. -1.
         21    1    1    2  504  501 -0.94320198744E+02  0.12777344767E+03 -0.33420126235E+03  0.37001734767E+03  0.00000000000E+00 0. -1.
         21    1    1    2  505  503 -0.14948126698E+02 -0.29574192283E+02 -0.82643436991E+02  0.89039412727E+02  0.00000000000E+00 0. -1.
         21    1    1    2  506  505  0.79029658824E+02 -0.92009842951E+02  0.19993074360E+02  0.12292770719E+03  0.00000000000E+00 0. -1.
<scales pt_clust_3="30.86561" pt_clust_4="126.03016" pt_clust_5="32.14090" pt_clust_6="14000.00000"></scales>
<clustering>
<clus scale="   30.866">  2  3  1 -1</clus>
<clus scale="   32.141">  2  5  1 -1</clus>
<clus scale="  126.030">  2  4  1 -1</clus>
<clus scale="  126.030">  1  3  2 -1</clus>
</clustering>
</event>
<event>
 6    0  0.5510638E+002  0.8662294E+02  0.7546771E-02  0.1311242E+00
         21   -1    0    0  504  501  0.00000000000E+00  0.00000000000E+00  0.14477690891E+03  0.14477690891E+03  0.00000000000E+00 0.  1.
         21   -1    0    0  505  502 -0.00000000000E+00 -0.00000000000E+00 -0.82351504355E+03  0.82351504355E+03  0.00000000000E+00 0. -1.
         21    1    1    2  503  502 -0.27035489214E+01  0.30170633113E+02 -0.38881809824E+02  0.49288654013E+02  0.00000000000E+00 0.  1.
         21    1    1    2  504  503 -0.62314703215E+01 -0.82671663728E+02  0.11544033521E+03  0.14212637405E+03  0.00000000000E+00 0.  1.
         21    1    1    2  505  506 -0.78624782554E+02  0.47225267913E+02 -0.44874385184E+03  0.45802088045E+03  0.00000000000E+00 0. -1.
         21    1    1    2  506  501  0.87559801796E+02  0.52757627025E+01 -0.30655280817E+03  0.31885604395E+03  0.00000000000E+00 0.  1.
<scales pt_clust_3="30.29152" pt_clust_4="82.39468" pt_clust_5="86.62294" pt_clust_6="14000.00000"></scales>
<clustering>
<clus scale="   30.292">  2  3  1 -1</clus>
<clus scale="   82.395">  1  4  2 -1</clus>
<clus scale="   86.623">  2  5  1 -1</clus>
<clus scale="   82.395">  1  3  2 -1</clus>
</clustering>
</event>
<event>
 6    0  0.5510638E+002  0.8622813E+02  0.7546771E-02  0.1312252E+00
         21   -1    0    0  503  501  0.00000000000E+00  0.00000000000E+00  0.85861497551E+03  0.85861497551E+03  0.00000000000E+00 0.  1.
         21   -1    0    0  505  502 -0.00000000000E+00 -0.00000000000E+00 -0.30463269700E+03  0.30463269700E+03  0.00000000000E+00 0. -1.
         21    1    1    2  503  506 -0.83824154373E+02 -0.75950059337E+00  0.55128194891E+03  0.55761891368E+03  0.00000000000E+00 0.  1.
         21    1    1    2  504  501  0.86974927688E+02  0.76120913829E+02  0.28117980157E+03  0.30400840840E+03  0.00000000000E+00 0.  1.
         21    1    1    2  505  504 -0.27094500323E+02 -0.16038264901E+02 -0.18911402410E+03  0.19171711452E+03  0.00000000000E+00 0. -1.
         21    1    1    2  506  502  0.23943727009E+02 -0.59323148335E+02 -0.89365447863E+02  0.10990323591E+03  0.00000000000E+00 0. -1.
<scales pt_clust_3="86.22813" pt_clust_4="14000.00000" pt_clust_5="31.48552" pt_clust_6="73.31436"></scales>
<clustering>
<clus scale="   31.486">  2  5  1 -1</clus>
<clus scale="   73.314">  2  6  1 -1</clus>
<clus scale="   86.228">  1  3  2 -1</clus>
<clus scale="   86.228">  1  3  2 -1</clus>
</clustering>
</event>
<event>
 6    0  0.5510638E+002  0.1476966E+03  0.7546771E-02  0.1203332E+00
         21   -1    0    0  506  501  0.00000000000E+00  0.00000000000E+00  0.42295202807E+03  0.42295202807E+03  0.00000000000E+00 0.  1.
         21   -1    0    0  504  502 -0.00000000000E+00 -0.00000000000E+00 -0.15096563734E+04  0.15096563734E+04  0.00000000000E+00 0. -1.
         21    1    1    2  503  505  0.40054643915E+02 -0.33061953159E+02 -0.17720764784E+03  0.18466190105E+03  0.00000000000E+00 0. -1.
         21    1    1    2  504  503 -0.59798700159E+01  0.51026449120E+02 -0.11887653269E+04  0.11898749765E+04  0.00000000000E+00 0. -1.
         21    1    1    2  505  501  0.84020787122E+02  0.77200381027E+02 -0.98662522040E+02  0.15084324564E+03  0.00000000000E+00 0. -1.
         21    1    1    2  506  502 -0.11809556102E+03 -0.95164876988E+02  0.37793115146E+03  0.40722827823E+03  0.00000000000E+00 0.  1.
<scales pt_clust_3="36.92141" pt_clust_4="51.37565" pt_clust_5="14000.00000" pt_clust_6="147.69662"></scales>
<clustering>
<clus scale="   51.376">  2  4  1 -1</clus>
<clus scale="   36.921">  2  3  1 -1</clus>
<clus scale="  147.697">  1  6  2 -1</clus>
<clus scale="  147.697">  1  3  2 -1</clus>
</clustering>
</event>
<event>
 6    0  0.5510638E+002  0.1080899E+03  0.7546771E-02  0.1264149E+00
         21   -1    0    0  503  501  0.00000000000E+00  0.00000000000E+00  0.13269444524E+03  0.13269444524E+03  0.00000000000E+00 0.  1.
         21   -1    0    0  505  502 -0.00000000000E+00 -0.00000000000E+00 -0.62520852671E+03  0.62520852671E+03  0.00000000000E+00 0.  1.
         21    1    1    2  503  502  0.42899739498E+02 -0.12888457868E+03 -0.20402983105E+02  0.13736048919E+03  0.00000000000E+00 0.  1.
         21    1    1    2  504  506 -0.51332991552E+02  0.11224238758E+03 -0.14437077521E+03  0.18993775382E+03  0.00000000000E+00 0.  1.
         21    1    1    2  505  504  0.96350300395E+02 -0.25993570237E+02 -0.31696341627E+03  0.33230235229E+03  0.00000000000E+00 0.  1.
         21    1    1    2  506  501 -0.87917048341E+02  0.42635761345E+02 -0.10776906877E+02  0.98302376657E+02  0.00000000000E+00 0.  1.
<scales pt_clust_3="108.08986" pt_clust_4="14000.00000" pt_clust_5="91.53060" pt_clust_6="97.70985"></scales>
<clustering>
<clus scale="   97.710">  1  6  2 -1</clus>
<clus scale="   91.531">  2  5  1 -1</clus>
<clus scale="  108.090">  1  3  2 -1</clus>
<clus scale="   97.710">  1  3  2 -1</clus>
</clustering>
</event>
<event>
 6    0  0.5510638E+002  0.1847780E+03  0.7546771E-02  0.1163257E+00
         21   -1    0    0  503  501  0.00000000000E+00  0.00000000000E+00  0.12291428332E+04  0.12291428332E+04  0.00000000000E+00 0.  1.
         21   -1    0    0  505  502 -0.00000000000E+00 -0.00000000000E+00 -0.45398508010E+03  0.45398508010E+03  0.00000000000E+00 0.  1.
         21    1    1    2  503  504 -0.91643464482E+02 -0.12288131560E+03  0.10870382789E+04  0.10977934970E+04  0.00000000000E+00 0.  1.
         21    1    1    2  504  502  0.15220294102E+02  0.19039355891E+03 -0.36833146686E+03  0.41490894676E+03  0.00000000000E+00 0.  1.
         21    1    1    2  505  506  0.57578281880E+02 -0.18881860407E+02 -0.31409167282E+02  0.68251878993E+02  0.00000000000E+00 0.  1.
         21    1    1    2  506  501  0.18844888499E+02 -0.48630382904E+02  0.87860108365E+02  0.10217359055E+03  0.00000000000E+00 0. -1.
<scales pt_clust_3="184.77804" pt_clust_4="14000.00000" pt_clust_5="61.13574" pt_clust_6="52.15404"></scales>
<clustering>
<clus scale="   52.154">  1  6  2 -1</clus>
<clus scale="   61.136">  2  5  1 -1</clus>
<clus scale="  184.778">  1  3  2 -1</clus>
<clus scale="   52.154">  1  3  2 -1</clus>
</clustering>
</event>
<event>
 6    0  0.5510638E+002  0.1353327E+03  0.7546771E-02  0.1219751E+00
         21   -1    0    0  503  501  0.00000000000E+00  0.00000000000E+00  0.18489114921E+04  0.18489114921E+04  0.00000000000E+00 0.  1.
         21   -1    0    0  505  502 -0.00000000000E+00 -0.00000000000E+00 -0.18894577305E+03  0.18894577305E+03  0.00000000000E+00 0.  1.
         21    1    1    2  503  502  0.17201204807E+03  0.18597270905E+01  0.14390953883E+04  0.14493402430E+04  0.00000000000E+00 0.  1.
         21    1    1    2  504  501 -0.37864902061E+02  0.37951823487E+02  0.29040891357E+03  0.29531581196E+03  0.00000000000E+00 0.  1.
         21    1    1    2  505  506 -0.29315459763E+02 -0.27655586026E+02 -0.15327326070E+03  0.15848318543E+03  0.00000000000E+00 0.  1.
         21    1    1    2  506  504 -0.10483168625E+03 -0.12155964552E+02  0.83734677832E+02  0.13471802473E+03  0.00000000000E+00 0.  1.
<scales pt_clust_3="14000.00000" pt_clust_4="53.77734" pt_clust_5="40.30171" pt_clust_6="135.33270"></scales>
<clustering>
<clus scale="   40.302">  2  5  1 -1</clus>
<clus scale="   53.777">  1  4  2 -1</clus>
<clus scale="  135.333">  2  6  1 -1</clus>
<clus scale="   53.777">  1  3  2 -1</clus>
</clustering>
</event>
<event>
 6    0  0.5510638E+002  0.3451892E+03  0.7546771E-02  0.1064607E+00
         21   -1    0    0  506  501  0.00000000000E+00  0.00000000000E+00  0.43928292736E+03  0.43928292736E+03  0.00000000000E+00 0.  1.
         21   -1    0    0  503  502 -0.00000000000E+00 -0.00000000000E+00 -0.44389964927E+03  0.44389964927E+03  0.00000000000E+00 0.  1.
         21    1    1    2  503  501  0.35675497585E+02  0.34205604113E+03  0.96164268523E+02  0.35710312648E+03  0.00000000000E+00 0.  1.
         21    1    1    2  504  505 -0.40207981669E+01 -0.64980092449E+02 -0.26188962429E+02  0.70174361313E+02  0.00000000000E+00 0. -1.
         21    1    1    2  505  502 -0.10903404085E+02 -0.30087270859E+02 -0.18271003402E+03  0.18549146778E+03  0.00000000000E+00 0. -1.
         21    1    1    2  506  504 -0.20751295333E+02 -0.24698867782E+03  0.10811800601E+03  0.27041362106E+03  0.00000000000E+00 0.  1.
<scales pt_clust_3="328.33821" pt_clust_4="55.86716" pt_clust_5="32.00200" pt_clust_6="55.86716"></scales>
<clustering>
<clus scale="   32.002">  2  5  1 -1</clus>
<clus scale="   55.867">  4  6 -1 -1</clus>
<clus scale="  328.338">  2  3  1 -1</clus>
<clus scale="  345.189">  1  3  2 -1</clus>
</clustering>
</event>
<event>
 6    0  0.5510638E+002  0.7155712E+02  0.7546771E-02  0.1354877E+00
         21   -1    0    0  504  501  0.00000000000E+00  0.00000000000E+00  0.56482968417E+02  0.56482968417E+02  0.00000000000E+00 0.  1.
         21   -1    0    0  505  502 -0.00000000000E+00 -0.00000000000E+00 -0.52140140545E+03  0.52140140545E+03  0.00000000000E+00 0.  1.
         21    1    1    2  503  502  0.82774727354E+02 -0.20634476339E+01 -0.75328320829E+02  0.11193868511E+03  0.00000000000E+00 0.  1.
         21    1    1    2  504  503  0.25002570582E+01  0.35826432935E+02  0.42417090627E+01  0.36163195074E+02  0.00000000000E+00 0. -1.
         21    1    1    2  505  506 -0.28602329759E+02 -0.67782427366E+02 -0.32925498266E+03  0.33737426448E+03  0.00000000000E+00 0.  1.
         21    1    1    2  506  501 -0.56672654654E+02  0.34019442065E+02 -0.64576842610E+02  0.92408229208E+02  0.00000000000E+00 0. -1.
<scales pt_clust_3="71.55712" pt_clust_4="35.91357" pt_clust_5="69.77993" pt_clust_6="14000.00000"></scales>
<clustering>
<clus scale="   35.914">  1  4  2 -1</clus>
<clus scale="   69.780">  2  5  1 -1</clus>
<clus scale="   71.557">  2  3  1 -1</clus>
<clus scale="   35.914">  1  3  2 -1</clus>
</clustering>
</event>
<event>
 6    0  0.5510638E+002  0.9091425E+02  0.7546771E-02  0.1300653E+00
         21   -1    0    0  505  501  0.00000000000E+00  0.00000000000E+00  0.44848114427E+02  0.44848114427E+02  0.00000000000E+00 0. -1.
         21   -1    0    0  504  502 -0.00000000000E+00 -0.00000000000E+00 -0.50188591075E+03  0.50188591075E+03  0.00000000000E+00 0. -1.
         21    1    1    2  503  506  0.66919002366E+02 -0.16257842581E+02 -0.85942264992E+02  0.11012966555E+03  0.00000000000E+00 0. -1.
         21    1    1    2  504  503  0.15670938359E+02  0.26339765227E+02 -0.11888859589E+03  0.12277564813E+03  0.00000000000E+00 0.  1.
         21    1    1    2  505  502 -0.11948457620E+03 -0.22246506038E+02 -0.24613780463E+03  0.27450917990E+03  0.00000000000E+00 0. -1.
         21    1    1    2  506  501  0.36894635478E+02  0.12164583392E+02 -0.60691308168E+01  0.39319531597E+02  0.00000000000E+00 0.  1.
<scales pt_clust_3="14000.00000" pt_clust_4="30.64901" pt_clust_5="90.91425" pt_clust_6="40.24372"></scales>
<clustering>
<clus scale="   30.649">  2  4  1 -1</clus>
<clus scale="   40.244">  1  6  2 -1</clus>
<clus scale="   90.914">  2  5  1 -1</clus>
<clus scale="   40.244">  1  3  2 -1</clus>
</clustering>
</event>
<event>
 6    0  0.5510638E+002  0.3890322E+03  0.7546771E-02  0.1047645E+00
         21   -1    0    0  504  501  0.00000000000E+00  0.00000000000E+00  0.12426020854E+04  0.12426020854E+04  0.00000000000E+00 0. -1.
         21   -1    0    0  506  502 -0.00000000000E+00 -0.00000000000E+00 -0.15938887299E+04  0.15938887299E+04  0.00000000000E+00 0. -1.
         21    1    1    2  503  501 -0.35997987499E+03 -0.19268335860E+03  0.10926126674E+04  0.11664110888E+04  0.00000000000E+00 0. -1.
         21    1    1    2  504  502  0.65556374920E+02  0.18428263051E+03 -0.12398745705E+04  0.12552078222E+04  0.00000000000E+00 0. -1.
         21    1    1    2  505  503  0.28382953645E+03  0.57162289046E+02 -0.11247802130E+03  0.31060914076E+03  0.00000000000E+00 0.  1.
         21    1    1    2  506  505  0.10593963621E+02 -0.48761560958E+02 -0.91546720136E+02  0.10426276354E+03  0.00000000000E+00 0. -1.
<scales pt_clust_3="14000.00000" pt_clust_4="161.74192" pt_clust_5="389.03224" pt_clust_6="49.89912"></scales>
<clustering>
<clus scale="   49.899">  2  6  1 -1</clus>
<clus scale="  161.742">  2  4  1 -1</clus>
<clus scale="  389.032">  2  5  1 -1</clus>
<clus scale="  389.032">  1  3  2 -1</clus>
</clustering>
</event>
<event>
 6    0  0.5510638E+002  0.1724988E+03  0.7546771E-02  0.1175267E+00
         21   -1    0    0  503  501  0.00000000000E+00  0.00000000000E+00  0.19672187429E+03  0.19672187429E+03  0.00000000000E+00 0.  1.
         21   -1    0    0  504  502 -0.00000000000E+00 -0.00000000000E+00 -0.87444588067E+03  0.87444588067E+03  0.00000000000E+00 0. -1.
         21    1    1    2  503  505  0.72790934470E+02 -0.11757521177E+02 -0.18875291611E+02  0.76111996943E+02  0.00000000000E+00 0.  1.
         21    1    1    2  504  506 -0.20198879568E+03  0.43305011879E+02 -0.74451654793E+03  0.77264460638E+03  0.00000000000E+00 0. -1.
         21    1    1    2  505  502  0.26582947525E+02 -0.18315716638E+02 -0.45224914508E+02  0.55564480267E+02  0.00000000000E+00 0.  1.
         21    1    1    2  506  501  0.10261491368E+03 -0.13231774063E+02  0.13089274766E+03  0.16684667136E+03  0.00000000000E+00 0.  1.
<scales pt_clust_3="75.41942" pt_clust_4="172.49879" pt_clust_5="32.28186" pt_clust_6="14000.00000"></scales>
<clustering>
<clus scale="   32.282">  2  5  1 -1</clus>
<clus scale="   75.419">  1  3  2 -1</clus>
<clus scale="  172.499">  2  4  1 -1</clus>
<clus scale="   75.419">  1  3  2 -1</clus>
</clustering>
</event>
<event>
 6    0  0.5510638E+002  0.2243737E+03  0.7546771E-02  0.1130664E+00
         21   -1    0    0  503  501  0.00000000000E+00  0.00000000000E+00  0.89851130959E+02  0.89851130959E+02  0.00000000000E+00 0. -1.
         21   -1    0    0  505  502 -0.00000000000E+00 -0.00000000000E+00 -0.10527713508E+04  0.10527713508E+04  0.00000000000E+00 0. -1.
         21    1    1    2  503  504  0.62112054760E+02  0.40284771638E+00 -0.12532914937E+03  0.13987660746E+03  0.00000000000E+00 0. -1.
         21    1    1    2  504  502  0.63580743239E+02  0.39631312589E+02 -0.18712464315E+03  0.20156583025E+03  0.00000000000E+00 0. -1.
         21    1    1    2  505  506  0.10758542185E+03 -0.16563081890E+03 -0.33836516513E+03  0.39178970907E+03  0.00000000000E+00 0. -1.
         21    1    1    2  506  501 -0.23327821985E+03  0.12559665859E+03 -0.31210126215E+03  0.40939033494E+03  0.00000000000E+00 0. -1.
<scales pt_clust_3="35.89530" pt_clust_4="137.67921" pt_clust_5="224.37374" pt_clust_6="14000.00000"></scales>
<clustering>
<clus scale="   35.895">  3  4 -1 -1</clus>
<clus scale="  137.679">  2  3  1 -1</clus>
<clus scale="  224.374">  2  5  1 -1</clus>
<clus scale="  224.374">  1  3  2 -1</clus>
</clustering>
</event>
<event>
 6    0  0.5510638E+002  0.1581451E+03  0.7546771E-02  0.1190807E+00
         21   -1    0    0  506  501  0.00000000000E+00  0.00000000000E+00  0.72697674393E+02  0.72697674393E+02  0.00000000000E+00 0. -1.
         21   -1    0    0  503  502 -0.00000000000E+00 -0.00000000000E+00 -0.59748907303E+03  0.59748907303E+03  0.00000000000E+00 0. -1.
         21    1    1    2  503  501  0.15374976553E+03 -0.32475071488E+02 -0.39766500407E+03  0.42758750699E+03  0.00000000000E+00 0. -1.
         21    1    1    2  504  502  0.25789094114E+00  0.31650909514E+02 -0.65959268254E+02  0.73160588088E+02  0.00000000000E+00 0.  1.
         21    1    1    2  505  504 -0.79496760587E+02  0.17996876468E+01 -0.12645463546E+02  0.80516343482E+02  0.00000000000E+00 0. -1.
         21    1    1    2  506  505 -0.74510895886E+02 -0.97552567295E+00 -0.48521662762E+02  0.88922308861E+02  0.00000000000E+00 0.  1.
<scales pt_clust_3="154.14562" pt_clust_4="31.65196" pt_clust_5="34.19893" pt_clust_6="34.19893"></scales>
<clustering>
<clus scale="   31.652">  2  4  1 -1</clus>
<clus scale="   34.199">  5  6 -1 -1</clus>
<clus scale="  154.146">  2  3  1 -1</clus>
<clus scale="  158.145">  1  3  2 -1</clus>
</clustering>
</event>
<event>
 6    0  0.5510638E+002  0.1050484E+03  0.7546771E-02  0.1270024E+00
         21   -1    0    0  504  501  0.00000000000E+00  0.00000000000E+00  0.19124737663E+03  0.19124737663E+03  0.00000000000E+00 0. -1.
         21   -1    0    0  505  502 -0.00000000000E+00 -0.00000000000E+00 -0.17345073211E+03  0.17345073211E+03  0.00000000000E+00 0. -1.
         21    1    1    2  503  506  0.93449162903E+02  0.14759799568E+02  0.23232895088E+02  0.97418505145E+02  0.00000000000E+00 0. -1.
         21    1    1    2  504  502 -0.11912776583E+03 -0.13280914195E+02 -0.54379615441E+01  0.11998907742E+03  0.00000000000E+00 0. -1.
         21    1    1    2  505  503  0.30262439495E+02 -0.47068014710E+02 -0.53108396922E+02  0.77147359492E+02  0.00000000000E+00 0. -1.
         21    1    1    2  506  501 -0.45838365681E+01  0.45589129337E+02  0.53110107902E+02  0.70143166686E+02  0.00000000000E+00 0. -1.
<scales pt_clust_3="14000.00000" pt_clust_4="105.04845" pt_clust_5="52.20717" pt_clust_6="45.81899"></scales>
<clustering>
<clus scale="   45.819">  1  6  2 -1</clus>
<clus scale="   52.207">  2  5  1 -1</clus>
<clus scale="  105.048">  2  4  1 -1</clus>
<clus scale="   45.819">  1  3  2 -1</clus>
</clustering>
</event>
<event>
 6    0  0.5510638E+002  0.6517980E+02  0.7546771E-02  0.1377296E+00
         21   -1    0    0  504  501  0.00000000000E+00  0.00000000000E+00  0.39598569954E+02  0.39598569954E+02  0.00000000000E+00 0. -1.
         21   -1    0    0  506  502 -0.00000000000E+00 -0.00000000000E+00 -0.14746110062E+04  0.14746110062E+04  0.00000000000E+00 0. -1.
         21    1    1    2  503  502  0.27125012319E+02 -0.46351877302E+02 -0.24336717959E+03  0.24922248479E+03  0.00000000000E+00 0. -1.
         21    1    1    2  504  503  0.60969735571E+02  0.83476048406E+01 -0.12626013001E+02  0.62820437490E+02  0.00000000000E+00 0. -1.
         21    1    1    2  505  501 -0.77364513931E+02 -0.35108466543E+02 -0.16620334813E+03  0.18665857968E+03  0.00000000000E+00 0. -1.
         21    1    1    2  506  505 -0.10730233959E+02  0.73112739004E+02 -0.10128158955E+04  0.10155080742E+04  0.00000000000E+00 0. -1.
<scales pt_clust_3="53.70533" pt_clust_4="14000.00000" pt_clust_5="65.17980" pt_clust_6="36.74324"></scales>
<clustering>
<clus scale="   53.705">  2  3  1 -1</clus>
<clus scale="   36.743">  2  6  1 -1</clus>
<clus scale="   65.180">  2  5  1 -1</clus>
<clus scale="   65.180">  1  3  2 -1</clus>
</clustering>
</event>
<event>
 6    0  0.5510638E+002  0.1083280E+03  0.7546771E-02  0.1263698E+00
         21   -1    0    0  506  501  0.00000000000E+00  0.00000000000E+00  0.29225655838E+03  0.29225655838E+03  0.00000000000E+00 0. -1.
         21   -1    0    0  504  502 -0.00000000000E+00 -0.00000000000E+00 -0.68731957795E+03  0.68731957795E+03  0.00000000000E+00 0. -1.
         21    1    1    2  503  505  0.11557793511E+03 -0.87153191144E+02  0.18924555456E+03  0.23825997929E+03  0.00000000000E+00 0. -1.
         21    1    1    2  504  503 -0.42290926357E+02  0.52501864951E+01 -0.55844917265E+03  0.56007282146E+03  0.00000000000E+00 0. -1.
         21    1    1    2  505  501 -0.39180729578E+02  0.56771754364E+01  0.53155195505E+02  0.66278463322E+02  0.00000000000E+00 0. -1.
         21    1    1    2  506  502 -0.34106279179E+02  0.76225829212E+02 -0.79014596983E+02  0.11496487227E+03  0.00000000000E+00 0. -1.
<scales pt_clust_3="14000.00000" pt_clust_4="42.75376" pt_clust_5="39.58990" pt_clust_6="108.32801"></scales>
<clustering>
<clus scale="   39.590">  1  5  2 -1</clus>
<clus scale="   42.754">  2  4  1 -1</clus>
<clus scale="  108.328">  2  6  1 -1</clus>
<clus scale="   39.590">  1  3  2 -1</clus>
</clustering>
</event>
<event>
 6    0  0.5510638E+002  0.6421204E+02  0.7546771E-02  0.1380960E+00
         21   -1    0    0  503  501  0.00000000000E+00  0.00000000000E+00  0.46455156124E+03  0.46455156124E+03  0.00000000000E+00 0.  1.
         21   -1    0    0  506  502 -0.00000000000E+00 -0.00000000000E+00 -0.40779888975E+03  0.40779888975E+03  0.00000000000E+00 0. -1.
         21    1    1    2  503  505 -0.47209164947E+02  0.44551025547E+02  0.48094524917E+02  0.80787266691E+02  0.00000000000E+00 0. -1.
         21    1    1    2  504  501  0.12899414090E+01 -0.67082671140E+02  0.38472374361E+03  0.39053054632E+03  0.00000000000E+00 0.  1.
         21    1    1    2  505  502  0.77027215714E+02  0.44589742560E+02 -0.32696663787E+03  0.33886371801E+03  0.00000000000E+00 0. -1.
         21    1    1    2  506  504 -0.31107992176E+02 -0.22058096967E+02 -0.49098959167E+02  0.62168919970E+02  0.00000000000E+00 0. -1.
<scales pt_clust_3="14000.00000" pt_clust_4="64.21204" pt_clust_5="53.20800" pt_clust_6="38.13485"></scales>
<clustering>
<clus scale="   38.135">  2  6  1 -1</clus>
<clus scale="   53.208">  2  5  1 -1</clus>
<clus scale="   64.212">  1  4  2 -1</clus>
<clus scale="   64.212">  1  3  2 -1</clus>
</clustering>
</event>
<event>
 6    0  0.5510638E+002  0.2959207E+03  0.7546771E-02  0.1087298E+00
         21   -1    0    0  503  501  0.00000000000E+00  0.00000000000E+00  0.27653810463E+04  0.27653810463E+04  0.00000000000E+00 0. -1.
         21   -1    0    0  505  502 -0.00000000000E+00 -0.00000000000E+00 -0.22004514442E+03  0.22004514442E+03  0.00000000000E+00 0. -1.
         21    1    1    2  503  502  0.28742220300E+03  0.15767344122E+03  0.21760920563E+04  0.22006474216E+04  0.00000000000E+00 0. -1.
         21    1    1    2  504  501 -0.52318345952E+02 -0.32074197691E+01  0.47086800802E+03  0.47377650621E+03  0.00000000000E+00 0. -1.
         21    1    1    2  505  506 -0.15239593520E+03 -0.99582469564E+02 -0.10776261820E+03  0.21155134410E+03  0.00000000000E+00 0. -1.
         21    1    1    2  506  504 -0.82707921849E+02 -0.54883551892E+02  0.61384557562E+01  0.99450918769E+02  0.00000000000E+00 0. -1.
<scales pt_clust_3="283.38608" pt_clust_4="52.41657" pt_clust_5="63.07492" pt_clust_6="63.07492"></scales>
<clustering>
<clus scale="   52.417">  1  4  2 -1</clus>
<clus scale="   63.075">  5  6 -1 -1</clus>
<clus scale="  283.386">  1  3  2 -1</clus>
<clus scale="   52.417">  1  3  2 -1</clus>
</clustering>
</event>
<event>
 6    0  0.5510638E+002  0.8981431E+02  0.7546771E-02  0.1303302E+00
         21   -1    0    0  505  501  0.00000000000E+00  0.00000000000E+00  0.67675276532E+02  0.67675276532E+02  0.00000000000E+00 0. -1.
         21   -1    0    0  506  502 -0.00000000000E+00 -0.00000000000E+00 -0.41748130133E+03  0.41748130133E+03  0.00000000000E+00 0. -1.
         21    1    1    2  503  502  0.17953847294E+02  0.55403973466E+02 -0.18322675677E+03  0.19226020208E+03  0.00000000000E+00 0. -1.
         21    1    1    2  504  503 -0.78579445623E+02  0.26134130600E+02 -0.12427424758E+03  0.14933790768E+03  0.00000000000E+00 0. -1.
         21    1    1    2  505  504  0.83278232356E+02 -0.47012245242E+02 -0.33556015537E+02  0.10134802103E+03  0.00000000000E+00 0. -1.
         21    1    1    2  506  501 -0.22652634026E+02 -0.34525858824E+02 -0.87490049118E+01  0.42210447082E+02  0.00000000000E+00 0. -1.
<scales pt_clust_3="54.71782" pt_clust_4="14000.00000" pt_clust_5="89.81431" pt_clust_6="41.29379"></scales>
<clustering>
<clus scale="   41.294">  1  6  2 -1</clus>
<clus scale="   54.718">  2  3  1 -1</clus>
<clus scale="   89.814">  1  5  2 -1</clus>
<clus scale="   41.294">  1  3  2 -1</clus>
</clustering>
</event>
<event>
 6    0  0.5510638E+002  0.2346348E+03  0.7546771E-02  0.1123419E+00
         21   -1    0    0  505  501  0.00000000000E+00  0.00000000000E+00  0.11119298198E+03  0.11119298198E+03  0.00000000000E+00 0.  1.
         21   -1    0    0  501  502 -0.00000000000E+00 -0.00000000000E+00 -0.14059999019E+04  0.14059999019E+04  0.00000000000E+00 0. -1.
         21    1    1    2  503  502  0.49028405079E+01  0.31919938410E+02 -0.61580493879E+02  0.69534721827E+02  0.00000000000E+00 0.  1.
         21    1    1    2  504  506 -0.13192999569E+02 -0.82766139698E+02 -0.28360972983E+02  0.88479567735E+02  0.00000000000E+00 0. -1.
         21    1    1    2  505  504 -0.86321105109E+02 -0.12586056293E+03 -0.15909032291E+02  0.15344481678E+03  0.00000000000E+00 0.  1.
         21    1    1    2  506  503  0.94611264170E+02  0.17670676422E+03 -0.11889564208E+04  0.12057337775E+04  0.00000000000E+00 0. -1.
<scales pt_clust_3="32.29428" pt_clust_4="41.42115" pt_clust_5="41.42115" pt_clust_6="227.84655"></scales>
<clustering>
<clus scale="   32.294">  2  3  1 -1</clus>
<clus scale="   41.421">  4  5 -1 -1</clus>
<clus scale="  227.847">  2  6  1 -1</clus>
<clus scale="  234.635">  1  3  2 -1</clus>
</clustering>
</event>
<event>
 6    0  0.5510638E+002  0.9668591E+02  0.7546771E-02  0.1287424E+00
         21   -1    0    0  505  501  0.00000000000E+00  0.00000000000E+00  0.19246026526E+03  0.19246026526E+03  0.00000000000E+00 0.  1.
         21   -1    0    0  504  502 -0.00000000000E+00 -0.00000000000E+00 -0.67278774962E+03  0.67278774962E+03  0.00000000000E+00 0. -1.
         21    1    1    2  503  502 -0.25106941453E+02  0.63787373398E+02 -0.56386058439E+03  0.56801227641E+03  0.00000000000E+00 0. -1.
         21    1    1    2  504  506  0.14140044426E+02 -0.31326479206E+02 -0.47327087527E+02  0.58490532307E+02  0.00000000000E+00 0.  1.
         21    1    1    2  505  503 -0.57578832052E+02  0.60898471710E+02  0.57760351394E+02  0.10178508707E+03  0.00000000000E+00 0.  1.
         21    1    1    2  506  501  0.68545729079E+02 -0.93359365902E+02  0.73099836164E+02  0.13696011910E+03  0.00000000000E+00 0.  1.
<scales pt_clust_3="37.24108" pt_clust_4="34.36989" pt_clust_5="14000.00000" pt_clust_6="96.68591"></scales>
<clustering>
<clus scale="   34.370">  2  4  1 -1</clus>
<clus scale="   37.241">  2  3  1 -1</clus>
<clus scale="   96.686">  2  6  1 -1</clus>
<clus scale="   96.686">  1  3  2 -1</clus>
</clustering>
</event>
<event>
 6    0  0.5510638E+002  0.1339822E+03  0.7546771E-02  0.1221664E+00
         21   -1    0    0  503  501  0.00000000000E+00  0.00000000000E+00  0.22775103544E+03  0.22775103544E+03  0.00000000000E+00 0. -1.
         21   -1    0    0  504  502 -0.00000000000E+00 -0.00000000000E+00 -0.67922879390E+03  0.67922879390E+03  0.00000000000E+00 0. -1.
         21    1    1    2  503  505 -0.10739554818E+02  0.15574188379E+03  0.11325848666E+03  0.19286875642E+03  0.00000000000E+00 0. -1.
         21    1    1    2  504  506 -0.21812812781E+02 -0.11603521964E+03 -0.51670231313E+03  0.53002004810E+03  0.00000000000E+00 0. -1.
         21    1    1    2  505  502  0.22690681086E+02  0.63613475676E+02 -0.43231183859E+02  0.80190252235E+02  0.00000000000E+00 0. -1.
         21    1    1    2  506  501  0.98616865133E+01 -0.10332013983E+03 -0.48027481353E+01  0.10390077259E+03  0.00000000000E+00 0. -1.
<scales pt_clust_3="133.98221" pt_clust_4="62.17493" pt_clust_5="67.53918" pt_clust_6="14000.00000"></scales>
<clustering>
<clus scale="   67.539">  2  5  1 -1</clus>
<clus scale="   62.175">  2  4  1 -1</clus>
<clus scale="  133.982">  1  3  2 -1</clus>
<clus scale="  133.982">  1  3  2 -1</clus>
</clustering>
</event>
<event>
 6    0  0.5510638E+002  0.1435836E+03  0.7546771E-02  0.1208587E+00
         21   -1    0    0  503  501  0.00000000000E+00  0.00000000000E+00  0.23624030626E+02  0.23624030626E+02  0.00000000000E+00 0. -1.
         21   -1    0    0  505  502 -0.00000000000E+00 -0.00000000000E+00 -0.19753643437E+04  0.19753643437E+04  0.00000000000E+00 0.  1.
         21    1    1    2  503  506 -0.64759320844E+01 -0.29517849064E+02 -0.10040249758E+03  0.10485181271E+03  0.00000000000E+00 0. -1.
         21    1    1    2  504  501 -0.96480762161E+02  0.81321786290E+02 -0.50777460475E+03  0.52321775546E+03  0.00000000000E+00 0.  1.
         21    1    1    2  505  504 -0.24508880412E+02  0.46398644415E+02 -0.85357975286E+03  0.85519115636E+03  0.00000000000E+00 0.  1.
         21    1    1    2  506  502  0.12746557466E+03 -0.98202581641E+02 -0.48998345788E+03  0.51572764979E+03  0.00000000000E+00 0. -1.
<scales pt_clust_3="30.21988" pt_clust_4="143.58363" pt_clust_5="51.61040" pt_clust_6="14000.00000"></scales>
<clustering>
<clus scale="   30.220">  1  3  2 -1</clus>
<clus scale="   51.610">  2  5  1 -1</clus>
<clus scale="  143.584">  1  4  2 -1</clus>
<clus scale="   30.220">  1  3  2 -1</clus>
</clustering>
</event>
<event>
 6    0  0.5510638E+002  0.8745633E+02  0.7546771E-02  0.1309131E+00
         21   -1    0    0  505  501  0.00000000000E+00  0.00000000000E+00  0.36232971987E+02  0.36232971987E+02  0.00000000000E+00 0.  1.
         21   -1    0    0  506  502 -0.00000000000E+00 -0.00000000000E+00 -0.73368666861E+03  0.73368666861E+03  0.00000000000E+00 0.  1.
         21    1    1    2  503  501  0.13283097277E+02 -0.37210054717E+02 -0.12301009555E+02  0.41380474639E+02  0.00000000000E+00 0.  1.
         21    1    1    2  504  502 -0.12712127194E+02  0.28272007073E+02 -0.31398962333E+03  0.31551606634E+03  0.00000000000E+00 0. -1.
         21    1    1    2  505  504 -0.20384630454E+02 -0.83835435661E+02 -0.17268517526E+03  0.19303907165E+03  0.00000000000E+00 0.  1.
         21    1    1    2  506  503  0.19813660371E+02  0.92773483305E+02 -0.19847788848E+03  0.21998402796E+03  0.00000000000E+00 0.  1.
<scales pt_clust_3="37.53045" pt_clust_4="30.99846" pt_clust_5="87.45633" pt_clust_6="14000.00000"></scales>
<clustering>
<clus scale="   30.998">  2  4  1 -1</clus>
<clus scale="   37.530">  1  3  2 -1</clus>
<clus scale="   87.456">  2  5  1 -1</clus>
<clus scale="   37.530">  1  3  2 -1</clus>
</clustering>
</event>
<event>
 6    0  0.5510638E+002  0.1209730E+03  0.7546771E-02  0.1241500E+00
         21   -1    0    0  505  501  0.00000000000E+00  0.00000000000E+00  0.17172322134E+03  0.17172322134E+03  0.00000000000E+00 0.  1.
         21   -1    0    0  503  502 -0.00000000000E+00 -0.00000000000E+00 -0.27050485650E+03  0.27050485650E+03  0.00000000000E+00 0.  1.
         21    1    1    2  503  501 -0.60203306995E+02  0.94814660286E+02 -0.15693864057E+03  0.19298703294E+03  0.00000000000E+00 0.  1.
         21    1    1    2  504  502  0.80383772261E+02 -0.14435217434E+03  0.17202235339E+02  0.16611748246E+03  0.00000000000E+00 0.  1.
         21    1    1    2  505  506  0.14322375723E+02  0.28329928321E+02  0.20061332935E+02  0.37552261771E+02  0.00000000000E+00 0.  1.
         21    1    1    2  506  504 -0.34502840990E+02  0.21207585733E+02  0.20893437133E+02  0.45571300664E+02  0.00000000000E+00 0.  1.
<scales pt_clust_3="14000.00000" pt_clust_4="120.97305" pt_clust_5="31.74453" pt_clust_6="41.76473"></scales>
<clustering>
<clus scale="   31.745">  1  5  2 -1</clus>
<clus scale="   41.765">  1  6  2 -1</clus>
<clus scale="  120.973">  1  4  2 -1</clus>
<clus scale="   31.745">  1  3  2 -1</clus>
</clustering>
</event>
<event>
 6    0  0.6242044E+002  0.6776625E+02  0.7546771E-02  0.1367858E+00
         21   -1    0    0  506  501  0.00000000000E+00  0.00000000000E+00  0.11470132043E+04  0.11470132043E+04  0.00000000000E+00 0. -1.
         21   -1    0    0  504  502 -0.00000000000E+00 -0.00000000000E+00 -0.16936800527E+04  0.16936800527E+04  0.00000000000E+00 0. -1.
         21    1    1    2  503  502 -0.12604805289E+03  0.25524926957E+02 -0.18598860964E+02  0.12994441566E+03  0.00000000000E+00 0. -1.
         21    1    1    2  504  505  0.63637954564E+02 -0.21015159828E+02 -0.16154562955E+04  0.16168458396E+04  0.00000000000E+00 0. -1.
         21    1    1    2  505  501  0.28962877735E+02  0.10678909688E+02  0.78574594587E+02  0.84420698370E+02  0.00000000000E+00 0. -1.
         21    1    1    2  506  503  0.33447220590E+02 -0.15188676817E+02  0.10088137134E+04  0.10094823034E+04  0.00000000000E+00 0. -1.
<scales pt_clust_3="67.76625" pt_clust_4="14000.00000" pt_clust_5="30.86887" pt_clust_6="61.08906"></scales>
<clustering>
<clus scale="   30.869">  1  5  2 -1</clus>
<clus scale="   61.089">  1  6  2 -1</clus>
<clus scale="   67.766">  1  3  2 -1</clus>
<clus scale="   30.869">  1  3  2 -1</clus>
</clustering>
</event>
<event>
 6    0  0.5510638E+002  0.1506956E+03  0.7546771E-02  0.1199621E+00
         21   -1    0    0  504  501  0.00000000000E+00  0.00000000000E+00  0.13141347547E+04  0.13141347547E+04  0.00000000000E+00 0. -1.
         21   -1    0    0  503  502 -0.00000000000E+00 -0.00000000000E+00 -0.54505667202E+03  0.54505667202E+03  0.00000000000E+00 0.  1.
         21    1    1    2  503  506  0.94538739300E+02 -0.88131644152E+02 -0.15647918075E+03  0.20295441345E+03  0.00000000000E+00 0.  1.
         21    1    1    2  504  505 -0.42649052651E+02 -0.62984334433E+02  0.48066340687E+03  0.48664492063E+03  0.00000000000E+00 0. -1.
         21    1    1    2  505  502  0.57134575423E+02  0.12196936536E+03 -0.34568593879E+03  0.37099818608E+03  0.00000000000E+00 0.  1.
         21    1    1    2  506  501 -0.10902426207E+03  0.29146613219E+02  0.79057979538E+03  0.79859390660E+03  0.00000000000E+00 0. -1.
<scales pt_clust_3="129.59279" pt_clust_4="76.06555" pt_clust_5="150.69559" pt_clust_6="14000.00000"></scales>
<clustering>
<clus scale="   76.066">  1  4  2 -1</clus>
<clus scale="  129.593">  2  3  1 -1</clus>
<clus scale="  150.696">  2  5  1 -1</clus>
<clus scale="   76.066">  1  3  2 -1</clus>
</clustering>
</event>
<event>
 6    0  0.5510638E+002  0.1412934E+03  0.7546771E-02  0.1211599E+00
         21   -1    0    0  506  501  0.00000000000E+00  0.00000000000E+00  0.97276817288E+02  0.97276817288E+02  0.00000000000E+00 0. -1.
         21   -1    0    0  505  502 -0.00000000000E+00 -0.00000000000E+00 -0.46356445299E+03  0.46356445299E+03  0.00000000000E+00 0. -1.
         21    1    1    2  503  501 -0.42316433310E+02  0.61144563401E+02 -0.13010764935E+02  0.75489192377E+02  0.00000000000E+00 0. -1.
         21    1    1    2  504  503  0.10780609867E+02  0.81030508722E+02  0.14391699154E+02  0.83001722256E+02  0.00000000000E+00 0. -1.
         21    1    1    2  505  504  0.30745068315E+02 -0.86017097196E+02 -0.13501028364E+03  0.16300913141E+03  0.00000000000E+00 0. -1.
         21    1    1    2  506  502  0.79075512751E+00 -0.56157974927E+02 -0.23265828628E+03  0.23934122423E+03  0.00000000000E+00 0. -1.
<scales pt_clust_3="59.10593" pt_clust_4="59.10593" pt_clust_5="126.70678" pt_clust_6="56.16354"></scales>
<clustering>
<clus scale="   56.164">  2  6  1 -1</clus>
<clus scale="   59.106">  3  4 -1 -1</clus>
<clus scale="  126.707">  2  5  1 -1</clus>
<clus scale="  141.293">  1  3  2 -1</clus>
</clustering>
</event>
<event>
 6    0  0.5510638E+002  0.1645426E+03  0.7546771E-02  0.1183662E+00
         21   -1    0    0  504  501  0.00000000000E+00  0.00000000000E+00  0.25637129880E+04  0.25637129880E+04  0.00000000000E+00 0.  1.
         21   -1    0    0  503  502 -0.00000000000E+00 -0.00000000000E+00 -0.31453370160E+02  0.31453370160E+02  0.00000000000E+00 0. -1.
         21    1    1    2  503  506  0.19747061299E+01  0.10805128226E+03  0.16055914736E+03  0.19354125881E+03  0.00000000000E+00 0. -1.
         21    1    1    2  504  502  0.80642915065E+02 -0.21274276705E+03  0.11916317569E+04  0.12131566299E+04  0.00000000000E+00 0.  1.
         21    1    1    2  505  501 -0.37554381346E+02  0.80472061431E+02  0.67532668162E+03  0.68114037550E+03  0.00000000000E+00 0. -1.
         21    1    1    2  506  505 -0.45063239848E+02  0.24219423361E+02  0.50474203196E+03  0.50732809392E+03  0.00000000000E+00 0. -1.
<scales pt_clust_3="108.06933" pt_clust_4="158.00349" pt_clust_5="34.85791" pt_clust_6="34.85791"></scales>
<clustering>
<clus scale="   34.858">  5  6 -1 -1</clus>
<clus scale="  108.069">  2  3  1 -1</clus>
<clus scale="  158.003">  2  4  1 -1</clus>
<clus scale="  164.543">  1  3  2 -1</clus>
</clustering>
</event>
<event>
 6    0  0.5510638E+002  0.1183860E+03  0.7546771E-02  0.1245784E+00
         21   -1    0    0  505  501  0.00000000000E+00  0.00000000000E+00  0.10845377852E+03  0.10845377852E+03  0.00000000000E+00 0. -1.
         21   -1    0    0  506  502 -0.00000000000E+00 -0.00000000000E+00 -0.76341414204E+03  0.76341414204E+03  0.00000000000E+00 0. -1.
         21    1    1    2  503  502  0.25946908739E+02  0.27053315493E+02 -0.55875428572E+03  0.56001024612E+03  0.00000000000E+00 0. -1.
         21    1    1    2  504  503  0.10541134304E+03 -0.33842603209E+02 -0.11520779940E+03  0.15978019300E+03  0.00000000000E+00 0. -1.
         21    1    1    2  505  504 -0.11410641399E+03 -0.21391793380E+02  0.24307809054E+02  0.11861177058E+03  0.00000000000E+00 0. -1.
         21    1    1    2  506  501 -0.17251837785E+02  0.28181081096E+02 -0.53060874580E+01  0.33465710852E+02  0.00000000000E+00 0.  1.
<scales pt_clust_3="37.54146" pt_clust_4="14000.00000" pt_clust_5="118.38604" pt_clust_6="33.04239"></scales>
<clustering>
<clus scale="   33.042">  1  6  2 -1</clus>
<clus scale="   37.541">  2  3  1 -1</clus>
<clus scale="  118.386">  1  5  2 -1</clus>
<clus scale="   33.042">  1  3  2 -1</clus>
</clustering>
</event>
<event>
 6    0  0.5510638E+002  0.9008241E+02  0.7546771E-02  0.1302652E+00
         21   -1    0    0  505  501  0.00000000000E+00  0.00000000000E+00  0.19840044563E+02  0.19840044563E+02  0.00000000000E+00 0.  1.
         21   -1    0    0  504  502 -0.00000000000E+00 -0.00000000000E+00 -0.16072711850E+04  0.16072711850E+04  0.00000000000E+00 0.  1.
         21    1    1    2  503  506  0.61745715954E+02 -0.91249230472E+02 -0.47197351631E+03  0.48466272355E+03  0.00000000000E+00 0.  1.
         21    1    1    2  504  501  0.26489398420E+02  0.20528708972E+02 -0.59283247402E+03  0.59377896424E+03  0.00000000000E+00 0.  1.
         21    1    1    2  505  503  0.59216475731E+01  0.70086241483E+02 -0.17742282736E+03  0.19085598451E+03  0.00000000000E+00 0.  1.
         21    1    1    2  506  502 -0.94156761947E+02  0.63428001776E+00 -0.34520232274E+03  0.35781355726E+03  0.00000000000E+00 0.  1.
<scales pt_clust_3="14000.00000" pt_clust_4="33.51292" pt_clust_5="74.59044" pt_clust_6="90.08241"></scales>
<clustering>
<clus scale="   33.513">  2  4  1 -1</clus>
<clus scale="   74.590">  1  5  2 -1</clus>
<clus scale="   90.082">  2  6  1 -1</clus>
<clus scale="   74.590">  1  3  2 -1</clus>
</clustering>
</event>
<event>
 6    0  0.5510638E+002  0.2013004E+03  0.7546771E-02  0.1148646E+00
         21   -1    0    0  504  501  0.00000000000E+00  0.00000000000E+00  0.12361140408E+04  0.12361140408E+04  0.00000000000E+00 0.  1.
         21   -1    0    0  503  502 -0.00000000000E+00 -0.00000000000E+00 -0.25280753986E+03  0.25280753986E+03  0.00000000000E+00 0.  1.
         21    1    1    2  503  506 -0.71765979197E+02 -0.15043254843E+03  0.51314766397E+02  0.17439470361E+03  0.00000000000E+00 0.  1.
         21    1    1    2  504  505  0.55857101688E+02  0.78652371988E+02  0.20149772382E+03  0.22339996449E+03  0.00000000000E+00 0.  1.
         21    1    1    2  505  502 -0.14232485926E+03  0.84925912153E+02 -0.13340533357E+03  0.21275751254E+03  0.00000000000E+00 0.  1.
         21    1    1    2  506  501  0.15823373677E+03 -0.13145735709E+02  0.86389934424E+03  0.87836939996E+03  0.00000000000E+00 0.  1.
<scales pt_clust_3="156.20729" pt_clust_4="96.46871" pt_clust_5="14000.00000" pt_clust_6="201.30042"></scales>
<clustering>
<clus scale="   96.469">  1  4  2 -1</clus>
<clus scale="  156.207">  2  3  1 -1</clus>
<clus scale="  201.300">  1  6  2 -1</clus>
<clus scale="   96.469">  1  3  2 -1</clus>
</clustering>
</event>
<event>
 6    0  0.5510638E+002  0.1084530E+03  0.7546771E-02  0.1263462E+00
         21   -1    0    0  506  501  0.00000000000E+00  0.00000000000E+00  0.20220492090E+03  0.20220492090E+03  0.00000000000E+00 0.  1.
         21   -1    0    0  505  502 -0.00000000000E+00 -0.00000000000E+00 -0.22360142392E+03  0.22360142392E+03  0.00000000000E+00 0. -1.
         21    1    1    2  503  501  0.16570823325E+02 -0.25870268081E+02 -0.22053792769E+00  0.30723144260E+02  0.00000000000E+00 0.  1.
         21    1    1    2  504  502 -0.16317731894E+02 -0.77057658040E+02  0.95733694790E+02  0.12397213943E+03  0.00000000000E+00 0.  1.
         21    1    1    2  505  503 -0.41432458905E+02  0.10739765844E+03 -0.16904959198E+03  0.20452058635E+03  0.00000000000E+00 0. -1.
         21    1    1    2  506  504  0.41179367474E+02 -0.44697323184E+01  0.52139932096E+02  0.66590474780E+02  0.00000000000E+00 0.  1.
<scales pt_clust_3="30.72235" pt_clust_4="14000.00000" pt_clust_5="108.45296" pt_clust_6="48.14238"></scales>
<clustering>
<clus scale="   30.722">  1  3  2 -1</clus>
<clus scale="   48.142">  1  6  2 -1</clus>
<clus scale="  108.453">  2  5  1 -1</clus>
<clus scale="   30.722">  1  3  2 -1</clus>
</clustering>
</event>
<event>
 6    0  0.5510638E+002  0.3239749E+03  0.7546771E-02  0.1073834E+00
         21   -1    0    0  503  501  0.00000000000E+00  0.00000000000E+00  0.46738946985E+03  0.46738946985E+03  0.00000000000E+00 0.  1.
         21   -1    0    0  505  502 -0.00000000000E+00 -0.00000000000E+00 -0.90096387412E+03  0.90096387412E+03  0.00000000000E+00 0. -1.
         21    1    1    2  503  504 -0.18338659471E+03 -0.14776851066E+03 -0.14442128901E+03  0.27626741498E+03  0.00000000000E+00 0. -1.
         21    1    1    2  504  502 -0.67140741649E+02  0.24930875909E+02 -0.55700475734E+02  0.90730208639E+02  0.00000000000E+00 0.  1.
         21    1    1    2  505  506  0.14649756882E+03  0.29450330589E+03 -0.54156341550E+03  0.63362817792E+03  0.00000000000E+00 0. -1.
         21    1    1    2  506  501  0.10402976754E+03 -0.17166567114E+03  0.30811077597E+03  0.36772754242E+03  0.00000000000E+00 0.  1.
<scales pt_clust_3="71.44591" pt_clust_4="71.44591" pt_clust_5="296.94147" pt_clust_6="200.72692"></scales>
<clustering>
<clus scale="   71.446">  3  4 -1 -1</clus>
<clus scale="  200.727">  1  6  2 -1</clus>
<clus scale="  296.941">  2  5  1 -1</clus>
<clus scale="  200.727">  1  3  2 -1</clus>
</clustering>
</event>
<event>
 6    0  0.5510638E+002  0.9995655E+02  0.7546771E-02  0.1280387E+00
         21   -1    0    0  506  501  0.00000000000E+00  0.00000000000E+00  0.31437720743E+03  0.31437720743E+03  0.00000000000E+00 0.  1.
         21   -1    0    0  504  502 -0.00000000000E+00 -0.00000000000E+00 -0.25977104307E+03  0.25977104307E+03  0.00000000000E+00 0. -1.
         21    1    1    2  503  502  0.59651903545E+02  0.12208712566E+03 -0.41556092986E+02  0.14209336618E+03  0.00000000000E+00 0. -1.
         21    1    1    2  504  505 -0.83434212805E+00 -0.45890451884E+02 -0.14551412715E+03  0.15258109614E+03  0.00000000000E+00 0. -1.
         21    1    1    2  505  501  0.19807370971E+02 -0.30467199952E+02  0.13239954214E+03  0.13729610692E+03  0.00000000000E+00 0.  1.
         21    1    1    2  506  503 -0.78624932389E+02 -0.45729473824E+02  0.10927684236E+03  0.14217768125E+03  0.00000000000E+00 0.  1.
<scales pt_clust_3="99.95655" pt_clust_4="46.49223" pt_clust_5="36.33982" pt_clust_6="14000.00000"></scales>
<clustering>
<clus scale="   36.340">  1  5  2 -1</clus>
<clus scale="   46.492">  2  4  1 -1</clus>
<clus scale="   99.957">  2  3  1 -1</clus>
<clus scale="   36.340">  1  3  2 -1</clus>
</clustering>
</event>
<event>
 6    0  0.5510638E+002  0.1092547E+03  0.7546771E-02  0.1261956E+00
         21   -1    0    0  503  501  0.00000000000E+00  0.00000000000E+00  0.62948376793E+02  0.62948376793E+02  0.00000000000E+00 0.  1.
         21   -1    0    0  506  502 -0.00000000000E+00 -0.00000000000E+00 -0.34529043251E+03  0.34529043251E+03  0.00000000000E+00 0. -1.
         21    1    1    2  503  505  0.55621698419E+02 -0.86077970191E+01 -0.90713289050E+00  0.56291121810E+02  0.00000000000E+00 0.  1.
         21    1    1    2  504  502 -0.29247403484E+02 -0.33734467015E+02 -0.11265404390E+03  0.12117903483E+03  0.00000000000E+00 0. -1.
         21    1    1    2  505  504  0.30880262319E+02 -0.40401969417E+02 -0.29005633186E+02  0.58542604060E+02  0.00000000000E+00 0.  1.
         21    1    1    2  506  501 -0.57254557253E+02  0.82744233451E+02 -0.13977524574E+03  0.17222604860E+03  0.00000000000E+00 0. -1.
<scales pt_clust_3="48.94122" pt_clust_4="44.64779" pt_clust_5="48.94122" pt_clust_6="97.61721"></scales>
<clustering>
<clus scale="   44.648">  2  4  1 -1</clus>
<clus scale="   48.941">  3  5 -1 -1</clus>
<clus scale="   97.617">  2  6  1 -1</clus>
<clus scale="  109.255">  1  3  2 -1</clus>
</clustering>
</event>
<event>
 6    0  0.5510638E+002  0.9849633E+02  0.7546771E-02  0.1283490E+00
         21   -1    0    0  504  501  0.00000000000E+00  0.00000000000E+00  0.11859313608E+04  0.11859313608E+04  0.00000000000E+00 0. -1.
         21   -1    0    0  503  502 -0.00000000000E+00 -0.00000000000E+00 -0.72040567788E+02  0.72040567788E+02  0.00000000000E+00 0. -1.
         21    1    1    2  503  505 -0.24496712364E+02  0.26119641817E+02 -0.49843580737E+02  0.61373505244E+02  0.00000000000E+00 0. -1.
         21    1    1    2  504  502 -0.11847465881E+02  0.99034825901E+02  0.73849216512E+03  0.74519724713E+03  0.00000000000E+00 0.  1.
         21    1    1    2  505  506 -0.14468898568E+02 -0.37302719292E+02  0.58487111698E+02  0.70863136588E+02  0.00000000000E+00 0.  1.
         21    1    1    2  506  501  0.50813076813E+02 -0.87851748427E+02  0.36675509693E+03  0.38053803963E+03  0.00000000000E+00 0. -1.
<scales pt_clust_3="35.80956" pt_clust_4="98.49633" pt_clust_5="36.27412" pt_clust_6="14000.00000"></scales>
<clustering>
<clus scale="   35.810">  2  3  1 -1</clus>
<clus scale="   36.274">  2  5  1 -1</clus>
<clus scale="   98.496">  1  4  2 -1</clus>
<clus scale="   98.496">  1  3  2 -1</clus>
</clustering>
</event>
<event>
 6    0  0.5510638E+002  0.1239180E+03  0.7546771E-02  0.1236770E+00
         21   -1    0    0  503  501  0.00000000000E+00  0.00000000000E+00  0.60174684540E+03  0.60174684540E+03  0.00000000000E+00 0.  1.
         21   -1    0    0  505  502 -0.00000000000E+00 -0.00000000000E+00 -0.42179292006E+03  0.42179292006E+03  0.00000000000E+00 0.  1.
         21    1    1    2  503  504  0.60748797383E+02  0.12459701124E+03  0.52853808312E+03  0.54641315587E+03  0.00000000000E+00 0.  1.
         21    1    1    2  504  502  0.23029699563E+02 -0.14838619878E+03 -0.29939597245E+03  0.33494294942E+03  0.00000000000E+00 0.  1.
         21    1    1    2  505  506 -0.36202783327E+02  0.26993225826E+02 -0.75311790834E+02  0.87813106082E+02  0.00000000000E+00 0. -1.
         21    1    1    2  506  501 -0.47575713619E+02 -0.32040382797E+01  0.26123605492E+02  0.54370554086E+02  0.00000000000E+00 0. -1.
<scales pt_clust_3="14000.00000" pt_clust_4="123.91800" pt_clust_5="45.15834" pt_clust_6="49.12275"></scales>
<clustering>
<clus scale="   45.158">  2  5  1 -1</clus>
<clus scale="   49.123">  1  6  2 -1</clus>
<clus scale="  123.918">  2  4  1 -1</clus>
<clus scale="   49.123">  1  3  2 -1</clus>
</clustering>
</event>
<event>
 6    0  0.5510638E+002  0.7675820E+02  0.7546771E-02  0.1338511E+00
         21   -1    0    0  505  501  0.00000000000E+00  0.00000000000E+00  0.76115233201E+02  0.76115233201E+02  0.00000000000E+00 0. -1.
         21   -1    0    0  503  502 -0.00000000000E+00 -0.00000000000E+00 -0.32595396469E+03  0.32595396469E+03  0.00000000000E+00 0. -1.
         21    1    1    2  503  506 -0.35801163520E+02  0.11359042188E+02 -0.45908804696E+02  0.59315845248E+02  0.00000000000E+00 0. -1.
         21    1    1    2  504  501 -0.45215121686E+02 -0.82826080886E+01  0.26190389779E+02  0.52905059707E+02  0.00000000000E+00 0. -1.
         21    1    1    2  505  502  0.92643612449E+02  0.60200086950E+02 -0.12730305984E+03  0.16856143818E+03  0.00000000000E+00 0. -1.
         21    1    1    2  506  504 -0.11627327243E+02 -0.63276521049E+02 -0.10281725674E+03  0.12128685476E+03  0.00000000000E+00 0. -1.
<scales pt_clust_3="37.55997" pt_clust_4="47.59611" pt_clust_5="76.75820" pt_clust_6="14000.00000"></scales>
<clustering>
<clus scale="   37.560">  2  3  1 -1</clus>
<clus scale="   47.596">  1  4  2 -1</clus>
<clus scale="   76.758">  1  5  2 -1</clus>
<clus scale="   47.596">  1  3  2 -1</clus>
</clustering>
</event>
<event>
 6    0  0.5510638E+002  0.9995259E+02  0.7546771E-02  0.1280396E+00
         21   -1    0    0  503  501  0.00000000000E+00  0.00000000000E+00  0.10059701615E+03  0.10059701615E+03  0.00000000000E+00 0. -1.
         21   -1    0    0  504  502 -0.00000000000E+00 -0.00000000000E+00 -0.26740387101E+03  0.26740387101E+03  0.00000000000E+00 0. -1.
         21    1    1    2  503  502 -0.71680618840E+02  0.12213516037E+03 -0.10201392538E+03  0.17453351966E+03  0.00000000000E+00 0. -1.
         21    1    1    2  504  506  0.68738467576E+02 -0.43476533078E+02 -0.62034130221E+02  0.10229085573E+03  0.00000000000E+00 0. -1.
         21    1    1    2  505  501 -0.13352147687E+02 -0.34453795678E+02 -0.18735339885E+02  0.41428937291E+02  0.00000000000E+00 0. -1.
         21    1    1    2  506  505  0.16294298952E+02 -0.44204831610E+02  0.15976540626E+02  0.49747574477E+02  0.00000000000E+00 0. -1.
<scales pt_clust_3="14000.00000" pt_clust_4="99.95259" pt_clust_5="36.95056" pt_clust_6="58.01740"></scales>
<clustering>
<clus scale="   36.951">  1  5  2 -1</clus>
<clus scale="   58.017">  1  6  2 -1</clus>
<clus scale="   99.953">  2  4  1 -1</clus>
<clus scale="   36.951">  1  3  2 -1</clus>
</clustering>
</event>
<event>
 6    0  0.5510638E+002  0.7586320E+02  0.7546771E-02  0.1341219E+00
         21   -1    0    0  505  501  0.00000000000E+00  0.00000000000E+00  0.35856688649E+02  0.35856688649E+02  0.00000000000E+00 0. -1.
         21   -1    0    0  506  502 -0.00000000000E+00 -0.00000000000E+00 -0.18654647061E+04  0.18654647061E+04  0.00000000000E+00 0. -1.
         21    1    1    2  503  502 -0.44923852491E+01 -0.74170038305E+02 -0.14393955764E+04  0.14413122498E+04  0.00000000000E+00 0. -1.
         21    1    1    2  504  501  0.30351727902E+01  0.37214560142E+02  0.51512239318E+01  0.37691787812E+02  0.00000000000E+00 0. -1.
         21    1    1    2  505  503  0.16473036811E+02 -0.49457636760E+02 -0.84216500681E+02  0.99044625107E+02  0.00000000000E+00 0. -1.
         21    1    1    2  506  504 -0.15015824352E+02  0.86413114922E+02 -0.31114716431E+03  0.32327273203E+03  0.00000000000E+00 0. -1.
<scales pt_clust_3="75.86320" pt_clust_4="37.33813" pt_clust_5="35.29730" pt_clust_6="14000.00000"></scales>
<clustering>
<clus scale="   37.338">  1  4  2 -1</clus>
<clus scale="   35.297">  1  5  2 -1</clus>
<clus scale="   75.863">  2  3  1 -1</clus>
<clus scale="   37.338">  1  3  2 -1</clus>
</clustering>
</event>
<event>
 6    0  0.5510638E+002  0.2336361E+03  0.7546771E-02  0.1124106E+00
         21   -1    0    0  506  501  0.00000000000E+00  0.00000000000E+00  0.20358516154E+03  0.20358516154E+03  0.00000000000E+00 0.  1.
         21   -1    0    0  505  502 -0.00000000000E+00 -0.00000000000E+00 -0.77794104885E+03  0.77794104885E+03  0.00000000000E+00 0.  1.
         21    1    1    2  503  501  0.36730691055E+02 -0.12956658519E+02  0.11063219633E+02  0.40489671448E+02  0.00000000000E+00 0.  1.
         21    1    1    2  504  502 -0.31350278156E+02  0.24046651242E+03 -0.63573144758E+03  0.68041271077E+03  0.00000000000E+00 0.  1.
         21    1    1    2  505  503  0.11267852772E+02 -0.47449218425E+02 -0.35643215956E+02  0.60405560000E+02  0.00000000000E+00 0.  1.
         21    1    1    2  506  504 -0.16648265670E+02 -0.18006063548E+03  0.85955556595E+02  0.20021826817E+03  0.00000000000E+00 0.  1.
<scales pt_clust_3="38.94892" pt_clust_4="233.63608" pt_clust_5="50.28920" pt_clust_6="14000.00000"></scales>
<clustering>
<clus scale="   38.949">  1  3  2 -1</clus>
<clus scale="   50.289">  1  5  2 -1</clus>
<clus scale="  233.636">  2  4  1 -1</clus>
<clus scale="   38.949">  1  3  2 -1</clus>
</clustering>
</event>
<event>
 6    0  0.5510638E+002  0.2091721E+03  0.7546771E-02  0.1142223E+00
         21   -1    0    0  503  501  0.00000000000E+00  0.00000000000E+00  0.89251917994E+02  0.89251917994E+02  0.00000000000E+00 0.  1.
         21   -1    0    0  506  502 -0.00000000000E+00 -0.00000000000E+00 -0.10283538840E+04  0.10283538840E+04  0.00000000000E+00 0.  1.
         21    1    1    2  503  504  0.76719219381E+02 -0.90372273032E+01 -0.36361693178E+02  0.85379639438E+02  0.00000000000E+00 0.  1.
         21    1    1    2  504  505  0.12540410071E+03  0.64760665147E+02 -0.54836084542E+02  0.15141706771E+03  0.00000000000E+00 0.  1.
         21    1    1    2  505  502 -0.15195815527E+03 -0.80621562984E+02 -0.50832503533E+03  0.53664276657E+03  0.00000000000E+00 0.  1.
         21    1    1    2  506  501 -0.50165164822E+02  0.24898125140E+02 -0.33957915291E+03  0.34416632823E+03  0.00000000000E+00 0.  1.
<scales pt_clust_3="45.58572" pt_clust_4="45.58572" pt_clust_5="199.89058" pt_clust_6="56.00411"></scales>
<clustering>
<clus scale="   45.586">  3  4 -1 -1</clus>
<clus scale="   56.004">  2  6  1 -1</clus>
<clus scale="  199.891">  2  5  1 -1</clus>
<clus scale="  209.172">  1  3  2 -1</clus>
</clustering>
</event>
<event>
 6    0  0.5510638E+002  0.8877836E+02  0.7546771E-02  0.1305837E+00
         21   -1    0    0  505  501  0.00000000000E+00  0.00000000000E+00  0.30921668248E+03  0.30921668248E+03  0.00000000000E+00 0.  1.
         21   -1    0    0  504  502 -0.00000000000E+00 -0.00000000000E+00 -0.67527095826E+02  0.67527095826E+02  0.00000000000E+00 0.  1.
         21    1    1    2  503  506 -0.56704079566E+02 -0.53267762763E+02  0.89317859126E+02  0.11845035732E+03  0.00000000000E+00 0.  1.
         21    1    1    2  504  503  0.59010049083E+02  0.76076283553E+02  0.32617909053E+02  0.10165488086E+03  0.00000000000E+00 0.  1.
         21    1    1    2  505  502  0.32579468293E+02 -0.42826531615E+02  0.39111452202E+02  0.66522471826E+02  0.00000000000E+00 0.  1.
         21    1    1    2  506  501 -0.34885437810E+02  0.20018010826E+02  0.80642366273E+02  0.90116068305E+02  0.00000000000E+00 0.  1.
<scales pt_clust_3="14000.00000" pt_clust_4="88.77836" pt_clust_5="45.21793" pt_clust_6="40.22082"></scales>
<clustering>
<clus scale="   40.221">  1  6  2 -1</clus>
<clus scale="   45.218">  1  5  2 -1</clus>
<clus scale="   88.778">  2  4  1 -1</clus>
<clus scale="   40.221">  1  3  2 -1</clus>
</clustering>
</event>
<event>
 6    0  0.5510638E+002  0.7889886E+02  0.7546771E-02  0.1332206E+00
         21   -1    0    0  504  501  0.00000000000E+00  0.00000000000E+00  0.28906444738E+03  0.28906444738E+03  0.00000000000E+00 0.  1.
         21   -1    0    0  505  502 -0.00000000000E+00 -0.00000000000E+00 -0.19842483884E+03  0.19842483884E+03  0.00000000000E+00 0.  1.
         21    1    1    2  503  501  0.42862533993E+02  0.37804737155E+02  0.17370985949E+03  0.18287020057E+03  0.00000000000E+00 0.  1.
         21    1    1    2  504  506  0.35281382769E+02 -0.10021099359E+02  0.45942218138E+02  0.58786782612E+02  0.00000000000E+00 0. -1.
         21    1    1    2  505  503 -0.73569757833E+02 -0.10423456658E+03 -0.10597309001E+03  0.16585430337E+03  0.00000000000E+00 0.  1.
         21    1    1    2  506  502 -0.45741589287E+01  0.76450928787E+02 -0.23039379077E+02  0.79977999665E+02  0.00000000000E+00 0.  1.
<scales pt_clust_3="14000.00000" pt_clust_4="36.67695" pt_clust_5="78.89886" pt_clust_6="75.24636"></scales>
<clustering>
<clus scale="   36.677">  1  4  2 -1</clus>
<clus scale="   75.246">  2  6  1 -1</clus>
<clus scale="   78.899">  2  5  1 -1</clus>
<clus scale="   36.677">  1  3  2 -1</clus>
</clustering>
</event>
<event>
 6    0  0.5510638E+002  0.1033830E+03  0.7546771E-02  0.1273339E+00
         21   -1    0    0  504  501  0.00000000000E+00  0.00000000000E+00  0.10665024438E+03  0.10665024438E+03  0.00000000000E+00 0.  1.
         21   -1    0    0  506  502 -0.00000000000E+00 -0.00000000000E+00 -0.16408473812E+04  0.16408473812E+04  0.00000000000E+00 0.  1.
         21    1    1    2  503  502  0.54220610019E+02 -0.12591454816E+03 -0.12418729551E+04  0.12494169778E+04  0.00000000000E+00 0.  1.
         21    1    1    2  504  505 -0.38581537928E+02  0.21447896699E+02  0.48551051888E+02  0.65618229030E+02  0.00000000000E+00 0.  1.
         21    1    1    2  505  503  0.98152845362E+01  0.78958798061E+02  0.95963172871E+01  0.80143127636E+02  0.00000000000E+00 0.  1.
         21    1    1    2  506  501 -0.25454356628E+02  0.25507853402E+02 -0.35047155095E+03  0.35231929110E+03  0.00000000000E+00 0.  1.
<scales pt_clust_3="103.38304" pt_clust_4="44.37166" pt_clust_5="14000.00000" pt_clust_6="36.03574"></scales>
<clustering>
<clus scale="   36.036">  2  6  1 -1</clus>
<clus scale="   44.372">  1  4  2 -1</clus>
<clus scale="  103.383">  2  3  1 -1</clus>
<clus scale="   44.372">  1  3  2 -1</clus>
</clustering>
</event>
<event>
 6    0  0.5510638E+002  0.8297992E+02  0.7546771E-02  0.1320801E+00
         21   -1    0    0  505  501  0.00000000000E+00  0.00000000000E+00  0.44652396195E+02  0.44652396195E+02  0.00000000000E+00 0. -1.
         21   -1    0    0  504  502 -0.00000000000E+00 -0.00000000000E+00 -0.99906987461E+03  0.99906987461E+03  0.00000000000E+00 0. -1.
         21    1    1    2  503  502  0.19939051571E+02  0.73415030188E+02 -0.40011516538E+03  0.40728304409E+03  0.00000000000E+00 0. -1.
         21    1    1    2  504  506 -0.56811166606E+02  0.69395919251E+00 -0.45943928515E+03  0.46293892359E+03  0.00000000000E+00 0. -1.
         21    1    1    2  505  503  0.62466954592E+01  0.33085712858E+02 -0.19118469194E+02  0.38719523032E+02  0.00000000000E+00 0. -1.
         21    1    1    2  506  501  0.30625419576E+02 -0.10719470224E+03 -0.75744558685E+02  0.13478078009E+03  0.00000000000E+00 0. -1.
<scales pt_clust_3="14000.00000" pt_clust_4="56.54660" pt_clust_5="33.67025" pt_clust_6="82.97992"></scales>
<clustering>
<clus scale="   33.670">  1  5  2 -1</clus>
<clus scale="   56.547">  2  4  1 -1</clus>
<clus scale="   82.980">  1  6  2 -1</clus>
<clus scale="   33.670">  1  3  2 -1</clus>
</clustering>
</event>
<event>
 6    0  0.5510638E+002  0.9600240E+02  0.7546771E-02  0.1288934E+00
         21   -1    0    0  504  501  0.00000000000E+00  0.00000000000E+00  0.35968993702E+02  0.35968993702E+02  0.00000000000E+00 0.  1.
         21   -1    0    0  505  502 -0.00000000000E+00 -0.00000000000E+00 -0.16168851920E+04  0.16168851920E+04  0.00000000000E+00 0.  1.
         21    1    1    2  503  502 -0.60629261213E+02 -0.73824716615E+01 -0.67426129415E+03  0.67702193538E+03  0.00000000000E+00 0.  1.
         21    1    1    2  504  503  0.11817703344E+03  0.83650901872E+02 -0.82649286606E+03  0.83907910370E+03  0.00000000000E+00 0.  1.
         21    1    1    2  505  506 -0.61970556902E+02 -0.44206766641E+02 -0.68333927114E+02  0.10229425074E+03  0.00000000000E+00 0.  1.
         21    1    1    2  506  501  0.44227846761E+01 -0.32061663570E+02 -0.11828110957E+02  0.34458895861E+02  0.00000000000E+00 0.  1.
<scales pt_clust_3="61.07511" pt_clust_4="96.00240" pt_clust_5="14000.00000" pt_clust_6="32.36528"></scales>
<clustering>
<clus scale="   32.365">  1  6  2 -1</clus>
<clus scale="   61.075">  2  3  1 -1</clus>
<clus scale="   96.002">  2  4  1 -1</clus>
<clus scale="   32.365">  1  3  2 -1</clus>
</clustering>
</event>
<event>
 6    0  0.5510638E+002  0.9140804E+02  0.7546771E-02  0.1299477E+00
         21   -1    0    0  504  501  0.00000000000E+00  0.00000000000E+00  0.36201969837E+03  0.36201969837E+03  0.00000000000E+00 0.  1.
         21   -1    0    0  506  502 -0.00000000000E+00 -0.00000000000E+00 -0.44897895169E+03  0.44897895169E+03  0.00000000000E+00 0.  1.
         21    1    1    2  503  501  0.48735860511E+02  0.26075376278E+02  0.23880269003E+03  0.24511596055E+03  0.00000000000E+00 0.  1.
         21    1    1    2  504  502 -0.10660497885E+03 -0.45248798191E+02 -0.12678308567E+03  0.17171495586E+03  0.00000000000E+00 0.  1.
         21    1    1    2  505  503  0.84566668785E+01  0.32246218258E+02  0.92457157544E+02  0.98283568249E+02  0.00000000000E+00 0.  1.
         21    1    1    2  506  505  0.49412451463E+02 -0.13072796346E+02 -0.29143601522E+03  0.29588416540E+03  0.00000000000E+00 0.  1.
<scales pt_clust_3="30.25558" pt_clust_4="82.69023" pt_clust_5="30.25558" pt_clust_6="51.11251"></scales>
<clustering>
<clus scale="   30.256">  3  5 -1 -1</clus>
<clus scale="   51.113">  2  6  1 -1</clus>
<clus scale="   82.690">  2  4  1 -1</clus>
<clus scale="   91.408">  1  3  2 -1</clus>
</clustering>
</event>
<event>
 6    0  0.5510638E+002  0.1233621E+03  0.7546771E-02  0.1237651E+00
         21   -1    0    0  504  501  0.00000000000E+00  0.00000000000E+00  0.96041997235E+02  0.96041997235E+02  0.00000000000E+00 0. -1.
         21   -1    0    0  503  502 -0.00000000000E+00 -0.00000000000E+00 -0.13612694097E+04  0.13612694097E+04  0.00000000000E+00 0.  1.
         21    1    1    2  503  506 -0.10700949194E+03 -0.21401138125E+02 -0.11303932846E+04  0.11356487212E+04  0.00000000000E+00 0.  1.
         21    1    1    2  504  505  0.18121851259E+02 -0.45813099444E+02  0.17474577032E+02  0.52274299768E+02  0.00000000000E+00 0. -1.
         21    1    1    2  505  502 -0.19108086930E+02  0.28130902011E+02 -0.15073900556E+03  0.15452739056E+03  0.00000000000E+00 0.  1.
         21    1    1    2  506  501  0.10799572761E+03  0.39083335558E+02 -0.15696992781E+01  0.11486099536E+03  0.00000000000E+00 0. -1.
<scales pt_clust_3="14000.00000" pt_clust_4="48.78939" pt_clust_5="34.00686" pt_clust_6="123.36212"></scales>
<clustering>
<clus scale="   34.007">  2  5  1 -1</clus>
<clus scale="   48.789">  1  4  2 -1</clus>
<clus scale="  123.362">  1  6  2 -1</clus>
<clus scale="   48.789">  1  3  2 -1</clus>
</clustering>
</event>
<event>
 6    0  0.5510638E+002  0.8432691E+02  0.7546771E-02  0.1317202E+00
         21   -1    0    0  504  501  0.00000000000E+00  0.00000000000E+00  0.50971817414E+03  0.50971817414E+03  0.00000000000E+00 0. -1.
         21   -1    0    0  506  502 -0.00000000000E+00 -0.00000000000E+00 -0.74006541483E+02  0.74006541483E+02  0.00000000000E+00 0. -1.
         21    1    1    2  503  505  0.43172974070E+02 -0.61728751462E+02  0.22689352758E+03  0.23907115532E+03  0.00000000000E+00 0.  1.
         21    1    1    2  504  503 -0.59625357424E+02 -0.34572377209E+02  0.19480455669E+03  0.20663796316E+03  0.00000000000E+00 0. -1.
         21    1    1    2  505  502 -0.30016445543E+02  0.21396910446E+02  0.31098092501E+02  0.48227649092E+02  0.00000000000E+00 0. -1.
         21    1    1    2  506  501  0.46468828898E+02  0.74904218225E+02 -0.17084544115E+02  0.89787948048E+02  0.00000000000E+00 0. -1.
<scales pt_clust_3="14000.00000" pt_clust_4="70.36622" pt_clust_5="36.86210" pt_clust_6="84.32691"></scales>
<clustering>
<clus scale="   36.862">  2  5  1 -1</clus>
<clus scale="   70.366">  1  4  2 -1</clus>
<clus scale="   84.327">  2  6  1 -1</clus>
<clus scale="   70.366">  1  3  2 -1</clus>
</clustering>
</event>
<event>
 6    0  0.5510638E+002  0.1102838E+03  0.7546771E-02  0.1260045E+00
         21   -1    0    0  506  501  0.00000000000E+00  0.00000000000E+00  0.40240088116E+03  0.40240088116E+03  0.00000000000E+00 0. -1.
         21   -1    0    0  505  502 -0.00000000000E+00 -0.00000000000E+00 -0.17323635844E+03  0.17323635844E+03  0.00000000000E+00 0.  1.
         21    1    1    2  503  502  0.89265240783E+02 -0.11483615054E+03 -0.10951414800E+03  0.18206859503E+03  0.00000000000E+00 0.  1.
         21    1    1    2  504  501 -0.26612673318E+02  0.33499110263E+02  0.56131428285E+02  0.70577347717E+02  0.00000000000E+00 0.  1.
         21    1    1    2  505  504 -0.23922335254E+02  0.22490135861E+02  0.10909573073E+01  0.32852313813E+02  0.00000000000E+00 0.  1.
         21    1    1    2  506  503 -0.38730232211E+02  0.58846904418E+02  0.28145628512E+03  0.29013898304E+03  0.00000000000E+00 0. -1.
<scales pt_clust_3="110.28379" pt_clust_4="44.27536" pt_clust_5="32.83419" pt_clust_6="14000.00000"></scales>
<clustering>
<clus scale="   32.834">  2  5  1 -1</clus>
<clus scale="   44.275">  1  4  2 -1</clus>
<clus scale="  110.284">  2  3  1 -1</clus>
<clus scale="   44.275">  1  3  2 -1</clus>
</clustering>
</event>
<event>
 6    0  0.5510638E+002  0.7301076E+02  0.7546771E-02  0.1350144E+00
         21   -1    0    0  503  501  0.00000000000E+00  0.00000000000E+00  0.52260315141E+03  0.52260315141E+03  0.00000000000E+00 0. -1.
         21   -1    0    0  505  502 -0.00000000000E+00 -0.00000000000E+00 -0.66803179679E+03  0.66803179679E+03  0.00000000000E+00 0. -1.
         21    1    1    2  503  506  0.52794874838E+02  0.62010909355E+02  0.46417069137E+03  0.47126116158E+03  0.00000000000E+00 0. -1.
         21    1    1    2  504  501  0.12413513711E+02 -0.31477841240E+02  0.28258586751E+02  0.44085116955E+02  0.00000000000E+00 0. -1.
         21    1    1    2  505  504  0.29206620254E+02 -0.36416500644E+02 -0.52906153260E+03  0.53111702426E+03  0.00000000000E+00 0. -1.
         21    1    1    2  506  502 -0.94415008804E+02  0.58834325291E+01 -0.10879639090E+03  0.14417164541E+03  0.00000000000E+00 0.  1.
<scales pt_clust_3="73.01076" pt_clust_4="33.83711" pt_clust_5="46.75007" pt_clust_6="14000.00000"></scales>
<clustering>
<clus scale="   33.837">  1  4  2 -1</clus>
<clus scale="   46.750">  2  5  1 -1</clus>
<clus scale="   73.011">  1  3  2 -1</clus>
<clus scale="   33.837">  1  3  2 -1</clus>
</clustering>
</event>
<event>
 6    0  0.5510638E+002  0.1142777E+03  0.7546771E-02  0.1252847E+00
         21   -1    0    0  506  501  0.00000000000E+00  0.00000000000E+00  0.11872679498E+04  0.11872679498E+04  0.00000000000E+00 0.  1.
         21   -1    0    0  505  502 -0.00000000000E+00 -0.00000000000E+00 -0.20088988756E+03  0.20088988756E+03  0.00000000000E+00 0. -1.
         21    1    1    2  503  501 -0.40642707710E+02 -0.83319782492E+01  0.68806825656E+02  0.80346940256E+02  0.00000000000E+00 0.  1.
         21    1    1    2  504  502  0.44091189930E+02  0.63538434444E+02  0.47402961284E+03  0.48029703260E+03  0.00000000000E+00 0.  1.
         21    1    1    2  505  503 -0.44233679279E+02 -0.97982352670E+02 -0.17541776471E+03  0.20573903857E+03  0.00000000000E+00 0. -1.
         21    1    1    2  506  504  0.40785197060E+02  0.42775896475E+02  0.61895938849E+03  0.62177482598E+03  0.00000000000E+00 0.  1.
<scales pt_clust_3="41.48797" pt_clust_4="33.06602" pt_clust_5="107.83653" pt_clust_6="33.06602"></scales>
<clustering>
<clus scale="   33.066">  4  6 -1 -1</clus>
<clus scale="   41.488">  1  3  2 -1</clus>
<clus scale="  107.837">  2  5  1 -1</clus>
<clus scale="   41.488">  1  3  2 -1</clus>
</clustering>
</event>
<event>
 6    0  0.5510638E+002  0.3655037E+03  0.7546771E-02  0.1056426E+00
         21   -1    0    0  506  501  0.00000000000E+00  0.00000000000E+00  0.22666767908E+04  0.22666767908E+04  0.00000000000E+00 0. -1.
         21   -1    0    0  504  502 -0.00000000000E+00 -0.00000000000E+00 -0.50194290722E+03  0.50194290722E+03  0.00000000000E+00 0. -1.
         21    1    1    2  503  502 -0.56218239188E+02  0.29748143552E+01  0.18521561922E+02  0.59265404697E+02  0.00000000000E+00 0.  1.
         21    1    1    2  504  501  0.38509062212E+03  0.12089158967E+03 -0.37872521043E+03  0.55348202204E+03  0.00000000000E+00 0. -1.
         21    1    1    2  505  503 -0.10384699343E+03 -0.42471698974E+02  0.96560863732E+03  0.97210497567E+03  0.00000000000E+00 0. -1.
         21    1    1    2  506  505 -0.22502538950E+03 -0.81394705051E+02  0.11593288948E+04  0.11837672956E+04  0.00000000000E+00 0. -1.
<scales pt_clust_3="56.29689" pt_clust_4="353.08241" pt_clust_5="64.61302" pt_clust_6="64.61302"></scales>
<clustering>
<clus scale="   56.297">  2  3  1 -1</clus>
<clus scale="   64.613">  5  6 -1 -1</clus>
<clus scale="  353.082">  2  4  1 -1</clus>
<clus scale="  365.504">  1  3  2 -1</clus>
</clustering>
</event>
<event>
 6    0  0.5510638E+002  0.1943618E+03  0.7546771E-02  0.1154585E+00
         21   -1    0    0  505  501  0.00000000000E+00  0.00000000000E+00  0.36257261675E+03  0.36257261675E+03  0.00000000000E+00 0. -1.
         21   -1    0    0  504  502 -0.00000000000E+00 -0.00000000000E+00 -0.45506033723E+03  0.45506033723E+03  0.00000000000E+00 0. -1.
         21    1    1    2  503  501 -0.63781270880E+02 -0.10831541517E+03  0.20546327218E+03  0.24086393648E+03  0.00000000000E+00 0. -1.
         21    1    1    2  504  506  0.98769632193E+02 -0.54671665655E+02 -0.17798869059E+02  0.11428574281E+03  0.00000000000E+00 0.  1.
         21    1    1    2  505  502  0.18039905715E+02  0.19738203054E+03 -0.32798207006E+03  0.38321970520E+03  0.00000000000E+00 0. -1.
         21    1    1    2  506  503 -0.53028267028E+02 -0.34394949715E+02  0.47829946456E+02  0.79263569487E+02  0.00000000000E+00 0. -1.
<scales pt_clust_3="46.57208" pt_clust_4="112.89124" pt_clust_5="182.92914" pt_clust_6="46.57208"></scales>
<clustering>
<clus scale="   46.572">  3  6 -1 -1</clus>
<clus scale="  112.891">  2  4  1 -1</clus>
<clus scale="  182.929">  2  5  1 -1</clus>
<clus scale="  194.362">  1  3  2 -1</clus>
</clustering>
</event>
<event>
 6    0  0.5510638E+002  0.1108672E+03  0.7546771E-02  0.1258972E+00
         21   -1    0    0  504  501  0.00000000000E+00  0.00000000000E+00  0.11904609763E+03  0.11904609763E+03  0.00000000000E+00 0.  1.
         21   -1    0    0  503  502 -0.00000000000E+00 -0.00000000000E+00 -0.93846897271E+03  0.93846897271E+03  0.00000000000E+00 0. -1.
         21    1    1    2  503  506 -0.18017765657E+02 -0.36713781471E+02 -0.58949725669E+03  0.59091417081E+03  0.00000000000E+00 0. -1.
         21    1    1    2  504  502 -0.36282004447E+02  0.12871315237E+03  0.24051648627E+02  0.13587472628E+03  0.00000000000E+00 0.  1.
         21    1    1    2  505  501  0.44690998914E+02 -0.12200970146E+02  0.16020984614E+02  0.49018578156E+02  0.00000000000E+00 0. -1.
         21    1    1    2  506  505  0.96087711901E+01 -0.79798400757E+02 -0.26999825163E+03  0.28170759509E+03  0.00000000000E+00 0. -1.
<scales pt_clust_3="40.89672" pt_clust_4="110.86717" pt_clust_5="46.00054" pt_clust_6="14000.00000"></scales>
<clustering>
<clus scale="   40.897">  2  3  1 -1</clus>
<clus scale="   46.001">  1  5  2 -1</clus>
<clus scale="  110.867">  1  4  2 -1</clus>
<clus scale="   46.001">  1  3  2 -1</clus>
</clustering>
</event>
<event>
 6    0  0.5510638E+002  0.1030555E+03  0.7546771E-02  0.1273999E+00
         21   -1    0    0  506  501  0.00000000000E+00  0.00000000000E+00  0.26652300015E+03  0.26652300015E+03  0.00000000000E+00 0. -1.
         21   -1    0    0  503  502 -0.00000000000E+00 -0.00000000000E+00 -0.10794897471E+03  0.10794897471E+03  0.00000000000E+00 0. -1.
         21    1    1    2  503  504 -0.65441336086E+02 -0.84299601944E+02 -0.14472704399E+02  0.10769610267E+03  0.00000000000E+00 0. -1.
         21    1    1    2  504  501 -0.27040388449E+02 -0.27600985332E+02  0.60482096861E+02  0.71771032036E+02  0.00000000000E+00 0. -1.
         21    1    1    2  505  502  0.63677277819E+02  0.74100726186E+02  0.34504379177E+02  0.10361595203E+03  0.00000000000E+00 0. -1.
         21    1    1    2  506  505  0.28804446716E+02  0.37799861090E+02  0.78060253801E+02  0.91388888124E+02  0.00000000000E+00 0. -1.
<scales pt_clust_3="14000.00000" pt_clust_4="38.63932" pt_clust_5="103.05553" pt_clust_6="31.37834"></scales>
<clustering>
<clus scale="   38.639">  1  4  2 -1</clus>
<clus scale="   31.378">  1  6  2 -1</clus>
<clus scale="  103.056">  1  5  2 -1</clus>
<clus scale="   38.639">  1  3  2 -1</clus>
</clustering>
</event>
<event>
 6    0  0.5510638E+002  0.2500586E+03  0.7546771E-02  0.1113268E+00
         21   -1    0    0  504  501  0.00000000000E+00  0.00000000000E+00  0.62682856130E+03  0.62682856130E+03  0.00000000000E+00 0. -1.
         21   -1    0    0  505  502 -0.00000000000E+00 -0.00000000000E+00 -0.29886096685E+04  0.29886096685E+04  0.00000000000E+00 0. -1.
         21    1    1    2  503  501 -0.64218823953E+02  0.72156015731E+01  0.66049318728E+01  0.64959582672E+02  0.00000000000E+00 0. -1.
         21    1    1    2  504  502 -0.15975802431E+03 -0.12057090362E+03  0.56796777656E+03  0.60220209593E+03  0.00000000000E+00 0. -1.
         21    1    1    2  505  506  0.61157696758E+01  0.29836216262E+02 -0.43474048012E+03  0.43580602049E+03  0.00000000000E+00 0. -1.
         21    1    1    2  506  503  0.21786107858E+03  0.83519085783E+02 -0.25016133355E+04  0.25124705307E+04  0.00000000000E+00 0. -1.
<scales pt_clust_3="64.59247" pt_clust_4="250.05863" pt_clust_5="30.45657" pt_clust_6="14000.00000"></scales>
<clustering>
<clus scale="   30.457">  2  5  1 -1</clus>
<clus scale="   64.592">  1  3  2 -1</clus>
<clus scale="  250.059">  1  4  2 -1</clus>
<clus scale="   64.592">  1  3  2 -1</clus>
</clustering>
</event>
<event>
 6    0  0.5510638E+002  0.1612549E+03  0.7546771E-02  0.1187287E+00
         21   -1    0    0  506  501  0.00000000000E+00  0.00000000000E+00  0.10247863550E+04  0.10247863550E+04  0.00000000000E+00 0.  1.
         21   -1    0    0  503  502 -0.00000000000E+00 -0.00000000000E+00 -0.89042201741E+02  0.89042201741E+02  0.00000000000E+00 0.  1.
         21    1    1    2  503  501 -0.24642622057E+02 -0.20396569781E+03  0.29876000774E+03  0.36258351718E+03  0.00000000000E+00 0.  1.
         21    1    1    2  504  505 -0.10822097615E+02  0.10564439600E+03  0.35597934542E+02  0.11200477287E+03  0.00000000000E+00 0.  1.
         21    1    1    2  505  502 -0.33301385069E+02  0.27594856895E+02  0.16812330156E+02  0.46401646736E+02  0.00000000000E+00 0.  1.
         21    1    1    2  506  504  0.68766104741E+02  0.70726444920E+02  0.58457388079E+03  0.59283861993E+03  0.00000000000E+00 0.  1.
<scales pt_clust_3="152.82988" pt_clust_4="32.82766" pt_clust_5="32.82766" pt_clust_6="98.64587"></scales>
<clustering>
<clus scale="   32.828">  4  5 -1 -1</clus>
<clus scale="   98.646">  1  6  2 -1</clus>
<clus scale="  152.830">  1  3  2 -1</clus>
<clus scale="   98.646">  1  3  2 -1</clus>
</clustering>
</event>
<event>
 6    0  0.5510638E+002  0.9602107E+02  0.7546771E-02  0.1288893E+00
         21   -1    0    0  505  501  0.00000000000E+00  0.00000000000E+00  0.86336143811E+03  0.86336143811E+03  0.00000000000E+00 0. -1.
         21   -1    0    0  506  502 -0.00000000000E+00 -0.00000000000E+00 -0.67669371623E+02  0.67669371623E+02  0.00000000000E+00 0. -1.
         21    1    1    2  503  501 -0.58152864309E+02  0.58345522740E+02  0.40240445380E+03  0.41074968057E+03  0.00000000000E+00 0. -1.
         21    1    1    2  504  502 -0.32475621792E+02  0.75352390983E+01  0.36908500764E+02  0.49736136437E+02  0.00000000000E+00 0. -1.
         21    1    1    2  505  504  0.14365573653E+03 -0.54908226572E+02  0.38114265043E+03  0.41100073474E+03  0.00000000000E+00 0. -1.
         21    1    1    2  506  503 -0.53027250424E+02 -0.10972535266E+02 -0.24763538516E+02  0.59544257973E+02  0.00000000000E+00 0. -1.
<scales pt_clust_3="14000.00000" pt_clust_4="33.33835" pt_clust_5="96.02107" pt_clust_6="75.59765"></scales>
<clustering>
<clus scale="   33.338">  2  4  1 -1</clus>
<clus scale="   75.598">  2  6  1 -1</clus>
<clus scale="   96.021">  2  5  1 -1</clus>
<clus scale="   96.021">  1  3  2 -1</clus>
</clustering>
</event>
<event>
 6    0  0.5510638E+002  0.2726468E+03  0.7546771E-02  0.1099774E+00
         21   -1    0    0  506  501  0.00000000000E+00  0.00000000000E+00  0.30105724245E+03  0.30105724245E+03  0.00000000000E+00 0. -1.
         21   -1    0    0  503  502 -0.00000000000E+00 -0.00000000000E+00 -0.71822679420E+03  0.71822679420E+03  0.00000000000E+00 0. -1.
         21    1    1    2  503  505 -0.20799781293E+02  0.32678889671E+02 -0.67721448529E+02  0.78017532150E+02  0.00000000000E+00 0. -1.
         21    1    1    2  504  502  0.14164308707E+03  0.22630091936E+03 -0.51305715967E+03  0.57836192760E+03  0.00000000000E+00 0. -1.
         21    1    1    2  505  501 -0.11331106554E+03 -0.18652524658E+03  0.18593985795E+03  0.28671361314E+03  0.00000000000E+00 0. -1.
         21    1    1    2  506  504 -0.75322402325E+01 -0.72454562446E+02 -0.22330801499E+02  0.76190963754E+02  0.00000000000E+00 0. -1.
<scales pt_clust_3="38.73681" pt_clust_4="14000.00000" pt_clust_5="272.64683" pt_clust_6="70.55207"></scales>
<clustering>
<clus scale="   38.737">  2  3  1 -1</clus>
<clus scale="   70.552">  1  6  2 -1</clus>
<clus scale="  272.647">  1  5  2 -1</clus>
<clus scale="   70.552">  1  3  2 -1</clus>
</clustering>
</event>
<event>
 6    0  0.6574680E+002  0.1840149E+03  0.7546771E-02  0.1163973E+00
         21   -1    0    0  506  501  0.00000000000E+00  0.00000000000E+00  0.11060858784E+04  0.11060858784E+04  0.00000000000E+00 0.  1.
         21   -1    0    0  505  502 -0.00000000000E+00 -0.00000000000E+00 -0.70462400403E+03  0.70462400403E+03  0.00000000000E+00 0.  1.
         21    1    1    2  503  501 -0.23881109546E+02  0.19011495578E+02  0.16141945120E+02  0.34529795098E+02  0.00000000000E+00 0.  1.
         21    1    1    2  504  503  0.60385272535E+02  0.12376214015E+03  0.11551761363E+03  0.17974361611E+03  0.00000000000E+00 0. -1.
         21    1    1    2  505  504  0.12593277795E+03 -0.71337795859E+01 -0.64513201458E+03  0.65734714696E+03  0.00000000000E+00 0.  1.
         21    1    1    2  506  502 -0.16243694094E+03 -0.13563985614E+03  0.91493433022E+03  0.93908932428E+03  0.00000000000E+00 0.  1.
<scales pt_clust_3="30.52449" pt_clust_4="14000.00000" pt_clust_5="125.99389" pt_clust_6="184.01490"></scales>
<clustering>
<clus scale="   30.524">  1  3  2 -1</clus>
<clus scale="  125.994">  2  5  1 -1</clus>
<clus scale="  184.015">  1  6  2 -1</clus>
<clus scale="   30.524">  1  3  2 -1</clus>
</clustering>
</event>
<event>
 6    0  0.5510638E+002  0.7620299E+02  0.7546771E-02  0.1340186E+00
         21   -1    0    0  506  501  0.00000000000E+00  0.00000000000E+00  0.14875634284E+04  0.14875634284E+04  0.00000000000E+00 0.  1.
         21   -1    0    0  505  502 -0.00000000000E+00 -0.00000000000E+00 -0.26773403657E+02  0.26773403657E+02  0.00000000000E+00 0.  1.
         21    1    1    2  503  502  0.20085607755E+02  0.36215601150E+02  0.33027976585E+02  0.52970261873E+02  0.00000000000E+00 0.  1.
         21    1    1    2  504  503  0.45554746571E+02  0.22967794299E+01  0.86429315471E+02  0.97726847405E+02  0.00000000000E+00 0.  1.
         21    1    1    2  505  501 -0.12470923608E+03 -0.70114008193E+02  0.51221598979E+03  0.53182101116E+03  0.00000000000E+00 0.  1.
         21    1    1    2  506  504  0.59068881753E+02  0.31601627613E+02  0.82911674289E+03  0.83181871162E+03  0.00000000000E+00 0.  1.
<scales pt_clust_3="41.41258" pt_clust_4="54.27247" pt_clust_5="14000.00000" pt_clust_6="76.20299"></scales>
<clustering>
<clus scale="   41.413">  2  3  1 -1</clus>
<clus scale="   54.272">  2  4  1 -1</clus>
<clus scale="   76.203">  1  6  2 -1</clus>
<clus scale="   76.203">  1  3  2 -1</clus>
</clustering>
</event>
<event>
 6    0  0.5510638E+002  0.1274005E+03  0.7546771E-02  0.1231365E+00
         21   -1    0    0  505  501  0.00000000000E+00  0.00000000000E+00  0.33910321537E+03  0.33910321537E+03  0.00000000000E+00 0.  1.
         21   -1    0    0  504  502 -0.00000000000E+00 -0.00000000000E+00 -0.47659480438E+03  0.47659480438E+03  0.00000000000E+00 0. -1.
         21    1    1    2  503  506  0.14846068217E+02  0.40849312262E+02  0.19913823317E+02  0.47808288119E+02  0.00000000000E+00 0.  1.
         21    1    1    2  504  503  0.90791306836E+02  0.87540922140E+02 -0.41511292052E+03  0.43384929553E+03  0.00000000000E+00 0. -1.
         21    1    1    2  505  502 -0.73875288962E+02 -0.15438520577E+03  0.21505907164E+03  0.27485042182E+03  0.00000000000E+00 0.  1.
         21    1    1    2  506  501 -0.31762086092E+02  0.25994971373E+02  0.42648436556E+02  0.59190014278E+02  0.00000000000E+00 0.  1.
<scales pt_clust_3="45.28858" pt_clust_4="14000.00000" pt_clust_5="127.40046" pt_clust_6="41.04350"></scales>
<clustering>
<clus scale="   41.043">  1  6  2 -1</clus>
<clus scale="   45.289">  1  3  2 -1</clus>
<clus scale="  127.400">  1  5  2 -1</clus>
<clus scale="   41.043">  1  3  2 -1</clus>
</clustering>
</event>
<event>
 6    0  0.5510638E+002  0.2094273E+03  0.7546771E-02  0.1142020E+00
         21   -1    0    0  505  501  0.00000000000E+00  0.00000000000E+00  0.35489666476E+03  0.35489666476E+03  0.00000000000E+00 0. -1.
         21   -1    0    0  503  502 -0.00000000000E+00 -0.00000000000E+00 -0.21501827500E+03  0.21501827500E+03  0.00000000000E+00 0. -1.
         21    1    1    2  503  504 -0.32324045700E+02  0.91926402894E+01 -0.69099769745E+02  0.76838315603E+02  0.00000000000E+00 0. -1.
         21    1    1    2  504  501  0.15244304032E+03  0.13219003904E+03  0.21396008397E+03  0.29409523032E+03  0.00000000000E+00 0. -1.
         21    1    1    2  505  506 -0.11609164889E+03 -0.10011038378E+03  0.12868740909E+02  0.15383421068E+03  0.00000000000E+00 0. -1.
         21    1    1    2  506  502 -0.40273457271E+01 -0.41272295545E+02 -0.17850665377E+02  0.45147183163E+02  0.00000000000E+00 0. -1.
<scales pt_clust_3="33.60578" pt_clust_4="196.74512" pt_clust_5="35.90122" pt_clust_6="35.90122"></scales>
<clustering>
<clus scale="   33.606">  2  3  1 -1</clus>
<clus scale="   35.901">  5  6 -1 -1</clus>
<clus scale="  196.745">  1  4  2 -1</clus>
<clus scale="  196.745">  1  3  2 -1</clus>
</clustering>
</event>
<event>
 6    0  0.5510638E+002  0.8340934E+02  0.7546771E-02  0.1319645E+00
         21   -1    0    0  504  501  0.00000000000E+00  0.00000000000E+00  0.13062617741E+04  0.13062617741E+04  0.00000000000E+00 0. -1.
         21   -1    0    0  506  502 -0.00000000000E+00 -0.00000000000E+00 -0.19938177873E+03  0.19938177873E+03  0.00000000000E+00 0. -1.
         21    1    1    2  503  501 -0.94091911630E+02 -0.23768378783E+02  0.77968341884E+03  0.78569997918E+03  0.00000000000E+00 0. -1.
         21    1    1    2  504  505  0.59876546569E+02  0.96995518410E+01  0.48043674878E+03  0.48425071163E+03  0.00000000000E+00 0. -1.
         21    1    1    2  505  502  0.88371215760E+02 -0.28366552018E+02 -0.13619317431E+03  0.16481114579E+03  0.00000000000E+00 0. -1.
         21    1    1    2  506  503 -0.54155850699E+02  0.42435378960E+02 -0.17046997961E+02  0.70881716204E+02  0.00000000000E+00 0. -1.
<scales pt_clust_3="39.95638" pt_clust_4="60.65709" pt_clust_5="14000.00000" pt_clust_6="83.40934"></scales>
<clustering>
<clus scale="   60.657">  1  4  2 -1</clus>
<clus scale="   39.956">  1  3  2 -1</clus>
<clus scale="   83.409">  1  6  2 -1</clus>
<clus scale="   60.657">  1  3  2 -1</clus>
</clustering>
</event>
<event>
 6    0  0.5510638E+002  0.9613375E+02  0.7546771E-02  0.1288643E+00
         21   -1    0    0  505  501  0.00000000000E+00  0.00000000000E+00  0.40849570022E+03  0.40849570022E+03  0.00000000000E+00 0.  1.
         21   -1    0    0  504  502 -0.00000000000E+00 -0.00000000000E+00 -0.31099314999E+03  0.31099314999E+03  0.00000000000E+00 0. -1.
         21    1    1    2  503  501  0.30886305148E+01 -0.46598873376E+02  0.28230078075E+03  0.28613759880E+03  0.00000000000E+00 0.  1.
         21    1    1    2  504  503  0.46394019957E+02 -0.43679699863E+02  0.85794947827E+02  0.10686952017E+03  0.00000000000E+00 0.  1.
         21    1    1    2  505  506 -0.32169853951E+02  0.11495011267E+03 -0.10753622474E+03  0.16066258910E+03  0.00000000000E+00 0. -1.
         21    1    1    2  506  502 -0.17312796521E+02 -0.24671539431E+02 -0.16305695360E+03  0.16581914214E+03  0.00000000000E+00 0. -1.
<scales pt_clust_3="47.00903" pt_clust_4="96.13375" pt_clust_5="14000.00000" pt_clust_6="30.13997"></scales>
<clustering>
<clus scale="   30.140">  2  6  1 -1</clus>
<clus scale="   47.009">  1  3  2 -1</clus>
<clus scale="   96.134">  1  4  2 -1</clus>
<clus scale="   47.009">  1  3  2 -1</clus>
</clustering>
</event>
<event>
 6    0  0.5510638E+002  0.1420041E+03  0.7546771E-02  0.1210657E+00
         21   -1    0    0  503  501  0.00000000000E+00  0.00000000000E+00  0.55480592840E+03  0.55480592840E+03  0.00000000000E+00 0.  1.
         21   -1    0    0  504  502 -0.00000000000E+00 -0.00000000000E+00 -0.30885107867E+03  0.30885107867E+03  0.00000000000E+00 0. -1.
         21    1    1    2  503  506 -0.28094658330E+02  0.16290911210E+02  0.14391378392E+03  0.14753264322E+03  0.00000000000E+00 0.  1.
         21    1    1    2  504  505  0.61942873048E+02  0.58616686274E+02 -0.23702499325E+03  0.25190014461E+03  0.00000000000E+00 0. -1.
         21    1    1    2  505  501  0.27347258093E+02  0.35591394308E+02 -0.42793757313E+02  0.62015526596E+02  0.00000000000E+00 0. -1.
         21    1    1    2  506  502 -0.61195472811E+02 -0.11049899179E+03  0.38185981638E+03  0.40220869265E+03  0.00000000000E+00 0.  1.
<scales pt_clust_3="32.47620" pt_clust_4="42.27866" pt_clust_5="42.27866" pt_clust_6="129.49345"></scales>
<clustering>
<clus scale="   32.476">  1  3  2 -1</clus>
<clus scale="   42.279">  4  5 -1 -1</clus>
<clus scale="  129.493">  1  6  2 -1</clus>
<clus scale="   32.476">  1  3  2 -1</clus>
</clustering>
</event>
<event>
 6    0  0.5510638E+002  0.1167075E+03  0.7546771E-02  0.1248630E+00
         21   -1    0    0  503  501  0.00000000000E+00  0.00000000000E+00  0.14507891713E+04  0.14507891713E+04  0.00000000000E+00 0.  1.
         21   -1    0    0  506  502 -0.00000000000E+00 -0.00000000000E+00 -0.20241401927E+03  0.20241401927E+03  0.00000000000E+00 0.  1.
         21    1    1    2  503  502  0.10491032833E+03  0.44116886009E+02 -0.14214114956E+03  0.18208949179E+03  0.00000000000E+00 0.  1.
         21    1    1    2  504  505 -0.45091517884E+02 -0.76468151317E+02  0.92088391489E+03  0.92515285648E+03  0.00000000000E+00 0.  1.
         21    1    1    2  505  501 -0.46623149374E+02  0.22591770840E+01  0.49942827505E+03  0.50160484832E+03  0.00000000000E+00 0.  1.
         21    1    1    2  506  504 -0.13195661076E+02  0.30092088223E+02 -0.29795888321E+02  0.44355994022E+02  0.00000000000E+00 0.  1.
<scales pt_clust_3="14000.00000" pt_clust_4="116.70748" pt_clust_5="46.77459" pt_clust_6="32.85817"></scales>
<clustering>
<clus scale="   32.858">  2  6  1 -1</clus>
<clus scale="   46.775">  1  5  2 -1</clus>
<clus scale="  116.707">  1  4  2 -1</clus>
<clus scale="   46.775">  1  3  2 -1</clus>
</clustering>
</event>
<event>
 6    0  0.5510638E+002  0.9352032E+02  0.7546771E-02  0.1294544E+00
         21   -1    0    0  504  501  0.00000000000E+00  0.00000000000E+00  0.16403976837E+02  0.16403976837E+02  0.00000000000E+00 0.  1.
         21   -1    0    0  503  502 -0.00000000000E+00 -0.00000000000E+00 -0.24606359415E+04  0.24606359415E+04  0.00000000000E+00 0.  1.
         21    1    1    2  503  505 -0.19028750003E+02 -0.42178196933E+02 -0.11269986028E+04  0.11279481125E+04  0.00000000000E+00 0.  1.
         21    1    1    2  504  506 -0.57899588926E+02  0.60357984666E+02 -0.14143312157E+03  0.16431304448E+03  0.00000000000E+00 0.  1.
         21    1    1    2  505  501 -0.28982909906E+02 -0.15210148275E+02 -0.15047984468E+03  0.15399851081E+03  0.00000000000E+00 0. -1.
         21    1    1    2  506  502  0.10591124883E+03 -0.29696394579E+01 -0.10253203956E+04  0.10307802506E+04  0.00000000000E+00 0.  1.
<scales pt_clust_3="47.11234" pt_clust_4="93.52032" pt_clust_5="32.73160" pt_clust_6="14000.00000"></scales>
<clustering>
<clus scale="   32.732">  1  5  2 -1</clus>
<clus scale="   47.112">  2  3  1 -1</clus>
<clus scale="   93.520">  1  4  2 -1</clus>
<clus scale="   32.732">  1  3  2 -1</clus>
</clustering>
</event>
<event>
 6    0  0.5510638E+002  0.1180179E+03  0.7546771E-02  0.1246403E+00
         21   -1    0    0  503  501  0.00000000000E+00  0.00000000000E+00  0.64179587359E+03  0.64179587359E+03  0.00000000000E+00 0. -1.
         21   -1    0    0  506  502 -0.00000000000E+00 -0.00000000000E+00 -0.11366206287E+03  0.11366206287E+03  0.00000000000E+00 0.  1.
         21    1    1    2  503  504 -0.10880215653E+03  0.14140969433E+03  0.12098738032E+03  0.21557494546E+03  0.00000000000E+00 0.  1.
         21    1    1    2  504  502  0.37648452912E+02 -0.20364479765E+02 -0.40412426287E+02  0.58866647953E+02  0.00000000000E+00 0.  1.
         21    1    1    2  505  501  0.40470478118E+02 -0.10217029890E+03  0.42391188953E+03  0.43792455932E+03  0.00000000000E+00 0. -1.
         21    1    1    2  506  505  0.30683225500E+02 -0.18874915659E+02  0.23646967160E+02  0.43091783719E+02  0.00000000000E+00 0. -1.
<scales pt_clust_3="118.01792" pt_clust_4="59.98856" pt_clust_5="14000.00000" pt_clust_6="36.02392"></scales>
<clustering>
<clus scale="   36.024">  2  6  1 -1</clus>
<clus scale="   59.989">  2  4  1 -1</clus>
<clus scale="  118.018">  2  3  1 -1</clus>
<clus scale="  118.018">  1  3  2 -1</clus>
</clustering>
</event>
<event>
 6    0  0.5510638E+002  0.1308950E+03  0.7546771E-02  0.1226134E+00
         21   -1    0    0  504  501  0.00000000000E+00  0.00000000000E+00  0.38123654084E+03  0.38123654084E+03  0.00000000000E+00 0. -1.
         21   -1    0    0  503  502 -0.00000000000E+00 -0.00000000000E+00 -0.47359570877E+03  0.47359570877E+03  0.00000000000E+00 0. -1.
         21    1    1    2  503  505  0.99044781595E+02  0.93154378863E+02  0.97259502643E+02  0.16717361609E+03  0.00000000000E+00 0. -1.
         21    1    1    2  504  502  0.10399320557E+02 -0.37178740043E+02 -0.42125749450E+03  0.42302279047E+03  0.00000000000E+00 0. -1.
         21    1    1    2  505  506 -0.67671456151E+02 -0.14833995565E+02  0.12148418633E+03  0.13984949385E+03  0.00000000000E+00 0. -1.
         21    1    1    2  506  501 -0.41772646001E+02 -0.41141643254E+02  0.11015463759E+03  0.12478634920E+03  0.00000000000E+00 0. -1.
<scales pt_clust_3="125.97302" pt_clust_4="38.60576" pt_clust_5="32.71074" pt_clust_6="32.71074"></scales>
<clustering>
<clus scale="   32.711">  5  6 -1 -1</clus>
<clus scale="   38.606">  2  4  1 -1</clus>
<clus scale="  125.973">  2  3  1 -1</clus>
<clus scale="  130.895">  1  3  2 -1</clus>
</clustering>
</event>
<event>
 6    0  0.5510638E+002  0.1825875E+03  0.7546771E-02  0.1165322E+00
         21   -1    0    0  504  501  0.00000000000E+00  0.00000000000E+00  0.40203889071E+03  0.40203889071E+03  0.00000000000E+00 0. -1.
         21   -1    0    0  503  502 -0.00000000000E+00 -0.00000000000E+00 -0.12144479010E+03  0.12144479010E+03  0.00000000000E+00 0. -1.
         21    1    1    2  503  505 -0.36045046098E+02  0.57526140601E+02  0.41468551484E+02  0.79549625787E+02  0.00000000000E+00 0. -1.
         21    1    1    2  504  502 -0.32054211089E+00 -0.69578005399E+02  0.45523459691E+01  0.69727508462E+02  0.00000000000E+00 0.  1.
         21    1    1    2  505  506 -0.12560272359E+03  0.21479376771E+02  0.82258234715E+02  0.15167011894E+03  0.00000000000E+00 0. -1.
         21    1    1    2  506  501  0.16196831180E+03 -0.94275119737E+01  0.15231496844E+03  0.22253642763E+03  0.00000000000E+00 0. -1.
<scales pt_clust_3="55.50269" pt_clust_4="69.57874" pt_clust_5="55.50269" pt_clust_6="165.99949"></scales>
<clustering>
<clus scale="   55.503">  3  5 -1 -1</clus>
<clus scale="   69.579">  2  4  1 -1</clus>
<clus scale="  165.999">  1  6  2 -1</clus>
<clus scale="  165.999">  1  3  2 -1</clus>
</clustering>
</event>
<event>
 6    0  0.5510638E+002  0.1139323E+03  0.7546771E-02  0.1253456E+00
         21   -1    0    0  506  501  0.00000000000E+00  0.00000000000E+00  0.20426858977E+03  0.20426858977E+03  0.00000000000E+00 0. -1.
         21   -1    0    0  505  502 -0.00000000000E+00 -0.00000000000E+00 -0.30914617948E+03  0.30914617948E+03  0.00000000000E+00 0. -1.
         21    1    1    2  503  504  0.39548325795E+02 -0.89635138194E+01  0.25211304469E+02  0.47749602367E+02  0.00000000000E+00 0.  1.
         21    1    1    2  504  502  0.39266302785E+02  0.73991066032E+01 -0.19057067503E+03  0.19471458983E+03  0.00000000000E+00 0. -1.
         21    1    1    2  505  501 -0.12987050107E+03  0.34883558192E+02 -0.51054636083E+02  0.14383944364E+03  0.00000000000E+00 0. -1.
         21    1    1    2  506  503  0.51055872488E+02 -0.33319150975E+02  0.11153641693E+03  0.12711113341E+03  0.00000000000E+00 0. -1.
<scales pt_clust_3="35.35635" pt_clust_4="39.95734" pt_clust_5="105.36213" pt_clust_6="35.35635"></scales>
<clustering>
<clus scale="   35.356">  3  6 -1 -1</clus>
<clus scale="   39.957">  2  4  1 -1</clus>
<clus scale="  105.362">  2  5  1 -1</clus>
<clus scale="  113.932">  1  3  2 -1</clus>
</clustering>
</event>
<event>
 6    0  0.5510638E+002  0.2351598E+03  0.7546771E-02  0.1123060E+00
         21   -1    0    0  505  501  0.00000000000E+00  0.00000000000E+00  0.16568323354E+03  0.16568323354E+03  0.00000000000E+00 0. -1.
         21   -1    0    0  503  502 -0.00000000000E+00 -0.00000000000E+00 -0.32689972440E+03  0.32689972440E+03  0.00000000000E+00 0. -1.
         21    1    1    2  503  501 -0.12039942001E+03  0.17574694309E+03 -0.10543302541E+02  0.21329362290E+03  0.00000000000E+00 0. -1.
         21    1    1    2  504  502  0.56854596415E+02 -0.24406980885E+02 -0.59575896715E+02  0.85891986348E+02  0.00000000000E+00 0. -1.
         21    1    1    2  505  506  0.37084045018E+02 -0.10705979795E+03 -0.84610568923E+02  0.14140712537E+03  0.00000000000E+00 0. -1.
         21    1    1    2  506  504  0.26460778577E+02 -0.44280164255E+02 -0.64867226819E+01  0.51990223317E+02  0.00000000000E+00 0. -1.
<scales pt_clust_3="213.03288" pt_clust_4="50.85535" pt_clust_5="50.85535" pt_clust_6="31.37459"></scales>
<clustering>
<clus scale="   31.375">  5  6 -1 -1</clus>
<clus scale="   50.855">  4  5 -1 -1</clus>
<clus scale="  213.033">  1  3  2 -1</clus>
<clus scale="  213.033">  1  3  2 -1</clus>
</clustering>
</event>
<event>
 6    0  0.5510638E+002  0.1577928E+03  0.7546771E-02  0.1191211E+00
         21   -1    0    0  502  501  0.00000000000E+00  0.00000000000E+00  0.46741324192E+02  0.46741324192E+02  0.00000000000E+00 0.  1.
         21   -1    0    0  504  502 -0.00000000000E+00 -0.00000000000E+00 -0.13311619568E+04  0.13311619568E+04  0.00000000000E+00 0.  1.
         21    1    1    2  503  505  0.10119373811E+03  0.59570672634E+02 -0.19644045457E+03  0.22886172651E+03  0.00000000000E+00 0.  1.
         21    1    1    2  504  506  0.41657334615E+02 -0.28724624955E+02 -0.81223695753E+03  0.81381159538E+03  0.00000000000E+00 0.  1.
         21    1    1    2  505  501 -0.14448756041E+03 -0.63051723610E+02 -0.21701290088E+03  0.26822895838E+03  0.00000000000E+00 0.  1.
         21    1    1    2  506  503  0.16364876914E+01  0.32205675931E+02 -0.58730319660E+02  0.67001000750E+02  0.00000000000E+00 0.  1.
<scales pt_clust_3="30.67167" pt_clust_4="50.60077" pt_clust_5="146.53636" pt_clust_6="30.67167"></scales>
<clustering>
<clus scale="   30.672">  3  6 -1 -1</clus>
<clus scale="   50.601">  2  4  1 -1</clus>
<clus scale="  146.536">  1  5  2 -1</clus>
<clus scale="  146.536">  1  3  2 -1</clus>
</clustering>
</event>
<event>
 6    0  0.5510638E+002  0.1669316E+03  0.7546771E-02  0.1181086E+00
         21   -1    0    0  504  501  0.00000000000E+00  0.00000000000E+00  0.22117094773E+03  0.22117094773E+03  0.00000000000E+00 0. -1.
         21   -1    0    0  505  502 -0.00000000000E+00 -0.00000000000E+00 -0.78664271405E+03  0.78664271405E+03  0.00000000000E+00 0. -1.
         21    1    1    2  503  506  0.29393646007E+02  0.14226792696E+03 -0.17314771961E+02  0.14630089130E+03  0.00000000000E+00 0. -1.
         21    1    1    2  504  502 -0.60574285019E+02 -0.18352453863E+03  0.21579761041E+02  0.19446384335E+03  0.00000000000E+00 0. -1.
         21    1    1    2  505  503  0.57139142992E+02  0.63809588161E+01 -0.60704381082E+03  0.60976043374E+03  0.00000000000E+00 0. -1.
         21    1    1    2  506  501 -0.25958503980E+02  0.34875652858E+02  0.37307055417E+02  0.57288493391E+02  0.00000000000E+00 0. -1.
<scales pt_clust_3="14000.00000" pt_clust_4="166.93157" pt_clust_5="57.32378" pt_clust_6="43.47591"></scales>
<clustering>
<clus scale="   43.476">  1  6  2 -1</clus>
<clus scale="   57.324">  2  5  1 -1</clus>
<clus scale="  166.932">  1  4  2 -1</clus>
<clus scale="   43.476">  1  3  2 -1</clus>
</clustering>
</event>
<event>
 6    0  0.5510638E+002  0.9528363E+02  0.7546771E-02  0.1290539E+00
         21   -1    0    0  506  501  0.00000000000E+00  0.00000000000E+00  0.69355385682E+02  0.69355385682E+02  0.00000000000E+00 0. -1.
         21   -1    0    0  503  502 -0.00000000000E+00 -0.00000000000E+00 -0.55320731274E+03  0.55320731274E+03  0.00000000000E+00 0. -1.
         21    1    1    2  503  504  0.65477402039E+02 -0.74153428478E+02 -0.28397220000E+03  0.30070954674E+03  0.00000000000E+00 0. -1.
         21    1    1    2  504  501 -0.12504295370E+03 -0.17727604572E+02 -0.13433772427E+03  0.18438175722E+03  0.00000000000E+00 0. -1.
         21    1    1    2  505  502  0.59011839048E+02  0.61158102509E+02 -0.64560950951E+02  0.10672781755E+03  0.00000000000E+00 0. -1.
         21    1    1    2  506  505  0.55371261285E+00  0.30722930541E+02 -0.98105184504E+00  0.30743576913E+02  0.00000000000E+00 0.  1.
<scales pt_clust_3="95.28363" pt_clust_4="14000.00000" pt_clust_5="94.04195" pt_clust_6="30.72792"></scales>
<clustering>
<clus scale="   30.728">  1  6  2 -1</clus>
<clus scale="   94.042">  1  5  2 -1</clus>
<clus scale="   95.284">  2  3  1 -1</clus>
<clus scale="   30.728">  1  3  2 -1</clus>
</clustering>
</event>
<event>
 6    0  0.5510638E+002  0.1304576E+03  0.7546771E-02  0.1226778E+00
         21   -1    0    0  506  501  0.00000000000E+00  0.00000000000E+00  0.10445146956E+04  0.10445146956E+04  0.00000000000E+00 0. -1.
         21   -1    0    0  503  502 -0.00000000000E+00 -0.00000000000E+00 -0.26627443236E+02  0.26627443236E+02  0.00000000000E+00 0. -1.
         21    1    1    2  503  504  0.43617428539E+02  0.99068028781E+00  0.18021557110E+03  0.18542144856E+03  0.00000000000E+00 0. -1.
         21    1    1    2  504  501  0.57008143077E+02 -0.70573608114E+02  0.54499867795E+03  0.55249807375E+03  0.00000000000E+00 0. -1.
         21    1    1    2  505  502  0.31297308385E+01  0.38922746258E+02  0.30322156564E+02  0.49438937793E+02  0.00000000000E+00 0. -1.
         21    1    1    2  506  505 -0.10375530246E+03  0.30660181568E+02  0.26235084679E+03  0.28378367877E+03  0.00000000000E+00 0. -1.
<scales pt_clust_3="43.68795" pt_clust_4="43.68795" pt_clust_5="39.04837" pt_clust_6="115.74521"></scales>
<clustering>
<clus scale="   39.048">  2  5  1 -1</clus>
<clus scale="   43.688">  3  4 -1 -1</clus>
<clus scale="  115.745">  2  6  1 -1</clus>
<clus scale="  130.458">  1  3  2 -1</clus>
</clustering>
</event>
<event>
 6    0  0.5510638E+002  0.1373236E+03  0.7546771E-02  0.1216976E+00
         21   -1    0    0  504  501  0.00000000000E+00  0.00000000000E+00  0.61222598445E+03  0.61222598445E+03  0.00000000000E+00 0. -1.
         21   -1    0    0  506  502 -0.00000000000E+00 -0.00000000000E+00 -0.29103977234E+03  0.29103977234E+03  0.00000000000E+00 0. -1.
         21    1    1    2  503  505 -0.88465803375E+01 -0.88393628741E+02 -0.14702687005E+03  0.17178066278E+03  0.00000000000E+00 0. -1.
         21    1    1    2  504  502  0.78857312015E+01  0.32067790163E+02  0.13042641958E+02  0.35505470448E+02  0.00000000000E+00 0. -1.
         21    1    1    2  505  501 -0.21686537900E+02  0.98618986036E+02  0.56614484162E+03  0.57507911806E+03  0.00000000000E+00 0. -1.
         21    1    1    2  506  503  0.22647387036E+02 -0.42293147458E+02 -0.11097440142E+03  0.12090050551E+03  0.00000000000E+00 0. -1.
<scales pt_clust_3="31.42080" pt_clust_4="33.02314" pt_clust_5="130.49778" pt_clust_6="31.42080"></scales>
<clustering>
<clus scale="   31.421">  3  6 -1 -1</clus>
<clus scale="   33.023">  1  4  2 -1</clus>
<clus scale="  130.498">  1  5  2 -1</clus>
<clus scale="   33.023">  1  3  2 -1</clus>
</clustering>
</event>
<event>
 6    0  0.5510638E+002  0.1993166E+03  0.7546771E-02  0.1150317E+00
         21   -1    0    0  503  501  0.00000000000E+00  0.00000000000E+00  0.46795874627E+03  0.46795874627E+03  0.00000000000E+00 0. -1.
         21   -1    0    0  501  502 -0.00000000000E+00 -0.00000000000E+00 -0.39540054477E+03  0.39540054477E+03  0.00000000000E+00 0. -1.
         21    1    1    2  503  506 -0.16857385022E+03  0.37494782673E+02  0.20482161020E+03  0.26790836813E+03  0.00000000000E+00 0. -1.
         21    1    1    2  504  505 -0.55698730746E+02 -0.30953764958E+00 -0.36507330249E+02  0.66597519339E+02  0.00000000000E+00 0. -1.
         21    1    1    2  505  502 -0.51806504101E+02 -0.15404706592E+02 -0.21911632274E+03  0.22568380921E+03  0.00000000000E+00 0. -1.
         21    1    1    2  506  504  0.27607908507E+03 -0.21780538431E+02  0.12336024428E+03  0.30316959435E+03  0.00000000000E+00 0. -1.
<scales pt_clust_3="199.31656" pt_clust_4="71.30511" pt_clust_5="54.04830" pt_clust_6="14000.00000"></scales>
<clustering>
<clus scale="   54.048">  2  5  1 -1</clus>
<clus scale="   71.305">  2  4  1 -1</clus>
<clus scale="  199.317">  1  3  2 -1</clus>
<clus scale="  199.317">  1  3  2 -1</clus>
</clustering>
</event>
<event>
 6    0  0.5510638E+002  0.7877129E+02  0.7546771E-02  0.1332575E+00
         21   -1    0    0  504  501  0.00000000000E+00  0.00000000000E+00  0.32277620971E+03  0.32277620971E+03  0.00000000000E+00 0.  1.
         21   -1    0    0  505  502 -0.00000000000E+00 -0.00000000000E+00 -0.11634673850E+04  0.11634673850E+04  0.00000000000E+00 0. -1.
         21    1    1    2  503  502 -0.35164348735E+02 -0.84826702108E+01 -0.97013318360E+03  0.97080733466E+03  0.00000000000E+00 0. -1.
         21    1    1    2  504  506  0.32847118724E+02 -0.71999892056E+02  0.26551398596E+03  0.27705702374E+03  0.00000000000E+00 0.  1.
         21    1    1    2  505  501  0.57352338693E+02  0.30580147784E+02  0.17905326204E+02  0.67416888822E+02  0.00000000000E+00 0. -1.
         21    1    1    2  506  503 -0.55035108682E+02  0.49902414483E+02 -0.15397730387E+03  0.17096234751E+03  0.00000000000E+00 0. -1.
<scales pt_clust_3="36.17302" pt_clust_4="78.77129" pt_clust_5="60.51478" pt_clust_6="14000.00000"></scales>
<clustering>
<clus scale="   36.173">  2  3  1 -1</clus>
<clus scale="   60.515">  2  5  1 -1</clus>
<clus scale="   78.771">  1  4  2 -1</clus>
<clus scale="   78.771">  1  3  2 -1</clus>
</clustering>
</event>
<event>
 6    0  0.5510638E+002  0.9531997E+02  0.7546771E-02  0.1290457E+00
         21   -1    0    0  502  501  0.00000000000E+00  0.00000000000E+00  0.14423132332E+03  0.14423132332E+03  0.00000000000E+00 0.  1.
         21   -1    0    0  504  502 -0.00000000000E+00 -0.00000000000E+00 -0.31726427008E+03  0.31726427008E+03  0.00000000000E+00 0.  1.
         21    1    1    2  503  501  0.28500106566E+02  0.35204025801E+02  0.33377088217E+02  0.56263749650E+02  0.00000000000E+00 0.  1.
         21    1    1    2  504  505 -0.30458005975E+02 -0.29827226320E+02 -0.17172048186E+03  0.17693297445E+03  0.00000000000E+00 0.  1.
         21    1    1    2  505  506  0.40351437150E+02 -0.77957134476E+02 -0.92774775345E+02  0.12772122860E+03  0.00000000000E+00 0.  1.
         21    1    1    2  506  503 -0.38393537741E+02  0.72580334995E+02  0.58085222220E+02  0.10057764070E+03  0.00000000000E+00 0.  1.
<scales pt_clust_3="41.90595" pt_clust_4="42.63043" pt_clust_5="14000.00000" pt_clust_6="95.31997"></scales>
<clustering>
<clus scale="   42.630">  2  4  1 -1</clus>
<clus scale="   41.906">  1  3  2 -1</clus>
<clus scale="   95.320">  1  6  2 -1</clus>
<clus scale="   41.906">  1  3  2 -1</clus>
</clustering>
</event>
<event>
 6    0  0.5510638E+002  0.7633911E+02  0.7546771E-02  0.1339774E+00
         21   -1    0    0  504  501  0.00000000000E+00  0.00000000000E+00  0.18583892870E+03  0.18583892870E+03  0.00000000000E+00 0. -1.
         21   -1    0    0  505  502 -0.00000000000E+00 -0.00000000000E+00 -0.59943038811E+03  0.59943038811E+03  0.00000000000E+00 0. -1.
         21    1    1    2  503  501  0.22317191780E+02 -0.34308763105E+02  0.54011682814E+02  0.67767323654E+02  0.00000000000E+00 0. -1.
         21    1    1    2  504  506 -0.20067521804E+02  0.10770475470E+03  0.86307321951E+02  0.13947033175E+03  0.00000000000E+00 0. -1.
         21    1    1    2  505  503 -0.38341166430E+02 -0.66277464986E+02 -0.52679725856E+03  0.53233269581E+03  0.00000000000E+00 0. -1.
         21    1    1    2  506  502  0.36091496454E+02 -0.71185266092E+01 -0.27113205618E+02  0.45698965593E+02  0.00000000000E+00 0. -1.
<scales pt_clust_3="41.24313" pt_clust_4="14000.00000" pt_clust_5="76.33911" pt_clust_6="36.78681"></scales>
<clustering>
<clus scale="   36.787">  2  6  1 -1</clus>
<clus scale="   41.243">  1  3  2 -1</clus>
<clus scale="   76.339">  2  5  1 -1</clus>
<clus scale="   41.243">  1  3  2 -1</clus>
</clustering>
</event>
<event>
 6    0  0.5510638E+002  0.1647428E+03  0.7546771E-02  0.1183444E+00
         21   -1    0    0  506  501  0.00000000000E+00  0.00000000000E+00  0.13178768633E+03  0.13178768633E+03  0.00000000000E+00 0.  1.
         21   -1    0    0  504  502 -0.00000000000E+00 -0.00000000000E+00 -0.46530153815E+03  0.46530153815E+03  0.00000000000E+00 0.  1.
         21    1    1    2  503  501  0.16995090932E+02 -0.28740170796E+02 -0.93015545170E+01  0.34660488306E+02  0.00000000000E+00 0. -1.
         21    1    1    2  504  503 -0.41949580438E+02 -0.96617956125E+02 -0.40536797651E+02  0.11286287569E+03  0.00000000000E+00 0.  1.
         21    1    1    2  505  502  0.50948323365E+02 -0.69473353952E+02 -0.23030432643E+03  0.24589095415E+03  0.00000000000E+00 0.  1.
         21    1    1    2  506  505 -0.25993833859E+02  0.19483148087E+03 -0.53371173227E+02  0.20367490633E+03  0.00000000000E+00 0.  1.
<scales pt_clust_3="30.53767" pt_clust_4="30.53767" pt_clust_5="86.15265" pt_clust_6="155.55798"></scales>
<clustering>
<clus scale="   30.538">  3  4 -1 -1</clus>
<clus scale="   86.153">  2  5  1 -1</clus>
<clus scale="  155.558">  2  6  1 -1</clus>
<clus scale="  164.743">  1  3  2 -1</clus>
</clustering>
</event>
<event>
 6    0  0.5510638E+002  0.9384561E+02  0.7546771E-02  0.1293797E+00
         21   -1    0    0  506  501  0.00000000000E+00  0.00000000000E+00  0.49320428334E+03  0.49320428334E+03  0.00000000000E+00 0.  1.
         21   -1    0    0  505  502 -0.00000000000E+00 -0.00000000000E+00 -0.64254466616E+02  0.64254466616E+02  0.00000000000E+00 0.  1.
         21    1    1    2  503  504 -0.46452771540E+02 -0.48423709675E+02  0.92793353682E+02  0.11451341463E+03  0.00000000000E+00 0.  1.
         21    1    1    2  504  501  0.14684675541E+02 -0.55758013419E+02  0.23657706632E+03  0.24350216439E+03  0.00000000000E+00 0.  1.
         21    1    1    2  505  503  0.75797365240E+02  0.84849658696E+02  0.35215614417E+02  0.11910014550E+03  0.00000000000E+00 0.  1.
         21    1    1    2  506  502 -0.44029269242E+02  0.19332064398E+02  0.64363782309E+02  0.80343025441E+02  0.00000000000E+00 0.  1.
<scales pt_clust_3="93.84561" pt_clust_4="45.93110" pt_clust_5="14000.00000" pt_clust_6="48.08644"></scales>
<clustering>
<clus scale="   48.086">  1  6  2 -1</clus>
<clus scale="   45.931">  1  4  2 -1</clus>
<clus scale="   93.846">  1  3  2 -1</clus>
<clus scale="   48.086">  1  3  2 -1</clus>
</clustering>
</event>
<event>
 6    0  0.5510638E+002  0.1541518E+03  0.7546771E-02  0.1195462E+00
         21   -1    0    0  503  501  0.00000000000E+00  0.00000000000E+00  0.20719189383E+04  0.20719189383E+04  0.00000000000E+00 0. -1.
         21   -1    0    0  504  502 -0.00000000000E+00 -0.00000000000E+00 -0.99146003204E+02  0.99146003204E+02  0.00000000000E+00 0. -1.
         21    1    1    2  503  506 -0.31931297669E+02 -0.19486942154E+02  0.50321464237E+03  0.50460313612E+03  0.00000000000E+00 0. -1.
         21    1    1    2  504  505 -0.20548744362E+02 -0.96761585855E+02  0.35128826568E+03  0.36494999794E+03  0.00000000000E+00 0. -1.
         21    1    1    2  505  501  0.77251083610E+01 -0.43412102834E+02  0.11340874844E+04  0.11349443643E+04  0.00000000000E+00 0. -1.
         21    1    1    2  506  502  0.44754933670E+02  0.15966063084E+03 -0.15817457360E+02  0.16656744306E+03  0.00000000000E+00 0. -1.
<scales pt_clust_3="37.40787" pt_clust_4="154.15179" pt_clust_5="59.53223" pt_clust_6="14000.00000"></scales>
<clustering>
<clus scale="   37.408">  1  3  2 -1</clus>
<clus scale="   59.532">  1  5  2 -1</clus>
<clus scale="  154.152">  1  4  2 -1</clus>
<clus scale="   37.408">  1  3  2 -1</clus>
</clustering>
</event>
<event>
 6    0  0.5510638E+002  0.1619321E+03  0.7546771E-02  0.1186533E+00
         21   -1    0    0  505  501  0.00000000000E+00  0.00000000000E+00  0.94593683700E+03  0.94593683700E+03  0.00000000000E+00 0. -1.
         21   -1    0    0  503  502 -0.00000000000E+00 -0.00000000000E+00 -0.13942759532E+04  0.13942759532E+04  0.00000000000E+00 0.  1.
         21    1    1    2  503  504 -0.38851530655E+01 -0.30291717831E+02 -0.12477329391E+04  0.12481066340E+04  0.00000000000E+00 0.  1.
         21    1    1    2  504  501 -0.16986191867E+03 -0.18185066751E+02  0.48789622392E+03  0.51693954519E+03  0.00000000000E+00 0. -1.
         21    1    1    2  505  506  0.14292800434E+03  0.66530542712E+02  0.42652106243E+03  0.45472513042E+03  0.00000000000E+00 0. -1.
         21    1    1    2  506  502  0.30819067391E+02 -0.18053758130E+02 -0.11502346347E+03  0.12044148059E+03  0.00000000000E+00 0. -1.
<scales pt_clust_3="30.53985" pt_clust_4="161.93208" pt_clust_5="14000.00000" pt_clust_6="50.66062"></scales>
<clustering>
<clus scale="   30.540">  2  3  1 -1</clus>
<clus scale="   50.661">  2  6  1 -1</clus>
<clus scale="  161.932">  2  4  1 -1</clus>
<clus scale="  161.932">  1  3  2 -1</clus>
</clustering>
</event>
<event>
 6    0  0.5510638E+002  0.1118725E+03  0.7546771E-02  0.1257141E+00
         21   -1    0    0  506  501  0.00000000000E+00  0.00000000000E+00  0.33203182017E+03  0.33203182017E+03  0.00000000000E+00 0. -1.
         21   -1    0    0  505  502 -0.00000000000E+00 -0.00000000000E+00 -0.12567246298E+04  0.12567246298E+04  0.00000000000E+00 0.  1.
         21    1    1    2  503  504 -0.99549127417E+02 -0.17986037737E+03 -0.13576207638E+03  0.24635568900E+03  0.00000000000E+00 0.  1.
         21    1    1    2  504  501 -0.57599940659E+01  0.49939688159E+02  0.63235434874E+02  0.80782858384E+02  0.00000000000E+00 0. -1.
         21    1    1    2  505  503  0.44612439140E+02  0.84831847698E+02 -0.10476475743E+04  0.10520228858E+04  0.00000000000E+00 0.  1.
         21    1    1    2  506  502  0.60696682343E+02  0.45088841514E+02  0.19548140626E+03  0.20959501681E+03  0.00000000000E+00 0. -1.
<scales pt_clust_3="111.87252" pt_clust_4="50.27077" pt_clust_5="96.19695" pt_clust_6="14000.00000"></scales>
<clustering>
<clus scale="   50.271">  1  4  2 -1</clus>
<clus scale="   96.197">  2  5  1 -1</clus>
<clus scale="  111.873">  2  3  1 -1</clus>
<clus scale="   50.271">  1  3  2 -1</clus>
</clustering>
</event>
<event>
 6    0  0.5510638E+002  0.3317861E+03  0.7546771E-02  0.1070349E+00
         21   -1    0    0  502  501  0.00000000000E+00  0.00000000000E+00  0.14178148549E+04  0.14178148549E+04  0.00000000000E+00 0.  1.
         21   -1    0    0  506  502 -0.00000000000E+00 -0.00000000000E+00 -0.40498637128E+03  0.40498637128E+03  0.00000000000E+00 0. -1.
         21    1    1    2  503  504  0.31223257455E+03 -0.24029865770E+02  0.59514946897E+03  0.67250985530E+03  0.00000000000E+00 0.  1.
         21    1    1    2  504  505 -0.46009178921E+02 -0.27675575605E+02  0.17045922541E+03  0.17871521915E+03  0.00000000000E+00 0. -1.
         21    1    1    2  505  501 -0.28689830675E+03 -0.47709453772E+02  0.56635995205E+03  0.63667136395E+03  0.00000000000E+00 0.  1.
         21    1    1    2  506  503  0.20674911125E+02  0.99414895147E+02 -0.31914016283E+03  0.33490478775E+03  0.00000000000E+00 0. -1.
<scales pt_clust_3="323.48034" pt_clust_4="31.69756" pt_clust_5="31.69756" pt_clust_6="101.54198"></scales>
<clustering>
<clus scale="   31.698">  4  5 -1 -1</clus>
<clus scale="  101.542">  2  6  1 -1</clus>
<clus scale="  323.480">  2  3  1 -1</clus>
<clus scale="  331.786">  1  3  2 -1</clus>
</clustering>
</event>
<event>
 6    0  0.5510638E+002  0.1272035E+03  0.7546771E-02  0.1231665E+00
         21   -1    0    0  504  501  0.00000000000E+00  0.00000000000E+00  0.41128710308E+03  0.41128710308E+03  0.00000000000E+00 0.  1.
         21   -1    0    0  503  502 -0.00000000000E+00 -0.00000000000E+00 -0.10250088741E+03  0.10250088741E+03  0.00000000000E+00 0. -1.
         21    1    1    2  503  501  0.85943679701E+02  0.50250385529E+02  0.18455545444E+03  0.20969533398E+03  0.00000000000E+00 0.  1.
         21    1    1    2  504  506 -0.11506189414E+03 -0.18010053183E+02  0.12352792194E+03  0.16977263913E+03  0.00000000000E+00 0.  1.
         21    1    1    2  505  502  0.54709280481E+02  0.48047425193E+01 -0.44375657937E+02  0.70607293808E+02  0.00000000000E+00 0. -1.
         21    1    1    2  506  505 -0.25591066038E+02 -0.37045074866E+02  0.45078497228E+02  0.63712723573E+02  0.00000000000E+00 0.  1.
<scales pt_clust_3="113.61232" pt_clust_4="35.57160" pt_clust_5="54.91986" pt_clust_6="35.57160"></scales>
<clustering>
<clus scale="   35.572">  4  6 -1 -1</clus>
<clus scale="   54.920">  2  5  1 -1</clus>
<clus scale="  113.612">  1  3  2 -1</clus>
<clus scale="  113.612">  1  3  2 -1</clus>
</clustering>
</event>
<event>
 6    0  0.5510638E+002  0.1275232E+03  0.7546771E-02  0.1231178E+00
         21   -1    0    0  503  501  0.00000000000E+00  0.00000000000E+00  0.35484953091E+03  0.35484953091E+03  0.00000000000E+00 0.  1.
         21   -1    0    0  505  502 -0.00000000000E+00 -0.00000000000E+00 -0.32954881853E+03  0.32954881853E+03  0.00000000000E+00 0.  1.
         21    1    1    2  503  504  0.22406152862E+02 -0.39036832673E+02  0.10157665365E+02  0.46142043267E+02  0.00000000000E+00 0.  1.
         21    1    1    2  504  506 -0.26619075389E+02 -0.48585639938E+02  0.10646608677E+03  0.12001736214E+03  0.00000000000E+00 0.  1.
         21    1    1    2  505  501 -0.51938667302E+02  0.12239830632E+03 -0.28452478641E+03  0.31405942850E+03  0.00000000000E+00 0.  1.
         21    1    1    2  506  502  0.56151589829E+02 -0.34775833709E+02  0.19320174666E+03  0.20417951553E+03  0.00000000000E+00 0.  1.
<scales pt_clust_3="45.01011" pt_clust_4="64.91461" pt_clust_5="127.52317" pt_clust_6="14000.00000"></scales>
<clustering>
<clus scale="   45.010">  1  3  2 -1</clus>
<clus scale="   64.915">  1  4  2 -1</clus>
<clus scale="  127.523">  2  5  1 -1</clus>
<clus scale="   45.010">  1  3  2 -1</clus>
</clustering>
</event>
<event>
 6    0  0.5510638E+002  0.1023813E+03  0.7546771E-02  0.1275367E+00
         21   -1    0    0  506  501  0.00000000000E+00  0.00000000000E+00  0.52622501666E+02  0.52622501666E+02  0.00000000000E+00 0.  1.
         21   -1    0    0  504  502 -0.00000000000E+00 -0.00000000000E+00 -0.24997341245E+04  0.24997341245E+04  0.00000000000E+00 0.  1.
         21    1    1    2  503  501  0.43851642334E+01 -0.34907783880E+02 -0.28091876599E+02  0.45021512321E+02  0.00000000000E+00 0. -1.
         21    1    1    2  504  505  0.24114355530E+02  0.10069099026E+03 -0.23640577206E+04  0.23663239601E+04  0.00000000000E+00 0.  1.
         21    1    1    2  505  503  0.35952622335E+02 -0.13701690591E+02 -0.42306861106E+02  0.57185643954E+02  0.00000000000E+00 0.  1.
         21    1    1    2  506  502 -0.64452142098E+02 -0.52081515788E+02 -0.12655164528E+02  0.83825509823E+02  0.00000000000E+00 0.  1.
<scales pt_clust_3="35.18214" pt_clust_4="102.38127" pt_clust_5="41.59017" pt_clust_6="14000.00000"></scales>
<clustering>
<clus scale="   35.182">  1  3  2 -1</clus>
<clus scale="   41.590">  1  5  2 -1</clus>
<clus scale="  102.381">  2  4  1 -1</clus>
<clus scale="   35.182">  1  3  2 -1</clus>
</clustering>
</event>
<event>
 6    0  0.5510638E+002  0.1009343E+03  0.7546771E-02  0.1278343E+00
         21   -1    0    0  504  501  0.00000000000E+00  0.00000000000E+00  0.95056537041E+03  0.95056537041E+03  0.00000000000E+00 0. -1.
         21   -1    0    0  505  502 -0.00000000000E+00 -0.00000000000E+00 -0.57920886102E+02  0.57920886102E+02  0.00000000000E+00 0. -1.
         21    1    1    2  503  502  0.48837793421E+02 -0.20738159932E+02  0.31553310442E+01  0.53152210280E+02  0.00000000000E+00 0. -1.
         21    1    1    2  504  506 -0.23993506862E+02 -0.27428845442E+02  0.13539032137E+03  0.14020901916E+03  0.00000000000E+00 0. -1.
         21    1    1    2  505  501  0.27370895804E+01  0.12863834471E+03  0.70553583822E+03  0.71717231848E+03  0.00000000000E+00 0. -1.
         21    1    1    2  506  503 -0.27581376139E+02 -0.80471339337E+02  0.48562993674E+02  0.97952708584E+02  0.00000000000E+00 0.  1.
<scales pt_clust_3="52.67848" pt_clust_4="36.44215" pt_clust_5="100.93431" pt_clust_6="14000.00000"></scales>
<clustering>
<clus scale="   36.442">  1  4  2 -1</clus>
<clus scale="   52.678">  2  3  1 -1</clus>
<clus scale="  100.934">  1  5  2 -1</clus>
<clus scale="   36.442">  1  3  2 -1</clus>
</clustering>
</event>
<event>
 6    0  0.5510638E+002  0.2281465E+03  0.7546771E-02  0.1127951E+00
         21   -1    0    0  504  501  0.00000000000E+00  0.00000000000E+00  0.41895745461E+03  0.41895745461E+03  0.00000000000E+00 0. -1.
         21   -1    0    0  503  502 -0.00000000000E+00 -0.00000000000E+00 -0.99445967808E+03  0.99445967808E+03  0.00000000000E+00 0.  1.
         21    1    1    2  503  501 -0.16748550706E+03  0.15626959675E+03  0.31227971553E+03  0.38728568612E+03  0.00000000000E+00 0. -1.
         21    1    1    2  504  505 -0.30920224705E+02 -0.23265223962E+02  0.19464256380E+02  0.43314988379E+02  0.00000000000E+00 0.  1.
         21    1    1    2  505  506  0.19442268477E+03  0.45250509822E+02 -0.47507612509E+03  0.51531069621E+03  0.00000000000E+00 0. -1.
         21    1    1    2  506  502  0.39830469896E+01 -0.17825488261E+03 -0.43217007028E+03  0.46750576198E+03  0.00000000000E+00 0.  1.
<scales pt_clust_3="228.14648" pt_clust_4="38.69536" pt_clust_5="14000.00000" pt_clust_6="179.33393"></scales>
<clustering>
<clus scale="   38.695">  1  4  2 -1</clus>
<clus scale="  179.334">  2  6  1 -1</clus>
<clus scale="  228.146">  1  3  2 -1</clus>
<clus scale="   38.695">  1  3  2 -1</clus>
</clustering>
</event>
<event>
 6    0  0.5510638E+002  0.1096965E+03  0.7546771E-02  0.1261133E+00
         21   -1    0    0  504  501  0.00000000000E+00  0.00000000000E+00  0.25212622559E+03  0.25212622559E+03  0.00000000000E+00 0.  1.
         21   -1    0    0  503  502 -0.00000000000E+00 -0.00000000000E+00 -0.16631414151E+03  0.16631414151E+03  0.00000000000E+00 0.  1.
         21    1    1    2  503  505  0.19030200904E+02 -0.53265748328E+02 -0.24938674305E+02  0.61816874456E+02  0.00000000000E+00 0.  1.
         21    1    1    2  504  506 -0.12408747148E+02 -0.44874136799E+02  0.72494034258E+02  0.86157124849E+02  0.00000000000E+00 0.  1.
         21    1    1    2  505  501  0.47423153182E+02 -0.61690504738E+02  0.62771009851E+02  0.99974364265E+02  0.00000000000E+00 0.  1.
         21    1    1    2  506  502 -0.54044606938E+02  0.15983038987E+03 -0.24514285726E+02  0.17049200353E+03  0.00000000000E+00 0.  1.
<scales pt_clust_3="60.69423" pt_clust_4="46.55819" pt_clust_5="14000.00000" pt_clust_6="109.69648"></scales>
<clustering>
<clus scale="   46.558">  1  4  2 -1</clus>
<clus scale="   60.694">  2  3  1 -1</clus>
<clus scale="  109.696">  2  6  1 -1</clus>
<clus scale="   46.558">  1  3  2 -1</clus>
</clustering>
</event>
<event>
 6    0  0.5510638E+002  0.8280296E+02  0.7546771E-02  0.1321280E+00
         21   -1    0    0  503  501  0.00000000000E+00  0.00000000000E+00  0.33438141626E+03  0.33438141626E+03  0.00000000000E+00 0.  1.
         21   -1    0    0  504  502 -0.00000000000E+00 -0.00000000000E+00 -0.16254765522E+03  0.16254765522E+03  0.00000000000E+00 0.  1.
         21    1    1    2  503  502  0.10648644432E+03  0.23336221320E+02 -0.81827755549E+01  0.10932017136E+03  0.00000000000E+00 0.  1.
         21    1    1    2  504  506 -0.14546374293E+02 -0.64347574899E+02 -0.48194330647E+02  0.81700066750E+02  0.00000000000E+00 0.  1.
         21    1    1    2  505  501 -0.42115305128E+02 -0.32783641943E+02  0.20781942384E+03  0.21456322851E+03  0.00000000000E+00 0.  1.
         21    1    1    2  506  505 -0.49824764902E+02  0.73794995522E+02  0.20391443407E+02  0.91345604853E+02  0.00000000000E+00 0.  1.
<scales pt_clust_3="82.80296" pt_clust_4="71.73057" pt_clust_5="53.37102" pt_clust_6="14000.00000"></scales>
<clustering>
<clus scale="   53.371">  1  5  2 -1</clus>
<clus scale="   71.731">  2  4  1 -1</clus>
<clus scale="   82.803">  2  3  1 -1</clus>
<clus scale="   53.371">  1  3  2 -1</clus>
</clustering>
</event>
<event>
 6    0  0.5510638E+002  0.1377413E+03  0.7546771E-02  0.1216401E+00
         21   -1    0    0  502  501  0.00000000000E+00  0.00000000000E+00  0.21912303111E+03  0.21912303111E+03  0.00000000000E+00 0.  1.
         21   -1    0    0  503  502 -0.00000000000E+00 -0.00000000000E+00 -0.10994153486E+04  0.10994153486E+04  0.00000000000E+00 0.  1.
         21    1    1    2  503  504  0.27263377886E+02 -0.17873535429E+02 -0.81421203138E+03  0.81486439798E+03  0.00000000000E+00 0.  1.
         21    1    1    2  504  505  0.48242215058E+02  0.12365332622E+03 -0.24451300043E+03  0.27821585824E+03  0.00000000000E+00 0.  1.
         21    1    1    2  505  506 -0.57067512389E+02 -0.40752394859E+02  0.86560081604E+02  0.11140065702E+03  0.00000000000E+00 0.  1.
         21    1    1    2  506  501 -0.18438080555E+02 -0.65027395935E+02  0.91872632662E+02  0.11405746652E+03  0.00000000000E+00 0.  1.
<scales pt_clust_3="32.59992" pt_clust_4="129.88451" pt_clust_5="45.31126" pt_clust_6="45.31126"></scales>
<clustering>
<clus scale="   32.600">  2  3  1 -1</clus>
<clus scale="   45.311">  5  6 -1 -1</clus>
<clus scale="  129.885">  2  4  1 -1</clus>
<clus scale="  137.741">  1  3  2 -1</clus>
</clustering>
</event>
<event>
 6    0  0.5510638E+002  0.1552985E+03  0.7546771E-02  0.1194109E+00
         21   -1    0    0  505  501  0.00000000000E+00  0.00000000000E+00  0.23005376827E+03  0.23005376827E+03  0.00000000000E+00 0. -1.
         21   -1    0    0  504  502 -0.00000000000E+00 -0.00000000000E+00 -0.93712654537E+03  0.93712654537E+03  0.00000000000E+00 0. -1.
         21    1    1    2  503  502  0.21017024990E+02  0.21476654145E+03 -0.76021827432E+03  0.79025198974E+03  0.00000000000E+00 0. -1.
         21    1    1    2  504  506  0.37142208978E+02 -0.68469067581E+02 -0.10133121160E+03  0.12781068558E+03  0.00000000000E+00 0.  1.
         21    1    1    2  505  503 -0.18243544881E+02 -0.11300015872E+03  0.16012672025E+03  0.19683096641E+03  0.00000000000E+00 0. -1.
         21    1    1    2  506  501 -0.39915689086E+02 -0.33297315145E+02 -0.56500114256E+01  0.52286671917E+02  0.00000000000E+00 0. -1.
<scales pt_clust_3="14000.00000" pt_clust_4="78.61779" pt_clust_5="155.29850" pt_clust_6="51.98051"></scales>
<clustering>
<clus scale="   51.981">  1  6  2 -1</clus>
<clus scale="   78.618">  2  4  1 -1</clus>
<clus scale="  155.299">  1  5  2 -1</clus>
<clus scale="   51.981">  1  3  2 -1</clus>
</clustering>
</event>
<event>
 6    0  0.5510638E+002  0.1200402E+03  0.7546771E-02  0.1243031E+00
         21   -1    0    0  506  501  0.00000000000E+00  0.00000000000E+00  0.21839349257E+03  0.21839349257E+03  0.00000000000E+00 0.  1.
         21   -1    0    0  505  502 -0.00000000000E+00 -0.00000000000E+00 -0.19334388619E+03  0.19334388619E+03  0.00000000000E+00 0.  1.
         21    1    1    2  503  504  0.78865583868E+02 -0.14316456655E+02  0.12844104452E+03  0.15139961416E+03  0.00000000000E+00 0.  1.
         21    1    1    2  504  502 -0.86693649218E+01  0.51946426465E+02 -0.10122580143E+03  0.11410631878E+03  0.00000000000E+00 0.  1.
         21    1    1    2  505  501 -0.10370754893E+03 -0.28069114378E+02 -0.16218414845E+02  0.10865619111E+03  0.00000000000E+00 0.  1.
         21    1    1    2  506  503  0.33511329980E+02 -0.95608554320E+01  0.14052778141E+02  0.37575254718E+02  0.00000000000E+00 0.  1.
<scales pt_clust_3="30.98552" pt_clust_4="52.66488" pt_clust_5="110.45970" pt_clust_6="30.98552"></scales>
<clustering>
<clus scale="   30.986">  3  6 -1 -1</clus>
<clus scale="   52.665">  2  4  1 -1</clus>
<clus scale="  110.460">  2  5  1 -1</clus>
<clus scale="  120.040">  1  3  2 -1</clus>
</clustering>
</event>
<event>
 6    0  0.5510638E+002  0.8586980E+02  0.7546771E-02  0.1313173E+00
         21   -1    0    0  506  501  0.00000000000E+00  0.00000000000E+00  0.31778345211E+03  0.31778345211E+03  0.00000000000E+00 0.  1.
         21   -1    0    0  505  502 -0.00000000000E+00 -0.00000000000E+00 -0.18095005569E+04  0.18095005569E+04  0.00000000000E+00 0. -1.
         21    1    1    2  503  502  0.34791389306E+02  0.47144605930E+02 -0.15456818301E+04  0.15467919622E+04  0.00000000000E+00 0. -1.
         21    1    1    2  504  503 -0.11215003807E+03 -0.12035329984E+02 -0.20491071608E+03  0.23390357366E+03  0.00000000000E+00 0. -1.
         21    1    1    2  505  501  0.47736708185E+02  0.22253230925E+02 -0.22958249940E+02  0.57455033158E+02  0.00000000000E+00 0.  1.
         21    1    1    2  506  504  0.29621940584E+02 -0.57362506870E+02  0.28183369129E+03  0.28913343996E+03  0.00000000000E+00 0.  1.
<scales pt_clust_3="58.67772" pt_clust_4="14000.00000" pt_clust_5="52.66877" pt_clust_6="85.86980"></scales>
<clustering>
<clus scale="   52.669">  1  5  2 -1</clus>
<clus scale="   58.678">  2  3  1 -1</clus>
<clus scale="   85.870">  1  6  2 -1</clus>
<clus scale="   52.669">  1  3  2 -1</clus>
</clustering>
</event>
<event>
 6    0  0.5510638E+002  0.7528371E+02  0.7546771E-02  0.1342995E+00
         21   -1    0    0  505  501  0.00000000000E+00  0.00000000000E+00  0.59312035306E+02  0.59312035306E+02  0.00000000000E+00 0.  1.
         21   -1    0    0  504  502 -0.00000000000E+00 -0.00000000000E+00 -0.73245904442E+03  0.73245904442E+03  0.00000000000E+00 0. -1.
         21    1    1    2  503  502 -0.89814020358E+01  0.99413296778E+02 -0.23945977020E+03  0.25943139884E+03  0.00000000000E+00 0. -1.
         21    1    1    2  504  506 -0.51291881656E+02 -0.54852761559E+02 -0.41960546849E+03  0.42627271994E+03  0.00000000000E+00 0. -1.
         21    1    1    2  505  503  0.20509356238E+02 -0.35367153893E+02  0.26332579705E+02  0.48629970406E+02  0.00000000000E+00 0.  1.
         21    1    1    2  506  501  0.39763927454E+02 -0.91933813262E+01 -0.40414350129E+02  0.57436990547E+02  0.00000000000E+00 0.  1.
<scales pt_clust_3="75.28371" pt_clust_4="14000.00000" pt_clust_5="65.27951" pt_clust_6="40.81284"></scales>
<clustering>
<clus scale="   40.813">  1  6  2 -1</clus>
<clus scale="   65.280">  1  5  2 -1</clus>
<clus scale="   75.284">  1  3  2 -1</clus>
<clus scale="   40.813">  1  3  2 -1</clus>
</clustering>
</event>
<event>
 6    0  0.5510638E+002  0.1354573E+03  0.7546771E-02  0.1219576E+00
         21   -1    0    0  503  501  0.00000000000E+00  0.00000000000E+00  0.11527322613E+04  0.11527322613E+04  0.00000000000E+00 0.  1.
         21   -1    0    0  505  502 -0.00000000000E+00 -0.00000000000E+00 -0.25059835140E+03  0.25059835140E+03  0.00000000000E+00 0. -1.
         21    1    1    2  503  506  0.22582478008E+02  0.65900628791E+02  0.50995838913E+03  0.51469449174E+03  0.00000000000E+00 0.  1.
         21    1    1    2  504  502 -0.18927839087E+03 -0.58437118793E+02  0.15819320516E+03  0.25350798067E+03  0.00000000000E+00 0. -1.
         21    1    1    2  505  501  0.11297757692E+03 -0.38335263371E+02 -0.18032214522E+03  0.21621656126E+03  0.00000000000E+00 0. -1.
         21    1    1    2  506  504  0.53718335946E+02  0.30871753373E+02  0.41430446088E+03  0.41891157907E+03  0.00000000000E+00 0.  1.
<scales pt_clust_3="43.94954" pt_clust_4="127.18845" pt_clust_5="119.30434" pt_clust_6="43.94954"></scales>
<clustering>
<clus scale="   43.950">  3  6 -1 -1</clus>
<clus scale="  119.304">  2  5  1 -1</clus>
<clus scale="  127.188">  2  4  1 -1</clus>
<clus scale="  135.457">  1  3  2 -1</clus>
</clustering>
</event>
<event>
 6    0  0.5510638E+002  0.1168645E+03  0.7546771E-02  0.1248361E+00
         21   -1    0    0  506  501  0.00000000000E+00  0.00000000000E+00  0.56713999701E+03  0.56713999701E+03  0.00000000000E+00 0.  1.
         21   -1    0    0  504  502 -0.00000000000E+00 -0.00000000000E+00 -0.83891061429E+02  0.83891061429E+02  0.00000000000E+00 0. -1.
         21    1    1    2  503  505  0.71168360738E+01  0.32153176761E+02  0.99608223670E+02  0.10491079236E+03  0.00000000000E+00 0.  1.
         21    1    1    2  504  503  0.31958306784E+02  0.16452065710E+02  0.91362867067E+01  0.37087404512E+02  0.00000000000E+00 0.  1.
         21    1    1    2  505  501 -0.48512788920E+02  0.65401488162E+02  0.38559537380E+03  0.39409978133E+03  0.00000000000E+00 0.  1.
         21    1    1    2  506  502  0.94376460624E+01 -0.11400673063E+03 -0.11090948596E+02  0.11493308024E+03  0.00000000000E+00 0. -1.
<scales pt_clust_3="30.88369" pt_clust_4="35.94445" pt_clust_5="30.88369" pt_clust_6="106.29595"></scales>
<clustering>
<clus scale="   30.884">  3  5 -1 -1</clus>
<clus scale="   35.944">  2  4  1 -1</clus>
<clus scale="  106.296">  2  6  1 -1</clus>
<clus scale="  116.865">  1  3  2 -1</clus>
</clustering>
</event>
<event>
 6    0  0.5510638E+002  0.1241967E+03  0.7546771E-02  0.1236330E+00
         21   -1    0    0  505  501  0.00000000000E+00  0.00000000000E+00  0.90174190503E+02  0.90174190503E+02  0.00000000000E+00 0. -1.
         21   -1    0    0  504  502 -0.00000000000E+00 -0.00000000000E+00 -0.47948182558E+03  0.47948182558E+03  0.00000000000E+00 0. -1.
         21    1    1    2  503  506  0.32332303181E+02 -0.13521645293E+02 -0.35197847923E+02  0.49669922678E+02  0.00000000000E+00 0. -1.
         21    1    1    2  504  501 -0.76027345150E+02 -0.12536701619E+03 -0.27077394100E+02  0.14909805911E+03  0.00000000000E+00 0. -1.
         21    1    1    2  505  503 -0.66140170161E+01  0.29633466587E+02 -0.10261762157E+02  0.32049825672E+02  0.00000000000E+00 0.  1.
         21    1    1    2  506  502  0.50309058985E+02  0.10925519489E+03 -0.31677063090E+03  0.33883820863E+03  0.00000000000E+00 0. -1.
<scales pt_clust_3="33.52182" pt_clust_4="124.19667" pt_clust_5="30.36260" pt_clust_6="14000.00000"></scales>
<clustering>
<clus scale="   30.363">  1  5  2 -1</clus>
<clus scale="   33.522">  1  3  2 -1</clus>
<clus scale="  124.197">  1  4  2 -1</clus>
<clus scale="   30.363">  1  3  2 -1</clus>
</clustering>
</event>
<event>
 6    0  0.5510638E+002  0.9099389E+02  0.7546771E-02  0.1300463E+00
         21   -1    0    0  505  501  0.00000000000E+00  0.00000000000E+00  0.21773844965E+04  0.21773844965E+04  0.00000000000E+00 0. -1.
         21   -1    0    0  503  502 -0.00000000000E+00 -0.00000000000E+00 -0.76400826689E+02  0.76400826689E+02  0.00000000000E+00 0.  1.
         21    1    1    2  503  504  0.36454112385E+02 -0.27746392527E+02  0.61472778399E+03  0.61643248861E+03  0.00000000000E+00 0. -1.
         21    1    1    2  504  501 -0.62556019199E+00 -0.70022329366E+02  0.10658533249E+04  0.10681511261E+04  0.00000000000E+00 0. -1.
         21    1    1    2  505  506  0.32135289827E+02  0.65595586440E+02  0.47224977302E+03  0.47786536381E+03  0.00000000000E+00 0.  1.
         21    1    1    2  506  502 -0.67963842020E+02  0.32173135452E+02 -0.51847212071E+02  0.91336344718E+02  0.00000000000E+00 0.  1.
<scales pt_clust_3="41.45413" pt_clust_4="41.45413" pt_clust_5="73.04422" pt_clust_6="75.18779"></scales>
<clustering>
<clus scale="   41.454">  3  4 -1 -1</clus>
<clus scale="   73.044">  1  5  2 -1</clus>
<clus scale="   75.188">  2  6  1 -1</clus>
<clus scale="   73.044">  1  3  2 -1</clus>
</clustering>
</event>
<event>
 6    0  0.5510638E+002  0.6901855E+02  0.7546771E-02  0.1363463E+00
         21   -1    0    0  506  501  0.00000000000E+00  0.00000000000E+00  0.31843646547E+03  0.31843646547E+03  0.00000000000E+00 0. -1.
         21   -1    0    0  505  502 -0.00000000000E+00 -0.00000000000E+00 -0.36654785986E+03  0.36654785986E+03  0.00000000000E+00 0. -1.
         21    1    1    2  503  502 -0.29986055257E+02 -0.37390809568E+02 -0.27900305525E+03  0.28308998744E+03  0.00000000000E+00 0. -1.
         21    1    1    2  504  501 -0.69021918794E+02 -0.28585559749E+02  0.76359064971E+01  0.75096381859E+02  0.00000000000E+00 0. -1.
         21    1    1    2  505  504  0.80507734898E+02  0.15642467519E+02 -0.14312148852E+02  0.83252746341E+02  0.00000000000E+00 0. -1.
         21    1    1    2  506  503  0.18500239153E+02  0.50333901798E+02  0.23756790322E+03  0.24354520968E+03  0.00000000000E+00 0. -1.
<scales pt_clust_3="47.92949" pt_clust_4="69.01855" pt_clust_5="14000.00000" pt_clust_6="52.04051"></scales>
<clustering>
<clus scale="   47.929">  2  3  1 -1</clus>
<clus scale="   52.041">  1  6  2 -1</clus>
<clus scale="   69.019">  1  4  2 -1</clus>
<clus scale="   52.041">  1  3  2 -1</clus>
</clustering>
</event>
<event>
 6    0  0.5510638E+002  0.8503492E+02  0.7546771E-02  0.1315341E+00
         21   -1    0    0  506  501  0.00000000000E+00  0.00000000000E+00  0.58237069174E+03  0.58237069174E+03  0.00000000000E+00 0. -1.
         21   -1    0    0  503  502 -0.00000000000E+00 -0.00000000000E+00 -0.12456966382E+03  0.12456966382E+03  0.00000000000E+00 0.  1.
         21    1    1    2  503  504 -0.93500829336E+02 -0.82420903850E+02 -0.57445175730E+02  0.13724269996E+03  0.00000000000E+00 0.  1.
         21    1    1    2  504  501  0.26516744444E+02  0.44979454544E+02  0.45872856167E+03  0.46169056992E+03  0.00000000000E+00 0. -1.
         21    1    1    2  505  502  0.39836917464E+02  0.15505868472E+02  0.14034598833E+01  0.42771271313E+02  0.00000000000E+00 0. -1.
         21    1    1    2  506  505  0.27147167428E+02  0.21935580834E+02  0.55114182111E+02  0.65235814364E+02  0.00000000000E+00 0. -1.
<scales pt_clust_3="14000.00000" pt_clust_4="85.03492" pt_clust_5="44.15710" pt_clust_6="34.90184"></scales>
<clustering>
<clus scale="   34.902">  1  6  2 -1</clus>
<clus scale="   44.157">  2  5  1 -1</clus>
<clus scale="   85.035">  1  4  2 -1</clus>
<clus scale="   34.902">  1  3  2 -1</clus>
</clustering>
</event>
<event>
 6    0  0.5510638E+002  0.1383044E+03  0.7546771E-02  0.1215629E+00
         21   -1    0    0  505  501  0.00000000000E+00  0.00000000000E+00  0.45428637235E+03  0.45428637235E+03  0.00000000000E+00 0. -1.
         21   -1    0    0  506  502 -0.00000000000E+00 -0.00000000000E+00 -0.10470140930E+04  0.10470140930E+04  0.00000000000E+00 0. -1.
         21    1    1    2  503  501 -0.12710146337E+02 -0.99463781515E+02  0.28137406538E+03  0.29870714140E+03  0.00000000000E+00 0. -1.
         21    1    1    2  504  502  0.31169738330E+02 -0.12007510752E+03 -0.56053869293E+03  0.57410209049E+03  0.00000000000E+00 0. -1.
         21    1    1    2  505  504  0.47077790858E+02  0.58752761481E+02  0.13107283095E+03  0.15115651619E+03  0.00000000000E+00 0. -1.
         21    1    1    2  506  503 -0.65537382851E+02  0.16078612755E+03 -0.44463592405E+03  0.47733471728E+03  0.00000000000E+00 0. -1.
<scales pt_clust_3="54.62390" pt_clust_4="14000.00000" pt_clust_5="75.28748" pt_clust_6="138.30444"></scales>
<clustering>
<clus scale="   75.287">  1  5  2 -1</clus>
<clus scale="   54.624">  1  3  2 -1</clus>
<clus scale="  138.304">  1  6  2 -1</clus>
<clus scale="   75.287">  1  3  2 -1</clus>
</clustering>
</event>
<event>
 6    0  0.5510638E+002  0.6582278E+02  0.7546771E-02  0.1374903E+00
         21   -1    0    0  505  501  0.00000000000E+00  0.00000000000E+00  0.21285326789E+03  0.21285326789E+03  0.00000000000E+00 0.  1.
         21   -1    0    0  504  502 -0.00000000000E+00 -0.00000000000E+00 -0.22080837279E+03  0.22080837279E+03  0.00000000000E+00 0.  1.
         21    1    1    2  503  501  0.33523199586E+02  0.48723581732E+02  0.89175428571E+02  0.10700490357E+03  0.00000000000E+00 0.  1.
         21    1    1    2  504  506  0.28104986082E+02 -0.49656556444E+02 -0.16308806072E+03  0.17278130510E+03  0.00000000000E+00 0.  1.
         21    1    1    2  505  502  0.33852706800E+02 -0.22079666757E+02  0.14064086027E+02  0.42793877571E+02  0.00000000000E+00 0.  1.
         21    1    1    2  506  503 -0.95480892468E+02  0.23012641469E+02  0.51893441234E+02  0.11108155444E+03  0.00000000000E+00 0.  1.
<scales pt_clust_3="65.82278" pt_clust_4="58.00366" pt_clust_5="40.41680" pt_clust_6="14000.00000"></scales>
<clustering>
<clus scale="   40.417">  1  5  2 -1</clus>
<clus scale="   58.004">  2  4  1 -1</clus>
<clus scale="   65.823">  1  3  2 -1</clus>
<clus scale="   40.417">  1  3  2 -1</clus>
</clustering>
</event>
<event>
 6    0  0.5510638E+002  0.9644306E+02  0.7546771E-02  0.1287959E+00
         21   -1    0    0  505  501  0.00000000000E+00  0.00000000000E+00  0.11314747626E+04  0.11314747626E+04  0.00000000000E+00 0. -1.
         21   -1    0    0  503  502 -0.00000000000E+00 -0.00000000000E+00 -0.81338545611E+03  0.81338545611E+03  0.00000000000E+00 0. -1.
         21    1    1    2  503  506  0.51145505842E+02  0.16287289111E+02 -0.58946481345E+03  0.59190362801E+03  0.00000000000E+00 0. -1.
         21    1    1    2  504  501  0.87061606357E+02  0.48760470156E+02  0.10346995865E+04  0.10395001400E+04  0.00000000000E+00 0. -1.
         21    1    1    2  505  502 -0.45544825737E+02 -0.62787489309E+02  0.64300222756E+02  0.10075275982E+03  0.00000000000E+00 0. -1.
         21    1    1    2  506  504 -0.92662286463E+02 -0.22602699575E+01 -0.19144568932E+03  0.21270369088E+03  0.00000000000E+00 0. -1.
<scales pt_clust_3="53.67624" pt_clust_4="14000.00000" pt_clust_5="96.44306" pt_clust_6="47.91798"></scales>
<clustering>
<clus scale="   53.676">  2  3  1 -1</clus>
<clus scale="   47.918">  2  6  1 -1</clus>
<clus scale="   96.443">  2  5  1 -1</clus>
<clus scale="   96.443">  1  3  2 -1</clus>
</clustering>
</event>
<event>
 6    0  0.5510638E+002  0.1928863E+03  0.7546771E-02  0.1155884E+00
         21   -1    0    0  506  501  0.00000000000E+00  0.00000000000E+00  0.31180211443E+03  0.31180211443E+03  0.00000000000E+00 0. -1.
         21   -1    0    0  505  502 -0.00000000000E+00 -0.00000000000E+00 -0.19893252700E+03  0.19893252700E+03  0.00000000000E+00 0. -1.
         21    1    1    2  503  504 -0.17494467670E+03  0.79696181919E-01  0.36233467568E+02  0.17865752273E+03  0.00000000000E+00 0. -1.
         21    1    1    2  504  502  0.56338552517E+01 -0.40462305292E+02 -0.52881286205E+01  0.41193479810E+02  0.00000000000E+00 0.  1.
         21    1    1    2  505  501  0.20943036215E+03  0.47907949566E+02  0.18733238561E+02  0.21565523979E+03  0.00000000000E+00 0. -1.
         21    1    1    2  506  503 -0.40119540711E+02 -0.75253404560E+01  0.63191009922E+02  0.75228399097E+02  0.00000000000E+00 0.  1.
<scales pt_clust_3="14000.00000" pt_clust_4="41.10568" pt_clust_5="192.88627" pt_clust_6="40.81921"></scales>
<clustering>
<clus scale="   40.819">  1  6  2 -1</clus>
<clus scale="   41.106">  2  4  1 -1</clus>
<clus scale="  192.886">  1  5  2 -1</clus>
<clus scale="   40.819">  1  3  2 -1</clus>
</clustering>
</event>
<event>
 6    0  0.5510638E+002  0.1410354E+03  0.7546771E-02  0.1211942E+00
         21   -1    0    0  504  501  0.00000000000E+00  0.00000000000E+00  0.26790995378E+04  0.26790995378E+04  0.00000000000E+00 0. -1.
         21   -1    0    0  505  502 -0.00000000000E+00 -0.00000000000E+00 -0.65205594382E+02  0.65205594382E+02  0.00000000000E+00 0. -1.
         21    1    1    2  503  502 -0.32580105523E+02  0.12560585214E+02  0.88260107223E+02  0.94916163554E+02  0.00000000000E+00 0. -1.
         21    1    1    2  504  503 -0.19052331310E+03  0.50527162684E+02  0.15007638962E+04  0.15136526679E+04  0.00000000000E+00 0. -1.
         21    1    1    2  505  506  0.10848219444E+03 -0.65644766768E+02  0.24904966538E+02  0.12922027424E+03  0.00000000000E+00 0. -1.
         21    1    1    2  506  501  0.11462122418E+03  0.25570188692E+01  0.99996497348E+03  0.10065160265E+04  0.00000000000E+00 0. -1.
<scales pt_clust_3="34.91750" pt_clust_4="14000.00000" pt_clust_5="97.95672" pt_clust_6="141.03541"></scales>
<clustering>
<clus scale="   34.917">  2  3  1 -1</clus>
<clus scale="   97.957">  2  5  1 -1</clus>
<clus scale="  141.035">  1  6  2 -1</clus>
<clus scale="  141.035">  1  3  2 -1</clus>
</clustering>
</event>
<event>
 6    0  0.5510638E+002  0.1150230E+03  0.7546771E-02  0.1251541E+00
         21   -1    0    0  503  501  0.00000000000E+00  0.00000000000E+00  0.22262621176E+03  0.22262621176E+03  0.00000000000E+00 0.  1.
         21   -1    0    0  505  502 -0.00000000000E+00 -0.00000000000E+00 -0.38229109266E+03  0.38229109266E+03  0.00000000000E+00 0.  1.
         21    1    1    2  503  504 -0.10361512088E+02 -0.30508794208E+02  0.49958776959E+02  0.59447681637E+02  0.00000000000E+00 0. -1.
         21    1    1    2  504  506  0.98958723514E+02 -0.47032375248E+02  0.12841595620E+03  0.16880619387E+03  0.00000000000E+00 0.  1.
         21    1    1    2  505  501  0.69701450874E+01  0.36729280229E+02 -0.20679627037E+02  0.42723177820E+02  0.00000000000E+00 0.  1.
         21    1    1    2  506  502 -0.95567356514E+02  0.40811889227E+02 -0.31735998703E+03  0.33394025109E+03  0.00000000000E+00 0.  1.
<scales pt_clust_3="32.22030" pt_clust_4="115.02301" pt_clust_5="35.29187" pt_clust_6="14000.00000"></scales>
<clustering>
<clus scale="   32.220">  1  3  2 -1</clus>
<clus scale="   35.292">  2  5  1 -1</clus>
<clus scale="  115.023">  1  4  2 -1</clus>
<clus scale="   32.220">  1  3  2 -1</clus>
</clustering>
</event>
<event>
 6    0  0.5510638E+002  0.6710195E+02  0.7546771E-02  0.1370235E+00
         21   -1    0    0  506  501  0.00000000000E+00  0.00000000000E+00  0.12083220441E+02  0.12083220441E+02  0.00000000000E+00 0.  1.
         21   -1    0    0  505  502 -0.00000000000E+00 -0.00000000000E+00 -0.26351790027E+04  0.26351790027E+04  0.00000000000E+00 0.  1.
         21    1    1    2  503  501 -0.12448361270E+02 -0.64123833994E+02 -0.41560503459E+03  0.42070699133E+03  0.00000000000E+00 0.  1.
         21    1    1    2  504  502 -0.75731298515E+02  0.11291793426E+02 -0.15898516424E+04  0.15916943736E+04  0.00000000000E+00 0.  1.
         21    1    1    2  505  503  0.22108216786E+02  0.46292386381E+02 -0.47226013944E+03  0.47503831171E+03  0.00000000000E+00 0.  1.
         21    1    1    2  506  504  0.66071442999E+02  0.65396541872E+01 -0.14537896586E+03  0.15982254651E+03  0.00000000000E+00 0.  1.
<scales pt_clust_3="55.77029" pt_clust_4="67.10195" pt_clust_5="51.30067" pt_clust_6="14000.00000"></scales>
<clustering>
<clus scale="   51.301">  2  5  1 -1</clus>
<clus scale="   55.770">  2  3  1 -1</clus>
<clus scale="   67.102">  2  4  1 -1</clus>
<clus scale="   67.102">  1  3  2 -1</clus>
</clustering>
</event>
<event>
 6    0  0.5510638E+002  0.1594166E+03  0.7546771E-02  0.1189357E+00
         21   -1    0    0  505  501  0.00000000000E+00  0.00000000000E+00  0.61206671599E+02  0.61206671599E+02  0.00000000000E+00 0. -1.
         21   -1    0    0  504  502 -0.00000000000E+00 -0.00000000000E+00 -0.60553151729E+03  0.60553151729E+03  0.00000000000E+00 0. -1.
         21    1    1    2  503  506  0.17270986510E+02  0.83872360094E+02 -0.12968564895E+03  0.15540665143E+03  0.00000000000E+00 0. -1.
         21    1    1    2  504  501 -0.44173546827E+02 -0.16474237390E+03 -0.23334982494E+03  0.28903891225E+03  0.00000000000E+00 0. -1.
         21    1    1    2  505  503 -0.23780735748E+02  0.50745912587E+02 -0.39014136976E+02  0.68284507181E+02  0.00000000000E+00 0. -1.
         21    1    1    2  506  502  0.50683296065E+02  0.30124101220E+02 -0.14227523482E+03  0.15400811803E+03  0.00000000000E+00 0. -1.
<scales pt_clust_3="47.26585" pt_clust_4="148.32393" pt_clust_5="47.26585" pt_clust_6="58.95980"></scales>
<clustering>
<clus scale="   47.266">  3  5 -1 -1</clus>
<clus scale="   58.960">  2  6  1 -1</clus>
<clus scale="  148.324">  2  4  1 -1</clus>
<clus scale="  159.417">  1  3  2 -1</clus>
</clustering>
</event>
<event>
 6    0  0.5510638E+002  0.8883779E+02  0.7546771E-02  0.1305691E+00
         21   -1    0    0  504  501  0.00000000000E+00  0.00000000000E+00  0.22846061239E+03  0.22846061239E+03  0.00000000000E+00 0.  1.
         21   -1    0    0  506  502 -0.00000000000E+00 -0.00000000000E+00 -0.62007027373E+03  0.62007027373E+03  0.00000000000E+00 0.  1.
         21    1    1    2  503  501  0.66059314041E+02 -0.58481526379E+02  0.17018606466E+03  0.19169564028E+03  0.00000000000E+00 0.  1.
         21    1    1    2  504  505 -0.30280378412E+02 -0.20901028774E+02  0.18302971382E+02  0.41094441011E+02  0.00000000000E+00 0.  1.
         21    1    1    2  505  502  0.22747917182E+02 -0.48628283054E+02 -0.81016714759E+02  0.97189946595E+02  0.00000000000E+00 0.  1.
         21    1    1    2  506  503 -0.58526852810E+02  0.12801083821E+03 -0.49908198262E+03  0.51855085823E+03  0.00000000000E+00 0.  1.
<scales pt_clust_3="88.83779" pt_clust_4="36.79340" pt_clust_5="53.95436" pt_clust_6="14000.00000"></scales>
<clustering>
<clus scale="   36.793">  1  4  2 -1</clus>
<clus scale="   53.954">  2  5  1 -1</clus>
<clus scale="   88.838">  1  3  2 -1</clus>
<clus scale="   36.793">  1  3  2 -1</clus>
</clustering>
</event>
<event>
 6    0  0.5510638E+002  0.1237928E+03  0.7546771E-02  0.1236968E+00
         21   -1    0    0  503  501  0.00000000000E+00  0.00000000000E+00  0.24708242493E+04  0.24708242493E+04  0.00000000000E+00 0.  1.
         21   -1    0    0  506  502 -0.00000000000E+00 -0.00000000000E+00 -0.80537476673E+02  0.80537476673E+02  0.00000000000E+00 0.  1.
         21    1    1    2  503  504  0.39116433415E+02  0.46834568555E+02 -0.48833975662E+02  0.78155801792E+02  0.00000000000E+00 0.  1.
         21    1    1    2  504  502  0.11506583898E+02 -0.30286923149E+02  0.20464034586E+02  0.38320698041E+02  0.00000000000E+00 0.  1.
         21    1    1    2  505  501 -0.13799309272E+03 -0.49743290596E+01  0.20918721833E+04  0.20964245917E+04  0.00000000000E+00 0.  1.
         21    1    1    2  506  505  0.87370075405E+02 -0.11573316346E+02  0.32678453039E+03  0.33846063438E+03  0.00000000000E+00 0.  1.
<scales pt_clust_3="53.21243" pt_clust_4="32.39906" pt_clust_5="123.79281" pt_clust_6="14000.00000"></scales>
<clustering>
<clus scale="   32.399">  2  4  1 -1</clus>
<clus scale="   53.212">  2  3  1 -1</clus>
<clus scale="  123.793">  1  5  2 -1</clus>
<clus scale="  123.793">  1  3  2 -1</clus>
</clustering>
</event>
<event>
 6    0  0.5510638E+002  0.1116692E+03  0.7546771E-02  0.1257510E+00
         21   -1    0    0  506  501  0.00000000000E+00  0.00000000000E+00  0.12873987633E+03  0.12873987633E+03  0.00000000000E+00 0.  1.
         21   -1    0    0  504  502 -0.00000000000E+00 -0.00000000000E+00 -0.38674813212E+03  0.38674813212E+03  0.00000000000E+00 0.  1.
         21    1    1    2  503  501 -0.18910253373E+02 -0.75321985417E+02 -0.26333236281E+02  0.82002673754E+02  0.00000000000E+00 0.  1.
         21    1    1    2  504  505 -0.10149492921E+01 -0.33390223415E+02 -0.16794066652E+03  0.17123085182E+03  0.00000000000E+00 0.  1.
         21    1    1    2  505  503 -0.43171262257E+02 -0.29114705111E+02 -0.94205839100E+02  0.10763904523E+03  0.00000000000E+00 0.  1.
         21    1    1    2  506  502  0.63096464922E+02  0.13782691394E+03  0.30471486117E+02  0.15461543765E+03  0.00000000000E+00 0.  1.
<scales pt_clust_3="111.66918" pt_clust_4="33.40565" pt_clust_5="62.42389" pt_clust_6="14000.00000"></scales>
<clustering>
<clus scale="   33.406">  2  4  1 -1</clus>
<clus scale="   62.424">  2  5  1 -1</clus>
<clus scale="  111.669">  1  3  2 -1</clus>
<clus scale="  111.669">  1  3  2 -1</clus>
</clustering>
</event>
<event>
 6    0  0.5510638E+002  0.2035556E+03  0.7546771E-02  0.1146773E+00
         21   -1    0    0  504  501  0.00000000000E+00  0.00000000000E+00  0.48226780480E+03  0.48226780480E+03  0.00000000000E+00 0. -1.
         21   -1    0    0  506  502 -0.00000000000E+00 -0.00000000000E+00 -0.47462694351E+03  0.47462694351E+03  0.00000000000E+00 0. -1.
         21    1    1    2  503  502 -0.70228849613E+02  0.88226808752E+02  0.16474175105E+03  0.19963943909E+03  0.00000000000E+00 0.  1.
         21    1    1    2  504  503 -0.64926892536E+02  0.40195091477E+02  0.26316494677E+03  0.27401995541E+03  0.00000000000E+00 0. -1.
         21    1    1    2  505  501  0.11554494305E+03 -0.16184330647E+03 -0.36632201976E+03  0.41681616076E+03  0.00000000000E+00 0. -1.
         21    1    1    2  506  505  0.19610799102E+02  0.33421406243E+02 -0.53943816777E+02  0.66419193049E+02  0.00000000000E+00 0. -1.
<scales pt_clust_3="66.12402" pt_clust_4="66.12402" pt_clust_5="186.93595" pt_clust_6="38.75015"></scales>
<clustering>
<clus scale="   38.750">  2  6  1 -1</clus>
<clus scale="   66.124">  3  4 -1 -1</clus>
<clus scale="  186.936">  2  5  1 -1</clus>
<clus scale="  203.556">  1  3  2 -1</clus>
</clustering>
</event>
<event>
 6    0  0.5510638E+002  0.1451327E+03  0.7546771E-02  0.1206585E+00
         21   -1    0    0  503  501  0.00000000000E+00  0.00000000000E+00  0.73126710323E+03  0.73126710323E+03  0.00000000000E+00 0. -1.
         21   -1    0    0  505  502 -0.00000000000E+00 -0.00000000000E+00 -0.26538430957E+03  0.26538430957E+03  0.00000000000E+00 0.  1.
         21    1    1    2  503  506  0.80066834967E+02 -0.14681144827E+03  0.60880653172E+03  0.63135544067E+03  0.00000000000E+00 0. -1.
         21    1    1    2  504  502  0.16073574755E+01  0.48837616276E+02 -0.56081346186E+02  0.74382886147E+02  0.00000000000E+00 0. -1.
         21    1    1    2  505  501 -0.31330032375E+02  0.20066837846E+02  0.86583783369E+02  0.94239060120E+02  0.00000000000E+00 0. -1.
         21    1    1    2  506  504 -0.50344160067E+02  0.77906994152E+02 -0.17342617524E+03  0.19667402587E+03  0.00000000000E+00 0.  1.
<scales pt_clust_3="136.76557" pt_clust_4="35.24953" pt_clust_5="37.20550" pt_clust_6="35.24953"></scales>
<clustering>
<clus scale="   35.250">  4  6 -1 -1</clus>
<clus scale="   37.205">  1  5  2 -1</clus>
<clus scale="  136.766">  1  3  2 -1</clus>
<clus scale="   37.205">  1  3  2 -1</clus>
</clustering>
</event>
<event>
 6    0  0.5510638E+002  0.1246153E+03  0.7546771E-02  0.1235672E+00
         21   -1    0    0  506  501  0.00000000000E+00  0.00000000000E+00  0.26793546753E+03  0.26793546753E+03  0.00000000000E+00 0. -1.
         21   -1    0    0  504  502 -0.00000000000E+00 -0.00000000000E+00 -0.45022381755E+03  0.45022381755E+03  0.00000000000E+00 0. -1.
         21    1    1    2  503  502  0.20788698462E+02  0.37666681830E+02  0.84778585186E+00  0.43031007944E+02  0.00000000000E+00 0. -1.
         21    1    1    2  504  505  0.36308777323E+02 -0.51761224939E+01 -0.35138790783E+03  0.35329673269E+03  0.00000000000E+00 0. -1.
         21    1    1    2  505  501  0.71832512124E+02 -0.79671369905E+02  0.34401972239E+01  0.10732787121E+03  0.00000000000E+00 0. -1.
         21    1    1    2  506  503 -0.12892998791E+03  0.47180810569E+02  0.16481157474E+03  0.21450367325E+03  0.00000000000E+00 0. -1.
<scales pt_clust_3="46.41850" pt_clust_4="36.67587" pt_clust_5="124.61528" pt_clust_6="14000.00000"></scales>
<clustering>
<clus scale="   36.676">  2  4  1 -1</clus>
<clus scale="   46.419">  2  3  1 -1</clus>
<clus scale="  124.615">  2  5  1 -1</clus>
<clus scale="  124.615">  1  3  2 -1</clus>
</clustering>
</event>
<event>
 6    0  0.5510638E+002  0.8772460E+02  0.7546771E-02  0.1308457E+00
         21   -1    0    0  504  501  0.00000000000E+00  0.00000000000E+00  0.92587896129E+03  0.92587896129E+03  0.00000000000E+00 0. -1.
         21   -1    0    0  506  502 -0.00000000000E+00 -0.00000000000E+00 -0.34880416591E+02  0.34880416591E+02  0.00000000000E+00 0. -1.
         21    1    1    2  503  502 -0.30331999705E+02 -0.31797759805E+02  0.36040739145E+02  0.56833639799E+02  0.00000000000E+00 0. -1.
         21    1    1    2  504  505 -0.22834124160E+02  0.35603956209E+02  0.17428426742E+03  0.17934337120E+03  0.00000000000E+00 0.  1.
         21    1    1    2  505  503 -0.60381378922E+02  0.56847709994E+01  0.54071938634E+03  0.54410999100E+03  0.00000000000E+00 0. -1.
         21    1    1    2  506  501  0.11354750279E+03 -0.94909674039E+01  0.13995415179E+03  0.18047237587E+03  0.00000000000E+00 0. -1.
<scales pt_clust_3="43.39941" pt_clust_4="42.29703" pt_clust_5="14000.00000" pt_clust_6="87.72460"></scales>
<clustering>
<clus scale="   42.297">  1  4  2 -1</clus>
<clus scale="   43.399">  2  3  1 -1</clus>
<clus scale="   87.725">  2  6  1 -1</clus>
<clus scale="   42.297">  1  3  2 -1</clus>
</clustering>
</event>
<event>
 6    0  0.5510638E+002  0.1346396E+03  0.7546771E-02  0.1220729E+00
         21   -1    0    0  506  501  0.00000000000E+00  0.00000000000E+00  0.12915546686E+03  0.12915546686E+03  0.00000000000E+00 0. -1.
         21   -1    0    0  504  502 -0.00000000000E+00 -0.00000000000E+00 -0.32818597168E+03  0.32818597168E+03  0.00000000000E+00 0.  1.
         21    1    1    2  503  502  0.33352562144E+02  0.32345973164E+01 -0.30484621580E+02  0.45300862842E+02  0.00000000000E+00 0. -1.
         21    1    1    2  504  505 -0.36680470411E+02 -0.37651436834E+02 -0.88570032453E+02  0.10299387484E+03  0.00000000000E+00 0.  1.
         21    1    1    2  505  501 -0.12920621449E+03 -0.41886821452E+01 -0.10768674722E+03  0.16825048721E+03  0.00000000000E+00 0.  1.
         21    1    1    2  506  503  0.13253412275E+03  0.38605521663E+02  0.27710896431E+02  0.14079621365E+03  0.00000000000E+00 0. -1.
<scales pt_clust_3="33.50904" pt_clust_4="44.69509" pt_clust_5="134.63957" pt_clust_6="14000.00000"></scales>
<clustering>
<clus scale="   33.509">  2  3  1 -1</clus>
<clus scale="   44.695">  2  4  1 -1</clus>
<clus scale="  134.640">  2  5  1 -1</clus>
<clus scale="  134.640">  1  3  2 -1</clus>
</clustering>
</event>
<event>
 6    0  0.5510638E+002  0.6592191E+02  0.7546771E-02  0.1374537E+00
         21   -1    0    0  506  501  0.00000000000E+00  0.00000000000E+00  0.39953900520E+03  0.39953900520E+03  0.00000000000E+00 0.  1.
         21   -1    0    0  505  502 -0.00000000000E+00 -0.00000000000E+00 -0.11599118514E+03  0.11599118514E+03  0.00000000000E+00 0.  1.
         21    1    1    2  503  504 -0.10820920214E+03 -0.60935350041E+02 -0.15468560433E+02  0.12514641295E+03  0.00000000000E+00 0.  1.
         21    1    1    2  504  502  0.19273439041E+02  0.24249053393E+02 -0.26762092518E+02  0.40935212701E+02  0.00000000000E+00 0.  1.
         21    1    1    2  505  501  0.30080088799E+02  0.13491427583E+02  0.23161567592E+02  0.40290055519E+02  0.00000000000E+00 0.  1.
         21    1    1    2  506  503  0.58855674297E+02  0.23194869066E+02  0.30261690542E+03  0.30915850917E+03  0.00000000000E+00 0.  1.
<scales pt_clust_3="14000.00000" pt_clust_4="30.97551" pt_clust_5="35.86598" pt_clust_6="65.92191"></scales>
<clustering>
<clus scale="   30.976">  2  4  1 -1</clus>
<clus scale="   35.866">  2  5  1 -1</clus>
<clus scale="   65.922">  1  6  2 -1</clus>
<clus scale="   65.922">  1  3  2 -1</clus>
</clustering>
</event>
<event>
 6    0  0.5510638E+002  0.1658166E+03  0.7546771E-02  0.1182282E+00
         21   -1    0    0  506  501  0.00000000000E+00  0.00000000000E+00  0.28064466460E+04  0.28064466460E+04  0.00000000000E+00 0. -1.
         21   -1    0    0  505  502 -0.00000000000E+00 -0.00000000000E+00 -0.34300074958E+03  0.34300074958E+03  0.00000000000E+00 0. -1.
         21    1    1    2  503  502 -0.40421954078E+02  0.25753130176E+02 -0.39608561084E+00  0.47930313676E+02  0.00000000000E+00 0. -1.
         21    1    1    2  504  503 -0.30178129565E+02 -0.63759250923E+02  0.83394416059E+03  0.83692223328E+03  0.00000000000E+00 0. -1.
         21    1    1    2  505  501  0.12448021485E+03  0.10730822044E+03 -0.29500277406E+03  0.33769367001E+03  0.00000000000E+00 0. -1.
         21    1    1    2  506  504 -0.53880131212E+02 -0.69302099690E+02  0.19249005955E+04  0.19269011786E+04  0.00000000000E+00 0. -1.
<scales pt_clust_3="47.92868" pt_clust_4="46.78919" pt_clust_5="157.38743" pt_clust_6="46.78919"></scales>
<clustering>
<clus scale="   46.789">  4  6 -1 -1</clus>
<clus scale="   47.929">  2  3  1 -1</clus>
<clus scale="  157.387">  2  5  1 -1</clus>
<clus scale="  165.817">  1  3  2 -1</clus>
</clustering>
</event>
<event>
 6    0  0.5510638E+002  0.9196795E+02  0.7546771E-02  0.1298155E+00
         21   -1    0    0  502  501  0.00000000000E+00  0.00000000000E+00  0.58272511672E+03  0.58272511672E+03  0.00000000000E+00 0.  1.
         21   -1    0    0  505  502 -0.00000000000E+00 -0.00000000000E+00 -0.64182875651E+02  0.64182875651E+02  0.00000000000E+00 0. -1.
         21    1    1    2  503  501 -0.68926335375E+02 -0.55412231630E+02  0.32049470931E+03  0.33247287681E+03  0.00000000000E+00 0.  1.
         21    1    1    2  504  506 -0.20006354017E+02  0.64845436152E+02  0.13933405930E+02  0.69277157791E+02  0.00000000000E+00 0. -1.
         21    1    1    2  505  504 -0.41049791501E+01 -0.56197314834E+02  0.49741372934E+02  0.75161115144E+02  0.00000000000E+00 0.  1.
         21    1    1    2  506  503  0.93037668542E+02  0.46764110312E+02  0.13437275290E+03  0.16999684263E+03  0.00000000000E+00 0. -1.
<scales pt_clust_3="14000.00000" pt_clust_4="41.14516" pt_clust_5="56.34704" pt_clust_6="91.96795"></scales>
<clustering>
<clus scale="   56.347">  2  5  1 -1</clus>
<clus scale="   41.145">  2  4  1 -1</clus>
<clus scale="   91.968">  2  6  1 -1</clus>
<clus scale="   91.968">  1  3  2 -1</clus>
</clustering>
</event>
<event>
 6    0  0.5510638E+002  0.1050277E+03  0.7546771E-02  0.1270065E+00
         21   -1    0    0  504  501  0.00000000000E+00  0.00000000000E+00  0.21132286170E+04  0.21132286170E+04  0.00000000000E+00 0.  1.
         21   -1    0    0  505  502 -0.00000000000E+00 -0.00000000000E+00 -0.55599765313E+02  0.55599765313E+02  0.00000000000E+00 0. -1.
         21    1    1    2  503  506  0.18074022596E+02  0.36784982471E+02  0.45592117658E+03  0.45775967984E+03  0.00000000000E+00 0.  1.
         21    1    1    2  504  502  0.40536587255E+02  0.19354512464E+02 -0.29739718543E+02  0.53872654641E+02  0.00000000000E+00 0. -1.
         21    1    1    2  505  503 -0.65939725464E+02 -0.10948693951E+03  0.31910133838E+03  0.34374569303E+03  0.00000000000E+00 0. -1.
         21    1    1    2  506  501  0.73291156131E+01  0.53347444571E+02  0.13123460553E+04  0.13134503548E+04  0.00000000000E+00 0.  1.
<scales pt_clust_3="35.40377" pt_clust_4="44.92006" pt_clust_5="96.87107" pt_clust_6="35.40377"></scales>
<clustering>
<clus scale="   35.404">  3  6 -1 -1</clus>
<clus scale="   44.920">  2  4  1 -1</clus>
<clus scale="   96.871">  2  5  1 -1</clus>
<clus scale="  105.028">  1  3  2 -1</clus>
</clustering>
</event>
<event>
 6    0  0.5510638E+002  0.1130914E+03  0.7546771E-02  0.1254950E+00
         21   -1    0    0  505  501  0.00000000000E+00  0.00000000000E+00  0.25766934488E+04  0.25766934488E+04  0.00000000000E+00 0.  1.
         21   -1    0    0  504  502 -0.00000000000E+00 -0.00000000000E+00 -0.64549430754E+02  0.64549430754E+02  0.00000000000E+00 0.  1.
         21    1    1    2  503  502 -0.93799612869E+02 -0.51534391368E+02  0.50358013645E+01  0.10714252267E+03  0.00000000000E+00 0.  1.
         21    1    1    2  504  506  0.12458029850E+03 -0.75896640096E+02  0.50567397238E+03  0.52629527558E+03  0.00000000000E+00 0.  1.
         21    1    1    2  505  503 -0.16857650295E+02  0.52665820741E+02  0.32684689064E+03  0.33149171779E+03  0.00000000000E+00 0.  1.
         21    1    1    2  506  501 -0.13923035334E+02  0.74765210722E+02  0.16745873537E+04  0.16763133636E+04  0.00000000000E+00 0.  1.
<scales pt_clust_3="106.76854" pt_clust_4="113.09140" pt_clust_5="55.29800" pt_clust_6="14000.00000"></scales>
<clustering>
<clus scale="   55.298">  1  5  2 -1</clus>
<clus scale="  106.769">  2  3  1 -1</clus>
<clus scale="  113.091">  2  4  1 -1</clus>
<clus scale="   55.298">  1  3  2 -1</clus>
</clustering>
</event>
<event>
 6    0  0.5510638E+002  0.1904143E+03  0.7546771E-02  0.1158088E+00
         21   -1    0    0  506  501  0.00000000000E+00  0.00000000000E+00  0.13524822612E+03  0.13524822612E+03  0.00000000000E+00 0. -1.
         21   -1    0    0  504  502 -0.00000000000E+00 -0.00000000000E+00 -0.48581099191E+03  0.48581099191E+03  0.00000000000E+00 0. -1.
         21    1    1    2  503  505  0.32270245763E+02  0.17967181789E+02 -0.56158496982E+02  0.67215810390E+02  0.00000000000E+00 0.  1.
         21    1    1    2  504  501 -0.22422608695E+03 -0.70609421069E+02 -0.17054757316E+03  0.29042985921E+03  0.00000000000E+00 0. -1.
         21    1    1    2  505  502  0.36927726370E+02 -0.15670721337E+02 -0.78308419510E+02  0.87985436569E+02  0.00000000000E+00 0. -1.
         21    1    1    2  506  503  0.15502811482E+03  0.68312960617E+02 -0.45548276137E+02  0.17542811186E+03  0.00000000000E+00 0. -1.
<scales pt_clust_3="33.41140" pt_clust_4="14000.00000" pt_clust_5="77.49887" pt_clust_6="190.41430"></scales>
<clustering>
<clus scale="   33.411">  3  5 -1 -1</clus>
<clus scale="   77.499">  2  3  1 -1</clus>
<clus scale="  190.414">  1  6  2 -1</clus>
<clus scale="  190.414">  1  3  2 -1</clus>
</clustering>
</event>
<event>
 6    0  0.5510638E+002  0.8467385E+02  0.7546771E-02  0.1316288E+00
         21   -1    0    0  504  501  0.00000000000E+00  0.00000000000E+00  0.72812295904E+03  0.72812295904E+03  0.00000000000E+00 0.  1.
         21   -1    0    0  503  502 -0.00000000000E+00 -0.00000000000E+00 -0.44086330447E+02  0.44086330447E+02  0.00000000000E+00 0.  1.
         21    1    1    2  503  505  0.13846424419E+02 -0.27879611746E+02  0.53962711682E+02  0.62297435520E+02  0.00000000000E+00 0.  1.
         21    1    1    2  504  506 -0.58111849722E+02  0.80722309057E+02  0.53121772678E+03  0.54044921270E+03  0.00000000000E+00 0.  1.
         21    1    1    2  505  501 -0.24312328246E+02 -0.49428471541E+02  0.81267402670E+01  0.55680400600E+02  0.00000000000E+00 0.  1.
         21    1    1    2  506  502  0.68577753548E+02 -0.34142257694E+01  0.90729449858E+02  0.11378224067E+03  0.00000000000E+00 0.  1.
<scales pt_clust_3="31.12870" pt_clust_4="84.67385" pt_clust_5="67.96041" pt_clust_6="14000.00000"></scales>
<clustering>
<clus scale="   31.129">  2  3  1 -1</clus>
<clus scale="   67.960">  2  5  1 -1</clus>
<clus scale="   84.674">  1  4  2 -1</clus>
<clus scale="   84.674">  1  3  2 -1</clus>
</clustering>
</event>
<event>
 6    0  0.5510638E+002  0.9190394E+02  0.7546771E-02  0.1298305E+00
         21   -1    0    0  503  501  0.00000000000E+00  0.00000000000E+00  0.14630706969E+03  0.14630706969E+03  0.00000000000E+00 0.  1.
         21   -1    0    0  506  502 -0.00000000000E+00 -0.00000000000E+00 -0.35046826660E+03  0.35046826660E+03  0.00000000000E+00 0.  1.
         21    1    1    2  503  505 -0.23681922621E+02  0.42100766131E+02  0.83471990249E+02  0.96441075917E+02  0.00000000000E+00 0.  1.
         21    1    1    2  504  501 -0.39260974496E+02 -0.13125268710E+02  0.10840069451E+02  0.42792568312E+02  0.00000000000E+00 0.  1.
         21    1    1    2  505  502 -0.52412483747E+02 -0.47727665729E+02 -0.63766735965E+02  0.95347758988E+02  0.00000000000E+00 0.  1.
         21    1    1    2  506  504  0.11535538086E+03  0.18752168308E+02 -0.23470652065E+03  0.26219393308E+03  0.00000000000E+00 0.  1.
<scales pt_clust_3="62.22927" pt_clust_4="41.39682" pt_clust_5="14000.00000" pt_clust_6="91.90394"></scales>
<clustering>
<clus scale="   41.397">  1  4  2 -1</clus>
<clus scale="   62.229">  1  3  2 -1</clus>
<clus scale="   91.904">  2  6  1 -1</clus>
<clus scale="   41.397">  1  3  2 -1</clus>
</clustering>
</event>
<event>
 6    0  0.5510638E+002  0.7967433E+02  0.7546771E-02  0.1329978E+00
         21   -1    0    0  504  501  0.00000000000E+00  0.00000000000E+00  0.62219702514E+03  0.62219702514E+03  0.00000000000E+00 0.  1.
         21   -1    0    0  505  502 -0.00000000000E+00 -0.00000000000E+00 -0.28464259353E+02  0.28464259353E+02  0.00000000000E+00 0.  1.
         21    1    1    2  503  502  0.41777458431E+01  0.30640759601E+02  0.28821644797E+02  0.42272886323E+02  0.00000000000E+00 0.  1.
         21    1    1    2  504  503 -0.33898934674E+02  0.30685689519E+02  0.15946293529E+03  0.16588905040E+03  0.00000000000E+00 0.  1.
         21    1    1    2  505  506 -0.68209016574E+02 -0.25623819771E+02  0.15788415107E+03  0.17388632850E+03  0.00000000000E+00 0.  1.
         21    1    1    2  506  501  0.97930205405E+02 -0.35702629349E+02  0.24756403464E+03  0.26861301927E+03  0.00000000000E+00 0.  1.
<scales pt_clust_3="30.92426" pt_clust_4="48.45324" pt_clust_5="14000.00000" pt_clust_6="79.67433"></scales>
<clustering>
<clus scale="   30.924">  2  3  1 -1</clus>
<clus scale="   48.453">  1  4  2 -1</clus>
<clus scale="   79.674">  1  6  2 -1</clus>
<clus scale="   48.453">  1  3  2 -1</clus>
</clustering>
</event>
<event>
 6    0  0.5510638E+002  0.8982274E+02  0.7546771E-02  0.1303282E+00
         21   -1    0    0  504  501  0.00000000000E+00  0.00000000000E+00  0.54931040303E+03  0.54931040303E+03  0.00000000000E+00 0. -1.
         21   -1    0    0  505  502 -0.00000000000E+00 -0.00000000000E+00 -0.32320880167E+03  0.32320880167E+03  0.00000000000E+00 0.  1.
         21    1    1    2  503  502 -0.66264697970E+02 -0.53396564184E+02 -0.24978156852E+03  0.26388072161E+03  0.00000000000E+00 0.  1.
         21    1    1    2  504  506  0.32369604918E+02  0.29750346082E+01  0.36438526323E+02  0.48830403993E+02  0.00000000000E+00 0. -1.
         21    1    1    2  505  501 -0.37419398971E+02  0.93717292680E+02  0.46239693919E+03  0.47328011974E+03  0.00000000000E+00 0. -1.
         21    1    1    2  506  503  0.71314492023E+02 -0.43295763104E+02 -0.22952295637E+02  0.86527959355E+02  0.00000000000E+00 0. -1.
<scales pt_clust_3="84.72485" pt_clust_4="32.50603" pt_clust_5="14000.00000" pt_clust_6="89.82274"></scales>
<clustering>
<clus scale="   32.506">  1  4  2 -1</clus>
<clus scale="   84.725">  2  3  1 -1</clus>
<clus scale="   89.823">  2  6  1 -1</clus>
<clus scale="   32.506">  1  3  2 -1</clus>
</clustering>
</event>
<event>
 6    0  0.5510638E+002  0.1495657E+03  0.7546771E-02  0.1201008E+00
         21   -1    0    0  503  501  0.00000000000E+00  0.00000000000E+00  0.46083028095E+03  0.46083028095E+03  0.00000000000E+00 0.  1.
         21   -1    0    0  506  502 -0.00000000000E+00 -0.00000000000E+00 -0.66308144140E+03  0.66308144140E+03  0.00000000000E+00 0. -1.
         21    1    1    2  503  504  0.12590234443E+02  0.38058063298E+02  0.60528549582E+02  0.72599142556E+02  0.00000000000E+00 0.  1.
         21    1    1    2  504  502 -0.10904969562E+03 -0.93356565188E+01 -0.49522036276E+03  0.50717077823E+03  0.00000000000E+00 0. -1.
         21    1    1    2  505  501  0.13121291860E+03 -0.86383446103E+02  0.36394673679E+03  0.39640403251E+03  0.00000000000E+00 0.  1.
         21    1    1    2  506  505 -0.34753457419E+02  0.57661039324E+02 -0.13150608407E+03  0.14773776906E+03  0.00000000000E+00 0.  1.
<scales pt_clust_3="40.08653" pt_clust_4="14000.00000" pt_clust_5="149.56567" pt_clust_6="67.86465"></scales>
<clustering>
<clus scale="   40.087">  1  3  2 -1</clus>
<clus scale="   67.865">  2  6  1 -1</clus>
<clus scale="  149.566">  1  5  2 -1</clus>
<clus scale="   40.087">  1  3  2 -1</clus>
</clustering>
</event>
<event>
 6    0  0.5510638E+002  0.1404781E+03  0.7546771E-02  0.1212687E+00
         21   -1    0    0  504  501  0.00000000000E+00  0.00000000000E+00  0.12686197191E+04  0.12686197191E+04  0.00000000000E+00 0.  1.
         21   -1    0    0  506  502 -0.00000000000E+00 -0.00000000000E+00 -0.50037778745E+03  0.50037778745E+03  0.00000000000E+00 0. -1.
         21    1    1    2  503  505 -0.35230888354E+02 -0.16748155988E+02  0.23899140433E+03  0.24215409880E+03  0.00000000000E+00 0.  1.
         21    1    1    2  504  503 -0.22521418788E+02 -0.95183670929E+02  0.95193156202E+03  0.95694349065E+03  0.00000000000E+00 0.  1.
         21    1    1    2  505  502 -0.56565251672E+02 -0.69145614111E+02  0.72096622184E+01  0.89625458865E+02  0.00000000000E+00 0.  1.
         21    1    1    2  506  501  0.11431755881E+03  0.18107744103E+03 -0.42989069693E+03  0.48027445821E+03  0.00000000000E+00 0. -1.
<scales pt_clust_3="38.27588" pt_clust_4="38.27588" pt_clust_5="89.33501" pt_clust_6="126.73059"></scales>
<clustering>
<clus scale="   38.276">  3  4 -1 -1</clus>
<clus scale="   89.335">  2  5  1 -1</clus>
<clus scale="  126.731">  2  6  1 -1</clus>
<clus scale="  140.478">  1  3  2 -1</clus>
</clustering>
</event>
<event>
 6    0  0.5510638E+002  0.1072231E+03  0.7546771E-02  0.1265800E+00
         21   -1    0    0  505  501  0.00000000000E+00  0.00000000000E+00  0.88675260513E+02  0.88675260513E+02  0.00000000000E+00 0.  1.
         21   -1    0    0  503  502 -0.00000000000E+00 -0.00000000000E+00 -0.56590504503E+03  0.56590504503E+03  0.00000000000E+00 0. -1.
         21    1    1    2  503  504  0.48423604074E+00  0.65547124592E+02 -0.19369971692E+03  0.20449019625E+03  0.00000000000E+00 0. -1.
         21    1    1    2  504  501 -0.39242559662E+02  0.48796726074E+02 -0.84073718646E+02  0.10483076424E+03  0.00000000000E+00 0. -1.
         21    1    1    2  505  506  0.53063314924E+02 -0.37737165871E+02  0.51158751710E+02  0.82807167294E+02  0.00000000000E+00 0.  1.
         21    1    1    2  506  502 -0.14304991303E+02 -0.76606684795E+02 -0.25061510066E+03  0.26245217776E+03  0.00000000000E+00 0. -1.
<scales pt_clust_3="61.38659" pt_clust_4="61.38659" pt_clust_5="65.11382" pt_clust_6="86.90308"></scales>
<clustering>
<clus scale="   61.387">  3  4 -1 -1</clus>
<clus scale="   65.114">  1  5  2 -1</clus>
<clus scale="   86.903">  2  6  1 -1</clus>
<clus scale="   65.114">  1  3  2 -1</clus>
</clustering>
</event>
<event>
 6    0  0.5510638E+002  0.1396038E+03  0.7546771E-02  0.1213863E+00
         21   -1    0    0  503  501  0.00000000000E+00  0.00000000000E+00  0.15930396724E+03  0.15930396724E+03  0.00000000000E+00 0. -1.
         21   -1    0    0  505  502 -0.00000000000E+00 -0.00000000000E+00 -0.12542173090E+04  0.12542173090E+04  0.00000000000E+00 0. -1.
         21    1    1    2  503  502  0.72378824230E+02  0.38191881916E+02 -0.18869518430E+03  0.20567738480E+03  0.00000000000E+00 0. -1.
         21    1    1    2  504  506 -0.27730614396E+02  0.13256379897E+03 -0.67189699126E+03  0.68541061754E+03  0.00000000000E+00 0. -1.
         21    1    1    2  505  504 -0.23619390036E+02 -0.32113553263E+02 -0.34282106738E+03  0.34513104776E+03  0.00000000000E+00 0.  1.
         21    1    1    2  506  501 -0.21028819799E+02 -0.13864212762E+03  0.10849990122E+03  0.17730222609E+03  0.00000000000E+00 0. -1.
<scales pt_clust_3="74.16081" pt_clust_4="139.60380" pt_clust_5="39.86422" pt_clust_6="14000.00000"></scales>
<clustering>
<clus scale="   39.864">  2  5  1 -1</clus>
<clus scale="   74.161">  2  3  1 -1</clus>
<clus scale="  139.604">  2  4  1 -1</clus>
<clus scale="  139.604">  1  3  2 -1</clus>
</clustering>
</event>
<event>
 6    0  0.5510638E+002  0.1217128E+03  0.7546771E-02  0.1240298E+00
         21   -1    0    0  506  501  0.00000000000E+00  0.00000000000E+00  0.48163754276E+02  0.48163754276E+02  0.00000000000E+00 0. -1.
         21   -1    0    0  505  502 -0.00000000000E+00 -0.00000000000E+00 -0.16519213089E+04  0.16519213089E+04  0.00000000000E+00 0. -1.
         21    1    1    2  503  501  0.70532113748E+02  0.38171287984E+02 -0.10844886251E+02  0.80928597256E+02  0.00000000000E+00 0. -1.
         21    1    1    2  504  503  0.42389672876E+02  0.57688235977E+01 -0.35631432995E+02  0.55675512656E+02  0.00000000000E+00 0. -1.
         21    1    1    2  505  504 -0.40757694029E+02 -0.39989208828E+02 -0.98510017552E+03  0.98675360768E+03  0.00000000000E+00 0. -1.
         21    1    1    2  506  502 -0.72164092594E+02 -0.39509027537E+01 -0.57218105982E+03  0.57672734555E+03  0.00000000000E+00 0. -1.
<scales pt_clust_3="31.14613" pt_clust_4="31.14613" pt_clust_5="57.09927" pt_clust_6="113.99749"></scales>
<clustering>
<clus scale="   31.146">  3  4 -1 -1</clus>
<clus scale="   57.099">  2  5  1 -1</clus>
<clus scale="  113.997">  2  6  1 -1</clus>
<clus scale="  121.713">  1  3  2 -1</clus>
</clustering>
</event>
<event>
 6    0  0.5510638E+002  0.9716371E+02  0.7546771E-02  0.1286376E+00
         21   -1    0    0  504  501  0.00000000000E+00  0.00000000000E+00  0.48607704875E+03  0.48607704875E+03  0.00000000000E+00 0. -1.
         21   -1    0    0  503  502 -0.00000000000E+00 -0.00000000000E+00 -0.88861082548E+02  0.88861082548E+02  0.00000000000E+00 0. -1.
         21    1    1    2  503  506 -0.65361646558E+02  0.36778840248E+02 -0.22609168886E+02  0.78332639739E+02  0.00000000000E+00 0. -1.
         21    1    1    2  504  505  0.18993105032E+02 -0.10118487866E+03  0.30638664881E+03  0.32322112597E+03  0.00000000000E+00 0. -1.
         21    1    1    2  505  502  0.98665085760E+01  0.54356641196E+02  0.15528139615E+01  0.55266659613E+02  0.00000000000E+00 0. -1.
         21    1    1    2  506  501  0.36502032951E+02  0.10049397216E+02  0.11188567232E+03  0.11811770597E+03  0.00000000000E+00 0.  1.
<scales pt_clust_3="14000.00000" pt_clust_4="97.16371" pt_clust_5="56.56132" pt_clust_6="37.86012"></scales>
<clustering>
<clus scale="   37.860">  1  6  2 -1</clus>
<clus scale="   56.561">  2  5  1 -1</clus>
<clus scale="   97.164">  1  4  2 -1</clus>
<clus scale="   37.860">  1  3  2 -1</clus>
</clustering>
</event>
<event>
 6    0  0.5510638E+002  0.9075333E+02  0.7546771E-02  0.1301038E+00
         21   -1    0    0  506  501  0.00000000000E+00  0.00000000000E+00  0.14154294578E+03  0.14154294578E+03  0.00000000000E+00 0. -1.
         21   -1    0    0  504  502 -0.00000000000E+00 -0.00000000000E+00 -0.54564928979E+03  0.54564928979E+03  0.00000000000E+00 0. -1.
         21    1    1    2  503  502 -0.60431626711E+02 -0.50601482847E+01 -0.38603226652E+03  0.39076655103E+03  0.00000000000E+00 0. -1.
         21    1    1    2  504  505 -0.25688294314E+02  0.41059446880E+02 -0.10157096139E+03  0.11252744928E+03  0.00000000000E+00 0.  1.
         21    1    1    2  505  501  0.11238585711E+01  0.45703768615E+02  0.18960915472E+02  0.49493573717E+02  0.00000000000E+00 0. -1.
         21    1    1    2  506  503  0.84996062454E+02 -0.81703067210E+02  0.64535968432E+02  0.13440466155E+03  0.00000000000E+00 0. -1.
<scales pt_clust_3="90.75333" pt_clust_4="50.39698" pt_clust_5="45.71758" pt_clust_6="14000.00000"></scales>
<clustering>
<clus scale="   45.718">  1  5  2 -1</clus>
<clus scale="   50.397">  2  4  1 -1</clus>
<clus scale="   90.753">  2  3  1 -1</clus>
<clus scale="   45.718">  1  3  2 -1</clus>
</clustering>
</event>
<event>
 6    0  0.5510638E+002  0.1731497E+03  0.7546771E-02  0.1174602E+00
         21   -1    0    0  503  501  0.00000000000E+00  0.00000000000E+00  0.89678456445E+02  0.89678456445E+02  0.00000000000E+00 0.  1.
         21   -1    0    0  504  502 -0.00000000000E+00 -0.00000000000E+00 -0.46354077084E+03  0.46354077084E+03  0.00000000000E+00 0.  1.
         21    1    1    2  503  505 -0.49880184491E+02 -0.52530116794E+02 -0.34622611037E+02  0.80288051229E+02  0.00000000000E+00 0.  1.
         21    1    1    2  504  501  0.13590746996E+02  0.17696979400E+03 -0.14473613527E+03  0.22902306706E+03  0.00000000000E+00 0.  1.
         21    1    1    2  505  506  0.28177700853E+02 -0.78112845376E+02 -0.62958999573E+02  0.10420861320E+03  0.00000000000E+00 0.  1.
         21    1    1    2  506  502  0.81117366419E+01 -0.46326831832E+02 -0.13154456851E+03  0.13969949579E+03  0.00000000000E+00 0.  1.
<scales pt_clust_3="75.56478" pt_clust_4="151.66592" pt_clust_5="75.56478" pt_clust_6="47.03164"></scales>
<clustering>
<clus scale="   47.032">  2  6  1 -1</clus>
<clus scale="   75.565">  3  5 -1 -1</clus>
<clus scale="  151.666">  2  4  1 -1</clus>
<clus scale="  173.150">  1  3  2 -1</clus>
</clustering>
</event>
<event>
 6    0  0.5510638E+002  0.8604071E+02  0.7546771E-02  0.1312733E+00
         21   -1    0    0  504  501  0.00000000000E+00  0.00000000000E+00  0.22935932414E+03  0.22935932414E+03  0.00000000000E+00 0. -1.
         21   -1    0    0  503  502 -0.00000000000E+00 -0.00000000000E+00 -0.14926961065E+03  0.14926961065E+03  0.00000000000E+00 0. -1.
         21    1    1    2  503  505  0.38567796710E+02 -0.18139891431E+02 -0.73419729152E+02  0.84893976424E+02  0.00000000000E+00 0. -1.
         21    1    1    2  504  502 -0.10486226329E+03  0.62124238247E+01  0.27662182683E+02  0.10862727477E+03  0.00000000000E+00 0. -1.
         21    1    1    2  505  506  0.73769168206E+02  0.47360938457E+02  0.49661472710E+02  0.10075321603E+03  0.00000000000E+00 0. -1.
         21    1    1    2  506  501 -0.74747016255E+01 -0.35433470850E+02  0.76185787242E+02  0.84354467567E+02  0.00000000000E+00 0. -1.
<scales pt_clust_3="42.96224" pt_clust_4="86.04071" pt_clust_5="14000.00000" pt_clust_6="36.21329"></scales>
<clustering>
<clus scale="   36.213">  1  6  2 -1</clus>
<clus scale="   42.962">  2  3  1 -1</clus>
<clus scale="   86.041">  2  4  1 -1</clus>
<clus scale="   36.213">  1  3  2 -1</clus>
</clustering>
</event>
<event>
 6    0  0.5510638E+002  0.1450865E+03  0.7546771E-02  0.1206644E+00
         21   -1    0    0  506  501  0.00000000000E+00  0.00000000000E+00  0.12935229229E+03  0.12935229229E+03  0.00000000000E+00 0. -1.
         21   -1    0    0  504  502 -0.00000000000E+00 -0.00000000000E+00 -0.38356153596E+03  0.38356153596E+03  0.00000000000E+00 0. -1.
         21    1    1    2  503  501  0.45775151908E+02 -0.24928890277E+02 -0.42617119308E+02  0.67327802286E+02  0.00000000000E+00 0. -1.
         21    1    1    2  504  503  0.62921084999E+02  0.20453756391E+02 -0.52318646623E+02  0.84348443213E+02  0.00000000000E+00 0. -1.
         21    1    1    2  505  502 -0.16567996790E+03 -0.40381224678E+02 -0.21163451406E+03  0.27178973971E+03  0.00000000000E+00 0. -1.
         21    1    1    2  506  505  0.56983730990E+02  0.44856358563E+02  0.52361036324E+02  0.89447843048E+02  0.00000000000E+00 0. -1.
<scales pt_clust_3="41.23203" pt_clust_4="41.23203" pt_clust_5="137.44861" pt_clust_6="72.52061"></scales>
<clustering>
<clus scale="   41.232">  3  4 -1 -1</clus>
<clus scale="   72.521">  1  6  2 -1</clus>
<clus scale="  137.449">  1  5  2 -1</clus>
<clus scale="   72.521">  1  3  2 -1</clus>
</clustering>
</event>
<event>
 6    0  0.5510638E+002  0.1022810E+03  0.7546771E-02  0.1275571E+00
         21   -1    0    0  505  501  0.00000000000E+00  0.00000000000E+00  0.25814917274E+04  0.25814917274E+04  0.00000000000E+00 0. -1.
         21   -1    0    0  506  502 -0.00000000000E+00 -0.00000000000E+00 -0.14500521363E+02  0.14500521363E+02  0.00000000000E+00 0. -1.
         21    1    1    2  503  501  0.14597187569E+03  0.32064260774E+02  0.12895544310E+04  0.12981858634E+04  0.00000000000E+00 0. -1.
         21    1    1    2  504  502 -0.72013388902E+02  0.91756523937E+01  0.56491151188E+03  0.56955696557E+03  0.00000000000E+00 0. -1.
         21    1    1    2  505  504 -0.32478569102E+02 -0.55748453498E+02  0.64144857527E+03  0.64468521174E+03  0.00000000000E+00 0. -1.
         21    1    1    2  506  503 -0.41479917684E+02  0.14508540331E+02  0.71076687899E+02  0.83564208106E+02  0.00000000000E+00 0. -1.
<scales pt_clust_3="102.28097" pt_clust_4="14000.00000" pt_clust_5="66.69314" pt_clust_6="43.94407"></scales>
<clustering>
<clus scale="   43.944">  2  6  1 -1</clus>
<clus scale="   66.693">  1  5  2 -1</clus>
<clus scale="  102.281">  1  3  2 -1</clus>
<clus scale="   66.693">  1  3  2 -1</clus>
</clustering>
</event>
<event>
 6    0  0.5510638E+002  0.8399788E+02  0.7546771E-02  0.1318074E+00
         21   -1    0    0  506  501  0.00000000000E+00  0.00000000000E+00  0.89950502319E+02  0.89950502319E+02  0.00000000000E+00 0.  1.
         21   -1    0    0  504  502 -0.00000000000E+00 -0.00000000000E+00 -0.82616230054E+03  0.82616230054E+03  0.00000000000E+00 0. -1.
         21    1    1    2  503  502 -0.65508301725E+02 -0.32742879113E+02 -0.45090007808E+03  0.45680883763E+03  0.00000000000E+00 0. -1.
         21    1    1    2  504  505  0.11813708255E+03  0.53303282338E+02 -0.32345205555E+03  0.34845206617E+03  0.00000000000E+00 0. -1.
         21    1    1    2  505  501 -0.32237668645E+02  0.17239354188E+02  0.53878331929E+02  0.65110193242E+02  0.00000000000E+00 0.  1.
         21    1    1    2  506  503 -0.20391112181E+02 -0.37799757412E+02 -0.15737996529E+02  0.45741705818E+02  0.00000000000E+00 0. -1.
<scales pt_clust_3="83.99788" pt_clust_4="14000.00000" pt_clust_5="36.55766" pt_clust_6="46.63168"></scales>
<clustering>
<clus scale="   36.558">  1  5  2 -1</clus>
<clus scale="   46.632">  1  6  2 -1</clus>
<clus scale="   83.998">  2  3  1 -1</clus>
<clus scale="   36.558">  1  3  2 -1</clus>
</clustering>
</event>
<event>
 6    0  0.5510638E+002  0.2248438E+03  0.7546771E-02  0.1130322E+00
         21   -1    0    0  504  501  0.00000000000E+00  0.00000000000E+00  0.17707125225E+03  0.17707125225E+03  0.00000000000E+00 0.  1.
         21   -1    0    0  503  502 -0.00000000000E+00 -0.00000000000E+00 -0.82229680525E+03  0.82229680525E+03  0.00000000000E+00 0. -1.
         21    1    1    2  503  501  0.50884026497E+02 -0.55210644703E+02 -0.10173958732E+03  0.12644501995E+03  0.00000000000E+00 0.  1.
         21    1    1    2  504  505 -0.13475106784E+03  0.84137927863E+02  0.55470420322E+02  0.16826766986E+03  0.00000000000E+00 0.  1.
         21    1    1    2  505  506 -0.31581699889E+02  0.67029380030E+02  0.12409048679E+02  0.75128729819E+02  0.00000000000E+00 0.  1.
         21    1    1    2  506  502  0.11544874123E+03 -0.95956663190E+02 -0.61136543469E+03  0.62952663787E+03  0.00000000000E+00 0. -1.
<scales pt_clust_3="75.08262" pt_clust_4="43.81573" pt_clust_5="43.81573" pt_clust_6="215.49639"></scales>
<clustering>
<clus scale="   43.816">  4  5 -1 -1</clus>
<clus scale="   75.083">  2  3  1 -1</clus>
<clus scale="  215.496">  2  6  1 -1</clus>
<clus scale="  224.844">  1  3  2 -1</clus>
</clustering>
</event>
<event>
 6    0  0.5510638E+002  0.1087228E+03  0.7546771E-02  0.1262954E+00
         21   -1    0    0  503  501  0.00000000000E+00  0.00000000000E+00  0.25114262648E+04  0.25114262648E+04  0.00000000000E+00 0.  1.
         21   -1    0    0  505  502 -0.00000000000E+00 -0.00000000000E+00 -0.46170976896E+02  0.46170976896E+02  0.00000000000E+00 0.  1.
         21    1    1    2  503  506  0.68793125986E+02  0.94857485486E+02  0.20231033656E+04  0.20264939340E+04  0.00000000000E+00 0.  1.
         21    1    1    2  504  502  0.34358620324E+02 -0.28272231540E+02 -0.16701896016E+02  0.47526699836E+02  0.00000000000E+00 0.  1.
         21    1    1    2  505  501 -0.87343914115E+01 -0.42408261995E+02  0.66917771827E+02  0.79704068058E+02  0.00000000000E+00 0. -1.
         21    1    1    2  506  504 -0.94417354898E+02 -0.24176991950E+02  0.39193604652E+03  0.40387253981E+03  0.00000000000E+00 0. -1.
<scales pt_clust_3="108.72277" pt_clust_4="68.21433" pt_clust_5="43.29839" pt_clust_6="14000.00000"></scales>
<clustering>
<clus scale="   43.298">  2  5  1 -1</clus>
<clus scale="   68.214">  2  4  1 -1</clus>
<clus scale="  108.723">  1  3  2 -1</clus>
<clus scale="  108.723">  1  3  2 -1</clus>
</clustering>
</event>
<event>
 6    0  0.5510638E+002  0.5701611E+02  0.7546771E-02  0.1410798E+00
         21   -1    0    0  503  501  0.00000000000E+00  0.00000000000E+00  0.15286561855E+03  0.15286561855E+03  0.00000000000E+00 0. -1.
         21   -1    0    0  506  502 -0.00000000000E+00 -0.00000000000E+00 -0.67773778900E+03  0.67773778900E+03  0.00000000000E+00 0.  1.
         21    1    1    2  503  504 -0.61621193615E+02  0.83590479697E+02  0.11258440777E+03  0.15316588612E+03  0.00000000000E+00 0. -1.
         21    1    1    2  504  502 -0.32573395531E+02 -0.54458922539E+02 -0.27136553669E+03  0.27868630186E+03  0.00000000000E+00 0.  1.
         21    1    1    2  505  501  0.30858935936E+02 -0.36030454240E+02 -0.28802289456E+02  0.55498103010E+02  0.00000000000E+00 0. -1.
         21    1    1    2  506  505  0.63335653210E+02  0.68988970816E+01 -0.33728875208E+03  0.34325311656E+03  0.00000000000E+00 0.  1.
<scales pt_clust_3="58.88073" pt_clust_4="14000.00000" pt_clust_5="47.43909" pt_clust_6="57.01611"></scales>
<clustering>
<clus scale="   47.439">  1  5  2 -1</clus>
<clus scale="   58.881">  1  3  2 -1</clus>
<clus scale="   57.016">  2  6  1 -1</clus>
<clus scale="   47.439">  1  3  2 -1</clus>
</clustering>
</event>
<event>
 6    0  0.5510638E+002  0.1117154E+03  0.7546771E-02  0.1257426E+00
         21   -1    0    0  504  501  0.00000000000E+00  0.00000000000E+00  0.12253014521E+04  0.12253014521E+04  0.00000000000E+00 0. -1.
         21   -1    0    0  505  502 -0.00000000000E+00 -0.00000000000E+00 -0.16165118410E+02  0.16165118410E+02  0.00000000000E+00 0. -1.
         21    1    1    2  503  501  0.76013192785E+02  0.43659742072E+02  0.34702224734E+03  0.35792264346E+03  0.00000000000E+00 0. -1.
         21    1    1    2  504  506 -0.64620490448E+02  0.23069884650E+02  0.28417850836E+03  0.29234474850E+03  0.00000000000E+00 0. -1.
         21    1    1    2  505  503  0.41188488279E+02 -0.44624318713E+02  0.20103120021E+03  0.21000324960E+03  0.00000000000E+00 0. -1.
         21    1    1    2  506  502 -0.52581190616E+02 -0.22105308010E+02  0.37690437781E+03  0.38119592897E+03  0.00000000000E+00 0. -1.
<scales pt_clust_3="97.93378" pt_clust_4="49.00852" pt_clust_5="60.72744" pt_clust_6="49.00852"></scales>
<clustering>
<clus scale="   49.009">  4  6 -1 -1</clus>
<clus scale="   60.727">  2  5  1 -1</clus>
<clus scale="   97.934">  1  3  2 -1</clus>
<clus scale="   97.934">  1  3  2 -1</clus>
</clustering>
</event>
<event>
 6    0  0.5510638E+002  0.2514271E+03  0.7546771E-02  0.1112406E+00
         21   -1    0    0  505  501  0.00000000000E+00  0.00000000000E+00  0.54294095513E+03  0.54294095513E+03  0.00000000000E+00 0.  1.
         21   -1    0    0  504  502 -0.00000000000E+00 -0.00000000000E+00 -0.19749043903E+03  0.19749043903E+03  0.00000000000E+00 0.  1.
         21    1    1    2  503  502 -0.10765452740E+03  0.65832505807E+02  0.27659571377E+02  0.12918385340E+03  0.00000000000E+00 0.  1.
         21    1    1    2  504  501 -0.54554405663E+02 -0.25312812491E+03  0.10461201607E+03  0.27927353026E+03  0.00000000000E+00 0.  1.
         21    1    1    2  505  506  0.85793700248E+02  0.12650387151E+03  0.15790810550E+03  0.21976978475E+03  0.00000000000E+00 0.  1.
         21    1    1    2  506  503  0.76415232818E+02  0.60791747593E+02  0.55270823151E+02  0.11220422574E+03  0.00000000000E+00 0.  1.
<scales pt_clust_3="126.18802" pt_clust_4="244.63340" pt_clust_5="46.39968" pt_clust_6="46.39968"></scales>
<clustering>
<clus scale="   46.400">  5  6 -1 -1</clus>
<clus scale="  126.188">  2  3  1 -1</clus>
<clus scale="  244.633">  2  4  1 -1</clus>
<clus scale="  251.427">  1  3  2 -1</clus>
</clustering>
</event>
<event>
 6    0  0.5510638E+002  0.1993319E+03  0.7546771E-02  0.1150304E+00
         21   -1    0    0  505  501  0.00000000000E+00  0.00000000000E+00  0.18319785656E+03  0.18319785656E+03  0.00000000000E+00 0. -1.
         21   -1    0    0  506  502 -0.00000000000E+00 -0.00000000000E+00 -0.60726060152E+03  0.60726060152E+03  0.00000000000E+00 0. -1.
         21    1    1    2  503  504  0.11344955572E+03  0.38862914466E+01  0.25884775005E+02  0.11642992112E+03  0.00000000000E+00 0. -1.
         21    1    1    2  504  501  0.81294559298E+02 -0.12646536433E+02  0.54388520799E+02  0.98624801394E+02  0.00000000000E+00 0. -1.
         21    1    1    2  505  502 -0.36527945659E+01 -0.41174891399E+02 -0.24995098759E+03  0.25334602974E+03  0.00000000000E+00 0. -1.
         21    1    1    2  506  503 -0.19109132045E+03  0.49935136385E+02 -0.25438505318E+03  0.32205770582E+03  0.00000000000E+00 0. -1.
<scales pt_clust_3="36.14617" pt_clust_4="36.14617" pt_clust_5="41.33660" pt_clust_6="194.75747"></scales>
<clustering>
<clus scale="   36.146">  3  4 -1 -1</clus>
<clus scale="   41.337">  2  5  1 -1</clus>
<clus scale="  194.757">  2  6  1 -1</clus>
<clus scale="  199.332">  1  3  2 -1</clus>
</clustering>
</event>
<event>
 6    0  0.5510638E+002  0.1313769E+03  0.7546771E-02  0.1225427E+00
         21   -1    0    0  503  501  0.00000000000E+00  0.00000000000E+00  0.75682204360E+03  0.75682204360E+03  0.00000000000E+00 0. -1.
         21   -1    0    0  506  502 -0.00000000000E+00 -0.00000000000E+00 -0.11192891379E+03  0.11192891379E+03  0.00000000000E+00 0.  1.
         21    1    1    2  503  505 -0.20128709308E+02 -0.25514868556E+02  0.47399663431E+02  0.57470875661E+02  0.00000000000E+00 0. -1.
         21    1    1    2  504  501 -0.10788939428E+03  0.78212677449E+02  0.53858595012E+03  0.55482625206E+03  0.00000000000E+00 0. -1.
         21    1    1    2  505  502  0.27397999502E+02  0.17997590380E+02 -0.70615066633E+02  0.77852753784E+02  0.00000000000E+00 0.  1.
         21    1    1    2  506  504  0.10062010409E+03 -0.70695399273E+02  0.12952258290E+03  0.17860107588E+03  0.00000000000E+00 0.  1.
<scales pt_clust_3="32.49882" pt_clust_4="14000.00000" pt_clust_5="32.62218" pt_clust_6="131.37694"></scales>
<clustering>
<clus scale="   32.499">  1  3  2 -1</clus>
<clus scale="   32.622">  2  5  1 -1</clus>
<clus scale="  131.377">  2  6  1 -1</clus>
<clus scale="   32.499">  1  3  2 -1</clus>
</clustering>
</event>
<event>
 6    0  0.5510638E+002  0.8396576E+02  0.7546771E-02  0.1318160E+00
         21   -1    0    0  503  501  0.00000000000E+00  0.00000000000E+00  0.12077376509E+04  0.12077376509E+04  0.00000000000E+00 0. -1.
         21   -1    0    0  506  502 -0.00000000000E+00 -0.00000000000E+00 -0.64578205528E+02  0.64578205528E+02  0.00000000000E+00 0.  1.
         21    1    1    2  503  502  0.49529104531E+02 -0.12064286378E+02  0.12377408709E+03  0.13386076287E+03  0.00000000000E+00 0.  1.
         21    1    1    2  504  501 -0.36459217743E+02 -0.17151688645E+02  0.54570904366E+03  0.54719449496E+03  0.00000000000E+00 0. -1.
         21    1    1    2  505  504  0.22784784350E+02  0.10374428065E+03  0.49466030680E+03  0.50593560982E+03  0.00000000000E+00 0. -1.
         21    1    1    2  506  505 -0.35854671139E+02 -0.74528305630E+02 -0.20983992171E+02  0.85324988778E+02  0.00000000000E+00 0.  1.
<scales pt_clust_3="45.13722" pt_clust_4="40.29212" pt_clust_5="14000.00000" pt_clust_6="83.96576"></scales>
<clustering>
<clus scale="   40.292">  1  4  2 -1</clus>
<clus scale="   45.137">  1  3  2 -1</clus>
<clus scale="   83.966">  2  6  1 -1</clus>
<clus scale="   40.292">  1  3  2 -1</clus>
</clustering>
</event>
<event>
 6    0  0.5510638E+002  0.1941473E+03  0.7546771E-02  0.1154773E+00
         21   -1    0    0  504  501  0.00000000000E+00  0.00000000000E+00  0.76812479403E+02  0.76812479403E+02  0.00000000000E+00 0. -1.
         21   -1    0    0  506  502 -0.00000000000E+00 -0.00000000000E+00 -0.29308446982E+04  0.29308446982E+04  0.00000000000E+00 0.  1.
         21    1    1    2  503  501  0.13462058551E+03  0.47954687438E+02 -0.16122462442E+02  0.14381337867E+03  0.00000000000E+00 0. -1.
         21    1    1    2  504  505 -0.52487069333E+02  0.26300643684E+02 -0.10574635655E+04  0.10590919736E+04  0.00000000000E+00 0.  1.
         21    1    1    2  505  502 -0.12015032148E+03 -0.57876492004E+02 -0.17454740635E+04  0.17505614798E+04  0.00000000000E+00 0.  1.
         21    1    1    2  506  503  0.38016805309E+02 -0.16378839118E+02 -0.34972127394E+02  0.54190345553E+02  0.00000000000E+00 0. -1.
<scales pt_clust_3="191.29772" pt_clust_4="55.08299" pt_clust_5="55.08299" pt_clust_6="40.96764"></scales>
<clustering>
<clus scale="   40.968">  3  6 -1 -1</clus>
<clus scale="   55.083">  4  5 -1 -1</clus>
<clus scale="  191.298">  1  3  2 -1</clus>
<clus scale="  191.298">  1  3  2 -1</clus>
</clustering>
</event>
<event>
 6    0  0.6762841E+002  0.1063759E+03  0.7546771E-02  0.1267432E+00
         21   -1    0    0  506  501  0.00000000000E+00  0.00000000000E+00  0.18804883274E+04  0.18804883274E+04  0.00000000000E+00 0.  1.
         21   -1    0    0  503  502 -0.00000000000E+00 -0.00000000000E+00 -0.15142365845E+03  0.15142365845E+03  0.00000000000E+00 0.  1.
         21    1    1    2  503  505 -0.10399044996E+03  0.23642542333E+02 -0.12560725624E+03  0.16477307520E+03  0.00000000000E+00 0.  1.
         21    1    1    2  504  502  0.21956053211E+02  0.31159749776E+02  0.10321919531E+03  0.11003272495E+03  0.00000000000E+00 0.  1.
         21    1    1    2  505  501  0.69625475193E+02 -0.83488782917E+02  0.14358916912E+04  0.14400010530E+04  0.00000000000E+00 0.  1.
         21    1    1    2  506  504  0.12408921553E+02  0.28686490808E+02  0.31556103869E+03  0.31710513277E+03  0.00000000000E+00 0. -1.
<scales pt_clust_3="106.37592" pt_clust_4="40.20634" pt_clust_5="14000.00000" pt_clust_6="31.25534"></scales>
<clustering>
<clus scale="   31.255">  1  6  2 -1</clus>
<clus scale="   40.206">  1  4  2 -1</clus>
<clus scale="  106.376">  2  3  1 -1</clus>
<clus scale="   31.255">  1  3  2 -1</clus>
</clustering>
</event>
<event>
 6    0  0.5510638E+002  0.8351256E+02  0.7546771E-02  0.1319369E+00
         21   -1    0    0  505  501  0.00000000000E+00  0.00000000000E+00  0.40008259420E+02  0.40008259420E+02  0.00000000000E+00 0. -1.
         21   -1    0    0  506  502 -0.00000000000E+00 -0.00000000000E+00 -0.11707780550E+04  0.11707780550E+04  0.00000000000E+00 0. -1.
         21    1    1    2  503  501  0.24487991928E+02 -0.82573726951E+02 -0.46760872135E+02  0.98003373891E+02  0.00000000000E+00 0. -1.
         21    1    1    2  504  502  0.36850032634E+02 -0.27006329620E+02 -0.69661718677E+03  0.69811372401E+03  0.00000000000E+00 0. -1.
         21    1    1    2  505  504 -0.13201543525E+02  0.77380023330E+02 -0.13917802711E+03  0.15978883563E+03  0.00000000000E+00 0. -1.
         21    1    1    2  506  503 -0.48136481036E+02  0.32200033241E+02 -0.24821370961E+03  0.25488038093E+03  0.00000000000E+00 0. -1.
<scales pt_clust_3="14000.00000" pt_clust_4="45.68661" pt_clust_5="83.51256" pt_clust_6="33.67629"></scales>
<clustering>
<clus scale="   45.687">  2  4  1 -1</clus>
<clus scale="   33.676">  2  6  1 -1</clus>
<clus scale="   83.513">  2  5  1 -1</clus>
<clus scale="   83.513">  1  3  2 -1</clus>
</clustering>
</event>
<event>
 6    0  0.5510638E+002  0.1707077E+03  0.7546771E-02  0.1177112E+00
         21   -1    0    0  506  501  0.00000000000E+00  0.00000000000E+00  0.15738129185E+04  0.15738129185E+04  0.00000000000E+00 0.  1.
         21   -1    0    0  504  502 -0.00000000000E+00 -0.00000000000E+00 -0.85455354956E+02  0.85455354956E+02  0.00000000000E+00 0.  1.
         21    1    1    2  503  502 -0.20851675695E+02 -0.36998637984E+02 -0.83986404548E+01  0.43292363686E+02  0.00000000000E+00 0.  1.
         21    1    1    2  504  501  0.11227182019E+02 -0.54509502228E+02  0.16147834248E+03  0.17079985521E+03  0.00000000000E+00 0.  1.
         21    1    1    2  505  503 -0.10593756037E+03  0.15764309749E+03  0.12450177112E+03  0.22710086723E+03  0.00000000000E+00 0.  1.
         21    1    1    2  506  505  0.11556205405E+03 -0.66134957276E+02  0.12107760904E+04  0.12180751873E+04  0.00000000000E+00 0.  1.
<scales pt_clust_3="42.46989" pt_clust_4="58.19904" pt_clust_5="14000.00000" pt_clust_6="170.70767"></scales>
<clustering>
<clus scale="   42.470">  2  3  1 -1</clus>
<clus scale="   58.199">  1  4  2 -1</clus>
<clus scale="  170.708">  1  6  2 -1</clus>
<clus scale="   58.199">  1  3  2 -1</clus>
</clustering>
</event>
<event>
 6    0  0.5510638E+002  0.1605829E+03  0.7546771E-02  0.1188040E+00
         21   -1    0    0  502  501  0.00000000000E+00  0.00000000000E+00  0.42937315823E+03  0.42937315823E+03  0.00000000000E+00 0. -1.
         21   -1    0    0  504  502 -0.00000000000E+00 -0.00000000000E+00 -0.33253292138E+03  0.33253292138E+03  0.00000000000E+00 0. -1.
         21    1    1    2  503  501  0.33274298045E+02 -0.17346121365E+03  0.21725849624E+03  0.27999504592E+03  0.00000000000E+00 0. -1.
         21    1    1    2  504  506 -0.22947700170E+02  0.40442352065E+02 -0.30939326873E+02  0.55851792550E+02  0.00000000000E+00 0. -1.
         21    1    1    2  505  503 -0.85978157260E+02  0.12318266700E+03  0.12688693939E+03  0.19663801352E+03  0.00000000000E+00 0. -1.
         21    1    1    2  506  505  0.75651559385E+02  0.98361945825E+01 -0.21636587189E+03  0.22942122762E+03  0.00000000000E+00 0. -1.
<scales pt_clust_3="160.58286" pt_clust_4="46.49926" pt_clust_5="14000.00000" pt_clust_6="71.00405"></scales>
<clustering>
<clus scale="   46.499">  2  4  1 -1</clus>
<clus scale="   71.004">  2  6  1 -1</clus>
<clus scale="  160.583">  1  3  2 -1</clus>
<clus scale="  160.583">  1  3  2 -1</clus>
</clustering>
</event>
<event>
 6    0  0.5510638E+002  0.8781571E+02  0.7546771E-02  0.1308229E+00
         21   -1    0    0  505  501  0.00000000000E+00  0.00000000000E+00  0.40919828762E+03  0.40919828762E+03  0.00000000000E+00 0. -1.
         21   -1    0    0  503  502 -0.00000000000E+00 -0.00000000000E+00 -0.30972214643E+03  0.30972214643E+03  0.00000000000E+00 0. -1.
         21    1    1    2  503  506 -0.43208076890E+02 -0.44960489231E+02 -0.45108922523E+02  0.76962317998E+02  0.00000000000E+00 0. -1.
         21    1    1    2  504  502  0.22171597852E+01  0.49826199988E+02 -0.22495470377E+03  0.23041741417E+03  0.00000000000E+00 0. -1.
         21    1    1    2  505  504  0.81414826644E+02 -0.67641409389E+02  0.23311806358E+03  0.25602297910E+03  0.00000000000E+00 0. -1.
         21    1    1    2  506  501 -0.40423909539E+02  0.62775698633E+02  0.13642170391E+03  0.15551772279E+03  0.00000000000E+00 0. -1.
<scales pt_clust_3="42.30070" pt_clust_4="49.87551" pt_clust_5="87.81571" pt_clust_6="14000.00000"></scales>
<clustering>
<clus scale="   49.876">  2  4  1 -1</clus>
<clus scale="   42.301">  2  3  1 -1</clus>
<clus scale="   87.816">  2  5  1 -1</clus>
<clus scale="   87.816">  1  3  2 -1</clus>
</clustering>
</event>
<event>
 6    0  0.5510638E+002  0.7707649E+02  0.7546771E-02  0.1337559E+00
         21   -1    0    0  506  501  0.00000000000E+00  0.00000000000E+00  0.17398045860E+03  0.17398045860E+03  0.00000000000E+00 0. -1.
         21   -1    0    0  503  502 -0.00000000000E+00 -0.00000000000E+00 -0.47058763060E+03  0.47058763060E+03  0.00000000000E+00 0. -1.
         21    1    1    2  503  501  0.47940809590E+01  0.69876371870E+02  0.10119083022E+03  0.12306613945E+03  0.00000000000E+00 0. -1.
         21    1    1    2  504  505  0.20625655856E+02 -0.87879221560E+02 -0.24187086218E+03  0.25816601100E+03  0.00000000000E+00 0. -1.
         21    1    1    2  505  502 -0.38759842627E+02  0.57720018297E+02 -0.19439686143E+03  0.20645596539E+03  0.00000000000E+00 0. -1.
         21    1    1    2  506  504  0.13340105813E+02 -0.39717168607E+02  0.38469721395E+02  0.56879973360E+02  0.00000000000E+00 0. -1.
<scales pt_clust_3="38.40752" pt_clust_4="77.07649" pt_clust_5="14000.00000" pt_clust_6="41.89764"></scales>
<clustering>
<clus scale="   41.898">  1  6  2 -1</clus>
<clus scale="   38.408">  1  3  2 -1</clus>
<clus scale="   77.076">  1  4  2 -1</clus>
<clus scale="   41.898">  1  3  2 -1</clus>
</clustering>
</event>
<event>
 6    0  0.5510638E+002  0.1569943E+03  0.7546771E-02  0.1192133E+00
         21   -1    0    0  505  501  0.00000000000E+00  0.00000000000E+00  0.21706819838E+04  0.21706819838E+04  0.00000000000E+00 0.  1.
         21   -1    0    0  503  502 -0.00000000000E+00 -0.00000000000E+00 -0.16992469265E+03  0.16992469265E+03  0.00000000000E+00 0. -1.
         21    1    1    2  503  506  0.67747829086E+02 -0.73900026234E+02 -0.12037583145E+03  0.15665670436E+03  0.00000000000E+00 0. -1.
         21    1    1    2  504  502 -0.26217198749E+02  0.31867692565E+02  0.44038168844E+02  0.60351070039E+02  0.00000000000E+00 0.  1.
         21    1    1    2  505  504  0.11703111281E+03 -0.25357934244E+01  0.15387813252E+03  0.19334216115E+03  0.00000000000E+00 0. -1.
         21    1    1    2  506  501 -0.15856174314E+03  0.44568127094E+02  0.19232168213E+04  0.19302567410E+04  0.00000000000E+00 0.  1.
<scales pt_clust_3="64.99815" pt_clust_4="41.26610" pt_clust_5="14000.00000" pt_clust_6="156.99432"></scales>
<clustering>
<clus scale="   41.266">  2  4  1 -1</clus>
<clus scale="   64.998">  2  3  1 -1</clus>
<clus scale="  156.994">  1  6  2 -1</clus>
<clus scale="  156.994">  1  3  2 -1</clus>
</clustering>
</event>
<event>
 6    0  0.5510638E+002  0.6853910E+02  0.7546771E-02  0.1365133E+00
         21   -1    0    0  504  501  0.00000000000E+00  0.00000000000E+00  0.65542548177E+03  0.65542548177E+03  0.00000000000E+00 0.  1.
         21   -1    0    0  506  502 -0.00000000000E+00 -0.00000000000E+00 -0.22382673806E+03  0.22382673806E+03  0.00000000000E+00 0. -1.
         21    1    1    2  503  505  0.26953127395E+02 -0.50098070105E+02  0.50173424345E+02  0.75852885344E+02  0.00000000000E+00 0. -1.
         21    1    1    2  504  503  0.12569533148E+01  0.41089493373E+02  0.49306636533E+02  0.64195566852E+02  0.00000000000E+00 0.  1.
         21    1    1    2  505  502  0.16419451216E+02 -0.66368276528E+02 -0.19407650561E+03  0.20576694714E+03  0.00000000000E+00 0. -1.
         21    1    1    2  506  501 -0.44629531925E+02  0.75376853259E+02  0.52619518843E+03  0.53343682049E+03  0.00000000000E+00 0.  1.
<scales pt_clust_3="53.18654" pt_clust_4="41.10871" pt_clust_5="68.53910" pt_clust_6="14000.00000"></scales>
<clustering>
<clus scale="   41.109">  1  4  2 -1</clus>
<clus scale="   53.187">  1  3  2 -1</clus>
<clus scale="   68.539">  2  5  1 -1</clus>
<clus scale="   41.109">  1  3  2 -1</clus>
</clustering>
</event>
<event>
 6    0  0.5510638E+002  0.1108156E+03  0.7546771E-02  0.1259067E+00
         21   -1    0    0  504  501  0.00000000000E+00  0.00000000000E+00  0.45674383451E+03  0.45674383451E+03  0.00000000000E+00 0. -1.
         21   -1    0    0  506  502 -0.00000000000E+00 -0.00000000000E+00 -0.45044700468E+02  0.45044700468E+02  0.00000000000E+00 0. -1.
         21    1    1    2  503  501 -0.18092466964E+02 -0.47178409036E+02  0.79670659972E+02  0.94342745881E+02  0.00000000000E+00 0. -1.
         21    1    1    2  504  505 -0.41178339063E+02  0.76195068805E+02  0.19587628384E+03  0.21417017227E+03  0.00000000000E+00 0. -1.
         21    1    1    2  505  502  0.15550816575E+02  0.45433528528E+02  0.68168580099E+02  0.83384583248E+02  0.00000000000E+00 0. -1.
         21    1    1    2  506  503  0.43719989452E+02 -0.74450188297E+02  0.67983610131E+02  0.10989103358E+03  0.00000000000E+00 0. -1.
<scales pt_clust_3="50.52860" pt_clust_4="43.21882" pt_clust_5="43.21882" pt_clust_6="94.39934"></scales>
<clustering>
<clus scale="   43.219">  4  5 -1 -1</clus>
<clus scale="   50.529">  1  3  2 -1</clus>
<clus scale="   94.399">  2  6  1 -1</clus>
<clus scale="   50.529">  1  3  2 -1</clus>
</clustering>
</event>
<event>
 6    0  0.5510638E+002  0.1275475E+03  0.7546771E-02  0.1231141E+00
         21   -1    0    0  505  501  0.00000000000E+00  0.00000000000E+00  0.23543505637E+03  0.23543505637E+03  0.00000000000E+00 0. -1.
         21   -1    0    0  506  502 -0.00000000000E+00 -0.00000000000E+00 -0.22357997040E+04  0.22357997040E+04  0.00000000000E+00 0.  1.
         21    1    1    2  503  504 -0.72193598586E+02 -0.30214955106E+02  0.70646175129E+02  0.10543121572E+03  0.00000000000E+00 0. -1.
         21    1    1    2  504  501 -0.25442560033E+02 -0.55235456127E+02  0.13821798625E+03  0.15100493766E+03  0.00000000000E+00 0. -1.
         21    1    1    2  505  502  0.29452694512E+02 -0.80942093089E+01 -0.20867540874E+03  0.21089903663E+03  0.00000000000E+00 0. -1.
         21    1    1    2  506  503  0.68183464107E+02  0.93544620542E+02 -0.20005534003E+04  0.20038995704E+04  0.00000000000E+00 0.  1.
<scales pt_clust_3="127.54748" pt_clust_4="60.79787" pt_clust_5="30.54468" pt_clust_6="14000.00000"></scales>
<clustering>
<clus scale="   30.545">  2  5  1 -1</clus>
<clus scale="   60.798">  1  4  2 -1</clus>
<clus scale="  127.547">  1  3  2 -1</clus>
<clus scale="   60.798">  1  3  2 -1</clus>
</clustering>
</event>
<event>
 6    0  0.5510638E+002  0.1699603E+03  0.7546771E-02  0.1177889E+00
         21   -1    0    0  506  501  0.00000000000E+00  0.00000000000E+00  0.30397058604E+03  0.30397058604E+03  0.00000000000E+00 0.  1.
         21   -1    0    0  501  502 -0.00000000000E+00 -0.00000000000E+00 -0.42868452854E+03  0.42868452854E+03  0.00000000000E+00 0.  1.
         21    1    1    2  503  502 -0.53526142761E+02  0.45062499117E+02 -0.14729569025E+03  0.16306960830E+03  0.00000000000E+00 0. -1.
         21    1    1    2  504  505 -0.36467359156E+02 -0.18370750993E+03  0.88349131620E+02  0.20708424988E+03  0.00000000000E+00 0.  1.
         21    1    1    2  505  503  0.12749667520E+03  0.10978826704E+03 -0.17542485918E+03  0.24306942832E+03  0.00000000000E+00 0.  1.
         21    1    1    2  506  504 -0.37503173278E+02  0.28856743775E+02  0.10965747531E+03  0.11943182808E+03  0.00000000000E+00 0. -1.
<scales pt_clust_3="71.93749" pt_clust_4="14000.00000" pt_clust_5="169.96034" pt_clust_6="47.32018"></scales>
<clustering>
<clus scale="   47.320">  1  6  2 -1</clus>
<clus scale="   71.937">  2  3  1 -1</clus>
<clus scale="  169.960">  2  5  1 -1</clus>
<clus scale="   47.320">  1  3  2 -1</clus>
</clustering>
</event>
<event>
 6    0  0.5510638E+002  0.7837144E+02  0.7546771E-02  0.1333738E+00
         21   -1    0    0  504  501  0.00000000000E+00  0.00000000000E+00  0.90784465313E+02  0.90784465313E+02  0.00000000000E+00 0.  1.
         21   -1    0    0  505  502 -0.00000000000E+00 -0.00000000000E+00 -0.46139070840E+03  0.46139070840E+03  0.00000000000E+00 0.  1.
         21    1    1    2  503  502 -0.44197591986E+02  0.58355119102E+02 -0.24281299948E+03  0.25360776759E+03  0.00000000000E+00 0.  1.
         21    1    1    2  504  503  0.86500551886E+00  0.34766142063E+02  0.35973282371E+02  0.50035086819E+02  0.00000000000E+00 0.  1.
         21    1    1    2  505  506  0.20543055608E+01 -0.10632041065E+03 -0.17407480551E+03  0.20398599904E+03  0.00000000000E+00 0.  1.
         21    1    1    2  506  501  0.41278280907E+02  0.13199149488E+02  0.10308279536E+02  0.44546320261E+02  0.00000000000E+00 0.  1.
<scales pt_clust_3="78.37144" pt_clust_4="34.77690" pt_clust_5="14000.00000" pt_clust_6="53.33341"></scales>
<clustering>
<clus scale="   34.777">  1  4  2 -1</clus>
<clus scale="   53.333">  1  6  2 -1</clus>
<clus scale="   78.371">  2  3  1 -1</clus>
<clus scale="   34.777">  1  3  2 -1</clus>
</clustering>
</event>
<event>
 6    0  0.5510638E+002  0.1016081E+03  0.7546771E-02  0.1276950E+00
         21   -1    0    0  504  501  0.00000000000E+00  0.00000000000E+00  0.64056627810E+03  0.64056627810E+03  0.00000000000E+00 0.  1.
         21   -1    0    0  503  502 -0.00000000000E+00 -0.00000000000E+00 -0.45730068233E+03  0.45730068233E+03  0.00000000000E+00 0. -1.
         21    1    1    2  503  506  0.31638547323E+02 -0.48356065325E+00 -0.33910861808E+03  0.34058168824E+03  0.00000000000E+00 0. -1.
         21    1    1    2  504  505 -0.99862854199E+01  0.11165833814E+03  0.48172000838E+03  0.49459223290E+03  0.00000000000E+00 0.  1.
         21    1    1    2  505  502  0.60750538246E+02 -0.66475553939E+02  0.11284448758E+03  0.14437280058E+03  0.00000000000E+00 0.  1.
         21    1    1    2  506  501 -0.82402800148E+02 -0.44699223544E+02 -0.72190282122E+02  0.11832023872E+03  0.00000000000E+00 0.  1.
<scales pt_clust_3="31.64224" pt_clust_4="101.60808" pt_clust_5="14000.00000" pt_clust_6="72.47857"></scales>
<clustering>
<clus scale="   31.642">  2  3  1 -1</clus>
<clus scale="   72.479">  2  6  1 -1</clus>
<clus scale="  101.608">  1  4  2 -1</clus>
<clus scale="  101.608">  1  3  2 -1</clus>
</clustering>
</event>
<event>
 6    0  0.5510638E+002  0.7833317E+02  0.7546771E-02  0.1333849E+00
         21   -1    0    0  503  501  0.00000000000E+00  0.00000000000E+00  0.39762694995E+03  0.39762694995E+03  0.00000000000E+00 0. -1.
         21   -1    0    0  506  502 -0.00000000000E+00 -0.00000000000E+00 -0.61996064930E+03  0.61996064930E+03  0.00000000000E+00 0.  1.
         21    1    1    2  503  504  0.88865419684E+01 -0.65198188520E+02  0.23318989385E+01  0.65842328081E+02  0.00000000000E+00 0. -1.
         21    1    1    2  504  502  0.95006733765E+02  0.70001295459E+02 -0.52817005997E+03  0.54119319385E+03  0.00000000000E+00 0.  1.
         21    1    1    2  505  501 -0.61069616199E+02 -0.38464571332E+01  0.34531504294E+03  0.35069469933E+03  0.00000000000E+00 0. -1.
         21    1    1    2  506  505 -0.42823659534E+02 -0.95664980578E+00 -0.41810581262E+02  0.59857377993E+02  0.00000000000E+00 0. -1.
<scales pt_clust_3="14000.00000" pt_clust_4="78.33317" pt_clust_5="61.39291" pt_clust_6="42.83434"></scales>
<clustering>
<clus scale="   42.834">  2  6  1 -1</clus>
<clus scale="   61.393">  1  5  2 -1</clus>
<clus scale="   78.333">  2  4  1 -1</clus>
<clus scale="   61.393">  1  3  2 -1</clus>
</clustering>
</event>
<event>
 6    0  0.5510638E+002  0.5078514E+02  0.7546771E-02  0.1441152E+00
         21   -1    0    0  503  501  0.00000000000E+00  0.00000000000E+00  0.12939953611E+04  0.12939953611E+04  0.00000000000E+00 0.  1.
         21   -1    0    0  505  502 -0.00000000000E+00 -0.00000000000E+00 -0.73027315931E+02  0.73027315931E+02  0.00000000000E+00 0.  1.
         21    1    1    2  503  506  0.25618659640E+02 -0.39598601022E+02  0.44865620871E+03  0.45112831715E+03  0.00000000000E+00 0.  1.
         21    1    1    2  504  502 -0.75338776957E+01 -0.81034924877E+02  0.59699715874E+02  0.10093301956E+03  0.00000000000E+00 0.  1.
         21    1    1    2  505  501 -0.51844465925E+01  0.39188477504E+02 -0.40940761227E+02  0.56910114966E+02  0.00000000000E+00 0.  1.
         21    1    1    2  506  504 -0.12900335352E+02  0.81445048395E+02  0.75355288178E+03  0.75805122532E+03  0.00000000000E+00 0.  1.
<scales pt_clust_3="45.33965" pt_clust_4="14000.00000" pt_clust_5="39.52993" pt_clust_6="50.78514"></scales>
<clustering>
<clus scale="   39.530">  2  5  1 -1</clus>
<clus scale="   45.340">  1  3  2 -1</clus>
<clus scale="   50.785">  1  6  2 -1</clus>
<clus scale="   45.340">  1  3  2 -1</clus>
</clustering>
</event>
<event>
 6    0  0.5510638E+002  0.1128176E+03  0.7546771E-02  0.1255439E+00
         21   -1    0    0  503  501  0.00000000000E+00  0.00000000000E+00  0.41563274862E+03  0.41563274862E+03  0.00000000000E+00 0. -1.
         21   -1    0    0  506  502 -0.00000000000E+00 -0.00000000000E+00 -0.22661933545E+03  0.22661933545E+03  0.00000000000E+00 0. -1.
         21    1    1    2  503  504  0.12961535531E+02  0.48513986192E+02  0.21852553568E+03  0.22422091340E+03  0.00000000000E+00 0. -1.
         21    1    1    2  504  505 -0.11880020005E+03 -0.13358472598E+03  0.67492556891E+01  0.17889639180E+03  0.00000000000E+00 0. -1.
         21    1    1    2  505  502  0.61042878654E+02  0.27705541876E+02 -0.11424663388E+03  0.13246178104E+03  0.00000000000E+00 0. -1.
         21    1    1    2  506  501  0.44795785868E+02  0.57365197909E+02  0.77985255683E+02  0.10667299783E+03  0.00000000000E+00 0. -1.
<scales pt_clust_3="50.21562" pt_clust_4="112.81759" pt_clust_5="68.55359" pt_clust_6="14000.00000"></scales>
<clustering>
<clus scale="   50.216">  1  3  2 -1</clus>
<clus scale="   68.554">  2  5  1 -1</clus>
<clus scale="  112.818">  2  4  1 -1</clus>
<clus scale="   50.216">  1  3  2 -1</clus>
</clustering>
</event>
<event>
 6    0  0.5510638E+002  0.2284370E+03  0.7546771E-02  0.1127745E+00
         21   -1    0    0  504  501  0.00000000000E+00  0.00000000000E+00  0.34083092510E+03  0.34083092510E+03  0.00000000000E+00 0. -1.
         21   -1    0    0  505  502 -0.00000000000E+00 -0.00000000000E+00 -0.53018460319E+03  0.53018460319E+03  0.00000000000E+00 0.  1.
         21    1    1    2  503  501  0.15871185158E+03  0.18707190204E+03  0.17785327210E+03  0.30301342340E+03  0.00000000000E+00 0. -1.
         21    1    1    2  504  502 -0.37464975606E+02 -0.18578502346E+03 -0.17488108978E+03  0.25788193985E+03  0.00000000000E+00 0.  1.
         21    1    1    2  505  506  0.85517498288E+00 -0.38486528430E+02 -0.17749135369E+03  0.18161807407E+03  0.00000000000E+00 0.  1.
         21    1    1    2  506  503 -0.12210205095E+03  0.37199649849E+02 -0.14834506719E+02  0.12850209098E+03  0.00000000000E+00 0.  1.
<scales pt_clust_3="14000.00000" pt_clust_4="228.43696" pt_clust_5="38.49603" pt_clust_6="125.40607"></scales>
<clustering>
<clus scale="   38.496">  2  5  1 -1</clus>
<clus scale="  125.406">  2  6  1 -1</clus>
<clus scale="  228.437">  2  4  1 -1</clus>
<clus scale="  228.437">  1  3  2 -1</clus>
</clustering>
</event>
<event>
 6    0  0.5510638E+002  0.7913004E+02  0.7546771E-02  0.1331539E+00
         21   -1    0    0  503  501  0.00000000000E+00  0.00000000000E+00  0.53657682976E+02  0.53657682976E+02  0.00000000000E+00 0.  1.
         21   -1    0    0  504  502 -0.00000000000E+00 -0.00000000000E+00 -0.41555769949E+03  0.41555769949E+03  0.00000000000E+00 0.  1.
         21    1    1    2  503  506  0.15217108199E+02 -0.51702820990E+02 -0.48778638609E+01  0.54115946228E+02  0.00000000000E+00 0.  1.
         21    1    1    2  504  501 -0.34002511741E+01 -0.41510830185E+02 -0.50237423877E+02  0.65257256213E+02  0.00000000000E+00 0. -1.
         21    1    1    2  505  502  0.59115023359E+02  0.12666950638E+02 -0.12172562382E+03  0.13591234351E+03  0.00000000000E+00 0.  1.
         21    1    1    2  506  505 -0.70931880385E+02  0.80546700537E+02 -0.18505910496E+03  0.21392983652E+03  0.00000000000E+00 0.  1.
<scales pt_clust_3="79.13004" pt_clust_4="41.64986" pt_clust_5="58.92863" pt_clust_6="14000.00000"></scales>
<clustering>
<clus scale="   41.650">  1  4  2 -1</clus>
<clus scale="   58.929">  2  5  1 -1</clus>
<clus scale="   79.130">  1  3  2 -1</clus>
<clus scale="   41.650">  1  3  2 -1</clus>
</clustering>
</event>
<event>
 6    0  0.5510638E+002  0.7549565E+02  0.7546771E-02  0.1342343E+00
         21   -1    0    0  503  501  0.00000000000E+00  0.00000000000E+00  0.11516021598E+03  0.11516021598E+03  0.00000000000E+00 0. -1.
         21   -1    0    0  506  502 -0.00000000000E+00 -0.00000000000E+00 -0.18176746476E+04  0.18176746476E+04  0.00000000000E+00 0.  1.
         21    1    1    2  503  502  0.77643358038E+02 -0.47506189773E+01 -0.11861172090E+04  0.11886652568E+04  0.00000000000E+00 0.  1.
         21    1    1    2  504  505 -0.44602447901E+02 -0.52908403146E+02 -0.64914851488E+01  0.69504078022E+02  0.00000000000E+00 0. -1.
         21    1    1    2  505  501 -0.76176325273E+01  0.87977669579E+02  0.57826816397E+02  0.10555585898E+03  0.00000000000E+00 0. -1.
         21    1    1    2  506  504 -0.25423277609E+02 -0.30318647456E+02 -0.56773255395E+03  0.56910966979E+03  0.00000000000E+00 0. -1.
<scales pt_clust_3="63.14119" pt_clust_4="75.49565" pt_clust_5="14000.00000" pt_clust_6="39.56720"></scales>
<clustering>
<clus scale="   39.567">  2  6  1 -1</clus>
<clus scale="   63.141">  2  3  1 -1</clus>
<clus scale="   75.496">  2  4  1 -1</clus>
<clus scale="   75.496">  1  3  2 -1</clus>
</clustering>
</event>
<event>
 6    0  0.5510638E+002  0.1560140E+03  0.7546771E-02  0.1193272E+00
         21   -1    0    0  504  501  0.00000000000E+00  0.00000000000E+00  0.89398214585E+03  0.89398214585E+03  0.00000000000E+00 0. -1.
         21   -1    0    0  505  502 -0.00000000000E+00 -0.00000000000E+00 -0.22831428697E+03  0.22831428697E+03  0.00000000000E+00 0.  1.
         21    1    1    2  503  502  0.85760529156E+02  0.20859317459E+03 -0.79391277406E+02  0.23910030484E+03  0.00000000000E+00 0.  1.
         21    1    1    2  504  506 -0.35658274438E+02 -0.23600236276E+02  0.26748619464E+03  0.27088253544E+03  0.00000000000E+00 0. -1.
         21    1    1    2  505  501 -0.46471156209E+02 -0.57781911809E+02 -0.36553208806E+02  0.82670761250E+02  0.00000000000E+00 0.  1.
         21    1    1    2  506  503 -0.36310985095E+01 -0.12721102651E+03  0.51412615046E+03  0.52964283128E+03  0.00000000000E+00 0. -1.
<scales pt_clust_3="156.01404" pt_clust_4="42.76077" pt_clust_5="75.65564" pt_clust_6="14000.00000"></scales>
<clustering>
<clus scale="   42.761">  1  4  2 -1</clus>
<clus scale="   75.656">  2  5  1 -1</clus>
<clus scale="  156.014">  2  3  1 -1</clus>
<clus scale="   42.761">  1  3  2 -1</clus>
</clustering>
</event>
<event>
 6    0  0.5510638E+002  0.1060474E+03  0.7546771E-02  0.1268070E+00
         21   -1    0    0  504  501  0.00000000000E+00  0.00000000000E+00  0.15697934256E+04  0.15697934256E+04  0.00000000000E+00 0.  1.
         21   -1    0    0  505  502 -0.00000000000E+00 -0.00000000000E+00 -0.52476945725E+02  0.52476945725E+02  0.00000000000E+00 0.  1.
         21    1    1    2  503  506 -0.66354263551E+02 -0.13223086571E+02  0.63793771472E+03  0.64151560088E+03  0.00000000000E+00 0.  1.
         21    1    1    2  504  502  0.33197546954E+02  0.79136846504E+02  0.20744537212E+03  0.22449565700E+03  0.00000000000E+00 0.  1.
         21    1    1    2  505  503  0.64558471741E+02 -0.79429020927E+02  0.21074638909E+02  0.10450313892E+03  0.00000000000E+00 0.  1.
         21    1    1    2  506  501 -0.31401755143E+02  0.13515260994E+02  0.65085875412E+03  0.65175597451E+03  0.00000000000E+00 0.  1.
<scales pt_clust_3="31.77901" pt_clust_4="85.81793" pt_clust_5="96.16308" pt_clust_6="31.77901"></scales>
<clustering>
<clus scale="   31.779">  3  6 -1 -1</clus>
<clus scale="   85.818">  2  4  1 -1</clus>
<clus scale="   96.163">  2  5  1 -1</clus>
<clus scale="  106.047">  1  3  2 -1</clus>
</clustering>
</event>
<event>
 6    0  0.5510638E+002  0.9748365E+02  0.7546771E-02  0.1285678E+00
         21   -1    0    0  504  501  0.00000000000E+00  0.00000000000E+00  0.81404111561E+03  0.81404111561E+03  0.00000000000E+00 0.  1.
         21   -1    0    0  506  502 -0.00000000000E+00 -0.00000000000E+00 -0.46619487986E+03  0.46619487986E+03  0.00000000000E+00 0. -1.
         21    1    1    2  503  501 -0.50186559368E+01  0.33073932313E+02  0.33408577784E+03  0.33575642787E+03  0.00000000000E+00 0.  1.
         21    1    1    2  504  502  0.55204576633E+02  0.20280760653E+02  0.44432432042E+03  0.44819968345E+03  0.00000000000E+00 0.  1.
         21    1    1    2  505  503 -0.12905288216E+03 -0.38787828440E+01 -0.13675717310E+03  0.18807502691E+03  0.00000000000E+00 0. -1.
         21    1    1    2  506  505  0.78866961467E+02 -0.49475910122E+02 -0.29380668940E+03  0.30820485724E+03  0.00000000000E+00 0. -1.
<scales pt_clust_3="33.45253" pt_clust_4="71.85485" pt_clust_5="97.48365" pt_clust_6="14000.00000"></scales>
<clustering>
<clus scale="   33.453">  1  3  2 -1</clus>
<clus scale="   71.855">  1  4  2 -1</clus>
<clus scale="   97.484">  1  5  2 -1</clus>
<clus scale="   33.453">  1  3  2 -1</clus>
</clustering>
</event>
<event>
 6    0  0.5510638E+002  0.1330214E+03  0.7546771E-02  0.1223040E+00
         21   -1    0    0  502  501  0.00000000000E+00  0.00000000000E+00  0.26078471867E+03  0.26078471867E+03  0.00000000000E+00 0. -1.
         21   -1    0    0  506  502 -0.00000000000E+00 -0.00000000000E+00 -0.38685087232E+03  0.38685087232E+03  0.00000000000E+00 0. -1.
         21    1    1    2  503  501  0.16724722907E+02 -0.28371644510E+02  0.22037112062E+02  0.39627022050E+02  0.00000000000E+00 0. -1.
         21    1    1    2  504  505 -0.36658214880E+02  0.86224309326E+02  0.74701991226E+02  0.11982839284E+03  0.00000000000E+00 0. -1.
         21    1    1    2  505  503 -0.24395788135E+02  0.54979229492E+02  0.11472691987E+03  0.12953816541E+03  0.00000000000E+00 0. -1.
         21    1    1    2  506  504  0.44329280108E+02 -0.11283189431E+03 -0.33753217681E+03  0.35864201069E+03  0.00000000000E+00 0. -1.
<scales pt_clust_3="32.93428" pt_clust_4="37.57303" pt_clust_5="37.57303" pt_clust_6="122.72059"></scales>
<clustering>
<clus scale="   32.934">  1  3  2 -1</clus>
<clus scale="   37.573">  4  5 -1 -1</clus>
<clus scale="  122.721">  2  6  1 -1</clus>
<clus scale="   32.934">  1  3  2 -1</clus>
</clustering>
</event>
<event>
 6    0  0.5510638E+002  0.8429218E+02  0.7546771E-02  0.1317294E+00
         21   -1    0    0  503  501  0.00000000000E+00  0.00000000000E+00  0.14570041273E+04  0.14570041273E+04  0.00000000000E+00 0. -1.
         21   -1    0    0  505  502 -0.00000000000E+00 -0.00000000000E+00 -0.12545859886E+03  0.12545859886E+03  0.00000000000E+00 0. -1.
         21    1    1    2  503  506  0.38522108599E+02  0.80745019946E+02  0.62790237205E+03  0.63424372281E+03  0.00000000000E+00 0. -1.
         21    1    1    2  504  501 -0.36888730057E+02  0.14593173834E+02  0.69149421034E+03  0.69263120205E+03  0.00000000000E+00 0. -1.
         21    1    1    2  505  504 -0.66768595755E+02 -0.38175065213E+02 -0.92120364799E+02  0.12000642730E+03  0.00000000000E+00 0. -1.
         21    1    1    2  506  502  0.65135217213E+02 -0.57163128567E+02  0.10426931088E+03  0.13558137401E+03  0.00000000000E+00 0. -1.
<scales pt_clust_3="84.29218" pt_clust_4="39.67038" pt_clust_5="77.36526" pt_clust_6="14000.00000"></scales>
<clustering>
<clus scale="   39.670">  1  4  2 -1</clus>
<clus scale="   77.365">  2  5  1 -1</clus>
<clus scale="   84.292">  1  3  2 -1</clus>
<clus scale="   39.670">  1  3  2 -1</clus>
</clustering>
</event>
<event>
 6    0  0.5510638E+002  0.1019814E+03  0.7546771E-02  0.1276184E+00
         21   -1    0    0  503  501  0.00000000000E+00  0.00000000000E+00  0.52543839887E+03  0.52543839887E+03  0.00000000000E+00 0.  1.
         21   -1    0    0  506  502 -0.00000000000E+00 -0.00000000000E+00 -0.96606956398E+02  0.96606956398E+02  0.00000000000E+00 0.  1.
         21    1    1    2  503  502  0.14207125476E+03  0.48051557801E+02  0.84282928040E+02  0.17203722154E+03  0.00000000000E+00 0.  1.
         21    1    1    2  504  505 -0.41395226567E+02 -0.75226386714E+01  0.83925459028E+02  0.93880975433E+02  0.00000000000E+00 0.  1.
         21    1    1    2  505  501 -0.13120541830E+02 -0.36242594926E+02  0.26554588078E+03  0.26832869602E+03  0.00000000000E+00 0.  1.
         21    1    1    2  506  504 -0.87555486365E+02 -0.42863242042E+01 -0.49228253823E+01  0.87798462274E+02  0.00000000000E+00 0.  1.
<scales pt_clust_3="14000.00000" pt_clust_4="50.06990" pt_clust_5="38.54445" pt_clust_6="101.98144"></scales>
<clustering>
<clus scale="   38.544">  1  5  2 -1</clus>
<clus scale="   50.070">  1  4  2 -1</clus>
<clus scale="  101.981">  2  6  1 -1</clus>
<clus scale="   38.544">  1  3  2 -1</clus>
</clustering>
</event>
<event>
 6    0  0.5510638E+002  0.1009512E+03  0.7546771E-02  0.1278308E+00
         21   -1    0    0  503  501  0.00000000000E+00  0.00000000000E+00  0.10237730792E+04  0.10237730792E+04  0.00000000000E+00 0.  1.
         21   -1    0    0  505  502 -0.00000000000E+00 -0.00000000000E+00 -0.10806117897E+03  0.10806117897E+03  0.00000000000E+00 0.  1.
         21    1    1    2  503  504  0.10579605387E+02 -0.85064626613E+02  0.71641619417E+03  0.72152621713E+03  0.00000000000E+00 0.  1.
         21    1    1    2  504  502 -0.19934803659E+02 -0.62854887277E+02  0.55435551411E+02  0.86146582125E+02  0.00000000000E+00 0.  1.
         21    1    1    2  505  506 -0.60858513448E+02  0.12648264974E+03 -0.22657081027E+02  0.14217933277E+03  0.00000000000E+00 0.  1.
         21    1    1    2  506  501  0.70213711720E+02  0.21436864147E+02  0.16651723572E+03  0.18198212619E+03  0.00000000000E+00 0.  1.
<scales pt_clust_3="100.95119" pt_clust_4="65.94038" pt_clust_5="14000.00000" pt_clust_6="70.43784"></scales>
<clustering>
<clus scale="   65.940">  2  4  1 -1</clus>
<clus scale="   70.438">  1  6  2 -1</clus>
<clus scale="  100.951">  1  3  2 -1</clus>
<clus scale="   70.438">  1  3  2 -1</clus>
</clustering>
</event>
<event>
 6    0  0.5510638E+002  0.1861249E+03  0.7546771E-02  0.1162004E+00
         21   -1    0    0  504  501  0.00000000000E+00  0.00000000000E+00  0.98249562073E+02  0.98249562073E+02  0.00000000000E+00 0. -1.
         21   -1    0    0  505  502 -0.00000000000E+00 -0.00000000000E+00 -0.72151235852E+03  0.72151235852E+03  0.00000000000E+00 0. -1.
         21    1    1    2  503  502 -0.40843146660E+02  0.20352783420E+02 -0.95839645937E+02  0.10614912225E+03  0.00000000000E+00 0.  1.
         21    1    1    2  504  503 -0.14254328352E+03  0.10068123958E+03 -0.73831944669E+02  0.18948998848E+03  0.00000000000E+00 0. -1.
         21    1    1    2  505  506  0.21411242236E+02  0.28104626631E+02 -0.11443417999E+03  0.11976432224E+03  0.00000000000E+00 0. -1.
         21    1    1    2  506  501  0.16197518795E+03 -0.14913864963E+03 -0.33915702585E+03  0.40435848762E+03  0.00000000000E+00 0. -1.
<scales pt_clust_3="44.90169" pt_clust_4="14000.00000" pt_clust_5="35.33145" pt_clust_6="186.12494"></scales>
<clustering>
<clus scale="   35.331">  2  5  1 -1</clus>
<clus scale="   44.902">  2  3  1 -1</clus>
<clus scale="  186.125">  2  6  1 -1</clus>
<clus scale="  186.125">  1  3  2 -1</clus>
</clustering>
</event>
<event>
 6    0  0.5510638E+002  0.1137892E+03  0.7546771E-02  0.1253710E+00
         21   -1    0    0  504  501  0.00000000000E+00  0.00000000000E+00  0.40989200416E+03  0.40989200416E+03  0.00000000000E+00 0.  1.
         21   -1    0    0  505  502 -0.00000000000E+00 -0.00000000000E+00 -0.86825186252E+02  0.86825186252E+02  0.00000000000E+00 0.  1.
         21    1    1    2  503  502 -0.11361602486E+02 -0.32302605135E+02  0.35649398896E+02  0.49431001924E+02  0.00000000000E+00 0.  1.
         21    1    1    2  504  503 -0.40715319188E+02 -0.41039449013E+02  0.63751042712E+01  0.58160257448E+02  0.00000000000E+00 0.  1.
         21    1    1    2  505  506  0.15021786958E+03  0.37012193439E+02  0.11465337700E+03  0.19256351592E+03  0.00000000000E+00 0.  1.
         21    1    1    2  506  501 -0.98140947909E+02  0.36329860709E+02  0.16638893774E+03  0.19656241512E+03  0.00000000000E+00 0.  1.
<scales pt_clust_3="31.90721" pt_clust_4="99.04454" pt_clust_5="113.78917" pt_clust_6="14000.00000"></scales>
<clustering>
<clus scale="   31.907">  3  4 -1 -1</clus>
<clus scale="   99.045">  2  3  1 -1</clus>
<clus scale="  113.789">  2  5  1 -1</clus>
<clus scale="  113.789">  1  3  2 -1</clus>
</clustering>
</event>
<event>
 6    0  0.5510638E+002  0.1180537E+03  0.7546771E-02  0.1246343E+00
         21   -1    0    0  504  501  0.00000000000E+00  0.00000000000E+00  0.35505944129E+03  0.35505944129E+03  0.00000000000E+00 0. -1.
         21   -1    0    0  506  502 -0.00000000000E+00 -0.00000000000E+00 -0.24945014540E+04  0.24945014540E+04  0.00000000000E+00 0.  1.
         21    1    1    2  503  502 -0.42677600161E+02 -0.31554277171E+02 -0.23441090948E+04  0.23447098964E+04  0.00000000000E+00 0.  1.
         21    1    1    2  504  505  0.12157479530E+03  0.11695694019E+01  0.19871639168E+03  0.23295923048E+03  0.00000000000E+00 0. -1.
         21    1    1    2  505  503 -0.70399902335E+02  0.81842375773E+02 -0.10418617974E+03  0.15003026618E+03  0.00000000000E+00 0.  1.
         21    1    1    2  506  501 -0.84972927991E+01 -0.51457668004E+02  0.11013687010E+03  0.12186150227E+03  0.00000000000E+00 0. -1.
<scales pt_clust_3="53.12294" pt_clust_4="14000.00000" pt_clust_5="118.05368" pt_clust_6="52.15454"></scales>
<clustering>
<clus scale="   52.155">  1  6  2 -1</clus>
<clus scale="   53.123">  2  3  1 -1</clus>
<clus scale="  118.054">  2  5  1 -1</clus>
<clus scale="   52.155">  1  3  2 -1</clus>
</clustering>
</event>
<event>
 6    0  0.5510638E+002  0.1304454E+03  0.7546771E-02  0.1226796E+00
         21   -1    0    0  504  501  0.00000000000E+00  0.00000000000E+00  0.21220186156E+03  0.21220186156E+03  0.00000000000E+00 0. -1.
         21   -1    0    0  503  502 -0.00000000000E+00 -0.00000000000E+00 -0.17928026378E+03  0.17928026378E+03  0.00000000000E+00 0. -1.
         21    1    1    2  503  501  0.43343268244E+02 -0.83484489622E+02  0.13819966742E+03  0.16717489938E+03  0.00000000000E+00 0. -1.
         21    1    1    2  504  505  0.36369576234E+02 -0.10686579790E+02  0.17489023416E+02  0.41747035860E+02  0.00000000000E+00 0. -1.
         21    1    1    2  505  506 -0.45722112178E+02  0.45065131968E+02 -0.26886608671E+02  0.69600771455E+02  0.00000000000E+00 0. -1.
         21    1    1    2  506  502 -0.33990732300E+02  0.49105937445E+02 -0.95880484378E+02  0.11295941864E+03  0.00000000000E+00 0. -1.
<scales pt_clust_3="118.24497" pt_clust_4="37.90711" pt_clust_5="54.17471" pt_clust_6="54.17471"></scales>
<clustering>
<clus scale="   37.907">  1  4  2 -1</clus>
<clus scale="   54.175">  5  6 -1 -1</clus>
<clus scale="  118.245">  1  3  2 -1</clus>
<clus scale="   37.907">  1  3  2 -1</clus>
</clustering>
</event>
<event>
 6    0  0.5510638E+002  0.1100741E+03  0.7546771E-02  0.1260433E+00
         21   -1    0    0  505  501  0.00000000000E+00  0.00000000000E+00  0.57134527275E+02  0.57134527275E+02  0.00000000000E+00 0.  1.
         21   -1    0    0  503  502 -0.00000000000E+00 -0.00000000000E+00 -0.42638971611E+03  0.42638971611E+03  0.00000000000E+00 0.  1.
         21    1    1    2  503  504  0.35825483831E+02 -0.16890785408E+02  0.56488929075E+01  0.40008423045E+02  0.00000000000E+00 0.  1.
         21    1    1    2  504  501  0.58344028623E+02  0.62709141773E+01 -0.37425433236E+02  0.69598944629E+02  0.00000000000E+00 0.  1.
         21    1    1    2  505  506 -0.11801156645E+03  0.38618458662E+02 -0.25605470230E+03  0.28457358580E+03  0.00000000000E+00 0.  1.
         21    1    1    2  506  502  0.23842053991E+02 -0.27998587431E+02 -0.81423946213E+02  0.89343289919E+02  0.00000000000E+00 0.  1.
<scales pt_clust_3="36.68008" pt_clust_4="36.68008" pt_clust_5="100.46369" pt_clust_6="36.77451"></scales>
<clustering>
<clus scale="   36.775">  2  6  1 -1</clus>
<clus scale="   36.680">  3  4 -1 -1</clus>
<clus scale="  100.464">  2  5  1 -1</clus>
<clus scale="  110.074">  1  3  2 -1</clus>
</clustering>
</event>
<event>
 6    0  0.5510638E+002  0.7414329E+02  0.7546771E-02  0.1346545E+00
         21   -1    0    0  503  501  0.00000000000E+00  0.00000000000E+00  0.37590681964E+03  0.37590681964E+03  0.00000000000E+00 0. -1.
         21   -1    0    0  501  502 -0.00000000000E+00 -0.00000000000E+00 -0.13375647009E+04  0.13375647009E+04  0.00000000000E+00 0.  1.
         21    1    1    2  503  506 -0.37813565086E+02 -0.29172591318E+01  0.15013678616E+03  0.15485293237E+03  0.00000000000E+00 0. -1.
         21    1    1    2  504  502 -0.50235388445E+02  0.52528891579E+02 -0.12286511083E+04  0.12307991000E+04  0.00000000000E+00 0.  1.
         21    1    1    2  505  504  0.11026984357E+03 -0.94102209838E+02 -0.50283737164E+02  0.15343766982E+03  0.00000000000E+00 0.  1.
         21    1    1    2  506  505 -0.22220890038E+02  0.44490577390E+02  0.16714017807E+03  0.17438181831E+03  0.00000000000E+00 0. -1.
<scales pt_clust_3="37.92593" pt_clust_4="14000.00000" pt_clust_5="74.14329" pt_clust_6="66.32903"></scales>
<clustering>
<clus scale="   37.926">  1  3  2 -1</clus>
<clus scale="   66.329">  1  6  2 -1</clus>
<clus scale="   74.143">  1  5  2 -1</clus>
<clus scale="   37.926">  1  3  2 -1</clus>
</clustering>
</event>
<event>
 6    0  0.5510638E+002  0.8228377E+02  0.7546771E-02  0.1322693E+00
         21   -1    0    0  504  501  0.00000000000E+00  0.00000000000E+00  0.75228628926E+03  0.75228628926E+03  0.00000000000E+00 0.  1.
         21   -1    0    0  505  502 -0.00000000000E+00 -0.00000000000E+00 -0.17282231806E+03  0.17282231806E+03  0.00000000000E+00 0.  1.
         21    1    1    2  503  501 -0.15404811814E+02  0.45793223414E+02  0.51437681945E+03  0.51664091971E+03  0.00000000000E+00 0.  1.
         21    1    1    2  504  502 -0.59859082107E+02 -0.12856110527E+03  0.69681012091E+02  0.15800794583E+03  0.00000000000E+00 0.  1.
         21    1    1    2  505  506  0.57585497495E+02  0.36567367799E+02 -0.11260750184E+03  0.13165755345E+03  0.00000000000E+00 0.  1.
         21    1    1    2  506  503  0.17678396426E+02  0.46200514058E+02  0.10801364151E+03  0.11880218832E+03  0.00000000000E+00 0.  1.
<scales pt_clust_3="48.31488" pt_clust_4="14000.00000" pt_clust_5="68.70512" pt_clust_6="82.28377"></scales>
<clustering>
<clus scale="   48.315">  1  3  2 -1</clus>
<clus scale="   68.705">  2  5  1 -1</clus>
<clus scale="   82.284">  1  6  2 -1</clus>
<clus scale="   48.315">  1  3  2 -1</clus>
</clustering>
</event>
<event>
 6    0  0.5510638E+002  0.1184949E+03  0.7546771E-02  0.1245601E+00
         21   -1    0    0  506  501  0.00000000000E+00  0.00000000000E+00  0.44687344101E+02  0.44687344101E+02  0.00000000000E+00 0. -1.
         21   -1    0    0  505  502 -0.00000000000E+00 -0.00000000000E+00 -0.68798190375E+03  0.68798190375E+03  0.00000000000E+00 0. -1.
         21    1    1    2  503  502  0.64257321165E+02  0.10046787748E+03 -0.31714088289E+03  0.33882316528E+03  0.00000000000E+00 0. -1.
         21    1    1    2  504  503 -0.52107862874E+02 -0.31207861342E+02 -0.80381235118E+02  0.10074871186E+03  0.00000000000E+00 0. -1.
         21    1    1    2  505  501  0.38973267568E+02 -0.59188693474E+02 -0.22685113437E+03  0.23766290031E+03  0.00000000000E+00 0. -1.
         21    1    1    2  506  504 -0.51122725860E+02 -0.10071322666E+02 -0.18921307276E+02  0.55434470401E+02  0.00000000000E+00 0. -1.
<scales pt_clust_3="108.94667" pt_clust_4="43.16241" pt_clust_5="70.86760" pt_clust_6="43.16241"></scales>
<clustering>
<clus scale="   43.162">  4  6 -1 -1</clus>
<clus scale="   70.868">  2  5  1 -1</clus>
<clus scale="  108.947">  2  3  1 -1</clus>
<clus scale="  118.495">  1  3  2 -1</clus>
</clustering>
</event>
<event>
 6    0  0.5510638E+002  0.7498819E+02  0.7546771E-02  0.1343908E+00
         21   -1    0    0  505  501  0.00000000000E+00  0.00000000000E+00  0.17331127338E+03  0.17331127338E+03  0.00000000000E+00 0.  1.
         21   -1    0    0  503  502 -0.00000000000E+00 -0.00000000000E+00 -0.11895487384E+03  0.11895487384E+03  0.00000000000E+00 0.  1.
         21    1    1    2  503  504 -0.41279312415E+02 -0.12435687611E+00 -0.43917131725E+02  0.60271979867E+02  0.00000000000E+00 0.  1.
         21    1    1    2  504  506  0.46126776155E+02 -0.88837813602E+02  0.48648013939E+02  0.11129450060E+03  0.00000000000E+00 0.  1.
         21    1    1    2  505  502  0.26039264095E+02  0.63565420714E+02  0.40293899317E+02  0.79637957704E+02  0.00000000000E+00 0.  1.
         21    1    1    2  506  501 -0.30886727834E+02  0.25396749764E+02  0.93316180105E+01  0.41061709043E+02  0.00000000000E+00 0.  1.
<scales pt_clust_3="43.00356" pt_clust_4="14000.00000" pt_clust_5="74.98819" pt_clust_6="39.98731"></scales>
<clustering>
<clus scale="   39.987">  1  6  2 -1</clus>
<clus scale="   43.004">  2  3  1 -1</clus>
<clus scale="   74.988">  2  5  1 -1</clus>
<clus scale="   39.987">  1  3  2 -1</clus>
</clustering>
</event>
<event>
 6    0  0.5510638E+002  0.8554691E+02  0.7546771E-02  0.1314008E+00
         21   -1    0    0  505  501  0.00000000000E+00  0.00000000000E+00  0.24269175877E+04  0.24269175877E+04  0.00000000000E+00 0. -1.
         21   -1    0    0  503  502 -0.00000000000E+00 -0.00000000000E+00 -0.49841986930E+02  0.49841986930E+02  0.00000000000E+00 0.  1.
         21    1    1    2  503  506 -0.81043245527E+02 -0.28761239523E+02 -0.48241687956E+01  0.86130651623E+02  0.00000000000E+00 0.  1.
         21    1    1    2  504  501  0.44696168959E+02  0.12499159927E+02  0.20560594797E+03  0.21077898937E+03  0.00000000000E+00 0. -1.
         21    1    1    2  505  502 -0.40647205834E+02  0.14037384331E+02  0.10786079659E+04  0.10794648617E+04  0.00000000000E+00 0. -1.
         21    1    1    2  506  504  0.76994282402E+02  0.22246952649E+01  0.10976858557E+04  0.11003850720E+04  0.00000000000E+00 0. -1.
<scales pt_clust_3="85.54691" pt_clust_4="41.12252" pt_clust_5="43.00283" pt_clust_6="14000.00000"></scales>
<clustering>
<clus scale="   43.003">  1  5  2 -1</clus>
<clus scale="   41.123">  1  4  2 -1</clus>
<clus scale="   85.547">  2  3  1 -1</clus>
<clus scale="   43.003">  1  3  2 -1</clus>
</clustering>
</event>
<event>
 6    0  0.5510638E+002  0.9370399E+02  0.7546771E-02  0.1294122E+00
         21   -1    0    0  506  501  0.00000000000E+00  0.00000000000E+00  0.13944498113E+04  0.13944498113E+04  0.00000000000E+00 0.  1.
         21   -1    0    0  505  502 -0.00000000000E+00 -0.00000000000E+00 -0.96898798317E+02  0.96898798317E+02  0.00000000000E+00 0. -1.
         21    1    1    2  503  502  0.64788482708E+02 -0.21110910637E+02 -0.27030210407E+02  0.73306550282E+02  0.00000000000E+00 0. -1.
         21    1    1    2  504  501 -0.91495004458E+02 -0.44005248081E+02  0.68011039913E+03  0.68764667723E+03  0.00000000000E+00 0. -1.
         21    1    1    2  505  504 -0.67541659275E+01 -0.30548963967E+02 -0.32948715424E+02  0.45436503001E+02  0.00000000000E+00 0.  1.
         21    1    1    2  506  503  0.33460687678E+02  0.95665122685E+02  0.67741953973E+03  0.68495887915E+03  0.00000000000E+00 0.  1.
<scales pt_clust_3="75.78614" pt_clust_4="14000.00000" pt_clust_5="31.28671" pt_clust_6="93.70399"></scales>
<clustering>
<clus scale="   31.287">  2  5  1 -1</clus>
<clus scale="   75.786">  2  3  1 -1</clus>
<clus scale="   93.704">  2  6  1 -1</clus>
<clus scale="   93.704">  1  3  2 -1</clus>
</clustering>
</event>
<event>
 6    0  0.5510638E+002  0.2405957E+03  0.7546771E-02  0.1119397E+00
         21   -1    0    0  503  501  0.00000000000E+00  0.00000000000E+00  0.11792972099E+04  0.11792972099E+04  0.00000000000E+00 0. -1.
         21   -1    0    0  504  502 -0.00000000000E+00 -0.00000000000E+00 -0.96141497578E+02  0.96141497578E+02  0.00000000000E+00 0.  1.
         21    1    1    2  503  505  0.11499413230E+03 -0.14645597577E+02  0.46479048644E+03  0.47902853806E+03  0.00000000000E+00 0. -1.
         21    1    1    2  504  501 -0.26456302289E+03  0.92038306136E+02  0.26873407156E+03  0.38817862395E+03  0.00000000000E+00 0.  1.
         21    1    1    2  505  506  0.10138593947E+03 -0.44405464263E+02  0.32764660516E+03  0.34583703077E+03  0.00000000000E+00 0. -1.
         21    1    1    2  506  502  0.48182951120E+02 -0.32987244296E+02  0.21984549194E+02  0.62394514728E+02  0.00000000000E+00 0.  1.
<scales pt_clust_3="45.19531" pt_clust_4="236.10803" pt_clust_5="45.19531" pt_clust_6="58.39311"></scales>
<clustering>
<clus scale="   45.195">  3  5 -1 -1</clus>
<clus scale="   58.393">  2  6  1 -1</clus>
<clus scale="  236.108">  2  4  1 -1</clus>
<clus scale="  240.596">  1  3  2 -1</clus>
</clustering>
</event>
<event>
 6    0  0.5510638E+002  0.7029311E+02  0.7546771E-02  0.1359099E+00
         21   -1    0    0  505  501  0.00000000000E+00  0.00000000000E+00  0.17418646956E+03  0.17418646956E+03  0.00000000000E+00 0. -1.
         21   -1    0    0  506  502 -0.00000000000E+00 -0.00000000000E+00 -0.77107337504E+03  0.77107337504E+03  0.00000000000E+00 0.  1.
         21    1    1    2  503  502 -0.15014630514E+02 -0.53765321653E+02 -0.31460349437E+03  0.31951761706E+03  0.00000000000E+00 0.  1.
         21    1    1    2  504  503  0.76903003251E+02  0.92585538000E+02 -0.43256178814E+03  0.44899426980E+03  0.00000000000E+00 0.  1.
         21    1    1    2  505  504 -0.33351481182E+02 -0.28611970722E+02  0.31249784969E+02  0.53921380048E+02  0.00000000000E+00 0.  1.
         21    1    1    2  506  501 -0.28536891555E+02 -0.10208245624E+02  0.11902859206E+03  0.12282657769E+03  0.00000000000E+00 0. -1.
<scales pt_clust_3="56.64168" pt_clust_4="70.29311" pt_clust_5="14000.00000" pt_clust_6="30.30780"></scales>
<clustering>
<clus scale="   30.308">  1  6  2 -1</clus>
<clus scale="   56.642">  2  3  1 -1</clus>
<clus scale="   70.293">  2  4  1 -1</clus>
<clus scale="   30.308">  1  3  2 -1</clus>
</clustering>
</event>
<event>
 6    0  0.5510638E+002  0.8862403E+02  0.7546771E-02  0.1306218E+00
         21   -1    0    0  505  501  0.00000000000E+00  0.00000000000E+00  0.66598672255E+02  0.66598672255E+02  0.00000000000E+00 0. -1.
         21   -1    0    0  506  502 -0.00000000000E+00 -0.00000000000E+00 -0.42429170446E+03  0.42429170446E+03  0.00000000000E+00 0. -1.
         21    1    1    2  503  501  0.45695942518E+02 -0.46410800604E+02 -0.59685404610E+02  0.88342679939E+02  0.00000000000E+00 0. -1.
         21    1    1    2  504  502 -0.96796347728E+02  0.66902889566E+01 -0.27812545407E+03  0.29456418843E+03  0.00000000000E+00 0. -1.
         21    1    1    2  505  504 -0.11623699498E+02  0.41733788023E+02 -0.63572275184E+01  0.43786228366E+02  0.00000000000E+00 0. -1.
         21    1    1    2  506  503  0.62724104708E+02 -0.20132763756E+01 -0.13524946007E+02  0.64197279987E+02  0.00000000000E+00 0. -1.
<scales pt_clust_3="54.15789" pt_clust_4="88.62403" pt_clust_5="43.32227" pt_clust_6="14000.00000"></scales>
<clustering>
<clus scale="   43.322">  1  5  2 -1</clus>
<clus scale="   54.158">  1  3  2 -1</clus>
<clus scale="   88.624">  2  4  1 -1</clus>
<clus scale="   43.322">  1  3  2 -1</clus>
</clustering>
</event>
<event>
 6    0  0.5510638E+002  0.1076838E+03  0.7546771E-02  0.1264920E+00
         21   -1    0    0  503  501  0.00000000000E+00  0.00000000000E+00  0.14198401760E+03  0.14198401760E+03  0.00000000000E+00 0. -1.
         21   -1    0    0  504  502 -0.00000000000E+00 -0.00000000000E+00 -0.87686472482E+03  0.87686472482E+03  0.00000000000E+00 0.  1.
         21    1    1    2  503  505 -0.42329759640E+01 -0.31920754773E+02  0.13815317497E+01  0.32229820055E+02  0.00000000000E+00 0. -1.
         21    1    1    2  504  506  0.45787077389E+02  0.63348895528E+02 -0.54488231524E+03  0.55046005894E+03  0.00000000000E+00 0.  1.
         21    1    1    2  505  502 -0.68110100600E+02  0.50770574317E+02 -0.29167376928E+03  0.30379306231E+03  0.00000000000E+00 0.  1.
         21    1    1    2  506  501  0.26555999175E+02 -0.82198715072E+02  0.10029384555E+03  0.13236580112E+03  0.00000000000E+00 0. -1.
<scales pt_clust_3="32.20020" pt_clust_4="77.53266" pt_clust_5="14000.00000" pt_clust_6="107.68380"></scales>
<clustering>
<clus scale="   32.200">  1  3  2 -1</clus>
<clus scale="   77.533">  2  4  1 -1</clus>
<clus scale="  107.684">  1  6  2 -1</clus>
<clus scale="   32.200">  1  3  2 -1</clus>
</clustering>
</event>
<event>
 6    0  0.5510638E+002  0.1282348E+03  0.7546771E-02  0.1230099E+00
         21   -1    0    0  504  501  0.00000000000E+00  0.00000000000E+00  0.89624120087E+03  0.89624120087E+03  0.00000000000E+00 0. -1.
         21   -1    0    0  503  502 -0.00000000000E+00 -0.00000000000E+00 -0.15234722767E+03  0.15234722767E+03  0.00000000000E+00 0. -1.
         21    1    1    2  503  506 -0.68558667916E+02 -0.17674400166E+02 -0.82909261907E+02  0.10902578171E+03  0.00000000000E+00 0. -1.
         21    1    1    2  504  505  0.58416615068E+02 -0.27988843571E+02  0.74606537591E+03  0.74887209951E+03  0.00000000000E+00 0. -1.
         21    1    1    2  505  502  0.63649104567E+02  0.67358005781E+02  0.93406414121E+02  0.13157913077E+03  0.00000000000E+00 0. -1.
         21    1    1    2  506  501 -0.53507051718E+02 -0.21694762044E+02 -0.12668554924E+02  0.59111416559E+02  0.00000000000E+00 0. -1.
<scales pt_clust_3="46.79372" pt_clust_4="64.77558" pt_clust_5="117.29934" pt_clust_6="46.79372"></scales>
<clustering>
<clus scale="   46.794">  3  6 -1 -1</clus>
<clus scale="   64.776">  1  4  2 -1</clus>
<clus scale="  117.299">  1  5  2 -1</clus>
<clus scale="   64.776">  1  3  2 -1</clus>
</clustering>
</event>
<event>
 6    0  0.5898716E+002  0.1351775E+03  0.7546771E-02  0.1219969E+00
         21   -1    0    0  506  501  0.00000000000E+00  0.00000000000E+00  0.65711852602E+03  0.65711852602E+03  0.00000000000E+00 0. -1.
         21   -1    0    0  504  502 -0.00000000000E+00 -0.00000000000E+00 -0.48083573827E+03  0.48083573827E+03  0.00000000000E+00 0.  1.
         21    1    1    2  503  502 -0.31528644071E+02 -0.13632866035E+03 -0.44417306143E+03  0.46569224551E+03  0.00000000000E+00 0.  1.
         21    1    1    2  504  501 -0.12584268168E+02  0.52647570591E+02  0.19247035192E+03  0.19993740737E+03  0.00000000000E+00 0. -1.
         21    1    1    2  505  503  0.23341630220E+02  0.52945655798E+02  0.17904736085E+02  0.60569412607E+02  0.00000000000E+00 0. -1.
         21    1    1    2  506  505  0.20771282019E+02  0.30735433958E+02  0.41008076117E+03  0.41175519880E+03  0.00000000000E+00 0. -1.
<scales pt_clust_3="135.17753" pt_clust_4="14000.00000" pt_clust_5="63.68871" pt_clust_6="37.09600"></scales>
<clustering>
<clus scale="   37.096">  1  6  2 -1</clus>
<clus scale="   63.689">  1  5  2 -1</clus>
<clus scale="  135.178">  2  3  1 -1</clus>
<clus scale="   37.096">  1  3  2 -1</clus>
</clustering>
</event>
<event>
 6    0  0.5510638E+002  0.9061885E+02  0.7546771E-02  0.1301360E+00
         21   -1    0    0  504  501  0.00000000000E+00  0.00000000000E+00  0.42663853312E+03  0.42663853312E+03  0.00000000000E+00 0.  1.
         21   -1    0    0  503  502 -0.00000000000E+00 -0.00000000000E+00 -0.77549360845E+02  0.77549360845E+02  0.00000000000E+00 0.  1.
         21    1    1    2  503  501 -0.96827013615E+01 -0.34167167492E+02  0.57348892604E+02  0.67454025254E+02  0.00000000000E+00 0.  1.
         21    1    1    2  504  505 -0.35250391816E+02  0.37928899795E+02  0.64322535045E+02  0.82574693929E+02  0.00000000000E+00 0. -1.
         21    1    1    2  505  506 -0.21363802630E+02  0.64319441706E+02  0.24785843645E+03  0.25695759799E+03  0.00000000000E+00 0.  1.
         21    1    1    2  506  502  0.66296895807E+02 -0.68081174009E+02 -0.20440691828E+02  0.97201576790E+02  0.00000000000E+00 0.  1.
<scales pt_clust_3="35.51267" pt_clust_4="48.45081" pt_clust_5="14000.00000" pt_clust_6="90.61885"></scales>
<clustering>
<clus scale="   35.513">  1  3  2 -1</clus>
<clus scale="   48.451">  1  4  2 -1</clus>
<clus scale="   90.619">  2  6  1 -1</clus>
<clus scale="   35.513">  1  3  2 -1</clus>
</clustering>
</event>
<event>
 6    0  0.5510638E+002  0.1089913E+03  0.7546771E-02  0.1262449E+00
         21   -1    0    0  504  501  0.00000000000E+00  0.00000000000E+00  0.86476703884E+03  0.86476703884E+03  0.00000000000E+00 0. -1.
         21   -1    0    0  506  502 -0.00000000000E+00 -0.00000000000E+00 -0.27874214519E+03  0.27874214519E+03  0.00000000000E+00 0.  1.
         21    1    1    2  503  505  0.39374846579E+02 -0.73702729143E+02  0.91660901263E+02  0.12403302643E+03  0.00000000000E+00 0.  1.
         21    1    1    2  504  502  0.80847597540E+02 -0.21315838502E+01 -0.19367575423E+03  0.20988371889E+03  0.00000000000E+00 0.  1.
         21    1    1    2  505  501 -0.88302020018E+02  0.77609309622E+02  0.73962188021E+03  0.74890652111E+03  0.00000000000E+00 0. -1.
         21    1    1    2  506  503 -0.31920424101E+02 -0.17749966288E+01 -0.51582133590E+02  0.60685917588E+02  0.00000000000E+00 0.  1.
<scales pt_clust_3="14000.00000" pt_clust_4="52.04840" pt_clust_5="108.99126" pt_clust_6="31.96974"></scales>
<clustering>
<clus scale="   31.970">  2  6  1 -1</clus>
<clus scale="   52.048">  2  4  1 -1</clus>
<clus scale="  108.991">  1  5  2 -1</clus>
<clus scale="  108.991">  1  3  2 -1</clus>
</clustering>
</event>
<event>
 6    0  0.5510638E+002  0.1307387E+03  0.7546771E-02  0.1226364E+00
         21   -1    0    0  506  501  0.00000000000E+00  0.00000000000E+00  0.36546274747E+03  0.36546274747E+03  0.00000000000E+00 0.  1.
         21   -1    0    0  503  502 -0.00000000000E+00 -0.00000000000E+00 -0.32199586721E+03  0.32199586721E+03  0.00000000000E+00 0.  1.
         21    1    1    2  503  504  0.10297657070E+03  0.10700901078E+03 -0.60187682122E+02  0.16024250241E+03  0.00000000000E+00 0.  1.
         21    1    1    2  504  501 -0.63824745107E+02 -0.14086798293E+03  0.26008416581E+03  0.30259074673E+03  0.00000000000E+00 0.  1.
         21    1    1    2  505  502 -0.44774852056E+02  0.42205328563E+00 -0.17859110711E+03  0.18411884489E+03  0.00000000000E+00 0.  1.
         21    1    1    2  506  505  0.56230264672E+01  0.33436918870E+02  0.22161503681E+02  0.40506520655E+02  0.00000000000E+00 0.  1.
<scales pt_clust_3="14000.00000" pt_clust_4="130.73869" pt_clust_5="44.73380" pt_clust_6="33.90643"></scales>
<clustering>
<clus scale="   33.906">  1  6  2 -1</clus>
<clus scale="   44.734">  2  5  1 -1</clus>
<clus scale="  130.739">  1  4  2 -1</clus>
<clus scale="   33.906">  1  3  2 -1</clus>
</clustering>
</event>
<event>
 6    0  0.5510638E+002  0.1022022E+03  0.7546771E-02  0.1275732E+00
         21   -1    0    0  506  501  0.00000000000E+00  0.00000000000E+00  0.12471867271E+03  0.12471867271E+03  0.00000000000E+00 0. -1.
         21   -1    0    0  505  502 -0.00000000000E+00 -0.00000000000E+00 -0.41659206384E+03  0.41659206384E+03  0.00000000000E+00 0. -1.
         21    1    1    2  503  502  0.10379698402E+03 -0.62489316972E+02 -0.24727383082E+03  0.27535990274E+03  0.00000000000E+00 0. -1.
         21    1    1    2  504  501 -0.26375653562E+02  0.75988013109E+02  0.23647732080E+02  0.83839540013E+02  0.00000000000E+00 0. -1.
         21    1    1    2  505  504 -0.38139432751E+02 -0.25406214774E+02 -0.11266688151E+03  0.12163025227E+03  0.00000000000E+00 0. -1.
         21    1    1    2  506  503 -0.39281897710E+02  0.11907518637E+02  0.44419589113E+02  0.60481041531E+02  0.00000000000E+00 0. -1.
<scales pt_clust_3="14000.00000" pt_clust_4="102.20223" pt_clust_5="47.48546" pt_clust_6="41.04700"></scales>
<clustering>
<clus scale="   41.047">  1  6  2 -1</clus>
<clus scale="   47.485">  2  5  1 -1</clus>
<clus scale="  102.202">  1  4  2 -1</clus>
<clus scale="   41.047">  1  3  2 -1</clus>
</clustering>
</event>
<event>
 6    0  0.5510638E+002  0.1118555E+03  0.7546771E-02  0.1257172E+00
         21   -1    0    0  504  501  0.00000000000E+00  0.00000000000E+00  0.15967861750E+03  0.15967861750E+03  0.00000000000E+00 0.  1.
         21   -1    0    0  501  502 -0.00000000000E+00 -0.00000000000E+00 -0.48403952548E+03  0.48403952548E+03  0.00000000000E+00 0.  1.
         21    1    1    2  503  506 -0.76635543610E+02 -0.10792412255E+03 -0.17797219087E+03  0.22179883565E+03  0.00000000000E+00 0.  1.
         21    1    1    2  504  505  0.55447044179E+02  0.16943888229E+02  0.69021191181E+01  0.58387578344E+02  0.00000000000E+00 0.  1.
         21    1    1    2  505  503  0.44452447617E+02  0.50361533060E+02  0.91944652485E+02  0.11386888614E+03  0.00000000000E+00 0.  1.
         21    1    1    2  506  502 -0.23263948186E+02  0.40618701258E+02 -0.24523548870E+03  0.24966284284E+03  0.00000000000E+00 0.  1.
<scales pt_clust_3="14000.00000" pt_clust_4="57.06555" pt_clust_5="111.85545" pt_clust_6="46.80908"></scales>
<clustering>
<clus scale="   46.809">  2  6  1 -1</clus>
<clus scale="   57.066">  1  4  2 -1</clus>
<clus scale="  111.855">  1  5  2 -1</clus>
<clus scale="   57.066">  1  3  2 -1</clus>
</clustering>
</event>
<event>
 6    0  0.5510638E+002  0.1996516E+03  0.7546771E-02  0.1150033E+00
         21   -1    0    0  503  501  0.00000000000E+00  0.00000000000E+00  0.91899654316E+03  0.91899654316E+03  0.00000000000E+00 0.  1.
         21   -1    0    0  506  502 -0.00000000000E+00 -0.00000000000E+00 -0.35105556815E+03  0.35105556815E+03  0.00000000000E+00 0. -1.
         21    1    1    2  503  502  0.56462442071E+02  0.27928548248E+03  0.63739587412E+02  0.29197794967E+03  0.00000000000E+00 0.  1.
         21    1    1    2  504  501  0.37875145044E+02 -0.23886657758E+02  0.30640700006E+03  0.30966166814E+03  0.00000000000E+00 0.  1.
         21    1    1    2  505  504  0.82165374801E+01 -0.16764050205E+03  0.39514740034E+03  0.42931610429E+03  0.00000000000E+00 0.  1.
         21    1    1    2  506  505 -0.10255412460E+03 -0.87758322679E+02 -0.19735301279E+03  0.23909638920E+03  0.00000000000E+00 0. -1.
<scales pt_clust_3="14000.00000" pt_clust_4="44.77833" pt_clust_5="199.65161" pt_clust_6="134.53270"></scales>
<clustering>
<clus scale="   44.778">  1  4  2 -1</clus>
<clus scale="  134.533">  2  6  1 -1</clus>
<clus scale="  199.652">  1  5  2 -1</clus>
<clus scale="   44.778">  1  3  2 -1</clus>
</clustering>
</event>
<event>
 6    0  0.5510638E+002  0.1736044E+03  0.7546771E-02  0.1174140E+00
         21   -1    0    0  506  501  0.00000000000E+00  0.00000000000E+00  0.33447201281E+02  0.33447201281E+02  0.00000000000E+00 0. -1.
         21   -1    0    0  503  502 -0.00000000000E+00 -0.00000000000E+00 -0.10946173848E+04  0.10946173848E+04  0.00000000000E+00 0. -1.
         21    1    1    2  503  504 -0.62375968115E+02  0.10558173843E+02 -0.10075895427E+03  0.11897312007E+03  0.00000000000E+00 0. -1.
         21    1    1    2  504  505 -0.10564685581E+03  0.31376706706E+01 -0.32068471675E+03  0.33765335875E+03  0.00000000000E+00 0. -1.
         21    1    1    2  505  501  0.91722351828E+01  0.35963308788E+02 -0.10188396855E+03  0.10843353967E+03  0.00000000000E+00 0. -1.
         21    1    1    2  506  502  0.15885058874E+03 -0.49659153301E+02 -0.53784254393E+03  0.56300456758E+03  0.00000000000E+00 0. -1.
<scales pt_clust_3="38.82966" pt_clust_4="38.82966" pt_clust_5="37.11455" pt_clust_6="166.32727"></scales>
<clustering>
<clus scale="   37.115">  1  5  2 -1</clus>
<clus scale="   38.830">  3  4 -1 -1</clus>
<clus scale="  166.327">  2  6  1 -1</clus>
<clus scale="   37.115">  1  3  2 -1</clus>
</clustering>
</event>
<event>
 6    0  0.5510638E+002  0.2387834E+03  0.7546771E-02  0.1120606E+00
         21   -1    0    0  505  501  0.00000000000E+00  0.00000000000E+00  0.22965822049E+04  0.22965822049E+04  0.00000000000E+00 0. -1.
         21   -1    0    0  504  502 -0.00000000000E+00 -0.00000000000E+00 -0.50548711409E+03  0.50548711409E+03  0.00000000000E+00 0. -1.
         21    1    1    2  503  506 -0.19591032543E+03 -0.80152333029E+02 -0.32582482753E+03  0.38854481123E+03  0.00000000000E+00 0. -1.
         21    1    1    2  504  503 -0.20493035275E+02 -0.23653460589E+02 -0.13819203842E+03  0.14169153177E+03  0.00000000000E+00 0. -1.
         21    1    1    2  505  502  0.35357184184E+02 -0.45443781976E+01  0.95461262912E+02  0.10190012053E+03  0.00000000000E+00 0. -1.
         21    1    1    2  506  501  0.18104617652E+03  0.10835017182E+03  0.21596506939E+04  0.21699328555E+04  0.00000000000E+00 0. -1.
<scales pt_clust_3="238.78337" pt_clust_4="31.29618" pt_clust_5="35.49631" pt_clust_6="14000.00000"></scales>
<clustering>
<clus scale="   31.296">  2  4  1 -1</clus>
<clus scale="   35.496">  1  5  2 -1</clus>
<clus scale="  238.783">  2  3  1 -1</clus>
<clus scale="   35.496">  1  3  2 -1</clus>
</clustering>
</event>
<event>
 6    0  0.1416934E+003  0.9104926E+02  0.7546771E-02  0.1300330E+00
         21   -1    0    0  503  501  0.00000000000E+00  0.00000000000E+00  0.56858069415E+03  0.56858069415E+03  0.00000000000E+00 0.  1.
         21   -1    0    0  504  502 -0.00000000000E+00 -0.00000000000E+00 -0.78658363239E+03  0.78658363239E+03  0.00000000000E+00 0.  1.
         21    1    1    2  503  506  0.41554860752E+02 -0.31859518203E+02  0.68343024999E+01  0.52806657184E+02  0.00000000000E+00 0. -1.
         21    1    1    2  504  505  0.87898548128E+02 -0.41150185486E+02 -0.72321105635E+03  0.72969426786E+03  0.00000000000E+00 0.  1.
         21    1    1    2  505  501 -0.13131002550E+03  0.34510072893E+02  0.51358384623E+03  0.53122653834E+03  0.00000000000E+00 0.  1.
         21    1    1    2  506  502  0.18566166223E+01  0.38499630796E+02 -0.15210030624E+02  0.41436863157E+02  0.00000000000E+00 0. -1.
<scales pt_clust_3="51.70602" pt_clust_4="91.04926" pt_clust_5="14000.00000" pt_clust_6="38.54437"></scales>
<clustering>
<clus scale="   38.544">  2  6  1 -1</clus>
<clus scale="   51.706">  1  3  2 -1</clus>
<clus scale="   91.049">  2  4  1 -1</clus>
<clus scale="   51.706">  1  3  2 -1</clus>
</clustering>
</event>
<event>
 6    0  0.5510638E+002  0.1558672E+03  0.7546771E-02  0.1193443E+00
         21   -1    0    0  502  501  0.00000000000E+00  0.00000000000E+00  0.14583186458E+04  0.14583186458E+04  0.00000000000E+00 0. -1.
         21   -1    0    0  506  502 -0.00000000000E+00 -0.00000000000E+00 -0.20142895235E+03  0.20142895235E+03  0.00000000000E+00 0.  1.
         21    1    1    2  503  501 -0.33509303398E+02 -0.16638466674E+02  0.20151202646E+03  0.20495562641E+03  0.00000000000E+00 0.  1.
         21    1    1    2  504  503  0.93207014974E+02  0.78267978041E+02  0.79774824597E+03  0.80697936031E+03  0.00000000000E+00 0. -1.
         21    1    1    2  505  504 -0.19953704119E+03  0.17907972579E+01  0.39451369128E+03  0.44210778139E+03  0.00000000000E+00 0. -1.
         21    1    1    2  506  505  0.13983932961E+03 -0.63420308625E+02 -0.13688427026E+03  0.20570483003E+03  0.00000000000E+00 0.  1.
<scales pt_clust_3="37.41272" pt_clust_4="98.62574" pt_clust_5="155.86719" pt_clust_6="14000.00000"></scales>
<clustering>
<clus scale="   37.413">  1  3  2 -1</clus>
<clus scale="   98.626">  1  4  2 -1</clus>
<clus scale="  155.867">  1  5  2 -1</clus>
<clus scale="   37.413">  1  3  2 -1</clus>
</clustering>
</event>
<event>
 6    0  0.5510638E+002  0.1228671E+03  0.7546771E-02  0.1238441E+00
         21   -1    0    0  505  501  0.00000000000E+00  0.00000000000E+00  0.15313388651E+03  0.15313388651E+03  0.00000000000E+00 0.  1.
         21   -1    0    0  503  502 -0.00000000000E+00 -0.00000000000E+00 -0.12299750174E+04  0.12299750174E+04  0.00000000000E+00 0.  1.
         21    1    1    2  503  506 -0.10558140680E+02 -0.38364549998E+02 -0.59760987750E+03  0.59893311707E+03  0.00000000000E+00 0.  1.
         21    1    1    2  504  502  0.33908172307E+02  0.10125446134E+03  0.10679011656E+03  0.15101774428E+03  0.00000000000E+00 0.  1.
         21    1    1    2  505  504  0.52763717786E+02 -0.73403400554E+01 -0.16318731997E+02  0.55715271880E+02  0.00000000000E+00 0. -1.
         21    1    1    2  506  501 -0.76113749413E+02 -0.55549571290E+02 -0.56970263798E+03  0.57744277070E+03  0.00000000000E+00 0.  1.
<scales pt_clust_3="39.79087" pt_clust_4="14000.00000" pt_clust_5="53.02475" pt_clust_6="122.86709"></scales>
<clustering>
<clus scale="   39.791">  2  3  1 -1</clus>
<clus scale="   53.025">  1  5  2 -1</clus>
<clus scale="  122.867">  2  6  1 -1</clus>
<clus scale="   53.025">  1  3  2 -1</clus>
</clustering>
</event>
<event>
 6    0  0.5510638E+002  0.9100435E+02  0.7546771E-02  0.1300438E+00
         21   -1    0    0  504  501  0.00000000000E+00  0.00000000000E+00  0.26075145713E+02  0.26075145713E+02  0.00000000000E+00 0. -1.
         21   -1    0    0  506  502 -0.00000000000E+00 -0.00000000000E+00 -0.14703516285E+04  0.14703516285E+04  0.00000000000E+00 0. -1.
         21    1    1    2  503  505 -0.67037987893E+02 -0.16940420568E+02 -0.12579383641E+03  0.14354497187E+03  0.00000000000E+00 0. -1.
         21    1    1    2  504  503 -0.26646513421E+02  0.51492427681E+02 -0.69475200158E+02  0.90489282366E+02  0.00000000000E+00 0. -1.
         21    1    1    2  505  502 -0.24923177283E+02 -0.39799175874E+02 -0.65234211856E+03  0.65403010544E+03  0.00000000000E+00 0. -1.
         21    1    1    2  506  501  0.11860767860E+03  0.52471687601E+01 -0.59666532767E+03  0.60836241456E+03  0.00000000000E+00 0. -1.
<scales pt_clust_3="91.00435" pt_clust_4="55.78050" pt_clust_5="46.95891" pt_clust_6="14000.00000"></scales>
<clustering>
<clus scale="   46.959">  2  5  1 -1</clus>
<clus scale="   55.780">  1  4  2 -1</clus>
<clus scale="   91.004">  1  3  2 -1</clus>
<clus scale="   55.780">  1  3  2 -1</clus>
</clustering>
</event>
<event>
 6    0  0.5510638E+002  0.1512278E+03  0.7546771E-02  0.1198972E+00
         21   -1    0    0  504  501  0.00000000000E+00  0.00000000000E+00  0.45636161213E+03  0.45636161213E+03  0.00000000000E+00 0. -1.
         21   -1    0    0  506  502 -0.00000000000E+00 -0.00000000000E+00 -0.22814504986E+03  0.22814504986E+03  0.00000000000E+00 0. -1.
         21    1    1    2  503  505  0.40472635891E+02 -0.11600845419E+03  0.36687445145E+03  0.38690161389E+03  0.00000000000E+00 0. -1.
         21    1    1    2  504  503  0.20735446563E+02 -0.27886475747E+02  0.33845430181E+02  0.48509044701E+02  0.00000000000E+00 0. -1.
         21    1    1    2  505  502 -0.24149516564E+02  0.14041076737E+03 -0.13611564106E+03  0.19704276309E+03  0.00000000000E+00 0. -1.
         21    1    1    2  506  501 -0.37058565890E+02  0.34841625631E+01 -0.36387678303E+02  0.52053240311E+02  0.00000000000E+00 0.  1.
<scales pt_clust_3="14000.00000" pt_clust_4="34.75074" pt_clust_5="151.22778" pt_clust_6="36.78650"></scales>
<clustering>
<clus scale="   34.751">  1  4  2 -1</clus>
<clus scale="   36.786">  2  6  1 -1</clus>
<clus scale="  151.228">  2  5  1 -1</clus>
<clus scale="   34.751">  1  3  2 -1</clus>
</clustering>
</event>
<event>
 6    0  0.5510638E+002  0.1190567E+03  0.7546771E-02  0.1244661E+00
         21   -1    0    0  505  501  0.00000000000E+00  0.00000000000E+00  0.30878463304E+03  0.30878463304E+03  0.00000000000E+00 0. -1.
         21   -1    0    0  506  502 -0.00000000000E+00 -0.00000000000E+00 -0.15600834044E+03  0.15600834044E+03  0.00000000000E+00 0. -1.
         21    1    1    2  503  501 -0.34921480170E+02 -0.67409998476E+02 -0.45975389755E+02  0.88754459803E+02  0.00000000000E+00 0. -1.
         21    1    1    2  504  503 -0.36941841807E+02 -0.20429255827E+02 -0.12050166510E+01  0.42231578645E+02  0.00000000000E+00 0. -1.
         21    1    1    2  505  502  0.34128126813E+02  0.10516598026E+03  0.24726599266E+03  0.27085989657E+03  0.00000000000E+00 0. -1.
         21    1    1    2  506  504  0.37735195164E+02 -0.17326725955E+02 -0.47309293643E+02  0.62947038464E+02  0.00000000000E+00 0.  1.
<scales pt_clust_3="33.77294" pt_clust_4="33.77294" pt_clust_5="110.10548" pt_clust_6="41.52301"></scales>
<clustering>
<clus scale="   33.773">  3  4 -1 -1</clus>
<clus scale="   41.523">  2  6  1 -1</clus>
<clus scale="  110.105">  1  5  2 -1</clus>
<clus scale="  110.105">  1  3  2 -1</clus>
</clustering>
</event>
<event>
 6    0  0.5855271E+002  0.1565500E+03  0.7546771E-02  0.1192648E+00
         21   -1    0    0  503  501  0.00000000000E+00  0.00000000000E+00  0.65777742130E+03  0.65777742130E+03  0.00000000000E+00 0. -1.
         21   -1    0    0  501  502 -0.00000000000E+00 -0.00000000000E+00 -0.21764941423E+03  0.21764941423E+03  0.00000000000E+00 0.  1.
         21    1    1    2  503  506 -0.69972686302E+01 -0.16877869953E+03  0.56815463052E+03  0.59273509713E+03  0.00000000000E+00 0. -1.
         21    1    1    2  504  505 -0.34621937987E+01  0.48439871447E+02  0.82881344518E+00  0.48570514342E+02  0.00000000000E+00 0.  1.
         21    1    1    2  505  502 -0.74955655660E+01  0.68455983345E+02 -0.15771651767E+03  0.17209562779E+03  0.00000000000E+00 0.  1.
         21    1    1    2  506  504  0.17955027995E+02  0.51882844737E+02  0.28861080770E+02  0.62025596261E+02  0.00000000000E+00 0. -1.
<scales pt_clust_3="153.07705" pt_clust_4="30.84112" pt_clust_5="68.86512" pt_clust_6="30.84112"></scales>
<clustering>
<clus scale="   30.841">  4  6 -1 -1</clus>
<clus scale="   68.865">  2  5  1 -1</clus>
<clus scale="  153.077">  1  3  2 -1</clus>
<clus scale="  153.077">  1  3  2 -1</clus>
</clustering>
</event>
<event>
 6    0  0.5510638E+002  0.9082256E+02  0.7546771E-02  0.1300872E+00
         21   -1    0    0  503  501  0.00000000000E+00  0.00000000000E+00  0.13823603077E+04  0.13823603077E+04  0.00000000000E+00 0. -1.
         21   -1    0    0  504  502 -0.00000000000E+00 -0.00000000000E+00 -0.81578747616E+02  0.81578747616E+02  0.00000000000E+00 0. -1.
         21    1    1    2  503  506  0.84108487061E+02 -0.27877911388E+02  0.94851323078E+03  0.95264304149E+03  0.00000000000E+00 0. -1.
         21    1    1    2  504  505 -0.12156318853E+03 -0.65898988773E+01  0.80097640410E+02  0.14572806035E+03  0.00000000000E+00 0. -1.
         21    1    1    2  505  501  0.38241432916E+01  0.37539725704E+02  0.31147267389E+03  0.31375003053E+03  0.00000000000E+00 0.  1.
         21    1    1    2  506  502  0.33630558179E+02 -0.30719154392E+01 -0.39301985028E+02  0.51817922913E+02  0.00000000000E+00 0. -1.
<scales pt_clust_3="14000.00000" pt_clust_4="90.82256" pt_clust_5="37.76023" pt_clust_6="33.77057"></scales>
<clustering>
<clus scale="   33.771">  2  6  1 -1</clus>
<clus scale="   37.760">  1  5  2 -1</clus>
<clus scale="   90.823">  2  4  1 -1</clus>
<clus scale="   37.760">  1  3  2 -1</clus>
</clustering>
</event>
<event>
 6    0  0.5510638E+002  0.6082702E+02  0.7546771E-02  0.1394394E+00
         21   -1    0    0  503  501  0.00000000000E+00  0.00000000000E+00  0.11748533450E+04  0.11748533450E+04  0.00000000000E+00 0.  1.
         21   -1    0    0  505  502 -0.00000000000E+00 -0.00000000000E+00 -0.19113965740E+03  0.19113965740E+03  0.00000000000E+00 0. -1.
         21    1    1    2  503  502 -0.80656070362E+02 -0.67167013954E+02 -0.34356998871E+02  0.11044099249E+03  0.00000000000E+00 0. -1.
         21    1    1    2  504  501 -0.30592939103E+02  0.59279909836E+02  0.85067256199E+03  0.85328415159E+03  0.00000000000E+00 0.  1.
         21    1    1    2  505  506  0.49007709534E+02  0.19766033313E+02 -0.10770047950E+03  0.11996601582E+03  0.00000000000E+00 0. -1.
         21    1    1    2  506  504  0.62241299931E+02 -0.11878929195E+02  0.27509860399E+03  0.28230184252E+03  0.00000000000E+00 0.  1.
<scales pt_clust_3="59.79627" pt_clust_4="14000.00000" pt_clust_5="52.84365" pt_clust_6="60.82702"></scales>
<clustering>
<clus scale="   52.844">  2  5  1 -1</clus>
<clus scale="   59.796">  2  3  1 -1</clus>
<clus scale="   60.827">  2  6  1 -1</clus>
<clus scale="   60.827">  1  3  2 -1</clus>
</clustering>
</event>
<event>
 6    0  0.5510638E+002  0.1360885E+03  0.7546771E-02  0.1218691E+00
         21   -1    0    0  504  501  0.00000000000E+00  0.00000000000E+00  0.79800032886E+03  0.79800032886E+03  0.00000000000E+00 0.  1.
         21   -1    0    0  503  502 -0.00000000000E+00 -0.00000000000E+00 -0.10514964768E+03  0.10514964768E+03  0.00000000000E+00 0. -1.
         21    1    1    2  503  505  0.58800342642E+02 -0.11839891006E+03  0.86391023061E+02  0.15792147119E+03  0.00000000000E+00 0. -1.
         21    1    1    2  504  506  0.44060417182E+02  0.74465842259E+01  0.19006570277E+03  0.19524790229E+03  0.00000000000E+00 0.  1.
         21    1    1    2  505  501  0.54834395859E+02  0.11819388554E+03  0.35916113583E+03  0.38206455873E+03  0.00000000000E+00 0.  1.
         21    1    1    2  506  502 -0.15769515568E+03 -0.72415597056E+01  0.57232819515E+02  0.16791604433E+03  0.00000000000E+00 0. -1.
<scales pt_clust_3="135.08100" pt_clust_4="44.68525" pt_clust_5="136.08855" pt_clust_6="14000.00000"></scales>
<clustering>
<clus scale="   44.685">  1  4  2 -1</clus>
<clus scale="  135.081">  2  3  1 -1</clus>
<clus scale="  136.089">  1  5  2 -1</clus>
<clus scale="   44.685">  1  3  2 -1</clus>
</clustering>
</event>
<event>
 6    0  0.5510638E+002  0.7926393E+02  0.7546771E-02  0.1331153E+00
         21   -1    0    0  504  501  0.00000000000E+00  0.00000000000E+00  0.47619150312E+02  0.47619150312E+02  0.00000000000E+00 0. -1.
         21   -1    0    0  503  502 -0.00000000000E+00 -0.00000000000E+00 -0.97015568568E+03  0.97015568568E+03  0.00000000000E+00 0. -1.
         21    1    1    2  503  501 -0.54414549175E+02 -0.12809323272E+02 -0.57288684018E+02  0.80043833249E+02  0.00000000000E+00 0. -1.
         21    1    1    2  504  505  0.15254622279E+02  0.42990212282E+02  0.85370517573E+01  0.46408437871E+02  0.00000000000E+00 0. -1.
         21    1    1    2  505  506  0.12271865580E+02  0.57722231816E+02 -0.14181532048E+03  0.15360351511E+03  0.00000000000E+00 0. -1.
         21    1    1    2  506  502  0.26888061316E+02 -0.87903120827E+02 -0.73196958263E+03  0.73771904976E+03  0.00000000000E+00 0. -1.
<scales pt_clust_3="47.21381" pt_clust_4="45.61646" pt_clust_5="79.26393" pt_clust_6="14000.00000"></scales>
<clustering>
<clus scale="   45.616">  1  4  2 -1</clus>
<clus scale="   47.214">  1  3  2 -1</clus>
<clus scale="   79.264">  1  5  2 -1</clus>
<clus scale="   45.616">  1  3  2 -1</clus>
</clustering>
</event>
<event>
 6    0  0.5510638E+002  0.1388967E+03  0.7546771E-02  0.1214821E+00
         21   -1    0    0  503  501  0.00000000000E+00  0.00000000000E+00  0.52293430088E+02  0.52293430088E+02  0.00000000000E+00 0. -1.
         21   -1    0    0  506  502 -0.00000000000E+00 -0.00000000000E+00 -0.88327760797E+03  0.88327760797E+03  0.00000000000E+00 0.  1.
         21    1    1    2  503  502 -0.49484250761E+02 -0.84129321174E+02 -0.89251268672E+02  0.13225816691E+03  0.00000000000E+00 0. -1.
         21    1    1    2  504  505 -0.35929638014E+01  0.72903344244E+02 -0.46877296884E+03  0.47442165139E+03  0.00000000000E+00 0.  1.
         21    1    1    2  505  501  0.71610687288E+02 -0.57227811472E+02 -0.74447288599E+02  0.11809111618E+03  0.00000000000E+00 0. -1.
         21    1    1    2  506  504 -0.18533472726E+02  0.68453788402E+02 -0.19851265177E+03  0.21080010358E+03  0.00000000000E+00 0.  1.
<scales pt_clust_3="124.51886" pt_clust_4="60.66093" pt_clust_5="91.66849" pt_clust_6="60.66093"></scales>
<clustering>
<clus scale="   60.661">  4  6 -1 -1</clus>
<clus scale="   91.668">  1  5  2 -1</clus>
<clus scale="  124.519">  1  3  2 -1</clus>
<clus scale="   91.668">  1  3  2 -1</clus>
</clustering>
</event>
<event>
 6    0  0.5510638E+002  0.1575743E+03  0.7546771E-02  0.1191463E+00
         21   -1    0    0  506  501  0.00000000000E+00  0.00000000000E+00  0.84967872707E+02  0.84967872707E+02  0.00000000000E+00 0. -1.
         21   -1    0    0  505  502 -0.00000000000E+00 -0.00000000000E+00 -0.69087286079E+03  0.69087286079E+03  0.00000000000E+00 0. -1.
         21    1    1    2  503  502 -0.19244358143E+02  0.72526351188E+02 -0.15263651111E+03  0.17008327802E+03  0.00000000000E+00 0. -1.
         21    1    1    2  504  501  0.11965700996E+03 -0.11394085409E+03 -0.72983392230E+02  0.18062916100E+03  0.00000000000E+00 0. -1.
         21    1    1    2  505  504 -0.96160229735E+02 -0.34147827814E+02 -0.28936870684E+03  0.30683401445E+03  0.00000000000E+00 0.  1.
         21    1    1    2  506  503 -0.42524220777E+01  0.75562330716E+02 -0.90916377909E+02  0.11829428003E+03  0.00000000000E+00 0. -1.
<scales pt_clust_3="36.73737" pt_clust_4="153.19400" pt_clust_5="102.04344" pt_clust_6="36.73737"></scales>
<clustering>
<clus scale="   36.737">  3  6 -1 -1</clus>
<clus scale="  102.043">  2  5  1 -1</clus>
<clus scale="  153.194">  1  4  2 -1</clus>
<clus scale="  153.194">  1  3  2 -1</clus>
</clustering>
</event>
<event>
 6    0  0.5510638E+002  0.1713202E+03  0.7546771E-02  0.1176478E+00
         21   -1    0    0  504  501  0.00000000000E+00  0.00000000000E+00  0.36596880406E+03  0.36596880406E+03  0.00000000000E+00 0.  1.
         21   -1    0    0  505  502 -0.00000000000E+00 -0.00000000000E+00 -0.15036345921E+03  0.15036345921E+03  0.00000000000E+00 0.  1.
         21    1    1    2  503  506  0.18471354608E+02  0.73949523271E+02  0.48377059768E+02  0.90277698491E+02  0.00000000000E+00 0. -1.
         21    1    1    2  504  503  0.44436552787E+02  0.74236836888E+02  0.13187711598E+03  0.15772535907E+03  0.00000000000E+00 0.  1.
         21    1    1    2  505  501 -0.51567840674E+02  0.20591870675E+02 -0.53627782204E+02  0.77195895965E+02  0.00000000000E+00 0.  1.
         21    1    1    2  506  502 -0.11340066721E+02 -0.16877823083E+03  0.88978951300E+02  0.19113330974E+03  0.00000000000E+00 0.  1.
<scales pt_clust_3="52.23666" pt_clust_4="52.23666" pt_clust_5="55.52718" pt_clust_6="162.02856"></scales>
<clustering>
<clus scale="   52.237">  3  4 -1 -1</clus>
<clus scale="   55.527">  2  5  1 -1</clus>
<clus scale="  162.029">  2  6  1 -1</clus>
<clus scale="  171.320">  1  3  2 -1</clus>
</clustering>
</event>
<event>
 6    0  0.5510638E+002  0.1038198E+03  0.7546771E-02  0.1272462E+00
         21   -1    0    0  504  501  0.00000000000E+00  0.00000000000E+00  0.17416872225E+04  0.17416872225E+04  0.00000000000E+00 0. -1.
         21   -1    0    0  505  502 -0.00000000000E+00 -0.00000000000E+00 -0.48354483469E+02  0.48354483469E+02  0.00000000000E+00 0.  1.
         21    1    1    2  503  506 -0.98209569493E+02 -0.38944502316E+02  0.45488015486E+02  0.11502588123E+03  0.00000000000E+00 0.  1.
         21    1    1    2  504  502  0.68695745768E+02  0.26475023687E+02  0.95121938447E+03  0.95406412246E+03  0.00000000000E+00 0. -1.
         21    1    1    2  505  503  0.21239034906E+02 -0.39271962978E+02  0.33647799064E+02  0.55906690670E+02  0.00000000000E+00 0. -1.
         21    1    1    2  506  501  0.82747888192E+01  0.51741441606E+02  0.66297754005E+03  0.66504501165E+03  0.00000000000E+00 0. -1.
<scales pt_clust_3="103.81983" pt_clust_4="14000.00000" pt_clust_5="44.64733" pt_clust_6="51.42072"></scales>
<clustering>
<clus scale="   44.647">  2  5  1 -1</clus>
<clus scale="   51.421">  1  6  2 -1</clus>
<clus scale="  103.820">  2  3  1 -1</clus>
<clus scale="   51.421">  1  3  2 -1</clus>
</clustering>
</event>
<event>
 6    0  0.5510638E+002  0.1524405E+03  0.7546771E-02  0.1197506E+00
         21   -1    0    0  506  501  0.00000000000E+00  0.00000000000E+00  0.26035764776E+03  0.26035764776E+03  0.00000000000E+00 0. -1.
         21   -1    0    0  504  502 -0.00000000000E+00 -0.00000000000E+00 -0.68290766928E+03  0.68290766928E+03  0.00000000000E+00 0. -1.
         21    1    1    2  503  502 -0.13908270139E+03  0.38790542926E+02 -0.41285130009E+03  0.43737272438E+03  0.00000000000E+00 0. -1.
         21    1    1    2  504  501 -0.43850829149E+02  0.31499822497E+01  0.16412173177E+03  0.16990809411E+03  0.00000000000E+00 0. -1.
         21    1    1    2  505  503  0.17530157821E+03 -0.93805567821E+01 -0.21842923743E+03  0.28023199306E+03  0.00000000000E+00 0. -1.
         21    1    1    2  506  505  0.76319523229E+01 -0.32559968394E+02  0.44608784231E+02  0.55752505492E+02  0.00000000000E+00 0. -1.
<scales pt_clust_3="14000.00000" pt_clust_4="44.09252" pt_clust_5="152.44047" pt_clust_6="33.44246"></scales>
<clustering>
<clus scale="   33.442">  1  6  2 -1</clus>
<clus scale="   44.093">  1  4  2 -1</clus>
<clus scale="  152.440">  1  5  2 -1</clus>
<clus scale="   33.442">  1  3  2 -1</clus>
</clustering>
</event>
<event>
 6    0  0.5510638E+002  0.7394510E+02  0.7546771E-02  0.1347169E+00
         21   -1    0    0  506  501  0.00000000000E+00  0.00000000000E+00  0.32911827273E+03  0.32911827273E+03  0.00000000000E+00 0.  1.
         21   -1    0    0  503  502 -0.00000000000E+00 -0.00000000000E+00 -0.58149226968E+03  0.58149226968E+03  0.00000000000E+00 0.  1.
         21    1    1    2  503  504 -0.11016076787E+02 -0.12231064981E+03 -0.42223323168E+03  0.43972963391E+03  0.00000000000E+00 0.  1.
         21    1    1    2  504  505  0.14009814822E+02  0.48563219310E+02  0.10224639474E+03  0.11405694376E+03  0.00000000000E+00 0.  1.
         21    1    1    2  505  501 -0.25619667457E+02  0.26070840702E+02  0.20573848239E+03  0.20896023361E+03  0.00000000000E+00 0.  1.
         21    1    1    2  506  502  0.22625929422E+02  0.47676589794E+02 -0.13812564240E+03  0.14786373114E+03  0.00000000000E+00 0.  1.
<scales pt_clust_3="14000.00000" pt_clust_4="73.94510" pt_clust_5="36.55210" pt_clust_6="53.29326"></scales>
<clustering>
<clus scale="   36.552">  1  5  2 -1</clus>
<clus scale="   53.293">  2  6  1 -1</clus>
<clus scale="   73.945">  1  4  2 -1</clus>
<clus scale="   36.552">  1  3  2 -1</clus>
</clustering>
</event>
<event>
 6    0  0.5510638E+002  0.3162774E+03  0.7546771E-02  0.1077375E+00
         21   -1    0    0  505  501  0.00000000000E+00  0.00000000000E+00  0.79673896625E+03  0.79673896625E+03  0.00000000000E+00 0.  1.
         21   -1    0    0  503  502 -0.00000000000E+00 -0.00000000000E+00 -0.71320614954E+03  0.71320614954E+03  0.00000000000E+00 0. -1.
         21    1    1    2  503  506  0.19630542423E+03  0.22704474068E+03 -0.54337061895E+03  0.62075499466E+03  0.00000000000E+00 0. -1.
         21    1    1    2  504  502 -0.16434471616E+02  0.26964152197E+02 -0.29449442426E+01  0.31714823940E+02  0.00000000000E+00 0.  1.
         21    1    1    2  505  504 -0.35805431347E+02  0.82154357410E+02  0.43291161712E+03  0.44209030253E+03  0.00000000000E+00 0.  1.
         21    1    1    2  506  501 -0.14406552127E+03 -0.33616325028E+03  0.19693676279E+03  0.41538499467E+03  0.00000000000E+00 0.  1.
<scales pt_clust_3="316.27739" pt_clust_4="31.57780" pt_clust_5="89.82422" pt_clust_6="14000.00000"></scales>
<clustering>
<clus scale="   31.578">  2  4  1 -1</clus>
<clus scale="   89.824">  1  5  2 -1</clus>
<clus scale="  316.277">  2  3  1 -1</clus>
<clus scale="   89.824">  1  3  2 -1</clus>
</clustering>
</event>
<event>
 6    0  0.5510638E+002  0.2701892E+03  0.7546771E-02  0.1101171E+00
         21   -1    0    0  503  501  0.00000000000E+00  0.00000000000E+00  0.49488308021E+03  0.49488308021E+03  0.00000000000E+00 0.  1.
         21   -1    0    0  505  502 -0.00000000000E+00 -0.00000000000E+00 -0.64171812354E+03  0.64171812354E+03  0.00000000000E+00 0. -1.
         21    1    1    2  503  506  0.11673904479E+03 -0.94142943517E+01  0.29981173776E+03  0.32187530446E+03  0.00000000000E+00 0.  1.
         21    1    1    2  504  501  0.64337669113E+02 -0.17914205850E+02  0.87863923299E+01  0.67360634857E+02  0.00000000000E+00 0.  1.
         21    1    1    2  505  504 -0.31827093806E+03 -0.16185913207E+03 -0.24646769804E+03  0.43386760057E+03  0.00000000000E+00 0.  1.
         21    1    1    2  506  502  0.13719422415E+03  0.18918763227E+03 -0.20896547539E+03  0.31349766387E+03  0.00000000000E+00 0. -1.
<scales pt_clust_3="161.96600" pt_clust_4="66.78514" pt_clust_5="270.18921" pt_clust_6="14000.00000"></scales>
<clustering>
<clus scale="   66.785">  1  4  2 -1</clus>
<clus scale="  161.966">  1  3  2 -1</clus>
<clus scale="  270.189">  1  5  2 -1</clus>
<clus scale="   66.785">  1  3  2 -1</clus>
</clustering>
</event>
<event>
 6    0  0.5510638E+002  0.9313525E+02  0.7546771E-02  0.1295432E+00
         21   -1    0    0  504  501  0.00000000000E+00  0.00000000000E+00  0.52496007249E+03  0.52496007249E+03  0.00000000000E+00 0.  1.
         21   -1    0    0  506  502 -0.00000000000E+00 -0.00000000000E+00 -0.39927984209E+03  0.39927984209E+03  0.00000000000E+00 0. -1.
         21    1    1    2  503  502  0.11497675236E+02  0.35199087539E+02  0.15751499691E+03  0.16180898168E+03  0.00000000000E+00 0.  1.
         21    1    1    2  504  503 -0.25223152598E+02  0.48488365133E+02  0.34060343953E+03  0.34496091373E+03  0.00000000000E+00 0.  1.
         21    1    1    2  505  501 -0.64442525901E+02 -0.89370243079E+02 -0.22222535682E+03  0.24804029653E+03  0.00000000000E+00 0. -1.
         21    1    1    2  506  505  0.78168003263E+02  0.56827904076E+01 -0.15021284923E+03  0.16942972264E+03  0.00000000000E+00 0. -1.
<scales pt_clust_3="31.89732" pt_clust_4="31.89732" pt_clust_5="84.69004" pt_clust_6="78.37430"></scales>
<clustering>
<clus scale="   31.897">  3  4 -1 -1</clus>
<clus scale="   78.374">  2  6  1 -1</clus>
<clus scale="   84.690">  2  5  1 -1</clus>
<clus scale="   93.135">  1  3  2 -1</clus>
</clustering>
</event>
<event>
 6    0  0.5510638E+002  0.8990332E+02  0.7546771E-02  0.1303086E+00
         21   -1    0    0  505  501  0.00000000000E+00  0.00000000000E+00  0.18918143338E+03  0.18918143338E+03  0.00000000000E+00 0. -1.
         21   -1    0    0  506  502 -0.00000000000E+00 -0.00000000000E+00 -0.11509532266E+03  0.11509532266E+03  0.00000000000E+00 0. -1.
         21    1    1    2  503  504 -0.36112708396E+02  0.18454784440E+02  0.49996259845E+01  0.40861999907E+02  0.00000000000E+00 0. -1.
         21    1    1    2  504  502  0.24932838615E+02  0.28583840627E+02 -0.25766426739E+02  0.45854019816E+02  0.00000000000E+00 0. -1.
         21    1    1    2  505  503 -0.83578747323E+01  0.73064490108E+02  0.43852974494E+02  0.85623344695E+02  0.00000000000E+00 0. -1.
         21    1    1    2  506  501  0.19537744513E+02 -0.12010311517E+03  0.50999936985E+02  0.13193739162E+03  0.00000000000E+00 0. -1.
<scales pt_clust_3="39.36534" pt_clust_4="37.92997" pt_clust_5="14000.00000" pt_clust_6="89.90332"></scales>
<clustering>
<clus scale="   37.930">  2  4  1 -1</clus>
<clus scale="   39.365">  2  3  1 -1</clus>
<clus scale="   89.903">  2  6  1 -1</clus>
<clus scale="   89.903">  1  3  2 -1</clus>
</clustering>
</event>
<event>
 6    0  0.5510638E+002  0.1805721E+03  0.7546771E-02  0.1167251E+00
         21   -1    0    0  503  501  0.00000000000E+00  0.00000000000E+00  0.18612225305E+03  0.18612225305E+03  0.00000000000E+00 0.  1.
         21   -1    0    0  504  502 -0.00000000000E+00 -0.00000000000E+00 -0.98939757846E+03  0.98939757846E+03  0.00000000000E+00 0.  1.
         21    1    1    2  503  506 -0.44408887467E+02 -0.31838616064E+01  0.51503413892E+01  0.44819775515E+02  0.00000000000E+00 0. -1.
         21    1    1    2  504  505  0.76875164834E+02 -0.17157931584E+03 -0.84852517889E+03  0.86910542042E+03  0.00000000000E+00 0.  1.
         21    1    1    2  505  501 -0.49932037643E+02  0.72331900677E+02 -0.68393884388E+02  0.11136801902E+03  0.00000000000E+00 0. -1.
         21    1    1    2  506  502  0.17465760277E+02  0.10243127677E+03  0.10849339648E+03  0.15022661656E+03  0.00000000000E+00 0.  1.
<scales pt_clust_3="44.52287" pt_clust_4="180.57211" pt_clust_5="91.05116" pt_clust_6="14000.00000"></scales>
<clustering>
<clus scale="   44.523">  1  3  2 -1</clus>
<clus scale="   91.051">  1  5  2 -1</clus>
<clus scale="  180.572">  2  4  1 -1</clus>
<clus scale="   44.523">  1  3  2 -1</clus>
</clustering>
</event>
<event>
 6    0  0.5510638E+002  0.9165525E+02  0.7546771E-02  0.1298892E+00
         21   -1    0    0  505  501  0.00000000000E+00  0.00000000000E+00  0.66799399771E+02  0.66799399771E+02  0.00000000000E+00 0. -1.
         21   -1    0    0  503  502 -0.00000000000E+00 -0.00000000000E+00 -0.46585723544E+03  0.46585723544E+03  0.00000000000E+00 0.  1.
         21    1    1    2  503  506 -0.41971457233E+02  0.78714476440E+02 -0.27158306075E+02  0.93247764651E+02  0.00000000000E+00 0. -1.
         21    1    1    2  504  502  0.41303584051E+02  0.74190900960E+01 -0.28034568906E+03  0.28346910648E+03  0.00000000000E+00 0.  1.
         21    1    1    2  505  504  0.34974371565E+02 -0.84948709641E+02 -0.64874529092E+02  0.11246419191E+03  0.00000000000E+00 0. -1.
         21    1    1    2  506  501 -0.34306498383E+02 -0.11848568952E+01 -0.26679311446E+02  0.43475572180E+02  0.00000000000E+00 0.  1.
<scales pt_clust_3="14000.00000" pt_clust_4="41.05628" pt_clust_5="91.65525" pt_clust_6="34.32695"></scales>
<clustering>
<clus scale="   34.327">  1  6  2 -1</clus>
<clus scale="   41.056">  2  4  1 -1</clus>
<clus scale="   91.655">  2  5  1 -1</clus>
<clus scale="   34.327">  1  3  2 -1</clus>
</clustering>
</event>
<event>
 6    0  0.5510638E+002  0.1075469E+03  0.7546771E-02  0.1265181E+00
         21   -1    0    0  505  501  0.00000000000E+00  0.00000000000E+00  0.74352299288E+02  0.74352299288E+02  0.00000000000E+00 0.  1.
         21   -1    0    0  504  502 -0.00000000000E+00 -0.00000000000E+00 -0.77378879858E+03  0.77378879858E+03  0.00000000000E+00 0. -1.
         21    1    1    2  503  502 -0.51216198450E+02 -0.67235740020E+02 -0.48857409869E+03  0.49583101318E+03  0.00000000000E+00 0. -1.
         21    1    1    2  504  501  0.11422182565E+03 -0.50779059198E+02 -0.63009586038E+02  0.13998337844E+03  0.00000000000E+00 0.  1.
         21    1    1    2  505  506  0.69122148773E+01  0.50451066698E+02 -0.28401304890E+02  0.58307143344E+02  0.00000000000E+00 0. -1.
         21    1    1    2  506  503 -0.69917842078E+02  0.67563732520E+02 -0.11945150967E+03  0.15401956290E+03  0.00000000000E+00 0. -1.
<scales pt_clust_3="81.82756" pt_clust_4="107.54689" pt_clust_5="50.92238" pt_clust_6="14000.00000"></scales>
<clustering>
<clus scale="   50.922">  1  5  2 -1</clus>
<clus scale="   81.828">  2  3  1 -1</clus>
<clus scale="  107.547">  1  4  2 -1</clus>
<clus scale="   50.922">  1  3  2 -1</clus>
</clustering>
</event>
<event>
 6    0  0.5510638E+002  0.9435217E+02  0.7546771E-02  0.1292642E+00
         21   -1    0    0  504  501  0.00000000000E+00  0.00000000000E+00  0.46818054807E+03  0.46818054807E+03  0.00000000000E+00 0. -1.
         21   -1    0    0  503  502 -0.00000000000E+00 -0.00000000000E+00 -0.22539147232E+03  0.22539147232E+03  0.00000000000E+00 0. -1.
         21    1    1    2  503  506  0.53210093193E+01  0.69493397036E+02  0.17393494352E+02  0.71834386039E+02  0.00000000000E+00 0. -1.
         21    1    1    2  504  502  0.74941161122E+02  0.88606616623E+01  0.35408537238E+03  0.36203748409E+03  0.00000000000E+00 0. -1.
         21    1    1    2  505  501  0.14655750510E+02 -0.57072687259E+02  0.35548224290E+02  0.68816850437E+02  0.00000000000E+00 0. -1.
         21    1    1    2  506  505 -0.94917920951E+02 -0.21281371440E+02 -0.16423801528E+03  0.19088329982E+03  0.00000000000E+00 0. -1.
<scales pt_clust_3="63.74635" pt_clust_4="14000.00000" pt_clust_5="58.92438" pt_clust_6="94.35217"></scales>
<clustering>
<clus scale="   58.924">  1  5  2 -1</clus>
<clus scale="   63.746">  2  3  1 -1</clus>
<clus scale="   94.352">  2  6  1 -1</clus>
<clus scale="   58.924">  1  3  2 -1</clus>
</clustering>
</event>
<event>
 6    0  0.5510638E+002  0.1519221E+03  0.7546771E-02  0.1198131E+00
         21   -1    0    0  503  501  0.00000000000E+00  0.00000000000E+00  0.40336491426E+03  0.40336491426E+03  0.00000000000E+00 0.  1.
         21   -1    0    0  505  502 -0.00000000000E+00 -0.00000000000E+00 -0.40985139551E+03  0.40985139551E+03  0.00000000000E+00 0. -1.
         21    1    1    2  503  504 -0.89480242327E+02  0.70299004553E+02  0.32931468751E+03  0.34842047474E+03  0.00000000000E+00 0.  1.
         21    1    1    2  504  502  0.98193536101E+02 -0.97676410076E+02 -0.22459845369E+03  0.26386950755E+03  0.00000000000E+00 0. -1.
         21    1    1    2  505  506 -0.13806834759E+02 -0.36471091308E+02 -0.12874061988E+03  0.13451734607E+03  0.00000000000E+00 0. -1.
         21    1    1    2  506  501  0.50935409848E+01  0.63848496831E+02  0.17537904795E+02  0.66408981410E+02  0.00000000000E+00 0.  1.
<scales pt_clust_3="14000.00000" pt_clust_4="151.92210" pt_clust_5="38.99704" pt_clust_6="60.76939"></scales>
<clustering>
<clus scale="   38.997">  2  5  1 -1</clus>
<clus scale="   60.769">  1  6  2 -1</clus>
<clus scale="  151.922">  2  4  1 -1</clus>
<clus scale="   60.769">  1  3  2 -1</clus>
</clustering>
</event>
<event>
 6    0  0.5510638E+002  0.1108346E+03  0.7546771E-02  0.1259032E+00
         21   -1    0    0  503  501  0.00000000000E+00  0.00000000000E+00  0.95081816183E+03  0.95081816183E+03  0.00000000000E+00 0.  1.
         21   -1    0    0  506  502 -0.00000000000E+00 -0.00000000000E+00 -0.75266658670E+02  0.75266658670E+02  0.00000000000E+00 0.  1.
         21    1    1    2  503  502  0.70889283866E+02 -0.59286226706E+02  0.24751621905E+03  0.26420527235E+03  0.00000000000E+00 0.  1.
         21    1    1    2  504  501  0.33695222575E+02  0.47867040335E+02  0.64343820173E+03  0.64609545814E+03  0.00000000000E+00 0.  1.
         21    1    1    2  505  504 -0.43730995854E+02  0.56638033860E+01 -0.29500614631E+02  0.53054358264E+02  0.00000000000E+00 0.  1.
         21    1    1    2  506  505 -0.60853510588E+02  0.57553829844E+01  0.14097697002E+02  0.62729731746E+02  0.00000000000E+00 0.  1.
<scales pt_clust_3="100.91542" pt_clust_4="58.53735" pt_clust_5="38.92611" pt_clust_6="38.92611"></scales>
<clustering>
<clus scale="   38.926">  5  6 -1 -1</clus>
<clus scale="   58.537">  1  4  2 -1</clus>
<clus scale="  100.915">  1  3  2 -1</clus>
<clus scale="   58.537">  1  3  2 -1</clus>
</clustering>
</event>
<event>
 6    0  0.5510638E+002  0.1871487E+03  0.7546771E-02  0.1161058E+00
         21   -1    0    0  504  501  0.00000000000E+00  0.00000000000E+00  0.45140725798E+03  0.45140725798E+03  0.00000000000E+00 0. -1.
         21   -1    0    0  503  502 -0.00000000000E+00 -0.00000000000E+00 -0.12281085102E+04  0.12281085102E+04  0.00000000000E+00 0.  1.
         21    1    1    2  503  506 -0.61909481308E+02 -0.11580670804E+02 -0.13331854224E+03  0.14744737881E+03  0.00000000000E+00 0.  1.
         21    1    1    2  504  505  0.68657121885E+00 -0.18638588862E+03  0.35081567570E+03  0.39725534505E+03  0.00000000000E+00 0. -1.
         21    1    1    2  505  502  0.12000999778E+03  0.18878959611E+03 -0.10374244101E+04  0.10612696726E+04  0.00000000000E+00 0.  1.
         21    1    1    2  506  501 -0.58787087693E+02  0.91769633169E+01  0.43226024471E+02  0.73543371739E+02  0.00000000000E+00 0.  1.
<scales pt_clust_3="63.99262" pt_clust_4="187.14873" pt_clust_5="14000.00000" pt_clust_6="59.49906"></scales>
<clustering>
<clus scale="   59.499">  1  6  2 -1</clus>
<clus scale="   63.993">  2  3  1 -1</clus>
<clus scale="  187.149">  1  4  2 -1</clus>
<clus scale="   59.499">  1  3  2 -1</clus>
</clustering>
</event>
<event>
 6    0  0.5510638E+002  0.1491944E+03  0.7546771E-02  0.1201466E+00
         21   -1    0    0  506  501  0.00000000000E+00  0.00000000000E+00  0.47361232752E+03  0.47361232752E+03  0.00000000000E+00 0. -1.
         21   -1    0    0  504  502 -0.00000000000E+00 -0.00000000000E+00 -0.59994696420E+02  0.59994696420E+02  0.00000000000E+00 0. -1.
         21    1    1    2  503  501  0.20359621918E+02 -0.29590156846E+02  0.81270885927E+01  0.36825821862E+02  0.00000000000E+00 0. -1.
         21    1    1    2  504  503 -0.23139775007E+02 -0.10897518911E+03  0.70225084610E+02  0.13169131914E+03  0.00000000000E+00 0. -1.
         21    1    1    2  505  502 -0.12522337192E+01  0.54482303334E+02  0.84285647844E+02  0.10036911825E+03  0.00000000000E+00 0. -1.
         21    1    1    2  506  505  0.40323868078E+01  0.84083042625E+02  0.25097981006E+03  0.26472076469E+03  0.00000000000E+00 0. -1.
<scales pt_clust_3="31.36286" pt_clust_4="31.36286" pt_clust_5="32.97508" pt_clust_6="144.52576"></scales>
<clustering>
<clus scale="   31.363">  3  4 -1 -1</clus>
<clus scale="   32.975">  5  6 -1 -1</clus>
<clus scale="  144.526">  1  5  2 -1</clus>
<clus scale="  144.526">  1  3  2 -1</clus>
</clustering>
</event>
<event>
 6    0  0.5510638E+002  0.1359322E+03  0.7546771E-02  0.1218910E+00
         21   -1    0    0  502  501  0.00000000000E+00  0.00000000000E+00  0.74338833117E+03  0.74338833117E+03  0.00000000000E+00 0.  1.
         21   -1    0    0  506  502 -0.00000000000E+00 -0.00000000000E+00 -0.11219584866E+04  0.11219584866E+04  0.00000000000E+00 0.  1.
         21    1    1    2  503  501 -0.27301950051E+02 -0.59981879701E+02  0.64836641276E+03  0.65170716396E+03  0.00000000000E+00 0.  1.
         21    1    1    2  504  505  0.52716667621E+02  0.47673890902E+02 -0.72218868557E+03  0.72567785172E+03  0.00000000000E+00 0.  1.
         21    1    1    2  505  503 -0.68470925777E+02 -0.33692639662E+02  0.72636230510E+02  0.10535408690E+03  0.00000000000E+00 0. -1.
         21    1    1    2  506  504  0.43056208206E+02  0.46000628461E+02 -0.37738411309E+03  0.38260771516E+03  0.00000000000E+00 0.  1.
<scales pt_clust_3="65.90313" pt_clust_4="33.80587" pt_clust_5="131.10437" pt_clust_6="33.80587"></scales>
<clustering>
<clus scale="   33.806">  4  6 -1 -1</clus>
<clus scale="   65.903">  1  3  2 -1</clus>
<clus scale="  131.104">  1  5  2 -1</clus>
<clus scale="   65.903">  1  3  2 -1</clus>
</clustering>
</event>
<event>
 6    0  0.5510638E+002  0.7078490E+02  0.7546771E-02  0.1357444E+00
         21   -1    0    0  505  501  0.00000000000E+00  0.00000000000E+00  0.33919526352E+04  0.33919526352E+04  0.00000000000E+00 0.  1.
         21   -1    0    0  503  502 -0.00000000000E+00 -0.00000000000E+00 -0.18469365278E+02  0.18469365278E+02  0.00000000000E+00 0. -1.
         21    1    1    2  503  501 -0.99685984956E+02 -0.58323113835E+02  0.22769053713E+03  0.25530738709E+03  0.00000000000E+00 0. -1.
         21    1    1    2  504  502  0.36183266855E+02  0.27410160326E+02  0.12596049274E+03  0.13389022153E+03  0.00000000000E+00 0.  1.
         21    1    1    2  505  506  0.26729897870E+02 -0.16087627943E+02  0.12382706240E+04  0.12386635691E+04  0.00000000000E+00 0.  1.
         21    1    1    2  506  504  0.36772820231E+02  0.47000581452E+02  0.17815616161E+04  0.17825608228E+04  0.00000000000E+00 0.  1.
<scales pt_clust_3="14000.00000" pt_clust_4="46.12574" pt_clust_5="31.19774" pt_clust_6="70.78490"></scales>
<clustering>
<clus scale="   31.198">  1  5  2 -1</clus>
<clus scale="   46.126">  2  4  1 -1</clus>
<clus scale="   70.785">  1  6  2 -1</clus>
<clus scale="   31.198">  1  3  2 -1</clus>
</clustering>
</event>
<event>
 6    0  0.5510638E+002  0.9220091E+02  0.7546771E-02  0.1297608E+00
         21   -1    0    0  505  501  0.00000000000E+00  0.00000000000E+00  0.14572893179E+03  0.14572893179E+03  0.00000000000E+00 0.  1.
         21   -1    0    0  504  502 -0.00000000000E+00 -0.00000000000E+00 -0.21126588173E+03  0.21126588173E+03  0.00000000000E+00 0.  1.
         21    1    1    2  503  501 -0.41266495957E+02  0.40285672940E+02  0.38404276702E+02  0.69287427444E+02  0.00000000000E+00 0.  1.
         21    1    1    2  504  503 -0.22759206561E+01  0.61703600073E+02 -0.44396670049E+02  0.76049841474E+02  0.00000000000E+00 0.  1.
         21    1    1    2  505  506  0.88176636336E+02 -0.12282165459E+03 -0.29763320721E+02  0.15409780431E+03  0.00000000000E+00 0.  1.
         21    1    1    2  506  502 -0.44634219723E+02  0.20832381578E+02 -0.29781235879E+02  0.57559740297E+02  0.00000000000E+00 0.  1.
<scales pt_clust_3="61.97189" pt_clust_4="14000.00000" pt_clust_5="92.20091" pt_clust_6="49.25649"></scales>
<clustering>
<clus scale="   49.256">  2  6  1 -1</clus>
<clus scale="   61.972">  1  3  2 -1</clus>
<clus scale="   92.201">  1  5  2 -1</clus>
<clus scale="   61.972">  1  3  2 -1</clus>
</clustering>
</event>
<event>
 6    0  0.5510638E+002  0.1050987E+03  0.7546771E-02  0.1269925E+00
         21   -1    0    0  504  501  0.00000000000E+00  0.00000000000E+00  0.27102727658E+03  0.27102727658E+03  0.00000000000E+00 0.  1.
         21   -1    0    0  503  502 -0.00000000000E+00 -0.00000000000E+00 -0.48846088975E+03  0.48846088975E+03  0.00000000000E+00 0.  1.
         21    1    1    2  503  505 -0.71787382680E+02 -0.21064152155E+02  0.39251419299E+02  0.84485506064E+02  0.00000000000E+00 0.  1.
         21    1    1    2  504  506  0.89558261535E+02  0.18853162945E+02 -0.14405215814E+03  0.17066677541E+03  0.00000000000E+00 0.  1.
         21    1    1    2  505  501 -0.53819951298E+02  0.10060706750E+02  0.19088589141E+03  0.19858305193E+03  0.00000000000E+00 0.  1.
         21    1    1    2  506  502  0.36049072443E+02 -0.78497175404E+01 -0.30351876573E+03  0.30575283292E+03  0.00000000000E+00 0.  1.
<scales pt_clust_3="105.09868" pt_clust_4="14000.00000" pt_clust_5="53.98015" pt_clust_6="36.89382"></scales>
<clustering>
<clus scale="   36.894">  2  6  1 -1</clus>
<clus scale="   53.980">  1  5  2 -1</clus>
<clus scale="  105.099">  1  3  2 -1</clus>
<clus scale="   53.980">  1  3  2 -1</clus>
</clustering>
</event>
<event>
 6    0  0.5510638E+002  0.1627591E+03  0.7546771E-02  0.1185617E+00
         21   -1    0    0  503  501  0.00000000000E+00  0.00000000000E+00  0.24655820679E+04  0.24655820679E+04  0.00000000000E+00 0. -1.
         21   -1    0    0  506  502 -0.00000000000E+00 -0.00000000000E+00 -0.19937232600E+03  0.19937232600E+03  0.00000000000E+00 0.  1.
         21    1    1    2  503  502  0.93027594907E+02  0.55024568531E+02  0.99096490111E+03  0.99684164830E+03  0.00000000000E+00 0. -1.
         21    1    1    2  504  501  0.30240353167E+02 -0.21203024351E+02  0.11706227267E+04  0.11712051978E+04  0.00000000000E+00 0. -1.
         21    1    1    2  505  504  0.33990608279E+02 -0.87447908425E+02  0.25568189384E+03  0.27235221493E+03  0.00000000000E+00 0. -1.
         21    1    1    2  506  505 -0.15725855635E+03  0.53626364246E+02 -0.15105977969E+03  0.22455533289E+03  0.00000000000E+00 0.  1.
<scales pt_clust_3="14000.00000" pt_clust_4="36.93301" pt_clust_5="100.17323" pt_clust_6="162.75906"></scales>
<clustering>
<clus scale="   36.933">  1  4  2 -1</clus>
<clus scale="  100.173">  1  5  2 -1</clus>
<clus scale="  162.759">  2  6  1 -1</clus>
<clus scale="   36.933">  1  3  2 -1</clus>
</clustering>
</event>
<event>
 6    0  0.5510638E+002  0.2536630E+03  0.7546771E-02  0.1111012E+00
         21   -1    0    0  503  501  0.00000000000E+00  0.00000000000E+00  0.15874460380E+04  0.15874460380E+04  0.00000000000E+00 0. -1.
         21   -1    0    0  504  502 -0.00000000000E+00 -0.00000000000E+00 -0.21679764338E+03  0.21679764338E+03  0.00000000000E+00 0. -1.
         21    1    1    2  503  505  0.76303784718E+02 -0.75585108693E+02  0.91595936983E+03  0.92223475504E+03  0.00000000000E+00 0. -1.
         21    1    1    2  504  501 -0.68723633274E+02  0.19269142002E+03 -0.76091419655E+02  0.21827236487E+03  0.00000000000E+00 0. -1.
         21    1    1    2  505  506  0.82686251807E+02 -0.10565616879E+03  0.55384950247E+03  0.56986797912E+03  0.00000000000E+00 0. -1.
         21    1    1    2  506  502 -0.90266403251E+02 -0.11450142539E+02 -0.23069058011E+02  0.93868582378E+02  0.00000000000E+00 0.  1.
<scales pt_clust_3="79.55595" pt_clust_4="237.56828" pt_clust_5="79.55595" pt_clust_6="90.98972"></scales>
<clustering>
<clus scale="   79.556">  3  5 -1 -1</clus>
<clus scale="   90.990">  2  6  1 -1</clus>
<clus scale="  237.568">  2  4  1 -1</clus>
<clus scale="  253.663">  1  3  2 -1</clus>
</clustering>
</event>
<event>
 6    0  0.5510638E+002  0.1169917E+03  0.7546771E-02  0.1248144E+00
         21   -1    0    0  503  501  0.00000000000E+00  0.00000000000E+00  0.41450435964E+03  0.41450435964E+03  0.00000000000E+00 0.  1.
         21   -1    0    0  506  502 -0.00000000000E+00 -0.00000000000E+00 -0.10531725512E+04  0.10531725512E+04  0.00000000000E+00 0. -1.
         21    1    1    2  503  502 -0.30587797766E+02  0.54789389515E+02  0.14922637304E+02  0.64499423872E+02  0.00000000000E+00 0. -1.
         21    1    1    2  504  505 -0.23071749707E+02  0.61233059015E+02  0.10907269587E+03  0.12719530705E+03  0.00000000000E+00 0. -1.
         21    1    1    2  505  501  0.38534391318E+02  0.15574118425E+01  0.25173902501E+03  0.25467599329E+03  0.00000000000E+00 0.  1.
         21    1    1    2  506  504  0.15125156155E+02 -0.11757986037E+03 -0.10144025497E+04  0.10213061866E+04  0.00000000000E+00 0. -1.
<scales pt_clust_3="59.07012" pt_clust_4="14000.00000" pt_clust_5="38.56585" pt_clust_6="116.99165"></scales>
<clustering>
<clus scale="   38.566">  1  5  2 -1</clus>
<clus scale="   59.070">  1  3  2 -1</clus>
<clus scale="  116.992">  2  6  1 -1</clus>
<clus scale="   38.566">  1  3  2 -1</clus>
</clustering>
</event>
<event>
 6    0  0.5510638E+002  0.7468851E+02  0.7546771E-02  0.1344838E+00
         21   -1    0    0  506  501  0.00000000000E+00  0.00000000000E+00  0.73703472537E+03  0.73703472537E+03  0.00000000000E+00 0. -1.
         21   -1    0    0  503  502 -0.00000000000E+00 -0.00000000000E+00 -0.24166513116E+03  0.24166513116E+03  0.00000000000E+00 0.  1.
         21    1    1    2  503  505 -0.61224808061E+02  0.24694325726E+02 -0.20205575520E+03  0.21256720127E+03  0.00000000000E+00 0.  1.
         21    1    1    2  504  501 -0.23331013123E+02  0.19774146684E+02  0.10338497208E+03  0.10781375377E+03  0.00000000000E+00 0. -1.
         21    1    1    2  505  504  0.78708520502E+01 -0.81410050218E+02  0.28810126552E+02  0.86715454104E+02  0.00000000000E+00 0.  1.
         21    1    1    2  506  502  0.76684969134E+02  0.36941577808E+02  0.56523025079E+03  0.57160344739E+03  0.00000000000E+00 0. -1.
<scales pt_clust_3="66.25903" pt_clust_4="30.58354" pt_clust_5="14000.00000" pt_clust_6="74.68851"></scales>
<clustering>
<clus scale="   30.584">  1  4  2 -1</clus>
<clus scale="   66.259">  2  3  1 -1</clus>
<clus scale="   74.689">  1  6  2 -1</clus>
<clus scale="   30.584">  1  3  2 -1</clus>
</clustering>
</event>
<event>
 6    0  0.5510638E+002  0.1066067E+03  0.7546771E-02  0.1266986E+00
         21   -1    0    0  506  501  0.00000000000E+00  0.00000000000E+00  0.11235038495E+03  0.11235038495E+03  0.00000000000E+00 0. -1.
         21   -1    0    0  505  502 -0.00000000000E+00 -0.00000000000E+00 -0.21597085580E+03  0.21597085580E+03  0.00000000000E+00 0. -1.
         21    1    1    2  503  501  0.10822928496E+03  0.15467230600E+02 -0.11884565634E+02  0.10997297962E+03  0.00000000000E+00 0. -1.
         21    1    1    2  504  502 -0.30260900968E+02  0.35504563029E+02 -0.60996972622E+01  0.47047873810E+02  0.00000000000E+00 0. -1.
         21    1    1    2  505  503 -0.24240864314E+02 -0.50016007327E+02 -0.10111105520E+03  0.11538052684E+03  0.00000000000E+00 0. -1.
         21    1    1    2  506  504 -0.53727519682E+02 -0.95578630212E+00  0.15474847244E+02  0.55919860478E+02  0.00000000000E+00 0.  1.
<scales pt_clust_3="95.38444" pt_clust_4="44.36109" pt_clust_5="55.58076" pt_clust_6="44.36109"></scales>
<clustering>
<clus scale="   44.361">  4  6 -1 -1</clus>
<clus scale="   55.581">  2  5  1 -1</clus>
<clus scale="   95.384">  2  3  1 -1</clus>
<clus scale="  106.607">  1  3  2 -1</clus>
</clustering>
</event>
<event>
 6    0  0.5907847E+002  0.1605831E+03  0.7546771E-02  0.1188040E+00
         21   -1    0    0  504  501  0.00000000000E+00  0.00000000000E+00  0.58331770724E+03  0.58331770724E+03  0.00000000000E+00 0.  1.
         21   -1    0    0  503  502 -0.00000000000E+00 -0.00000000000E+00 -0.91021684282E+03  0.91021684282E+03  0.00000000000E+00 0. -1.
         21    1    1    2  503  501  0.38812495320E+02  0.62272107825E+01  0.17828224441E+02  0.43162872168E+02  0.00000000000E+00 0.  1.
         21    1    1    2  504  505 -0.12876820429E+03  0.12995689790E+03  0.51890102091E+03  0.55020752017E+03  0.00000000000E+00 0.  1.
         21    1    1    2  505  506  0.87569308825E+02 -0.96857659523E+02 -0.22367136772E+03  0.25899550343E+03  0.00000000000E+00 0.  1.
         21    1    1    2  506  502  0.23864001469E+01 -0.39326449160E+02 -0.63995701320E+03  0.64116865430E+03  0.00000000000E+00 0. -1.
<scales pt_clust_3="39.30888" pt_clust_4="160.58306" pt_clust_5="14000.00000" pt_clust_6="39.39458"></scales>
<clustering>
<clus scale="   39.309">  1  3  2 -1</clus>
<clus scale="   39.395">  2  6  1 -1</clus>
<clus scale="  160.583">  1  4  2 -1</clus>
<clus scale="   39.309">  1  3  2 -1</clus>
</clustering>
</event>
<event>
 6    0  0.5510638E+002  0.1606654E+03  0.7546771E-02  0.1187948E+00
         21   -1    0    0  505  501  0.00000000000E+00  0.00000000000E+00  0.32537365282E+03  0.32537365282E+03  0.00000000000E+00 0. -1.
         21   -1    0    0  506  502 -0.00000000000E+00 -0.00000000000E+00 -0.24370137279E+03  0.24370137279E+03  0.00000000000E+00 0.  1.
         21    1    1    2  503  501 -0.56025165770E+02 -0.71411639533E+02  0.32809802125E+02  0.96513856911E+02  0.00000000000E+00 0. -1.
         21    1    1    2  504  502  0.86771241590E+01  0.38243748986E+02 -0.16539872560E+03  0.16998416176E+03  0.00000000000E+00 0.  1.
         21    1    1    2  505  504  0.48044006793E+02  0.11870152624E+03  0.12509329458E+03  0.17901567325E+03  0.00000000000E+00 0. -1.
         21    1    1    2  506  503 -0.69596518194E+00 -0.85533635692E+02  0.89167908918E+02  0.12356133369E+03  0.00000000000E+00 0. -1.
<scales pt_clust_3="75.21227" pt_clust_4="39.21577" pt_clust_5="141.80252" pt_clust_6="75.21227"></scales>
<clustering>
<clus scale="   39.216">  2  4  1 -1</clus>
<clus scale="   75.212">  3  6 -1 -1</clus>
<clus scale="  141.803">  1  5  2 -1</clus>
<clus scale="  141.803">  1  3  2 -1</clus>
</clustering>
</event>
<event>
 6    0  0.5510638E+002  0.2233462E+03  0.7546771E-02  0.1131413E+00
         21   -1    0    0  503  501  0.00000000000E+00  0.00000000000E+00  0.57391643326E+03  0.57391643326E+03  0.00000000000E+00 0. -1.
         21   -1    0    0  506  502 -0.00000000000E+00 -0.00000000000E+00 -0.30656674977E+03  0.30656674977E+03  0.00000000000E+00 0. -1.
         21    1    1    2  503  504 -0.27106485915E+02  0.47597549334E+02  0.11651283555E+03  0.12874598684E+03  0.00000000000E+00 0. -1.
         21    1    1    2  504  502  0.41155694241E+02  0.15301853353E+02 -0.11475196866E+02  0.45383014748E+02  0.00000000000E+00 0.  1.
         21    1    1    2  505  501  0.18966157662E+03  0.99947197936E+02  0.33200500454E+03  0.39520662831E+03  0.00000000000E+00 0. -1.
         21    1    1    2  506  505 -0.20371078494E+03 -0.16284660062E+03 -0.16969295973E+03  0.31114755313E+03  0.00000000000E+00 0. -1.
<scales pt_clust_3="54.62772" pt_clust_4="43.90829" pt_clust_5="223.34623" pt_clust_6="14000.00000"></scales>
<clustering>
<clus scale="   43.908">  2  4  1 -1</clus>
<clus scale="   54.628">  1  3  2 -1</clus>
<clus scale="  223.346">  1  5  2 -1</clus>
<clus scale="   54.628">  1  3  2 -1</clus>
</clustering>
</event>
<event>
 6    0  0.5510638E+002  0.1459235E+03  0.7546771E-02  0.1205574E+00
         21   -1    0    0  506  501  0.00000000000E+00  0.00000000000E+00  0.13981816990E+04  0.13981816990E+04  0.00000000000E+00 0.  1.
         21   -1    0    0  503  502 -0.00000000000E+00 -0.00000000000E+00 -0.10466705401E+03  0.10466705401E+03  0.00000000000E+00 0.  1.
         21    1    1    2  503  501 -0.12586777322E+03 -0.52291966443E+02  0.10891501905E+02  0.13673247933E+03  0.00000000000E+00 0.  1.
         21    1    1    2  504  502 -0.23092742057E+01  0.91429284075E+02  0.18365378344E+02  0.93284156508E+02  0.00000000000E+00 0.  1.
         21    1    1    2  505  504  0.52227463445E+02 -0.17425459684E+02  0.80082889774E+03  0.80271930215E+03  0.00000000000E+00 0.  1.
         21    1    1    2  506  505  0.75949583982E+02 -0.21711857948E+02  0.46342886701E+03  0.47011281504E+03  0.00000000000E+00 0.  1.
<scales pt_clust_3="132.29074" pt_clust_4="91.45844" pt_clust_5="51.41602" pt_clust_6="51.41602"></scales>
<clustering>
<clus scale="   51.416">  5  6 -1 -1</clus>
<clus scale="   91.458">  2  4  1 -1</clus>
<clus scale="  132.291">  2  3  1 -1</clus>
<clus scale="  145.923">  1  3  2 -1</clus>
</clustering>
</event>
<event>
 6    0  0.5510638E+002  0.1024837E+03  0.7546771E-02  0.1275158E+00
         21   -1    0    0  505  501  0.00000000000E+00  0.00000000000E+00  0.11003055781E+04  0.11003055781E+04  0.00000000000E+00 0. -1.
         21   -1    0    0  504  502 -0.00000000000E+00 -0.00000000000E+00 -0.17723504501E+03  0.17723504501E+03  0.00000000000E+00 0.  1.
         21    1    1    2  503  502 -0.48504117060E+02  0.14867423330E+02 -0.86717774780E+01  0.51467362210E+02  0.00000000000E+00 0. -1.
         21    1    1    2  504  501  0.81684796670E+02 -0.11275366057E+03 -0.10969155349E+03  0.17725132125E+03  0.00000000000E+00 0.  1.
         21    1    1    2  505  506 -0.59386776718E+00  0.36872281415E+02  0.14125351876E+03  0.14598792545E+03  0.00000000000E+00 0.  1.
         21    1    1    2  506  503 -0.32586811843E+02  0.61013955826E+02  0.90018034527E+03  0.90283401416E+03  0.00000000000E+00 0. -1.
<scales pt_clust_3="50.99197" pt_clust_4="102.48370" pt_clust_5="36.87706" pt_clust_6="14000.00000"></scales>
<clustering>
<clus scale="   36.877">  1  5  2 -1</clus>
<clus scale="   50.992">  2  3  1 -1</clus>
<clus scale="  102.484">  2  4  1 -1</clus>
<clus scale="   36.877">  1  3  2 -1</clus>
</clustering>
</event>
<event>
 6    0  0.5510638E+002  0.2746994E+03  0.7546771E-02  0.1098620E+00
         21   -1    0    0  506  501  0.00000000000E+00  0.00000000000E+00  0.92900605853E+03  0.92900605853E+03  0.00000000000E+00 0. -1.
         21   -1    0    0  505  502 -0.00000000000E+00 -0.00000000000E+00 -0.14523952716E+03  0.14523952716E+03  0.00000000000E+00 0.  1.
         21    1    1    2  503  504 -0.13654379040E+03 -0.25712811082E+02  0.29908632730E+03  0.32978475787E+03  0.00000000000E+00 0. -1.
         21    1    1    2  504  501 -0.13118240037E+03 -0.45576411426E+02  0.42056826285E+03  0.44290370868E+03  0.00000000000E+00 0. -1.
         21    1    1    2  505  503  0.24472530113E+03  0.41389275482E+02  0.79782780623E+02  0.26070833747E+03  0.00000000000E+00 0.  1.
         21    1    1    2  506  502  0.23000889631E+02  0.29899947026E+02 -0.15670839407E+02  0.40848781668E+02  0.00000000000E+00 0. -1.
<scales pt_clust_3="48.73389" pt_clust_4="48.73389" pt_clust_5="270.32290" pt_clust_6="37.72331"></scales>
<clustering>
<clus scale="   37.723">  2  6  1 -1</clus>
<clus scale="   48.734">  3  4 -1 -1</clus>
<clus scale="  270.323">  2  5  1 -1</clus>
<clus scale="  274.699">  1  3  2 -1</clus>
</clustering>
</event>
<event>
 6    0  0.5510638E+002  0.1221330E+03  0.7546771E-02  0.1239619E+00
         21   -1    0    0  504  501  0.00000000000E+00  0.00000000000E+00  0.12888262925E+03  0.12888262925E+03  0.00000000000E+00 0.  1.
         21   -1    0    0  506  502 -0.00000000000E+00 -0.00000000000E+00 -0.19659727868E+03  0.19659727868E+03  0.00000000000E+00 0.  1.
         21    1    1    2  503  502  0.52965689578E+02  0.30197851953E+01 -0.88203324363E+01  0.53779937145E+02  0.00000000000E+00 0. -1.
         21    1    1    2  504  505 -0.10773092222E+02  0.53026404838E+02 -0.54171153110E+01  0.54380182644E+02  0.00000000000E+00 0. -1.
         21    1    1    2  505  503  0.66764617548E+02 -0.39257405669E+02  0.25684887865E+02  0.81598845095E+02  0.00000000000E+00 0.  1.
         21    1    1    2  506  501 -0.10895721490E+03 -0.16788784364E+02 -0.79162089553E+02  0.13572094305E+03  0.00000000000E+00 0.  1.
<scales pt_clust_3="40.49885" pt_clust_4="54.10970" pt_clust_5="40.49885" pt_clust_6="111.90164"></scales>
<clustering>
<clus scale="   40.499">  3  5 -1 -1</clus>
<clus scale="   54.110">  1  4  2 -1</clus>
<clus scale="  111.902">  2  6  1 -1</clus>
<clus scale="   54.110">  1  3  2 -1</clus>
</clustering>
</event>
<event>
 6    0  0.5510638E+002  0.8319787E+02  0.7546771E-02  0.1320214E+00
         21   -1    0    0  504  501  0.00000000000E+00  0.00000000000E+00  0.13349747211E+03  0.13349747211E+03  0.00000000000E+00 0.  1.
         21   -1    0    0  503  502 -0.00000000000E+00 -0.00000000000E+00 -0.86113680268E+03  0.86113680268E+03  0.00000000000E+00 0.  1.
         21    1    1    2  503  506  0.64069061508E+02 -0.49880171373E+02 -0.68624079855E+03  0.69102771995E+03  0.00000000000E+00 0.  1.
         21    1    1    2  504  505  0.51689829802E+02 -0.28742986173E+02  0.27780714580E+02  0.65343445438E+02  0.00000000000E+00 0.  1.
         21    1    1    2  505  502 -0.63777359587E+02  0.76461331740E+02 -0.12641315197E+03  0.16091666116E+03  0.00000000000E+00 0.  1.
         21    1    1    2  506  501 -0.51981531724E+02  0.21618258059E+01  0.57233905380E+02  0.77346448246E+02  0.00000000000E+00 0.  1.
<scales pt_clust_3="14000.00000" pt_clust_4="31.14580" pt_clust_5="83.19787" pt_clust_6="52.02647"></scales>
<clustering>
<clus scale="   52.026">  1  6  2 -1</clus>
<clus scale="   31.146">  1  4  2 -1</clus>
<clus scale="   83.198">  1  5  2 -1</clus>
<clus scale="   52.026">  1  3  2 -1</clus>
</clustering>
</event>
<event>
 6    0  0.5510638E+002  0.1422139E+03  0.7546771E-02  0.1210381E+00
         21   -1    0    0  506  501  0.00000000000E+00  0.00000000000E+00  0.36867793937E+03  0.36867793937E+03  0.00000000000E+00 0.  1.
         21   -1    0    0  504  502 -0.00000000000E+00 -0.00000000000E+00 -0.54522640307E+03  0.54522640307E+03  0.00000000000E+00 0.  1.
         21    1    1    2  503  501  0.10401666533E+03  0.12333036107E+03  0.27640520857E+02  0.16368824949E+03  0.00000000000E+00 0.  1.
         21    1    1    2  504  503 -0.27065086750E+02 -0.18297889487E+02 -0.45957541030E+03  0.46073516192E+03  0.00000000000E+00 0.  1.
         21    1    1    2  505  502 -0.43437349115E+02 -0.52286138691E+02  0.90767505861E+02  0.11339922274E+03  0.00000000000E+00 0.  1.
         21    1    1    2  506  505 -0.33514229466E+02 -0.52746332897E+02  0.16461891988E+03  0.17608170829E+03  0.00000000000E+00 0.  1.
<scales pt_clust_3="136.38608" pt_clust_4="32.67004" pt_clust_5="38.10109" pt_clust_6="38.10109"></scales>
<clustering>
<clus scale="   32.670">  2  4  1 -1</clus>
<clus scale="   38.101">  5  6 -1 -1</clus>
<clus scale="  136.386">  2  3  1 -1</clus>
<clus scale="  142.214">  1  3  2 -1</clus>
</clustering>
</event>
<event>
 6    0  0.5510638E+002  0.1130865E+03  0.7546771E-02  0.1254959E+00
         21   -1    0    0  505  501  0.00000000000E+00  0.00000000000E+00  0.56869035573E+03  0.56869035573E+03  0.00000000000E+00 0. -1.
         21   -1    0    0  503  502 -0.00000000000E+00 -0.00000000000E+00 -0.19155237294E+03  0.19155237294E+03  0.00000000000E+00 0. -1.
         21    1    1    2  503  501 -0.53974708733E+01 -0.11101484311E+03  0.74233223565E+02  0.13365627394E+03  0.00000000000E+00 0.  1.
         21    1    1    2  504  502 -0.56750197882E+02  0.10164086850E+03 -0.13721527338E+03  0.17994299753E+03  0.00000000000E+00 0. -1.
         21    1    1    2  505  506  0.33723810003E+02 -0.15308698340E+02  0.26062399070E+03  0.26324231448E+03  0.00000000000E+00 0. -1.
         21    1    1    2  506  504  0.28423858752E+02  0.24682672951E+02  0.17949604191E+03  0.18340114272E+03  0.00000000000E+00 0. -1.
<scales pt_clust_3="113.08647" pt_clust_4="14000.00000" pt_clust_5="37.03582" pt_clust_6="50.83343"></scales>
<clustering>
<clus scale="   37.036">  1  5  2 -1</clus>
<clus scale="   50.833">  1  6  2 -1</clus>
<clus scale="  113.086">  1  3  2 -1</clus>
<clus scale="   37.036">  1  3  2 -1</clus>
</clustering>
</event>
<event>
 6    0  0.5510638E+002  0.1212671E+03  0.7546771E-02  0.1241021E+00
         21   -1    0    0  506  501  0.00000000000E+00  0.00000000000E+00  0.87556639515E+03  0.87556639515E+03  0.00000000000E+00 0. -1.
         21   -1    0    0  504  502 -0.00000000000E+00 -0.00000000000E+00 -0.79949603966E+02  0.79949603966E+02  0.00000000000E+00 0. -1.
         21    1    1    2  503  501  0.26693295810E+02  0.15667603700E+03  0.56637275224E+03  0.58824995291E+03  0.00000000000E+00 0. -1.
         21    1    1    2  504  503  0.23945502620E+02 -0.84314113263E+02 -0.28871732362E+02  0.92281275027E+02  0.00000000000E+00 0. -1.
         21    1    1    2  505  502 -0.12657177695E+02 -0.37470154970E+02  0.75582215530E+02  0.85304677276E+02  0.00000000000E+00 0. -1.
         21    1    1    2  506  505 -0.37981620735E+02 -0.34891768766E+02  0.18253355577E+03  0.18968009391E+03  0.00000000000E+00 0. -1.
<scales pt_clust_3="116.24706" pt_clust_4="87.64848" pt_clust_5="30.23791" pt_clust_6="30.23791"></scales>
<clustering>
<clus scale="   30.238">  5  6 -1 -1</clus>
<clus scale="   87.648">  2  4  1 -1</clus>
<clus scale="  116.247">  2  3  1 -1</clus>
<clus scale="  121.267">  1  3  2 -1</clus>
</clustering>
</event>
<event>
 6    0  0.5510638E+002  0.1033568E+03  0.7546771E-02  0.1273391E+00
         21   -1    0    0  505  501  0.00000000000E+00  0.00000000000E+00  0.31871932023E+04  0.31871932023E+04  0.00000000000E+00 0.  1.
         21   -1    0    0  504  502 -0.00000000000E+00 -0.00000000000E+00 -0.14299672521E+02  0.14299672521E+02  0.00000000000E+00 0. -1.
         21    1    1    2  503  502  0.65934713491E+02 -0.48601299618E+02  0.13835907853E+03  0.16078777124E+03  0.00000000000E+00 0. -1.
         21    1    1    2  504  506 -0.26303567073E+02  0.34064525556E+02  0.55184866364E+03  0.55352435999E+03  0.00000000000E+00 0. -1.
         21    1    1    2  505  503  0.50983881869E+02  0.86743853187E+01  0.57021175272E+03  0.57255221955E+03  0.00000000000E+00 0.  1.
         21    1    1    2  506  501 -0.90615028287E+02  0.58623887424E+01  0.19124740349E+04  0.19146285240E+04  0.00000000000E+00 0.  1.
<scales pt_clust_3="83.99072" pt_clust_4="41.46836" pt_clust_5="51.71655" pt_clust_6="41.46836"></scales>
<clustering>
<clus scale="   41.468">  4  6 -1 -1</clus>
<clus scale="   51.717">  1  5  2 -1</clus>
<clus scale="   83.991">  2  3  1 -1</clus>
<clus scale="   51.717">  1  3  2 -1</clus>
</clustering>
</event>
<event>
 6    0  0.5510638E+002  0.1028144E+03  0.7546771E-02  0.1274487E+00
         21   -1    0    0  505  501  0.00000000000E+00  0.00000000000E+00  0.11997872742E+03  0.11997872742E+03  0.00000000000E+00 0.  1.
         21   -1    0    0  504  502 -0.00000000000E+00 -0.00000000000E+00 -0.21278473965E+04  0.21278473965E+04  0.00000000000E+00 0. -1.
         21    1    1    2  503  501 -0.44988219676E+02 -0.23490239357E+02 -0.35649541642E+01  0.50876715233E+02  0.00000000000E+00 0. -1.
         21    1    1    2  504  503 -0.45757688114E+02  0.34652137677E+01 -0.54606299151E+03  0.54798774113E+03  0.00000000000E+00 0. -1.
         21    1    1    2  505  506  0.12307650314E+03  0.90785268126E+02  0.32367399854E+02  0.15632478725E+03  0.00000000000E+00 0.  1.
         21    1    1    2  506  502 -0.32330595355E+02 -0.70760242537E+02 -0.14906081232E+04  0.14926368803E+04  0.00000000000E+00 0. -1.
<scales pt_clust_3="51.42418" pt_clust_4="45.88871" pt_clust_5="102.81436" pt_clust_6="14000.00000"></scales>
<clustering>
<clus scale="   45.889">  2  4  1 -1</clus>
<clus scale="   51.424">  1  3  2 -1</clus>
<clus scale="  102.814">  1  5  2 -1</clus>
<clus scale="   51.424">  1  3  2 -1</clus>
</clustering>
</event>
<event>
 6    0  0.5510638E+002  0.1845070E+03  0.7546771E-02  0.1163511E+00
         21   -1    0    0  506  501  0.00000000000E+00  0.00000000000E+00  0.93801361920E+03  0.93801361920E+03  0.00000000000E+00 0.  1.
         21   -1    0    0  503  502 -0.00000000000E+00 -0.00000000000E+00 -0.11408722518E+04  0.11408722518E+04  0.00000000000E+00 0. -1.
         21    1    1    2  503  505  0.71531391840E+02  0.12231431980E+03 -0.48444349544E+03  0.50474056021E+03  0.00000000000E+00 0. -1.
         21    1    1    2  504  502  0.68032043944E+02  0.72611517966E+01 -0.61522811497E+03  0.61902077250E+03  0.00000000000E+00 0. -1.
         21    1    1    2  505  501 -0.14787178370E+03  0.17617310789E+02  0.24385476922E+03  0.28572991185E+03  0.00000000000E+00 0. -1.
         21    1    1    2  506  504  0.83083479187E+01 -0.14719278239E+03  0.65295820857E+03  0.66939462648E+03  0.00000000000E+00 0.  1.
<scales pt_clust_3="14000.00000" pt_clust_4="68.41844" pt_clust_5="146.25257" pt_clust_6="184.50701"></scales>
<clustering>
<clus scale="   68.418">  2  4  1 -1</clus>
<clus scale="  146.253">  1  5  2 -1</clus>
<clus scale="  184.507">  1  6  2 -1</clus>
<clus scale="  146.253">  1  3  2 -1</clus>
</clustering>
</event>
<event>
 6    0  0.5510638E+002  0.8463630E+02  0.7546771E-02  0.1316386E+00
         21   -1    0    0  505  501  0.00000000000E+00  0.00000000000E+00  0.35790652888E+02  0.35790652888E+02  0.00000000000E+00 0.  1.
         21   -1    0    0  504  502 -0.00000000000E+00 -0.00000000000E+00 -0.85443734915E+03  0.85443734915E+03  0.00000000000E+00 0.  1.
         21    1    1    2  503  502  0.26345436504E+01 -0.70945724369E+02 -0.34451069710E+03  0.35174970795E+03  0.00000000000E+00 0.  1.
         21    1    1    2  504  501  0.36919970493E+02  0.11660110156E+03 -0.41265084490E+03  0.43039472685E+03  0.00000000000E+00 0.  1.
         21    1    1    2  505  506  0.83777739768E+01 -0.37843469464E+02 -0.17371404416E+02  0.42474474326E+02  0.00000000000E+00 0.  1.
         21    1    1    2  506  503 -0.47932288121E+02 -0.78119077271E+01 -0.44113749846E+02  0.65609092909E+02  0.00000000000E+00 0.  1.
<scales pt_clust_3="84.63630" pt_clust_4="14000.00000" pt_clust_5="38.75971" pt_clust_6="50.81213"></scales>
<clustering>
<clus scale="   38.760">  1  5  2 -1</clus>
<clus scale="   50.812">  1  6  2 -1</clus>
<clus scale="   84.636">  2  3  1 -1</clus>
<clus scale="   38.760">  1  3  2 -1</clus>
</clustering>
</event>
<event>
 6    0  0.5510638E+002  0.9894871E+02  0.7546771E-02  0.1282522E+00
         21   -1    0    0  503  501  0.00000000000E+00  0.00000000000E+00  0.54183029173E+03  0.54183029173E+03  0.00000000000E+00 0. -1.
         21   -1    0    0  504  502 -0.00000000000E+00 -0.00000000000E+00 -0.47818479132E+03  0.47818479132E+03  0.00000000000E+00 0. -1.
         21    1    1    2  503  505 -0.12165151912E+03  0.35046487829E+02  0.16344789853E+03  0.20674274823E+03  0.00000000000E+00 0. -1.
         21    1    1    2  504  506  0.34682192534E+02 -0.28233824373E+02  0.11843930848E+03  0.12660123661E+03  0.00000000000E+00 0. -1.
         21    1    1    2  505  502  0.63274310728E+02  0.30807672289E+02 -0.44757180392E+03  0.45307093345E+03  0.00000000000E+00 0. -1.
         21    1    1    2  506  501  0.23695015855E+02 -0.37620335744E+02  0.22933009732E+03  0.23360016476E+03  0.00000000000E+00 0. -1.
<scales pt_clust_3="93.45601" pt_clust_4="32.41385" pt_clust_5="70.37578" pt_clust_6="32.41385"></scales>
<clustering>
<clus scale="   32.414">  4  6 -1 -1</clus>
<clus scale="   70.376">  2  5  1 -1</clus>
<clus scale="   93.456">  2  3  1 -1</clus>
<clus scale="   98.949">  1  3  2 -1</clus>
</clustering>
</event>
<event>
 6    0  0.5510638E+002  0.6428548E+02  0.7546771E-02  0.1380680E+00
         21   -1    0    0  506  501  0.00000000000E+00  0.00000000000E+00  0.98379201787E+03  0.98379201787E+03  0.00000000000E+00 0.  1.
         21   -1    0    0  503  502 -0.00000000000E+00 -0.00000000000E+00 -0.30959385250E+03  0.30959385250E+03  0.00000000000E+00 0. -1.
         21    1    1    2  503  505 -0.29718669601E+02  0.79676949339E+01 -0.92404206383E+02  0.97392098461E+02  0.00000000000E+00 0. -1.
         21    1    1    2  504  502  0.79649059323E+02 -0.45535613879E+02 -0.19396752270E+03  0.21457135094E+03  0.00000000000E+00 0. -1.
         21    1    1    2  505  501 -0.55441812022E+02  0.99775902842E+02  0.81593586719E+03  0.82388128069E+03  0.00000000000E+00 0.  1.
         21    1    1    2  506  504  0.55114223008E+01 -0.62207983897E+02  0.14463402727E+03  0.15754114028E+03  0.00000000000E+00 0. -1.
<scales pt_clust_3="30.76822" pt_clust_4="14000.00000" pt_clust_5="64.28548" pt_clust_6="62.14032"></scales>
<clustering>
<clus scale="   30.768">  2  3  1 -1</clus>
<clus scale="   62.140">  1  6  2 -1</clus>
<clus scale="   64.285">  1  5  2 -1</clus>
<clus scale="   62.140">  1  3  2 -1</clus>
</clustering>
</event>
<event>
 6    0  0.5510638E+002  0.1100141E+03  0.7546771E-02  0.1260544E+00
         21   -1    0    0  503  501  0.00000000000E+00  0.00000000000E+00  0.22546995870E+02  0.22546995870E+02  0.00000000000E+00 0.  1.
         21   -1    0    0  504  502 -0.00000000000E+00 -0.00000000000E+00 -0.10561785558E+04  0.10561785558E+04  0.00000000000E+00 0. -1.
         21    1    1    2  503  506  0.38291540518E+02  0.16765838276E+02 -0.18234939717E+03  0.18707922935E+03  0.00000000000E+00 0. -1.
         21    1    1    2  504  501 -0.10758935596E+03 -0.36201266701E+02 -0.17892191399E+03  0.21189396530E+03  0.00000000000E+00 0.  1.
         21    1    1    2  505  502  0.22266133156E+02  0.38894564058E+02 -0.41457087360E+03  0.41698630318E+03  0.00000000000E+00 0. -1.
         21    1    1    2  506  505  0.47031682283E+02 -0.19459135633E+02 -0.25778937522E+03  0.26276605389E+03  0.00000000000E+00 0. -1.
<scales pt_clust_3="33.31377" pt_clust_4="103.69077" pt_clust_5="44.81705" pt_clust_6="33.31377"></scales>
<clustering>
<clus scale="   33.314">  3  6 -1 -1</clus>
<clus scale="   44.817">  2  5  1 -1</clus>
<clus scale="  103.691">  1  4  2 -1</clus>
<clus scale="  103.691">  1  3  2 -1</clus>
</clustering>
</event>
<event>
 6    0  0.5510638E+002  0.1460456E+03  0.7546771E-02  0.1205418E+00
         21   -1    0    0  505  501  0.00000000000E+00  0.00000000000E+00  0.73952124592E+03  0.73952124592E+03  0.00000000000E+00 0. -1.
         21   -1    0    0  503  502 -0.00000000000E+00 -0.00000000000E+00 -0.62168687523E+03  0.62168687523E+03  0.00000000000E+00 0. -1.
         21    1    1    2  503  506 -0.36878640295E+02  0.23137789183E+02 -0.56717657287E+03  0.56884501950E+03  0.00000000000E+00 0. -1.
         21    1    1    2  504  501  0.15078838369E+03  0.50917897811E+02  0.48071510374E+03  0.50637612497E+03  0.00000000000E+00 0. -1.
         21    1    1    2  505  502 -0.80995498488E+02 -0.11442841076E+03  0.18095310688E+03  0.22890644127E+03  0.00000000000E+00 0. -1.
         21    1    1    2  506  504 -0.32914244910E+02  0.40372723766E+02  0.23342732947E+02  0.57080535419E+02  0.00000000000E+00 0. -1.
<scales pt_clust_3="43.53609" pt_clust_4="14000.00000" pt_clust_5="146.04555" pt_clust_6="65.19663"></scales>
<clustering>
<clus scale="   43.536">  2  3  1 -1</clus>
<clus scale="   65.197">  2  6  1 -1</clus>
<clus scale="  146.046">  2  5  1 -1</clus>
<clus scale="  146.046">  1  3  2 -1</clus>
</clustering>
</event>
<event>
 6    0  0.7817165E+002  0.1268112E+03  0.7546771E-02  0.1232265E+00
         21   -1    0    0  506  501  0.00000000000E+00  0.00000000000E+00  0.36833562177E+03  0.36833562177E+03  0.00000000000E+00 0. -1.
         21   -1    0    0  505  502 -0.00000000000E+00 -0.00000000000E+00 -0.18362222720E+04  0.18362222720E+04  0.00000000000E+00 0.  1.
         21    1    1    2  503  501  0.21515224219E+03 -0.45678720498E+02  0.29846550632E+03  0.37075421952E+03  0.00000000000E+00 0. -1.
         21    1    1    2  504  502 -0.51367269720E+02  0.26517829497E+02 -0.47726938822E+02  0.74964340649E+02  0.00000000000E+00 0. -1.
         21    1    1    2  505  503 -0.12436551269E+03  0.21245968306E+02 -0.17145155016E+04  0.17191514119E+04  0.00000000000E+00 0.  1.
         21    1    1    2  506  504 -0.39419459774E+02 -0.20850773044E+01 -0.41097160904E+01  0.39687921621E+02  0.00000000000E+00 0. -1.
<scales pt_clust_3="126.81122" pt_clust_4="102.26486" pt_clust_5="14000.00000" pt_clust_6="33.24877"></scales>
<clustering>
<clus scale="   33.249">  4  6 -1 -1</clus>
<clus scale="  102.265">  1  4  2 -1</clus>
<clus scale="  126.811">  1  3  2 -1</clus>
<clus scale="  102.265">  1  3  2 -1</clus>
</clustering>
</event>
<event>
 6    0  0.5510638E+002  0.1688657E+03  0.7546771E-02  0.1179036E+00
         21   -1    0    0  504  501  0.00000000000E+00  0.00000000000E+00  0.29584882918E+03  0.29584882918E+03  0.00000000000E+00 0.  1.
         21   -1    0    0  506  502 -0.00000000000E+00 -0.00000000000E+00 -0.74546088000E+03  0.74546088000E+03  0.00000000000E+00 0.  1.
         21    1    1    2  503  501 -0.18677495150E+03  0.66950222793E+02  0.14892663572E+03  0.24808538382E+03  0.00000000000E+00 0.  1.
         21    1    1    2  504  505  0.13718231417E+03  0.84951788456E+02 -0.84579770261E+01  0.16157763168E+03  0.00000000000E+00 0.  1.
         21    1    1    2  505  502  0.54529977824E+02  0.15097382965E+02 -0.18517007211E+03  0.19362180936E+03  0.00000000000E+00 0.  1.
         21    1    1    2  506  503 -0.49373405005E+01 -0.16699939421E+03 -0.40491063740E+03  0.43802488432E+03  0.00000000000E+00 0.  1.
<scales pt_clust_3="14000.00000" pt_clust_4="168.86575" pt_clust_5="56.58135" pt_clust_6="159.75692"></scales>
<clustering>
<clus scale="   56.581">  2  5  1 -1</clus>
<clus scale="  159.757">  2  6  1 -1</clus>
<clus scale="  168.866">  2  4  1 -1</clus>
<clus scale="  168.866">  1  3  2 -1</clus>
</clustering>
</event>
<event>
 6    0  0.5510638E+002  0.1380277E+03  0.7546771E-02  0.1216008E+00
         21   -1    0    0  504  501  0.00000000000E+00  0.00000000000E+00  0.12211812403E+03  0.12211812403E+03  0.00000000000E+00 0. -1.
         21   -1    0    0  505  502 -0.00000000000E+00 -0.00000000000E+00 -0.30206732322E+03  0.30206732322E+03  0.00000000000E+00 0. -1.
         21    1    1    2  503  506  0.85572354777E+01 -0.66097317564E+02 -0.19734133351E+02  0.69509119454E+02  0.00000000000E+00 0.  1.
         21    1    1    2  504  502 -0.12006317207E+03  0.10220984687E+03 -0.55217968021E+02  0.16706598121E+03  0.00000000000E+00 0. -1.
         21    1    1    2  505  503  0.76375889761E+02  0.14962295104E+02 -0.98122324681E+02  0.12524031864E+03  0.00000000000E+00 0. -1.
         21    1    1    2  506  501  0.35130046832E+02 -0.51074824415E+02 -0.68747731373E+01  0.62370027939E+02  0.00000000000E+00 0. -1.
<scales pt_clust_3="31.19382" pt_clust_4="134.18440" pt_clust_5="77.82767" pt_clust_6="31.19382"></scales>
<clustering>
<clus scale="   31.194">  3  6 -1 -1</clus>
<clus scale="   77.828">  2  5  1 -1</clus>
<clus scale="  134.184">  2  4  1 -1</clus>
<clus scale="  138.028">  1  3  2 -1</clus>
</clustering>
</event>
<event>
 6    0  0.5510638E+002  0.2949139E+03  0.7546771E-02  0.1087811E+00
         21   -1    0    0  505  501  0.00000000000E+00  0.00000000000E+00  0.42569747555E+03  0.42569747555E+03  0.00000000000E+00 0.  1.
         21   -1    0    0  506  502 -0.00000000000E+00 -0.00000000000E+00 -0.24391925484E+04  0.24391925484E+04  0.00000000000E+00 0.  1.
         21    1    1    2  503  501  0.13642832172E+03 -0.41057502396E+02  0.23013746860E+03  0.27066891200E+03  0.00000000000E+00 0.  1.
         21    1    1    2  504  503  0.41684081010E+02 -0.42873020462E+02  0.97759398680E+02  0.11459737573E+03  0.00000000000E+00 0.  1.
         21    1    1    2  505  502 -0.37275021752E+02 -0.17503165105E+03 -0.74828030548E+02  0.19397097791E+03  0.00000000000E+00 0.  1.
         21    1    1    2  506  504 -0.14083738097E+03  0.25896217390E+03 -0.22665639096E+04  0.22856527583E+04  0.00000000000E+00 0.  1.
<scales pt_clust_3="30.00733" pt_clust_4="30.00733" pt_clust_5="178.95672" pt_clust_6="291.25390"></scales>
<clustering>
<clus scale="   30.007">  3  4 -1 -1</clus>
<clus scale="  178.957">  1  5  2 -1</clus>
<clus scale="  291.254">  2  6  1 -1</clus>
<clus scale="  178.957">  1  3  2 -1</clus>
</clustering>
</event>
<event>
 6    0  0.5520670E+002  0.8500874E+02  0.7546771E-02  0.1315410E+00
         21   -1    0    0  504  501  0.00000000000E+00  0.00000000000E+00  0.39230569294E+03  0.39230569294E+03  0.00000000000E+00 0.  1.
         21   -1    0    0  506  502 -0.00000000000E+00 -0.00000000000E+00 -0.26581871696E+04  0.26581871696E+04  0.00000000000E+00 0.  1.
         21    1    1    2  503  502  0.37931764674E+02 -0.61285741687E+02  0.16789406273E+03  0.18271063791E+03  0.00000000000E+00 0.  1.
         21    1    1    2  504  503  0.25960364004E+02  0.27751459515E+02  0.19732279107E+03  0.20094866976E+03  0.00000000000E+00 0.  1.
         21    1    1    2  505  501  0.17942058987E+02  0.57499843836E+02 -0.35667397938E+02  0.70002234232E+02  0.00000000000E+00 0. -1.
         21    1    1    2  506  505 -0.81834187665E+02 -0.23965561664E+02 -0.25954309325E+04  0.25968313207E+04  0.00000000000E+00 0.  1.
<scales pt_clust_3="14000.00000" pt_clust_4="38.00111" pt_clust_5="63.29275" pt_clust_6="85.00874"></scales>
<clustering>
<clus scale="   38.001">  1  4  2 -1</clus>
<clus scale="   63.293">  1  5  2 -1</clus>
<clus scale="   85.009">  2  6  1 -1</clus>
<clus scale="   38.001">  1  3  2 -1</clus>
</clustering>
</event>
<event>
 6    0  0.5510638E+002  0.1252705E+03  0.7546771E-02  0.1234647E+00
         21   -1    0    0  506  501  0.00000000000E+00  0.00000000000E+00  0.20808793217E+03  0.20808793217E+03  0.00000000000E+00 0. -1.
         21   -1    0    0  505  502 -0.00000000000E+00 -0.00000000000E+00 -0.31161908510E+03  0.31161908510E+03  0.00000000000E+00 0.  1.
         21    1    1    2  503  501  0.32753251568E+02  0.22672740981E+02  0.11543027040E+00  0.39835185402E+02  0.00000000000E+00 0.  1.
         21    1    1    2  504  502  0.78031657230E+02  0.99069020498E+02 -0.22940256623E+03  0.26178072455E+03  0.00000000000E+00 0.  1.
         21    1    1    2  505  503 -0.31233737853E+02 -0.34730232165E+02  0.13965849116E+01  0.46729924630E+02  0.00000000000E+00 0. -1.
         21    1    1    2  506  504 -0.79551170945E+02 -0.87011529313E+02  0.12435939812E+03  0.17136118269E+03  0.00000000000E+00 0. -1.
<scales pt_clust_3="39.83502" pt_clust_4="125.27047" pt_clust_5="41.76747" pt_clust_6="14000.00000"></scales>
<clustering>
<clus scale="   39.835">  1  3  2 -1</clus>
<clus scale="   41.767">  1  5  2 -1</clus>
<clus scale="  125.270">  2  4  1 -1</clus>
<clus scale="   39.835">  1  3  2 -1</clus>
</clustering>
</event>
<event>
 6    0  0.5510638E+002  0.1139090E+03  0.7546771E-02  0.1253498E+00
         21   -1    0    0  504  501  0.00000000000E+00  0.00000000000E+00  0.29002457678E+04  0.29002457678E+04  0.00000000000E+00 0. -1.
         21   -1    0    0  503  502 -0.00000000000E+00 -0.00000000000E+00 -0.24383258926E+02  0.24383258926E+02  0.00000000000E+00 0. -1.
         21    1    1    2  503  501  0.23429742716E+02 -0.39149730063E+02  0.33181634860E+03  0.33493841733E+03  0.00000000000E+00 0. -1.
         21    1    1    2  504  506  0.22240966411E+02  0.80496191650E+02  0.19155326494E+04  0.19173522442E+04  0.00000000000E+00 0. -1.
         21    1    1    2  505  502 -0.71916874120E+02 -0.75183254597E+02  0.10762301037E+03  0.14969058393E+03  0.00000000000E+00 0. -1.
         21    1    1    2  506  505  0.26246164992E+02  0.33836793010E+02  0.52089050047E+03  0.52264778123E+03  0.00000000000E+00 0.  1.
<scales pt_clust_3="45.62515" pt_clust_4="32.17847" pt_clust_5="104.67061" pt_clust_6="32.17847"></scales>
<clustering>
<clus scale="   32.178">  4  6 -1 -1</clus>
<clus scale="   45.625">  1  3  2 -1</clus>
<clus scale="  104.671">  2  5  1 -1</clus>
<clus scale="   45.625">  1  3  2 -1</clus>
</clustering>
</event>
<event>
 6    0  0.5510638E+002  0.1954069E+03  0.7546771E-02  0.1153673E+00
         21   -1    0    0  506  501  0.00000000000E+00  0.00000000000E+00  0.13211014349E+03  0.13211014349E+03  0.00000000000E+00 0.  1.
         21   -1    0    0  503  502 -0.00000000000E+00 -0.00000000000E+00 -0.10047548475E+04  0.10047548475E+04  0.00000000000E+00 0.  1.
         21    1    1    2  503  504  0.41958773994E+02 -0.67017056874E+02 -0.21453015288E+03  0.22863729163E+03  0.00000000000E+00 0.  1.
         21    1    1    2  504  505  0.31939987054E+02 -0.48869036695E+02 -0.88421885088E+02  0.10595647825E+03  0.00000000000E+00 0.  1.
         21    1    1    2  505  501 -0.16257766107E+03  0.13401824630E+03  0.14419344845E+02  0.21118783991E+03  0.00000000000E+00 0.  1.
         21    1    1    2  506  502  0.88678900024E+02 -0.18132152732E+02 -0.58411201086E+03  0.59108338118E+03  0.00000000000E+00 0.  1.
<scales pt_clust_3="30.77179" pt_clust_4="30.77179" pt_clust_5="192.09743" pt_clust_6="90.51366"></scales>
<clustering>
<clus scale="   30.772">  3  4 -1 -1</clus>
<clus scale="   90.514">  2  6  1 -1</clus>
<clus scale="  192.097">  1  5  2 -1</clus>
<clus scale="  192.097">  1  3  2 -1</clus>
</clustering>
</event>
<event>
 6    0  0.5510638E+002  0.1120018E+03  0.7546771E-02  0.1256907E+00
         21   -1    0    0  503  501  0.00000000000E+00  0.00000000000E+00  0.12119660037E+04  0.12119660037E+04  0.00000000000E+00 0.  1.
         21   -1    0    0  504  502 -0.00000000000E+00 -0.00000000000E+00 -0.68513356104E+02  0.68513356104E+02  0.00000000000E+00 0.  1.
         21    1    1    2  503  505 -0.65678052294E+02 -0.59749748953E+01  0.88353549525E+03  0.88599338499E+03  0.00000000000E+00 0.  1.
         21    1    1    2  504  506  0.90486282251E+02 -0.46795186754E+02  0.19514615579E+02  0.10372259638E+03  0.00000000000E+00 0.  1.
         21    1    1    2  505  502  0.33986412469E+02  0.65133969676E+02  0.44589065920E+02  0.85940066546E+02  0.00000000000E+00 0.  1.
         21    1    1    2  506  501 -0.58794642426E+02 -0.12363808027E+02  0.19581347083E+03  0.20482331187E+03  0.00000000000E+00 0.  1.
<scales pt_clust_3="112.00177" pt_clust_4="14000.00000" pt_clust_5="71.06902" pt_clust_6="60.08056"></scales>
<clustering>
<clus scale="   60.081">  1  6  2 -1</clus>
<clus scale="   71.069">  2  5  1 -1</clus>
<clus scale="  112.002">  1  3  2 -1</clus>
<clus scale="   60.081">  1  3  2 -1</clus>
</clustering>
</event>
<event>
 6    0  0.5510638E+002  0.1137583E+03  0.7546771E-02  0.1253764E+00
         21   -1    0    0  504  501  0.00000000000E+00  0.00000000000E+00  0.74270665377E+02  0.74270665377E+02  0.00000000000E+00 0.  1.
         21   -1    0    0  503  502 -0.00000000000E+00 -0.00000000000E+00 -0.22125145387E+04  0.22125145387E+04  0.00000000000E+00 0.  1.
         21    1    1    2  503  505  0.20623437388E+02  0.57608692455E+02 -0.22898225165E+03  0.23701679094E+03  0.00000000000E+00 0.  1.
         21    1    1    2  504  506 -0.11415504151E+03 -0.18872830351E+02 -0.57702817194E+02  0.12929490454E+03  0.00000000000E+00 0.  1.
         21    1    1    2  505  501  0.14114762752E+01  0.42776253194E+02  0.18318331139E+02  0.46554928400E+02  0.00000000000E+00 0.  1.
         21    1    1    2  506  502  0.92120127851E+02 -0.81512115299E+02 -0.18698771356E+04  0.18739185802E+04  0.00000000000E+00 0.  1.
<scales pt_clust_3="65.11416" pt_clust_4="14000.00000" pt_clust_5="42.79953" pt_clust_6="113.75825"></scales>
<clustering>
<clus scale="   42.800">  1  5  2 -1</clus>
<clus scale="   65.114">  2  3  1 -1</clus>
<clus scale="  113.758">  2  6  1 -1</clus>
<clus scale="   42.800">  1  3  2 -1</clus>
</clustering>
</event>
<event>
 6    0  0.5510638E+002  0.1013280E+03  0.7546771E-02  0.1277528E+00
         21   -1    0    0  505  501  0.00000000000E+00  0.00000000000E+00  0.11069821640E+04  0.11069821640E+04  0.00000000000E+00 0.  1.
         21   -1    0    0  506  502 -0.00000000000E+00 -0.00000000000E+00 -0.70905902390E+02  0.70905902390E+02  0.00000000000E+00 0.  1.
         21    1    1    2  503  504 -0.84119005707E+02 -0.14903831104E+02  0.52126748003E+03  0.52822146590E+03  0.00000000000E+00 0.  1.
         21    1    1    2  504  501  0.58076154295E+01 -0.70201432645E+02  0.45281548545E+03  0.45826175207E+03  0.00000000000E+00 0. -1.
         21    1    1    2  505  502  0.93537424121E+01  0.10280723379E+03  0.10964974249E+02  0.10381257379E+03  0.00000000000E+00 0.  1.
         21    1    1    2  506  503  0.68957647866E+02 -0.17701970035E+02  0.51028321885E+02  0.87592274641E+02  0.00000000000E+00 0.  1.
<scales pt_clust_3="14000.00000" pt_clust_4="70.44125" pt_clust_5="101.32797" pt_clust_6="73.98877"></scales>
<clustering>
<clus scale="   70.441">  1  4  2 -1</clus>
<clus scale="   73.989">  2  6  1 -1</clus>
<clus scale="  101.328">  2  5  1 -1</clus>
<clus scale="   70.441">  1  3  2 -1</clus>
</clustering>
</event>
<event>
 6    0  0.5510638E+002  0.1321534E+03  0.7546771E-02  0.1224295E+00
         21   -1    0    0  503  501  0.00000000000E+00  0.00000000000E+00  0.20126355505E+04  0.20126355505E+04  0.00000000000E+00 0.  1.
         21   -1    0    0  504  502 -0.00000000000E+00 -0.00000000000E+00 -0.31597674877E+02  0.31597674877E+02  0.00000000000E+00 0.  1.
         21    1    1    2  503  506 -0.61058534906E+02 -0.24118170746E+02  0.11495650722E+04  0.11514380948E+04  0.00000000000E+00 0.  1.
         21    1    1    2  504  505 -0.18100899087E+02 -0.55630910971E+02  0.98518919607E+02  0.11457931019E+03  0.00000000000E+00 0.  1.
         21    1    1    2  505  501  0.12626599180E+03  0.10512715222E+03  0.30066903657E+03  0.34263200139E+03  0.00000000000E+00 0.  1.
         21    1    1    2  506  502 -0.47106557812E+02 -0.25378070507E+02  0.43228484730E+03  0.43558381909E+03  0.00000000000E+00 0.  1.
<scales pt_clust_3="42.72675" pt_clust_4="58.50163" pt_clust_5="123.38846" pt_clust_6="42.72675"></scales>
<clustering>
<clus scale="   42.727">  3  6 -1 -1</clus>
<clus scale="   58.502">  2  4  1 -1</clus>
<clus scale="  123.388">  2  5  1 -1</clus>
<clus scale="  132.153">  1  3  2 -1</clus>
</clustering>
</event>
<event>
 6    0  0.5510638E+002  0.8854789E+02  0.7546771E-02  0.1306407E+00
         21   -1    0    0  505  501  0.00000000000E+00  0.00000000000E+00  0.11005593845E+03  0.11005593845E+03  0.00000000000E+00 0.  1.
         21   -1    0    0  503  502 -0.00000000000E+00 -0.00000000000E+00 -0.38880633436E+03  0.38880633436E+03  0.00000000000E+00 0.  1.
         21    1    1    2  503  504 -0.52840000868E+02 -0.66275154908E+00 -0.71863144601E+02  0.89200989250E+02  0.00000000000E+00 0.  1.
         21    1    1    2  504  501 -0.63696990523E+02  0.11940153720E+03 -0.17701020314E+03  0.22281527260E+03  0.00000000000E+00 0.  1.
         21    1    1    2  505  506  0.47543464882E+02 -0.66236712030E+02  0.23726067364E+02  0.84915306901E+02  0.00000000000E+00 0.  1.
         21    1    1    2  506  502  0.68993526508E+02 -0.52502073622E+02 -0.53603115535E+02  0.10193070406E+03  0.00000000000E+00 0.  1.
<scales pt_clust_3="52.84416" pt_clust_4="88.54789" pt_clust_5="14000.00000" pt_clust_6="76.63232"></scales>
<clustering>
<clus scale="   52.844">  2  3  1 -1</clus>
<clus scale="   76.632">  2  6  1 -1</clus>
<clus scale="   88.548">  2  4  1 -1</clus>
<clus scale="   88.548">  1  3  2 -1</clus>
</clustering>
</event>
<event>
 6    0  0.5510638E+002  0.1582647E+03  0.7546771E-02  0.1190670E+00
         21   -1    0    0  504  501  0.00000000000E+00  0.00000000000E+00  0.10265731665E+04  0.10265731665E+04  0.00000000000E+00 0.  1.
         21   -1    0    0  503  502 -0.00000000000E+00 -0.00000000000E+00 -0.88351346417E+03  0.88351346417E+03  0.00000000000E+00 0. -1.
         21    1    1    2  503  506 -0.70012429321E+02  0.29807430835E+02 -0.18193334288E+03  0.19720538644E+03  0.00000000000E+00 0. -1.
         21    1    1    2  504  502  0.18812648405E+03  0.81922940198E+02 -0.66558244443E+03  0.69649331114E+03  0.00000000000E+00 0. -1.
         21    1    1    2  505  501 -0.49150384525E+02 -0.37782783864E+02  0.78344905309E+03  0.78589803273E+03  0.00000000000E+00 0.  1.
         21    1    1    2  506  505 -0.68963670201E+02 -0.73947587169E+02  0.20712643650E+03  0.23048990033E+03  0.00000000000E+00 0.  1.
<scales pt_clust_3="77.07271" pt_clust_4="158.26474" pt_clust_5="61.99435" pt_clust_6="14000.00000"></scales>
<clustering>
<clus scale="   61.994">  1  5  2 -1</clus>
<clus scale="   77.073">  2  3  1 -1</clus>
<clus scale="  158.265">  2  4  1 -1</clus>
<clus scale="   61.994">  1  3  2 -1</clus>
</clustering>
</event>
<event>
 6    0  0.5510638E+002  0.7772098E+02  0.7546771E-02  0.1335646E+00
         21   -1    0    0  503  501  0.00000000000E+00  0.00000000000E+00  0.10878063873E+03  0.10878063873E+03  0.00000000000E+00 0. -1.
         21   -1    0    0  506  502 -0.00000000000E+00 -0.00000000000E+00 -0.44333551335E+03  0.44333551335E+03  0.00000000000E+00 0.  1.
         21    1    1    2  503  504  0.62213065921E+02  0.14153610658E+02  0.56135699269E+02  0.84982392284E+02  0.00000000000E+00 0. -1.
         21    1    1    2  504  502  0.79859478801E+02 -0.24860068729E+02 -0.10942701898E+03  0.13773101268E+03  0.00000000000E+00 0. -1.
         21    1    1    2  505  501 -0.87957508302E+02 -0.38769221466E+02 -0.13419344341E+03  0.16506803463E+03  0.00000000000E+00 0.  1.
         21    1    1    2  506  505 -0.54115036419E+02  0.49475679536E+02 -0.14707011150E+03  0.16433471249E+03  0.00000000000E+00 0.  1.
<scales pt_clust_3="63.80274" pt_clust_4="14000.00000" pt_clust_5="77.72098" pt_clust_6="66.17790"></scales>
<clustering>
<clus scale="   63.803">  1  3  2 -1</clus>
<clus scale="   66.178">  2  6  1 -1</clus>
<clus scale="   77.721">  1  5  2 -1</clus>
<clus scale="   63.803">  1  3  2 -1</clus>
</clustering>
</event>
<event>
 6    0  0.5510638E+002  0.1085164E+03  0.7546771E-02  0.1263342E+00
         21   -1    0    0  504  501  0.00000000000E+00  0.00000000000E+00  0.29371113677E+03  0.29371113677E+03  0.00000000000E+00 0. -1.
         21   -1    0    0  505  502 -0.00000000000E+00 -0.00000000000E+00 -0.52840916730E+03  0.52840916730E+03  0.00000000000E+00 0. -1.
         21    1    1    2  503  502  0.44311466604E+02 -0.20167256748E+02 -0.20494807578E+03  0.21065122379E+03  0.00000000000E+00 0. -1.
         21    1    1    2  504  506  0.59754876504E+02  0.12944689998E+02  0.78122575629E+02  0.99203563888E+02  0.00000000000E+00 0. -1.
         21    1    1    2  505  501  0.27450612596E+02 -0.77615864407E+02  0.17251700968E+03  0.19115406657E+03  0.00000000000E+00 0. -1.
         21    1    1    2  506  503 -0.13151695570E+03  0.84838431158E+02 -0.28038954005E+03  0.32111144983E+03  0.00000000000E+00 0. -1.
<scales pt_clust_3="48.68495" pt_clust_4="62.43163" pt_clust_5="108.51644" pt_clust_6="14000.00000"></scales>
<clustering>
<clus scale="   48.685">  2  3  1 -1</clus>
<clus scale="   62.432">  1  4  2 -1</clus>
<clus scale="  108.516">  1  5  2 -1</clus>
<clus scale="   62.432">  1  3  2 -1</clus>
</clustering>
</event>
<event>
 6    0  0.5510638E+002  0.6007370E+02  0.7546771E-02  0.1397523E+00
         21   -1    0    0  505  501  0.00000000000E+00  0.00000000000E+00  0.16163252964E+04  0.16163252964E+04  0.00000000000E+00 0. -1.
         21   -1    0    0  504  502 -0.00000000000E+00 -0.00000000000E+00 -0.23860584075E+03  0.23860584075E+03  0.00000000000E+00 0. -1.
         21    1    1    2  503  502  0.14402298123E+02 -0.51173566305E+02 -0.14659211732E+03  0.15593398905E+03  0.00000000000E+00 0. -1.
         21    1    1    2  504  501 -0.33785746816E+02 -0.19502724548E+02  0.93818406181E+02  0.10160573946E+03  0.00000000000E+00 0.  1.
         21    1    1    2  505  506  0.83096213883E+02 -0.10156097270E+02  0.14805682727E+04  0.14829330859E+04  0.00000000000E+00 0. -1.
         21    1    1    2  506  503 -0.63712765190E+02  0.80832388122E+02 -0.50075105905E+02  0.11445832276E+03  0.00000000000E+00 0. -1.
<scales pt_clust_3="53.19136" pt_clust_4="39.01068" pt_clust_5="60.07370" pt_clust_6="14000.00000"></scales>
<clustering>
<clus scale="   39.011">  1  4  2 -1</clus>
<clus scale="   53.191">  2  3  1 -1</clus>
<clus scale="   60.074">  1  5  2 -1</clus>
<clus scale="   39.011">  1  3  2 -1</clus>
</clustering>
</event>
<event>
 6    0  0.5510638E+002  0.1237959E+03  0.7546771E-02  0.1236963E+00
         21   -1    0    0  506  501  0.00000000000E+00  0.00000000000E+00  0.19168528849E+03  0.19168528849E+03  0.00000000000E+00 0.  1.
         21   -1    0    0  505  502 -0.00000000000E+00 -0.00000000000E+00 -0.19433027624E+03  0.19433027624E+03  0.00000000000E+00 0. -1.
         21    1    1    2  503  504 -0.29508382196E+02  0.11052120938E+02 -0.45306520724E+01  0.31834270924E+02  0.00000000000E+00 0. -1.
         21    1    1    2  504  501 -0.42197725891E+02  0.50047382329E+02  0.48049327767E+02  0.81204226782E+02  0.00000000000E+00 0.  1.
         21    1    1    2  505  503 -0.34320251460E+02  0.38635092550E+02 -0.10416859786E+03  0.11628261614E+03  0.00000000000E+00 0.  1.
         21    1    1    2  506  502  0.10602635955E+03 -0.99734595816E+02  0.58004934415E+02  0.15669445088E+03  0.00000000000E+00 0. -1.
<scales pt_clust_3="31.09629" pt_clust_4="31.09629" pt_clust_5="51.67736" pt_clust_6="115.39719"></scales>
<clustering>
<clus scale="   31.096">  3  4 -1 -1</clus>
<clus scale="   51.677">  2  5  1 -1</clus>
<clus scale="  115.397">  2  6  1 -1</clus>
<clus scale="  123.796">  1  3  2 -1</clus>
</clustering>
</event>
<event>
 6    0  0.5510638E+002  0.1502244E+03  0.7546771E-02  0.1200198E+00
         21   -1    0    0  504  501  0.00000000000E+00  0.00000000000E+00  0.90841208814E+03  0.90841208814E+03  0.00000000000E+00 0.  1.
         21   -1    0    0  503  502 -0.00000000000E+00 -0.00000000000E+00 -0.18540939671E+04  0.18540939671E+04  0.00000000000E+00 0. -1.
         21    1    1    2  503  505  0.15814728186E+03 -0.72704793827E+02  0.30008540201E+03  0.34691180191E+03  0.00000000000E+00 0.  1.
         21    1    1    2  504  506 -0.13879745844E+03 -0.16748872963E+02  0.26323656841E+03  0.29805829994E+03  0.00000000000E+00 0.  1.
         21    1    1    2  505  501 -0.26926267824E+02 -0.24024794354E+02  0.30140536930E+03  0.30355792081E+03  0.00000000000E+00 0.  1.
         21    1    1    2  506  502  0.75764444035E+01  0.11347846114E+03 -0.18104092187E+04  0.18139780326E+04  0.00000000000E+00 0. -1.
<scales pt_clust_3="14000.00000" pt_clust_4="150.22437" pt_clust_5="36.08621" pt_clust_6="113.65525"></scales>
<clustering>
<clus scale="   36.086">  1  5  2 -1</clus>
<clus scale="  113.655">  2  6  1 -1</clus>
<clus scale="  150.224">  1  4  2 -1</clus>
<clus scale="   36.086">  1  3  2 -1</clus>
</clustering>
</event>
<event>
 6    0  0.5510638E+002  0.2013392E+03  0.7546771E-02  0.1148614E+00
         21   -1    0    0  504  501  0.00000000000E+00  0.00000000000E+00  0.41474298107E+03  0.41474298107E+03  0.00000000000E+00 0. -1.
         21   -1    0    0  506  502 -0.00000000000E+00 -0.00000000000E+00 -0.11401698839E+04  0.11401698839E+04  0.00000000000E+00 0.  1.
         21    1    1    2  503  505  0.16334356637E+03  0.55067917818E+01 -0.68621445095E+03  0.70540890137E+03  0.00000000000E+00 0.  1.
         21    1    1    2  504  502  0.14345122007E+03 -0.52620731456E+02 -0.52990050027E+02  0.16172550609E+03  0.00000000000E+00 0.  1.
         21    1    1    2  505  501 -0.20633712403E+03  0.66908194538E+02  0.30773456714E+03  0.37650003860E+03  0.00000000000E+00 0. -1.
         21    1    1    2  506  503 -0.10045766242E+03 -0.19794254864E+02 -0.29395696896E+03  0.31127841889E+03  0.00000000000E+00 0.  1.
<scales pt_clust_3="80.63183" pt_clust_4="14000.00000" pt_clust_5="201.33923" pt_clust_6="102.38923"></scales>
<clustering>
<clus scale="  102.389">  2  6  1 -1</clus>
<clus scale="   80.632">  2  3  1 -1</clus>
<clus scale="  201.339">  1  5  2 -1</clus>
<clus scale="  201.339">  1  3  2 -1</clus>
</clustering>
</event>
<event>
 6    0  0.5510638E+002  0.3906463E+03  0.7546771E-02  0.1047068E+00
         21   -1    0    0  504  501  0.00000000000E+00  0.00000000000E+00  0.63692427056E+03  0.63692427056E+03  0.00000000000E+00 0. -1.
         21   -1    0    0  506  502 -0.00000000000E+00 -0.00000000000E+00 -0.71119801995E+03  0.71119801995E+03  0.00000000000E+00 0.  1.
         21    1    1    2  503  502  0.43825519008E+02 -0.94747522778E+01 -0.85232565346E+01  0.45640913104E+02  0.00000000000E+00 0. -1.
         21    1    1    2  504  505 -0.54111301308E+02  0.28571726618E+03 -0.49411558716E+03  0.57333463405E+03  0.00000000000E+00 0.  1.
         21    1    1    2  505  503  0.78502135239E+00  0.12965210992E+03 -0.11964421220E+02  0.13020535028E+03  0.00000000000E+00 0.  1.
         21    1    1    2  506  501  0.95007609481E+01 -0.40589462382E+03  0.44032951552E+03  0.59894139308E+03  0.00000000000E+00 0. -1.
<scales pt_clust_3="44.83801" pt_clust_4="390.64628" pt_clust_5="128.77833" pt_clust_6="14000.00000"></scales>
<clustering>
<clus scale="   44.838">  2  3  1 -1</clus>
<clus scale="  128.778">  2  5  1 -1</clus>
<clus scale="  390.646">  2  4  1 -1</clus>
<clus scale="  390.646">  1  3  2 -1</clus>
</clustering>
</event>
<event>
 6    0  0.5510638E+002  0.1204961E+03  0.7546771E-02  0.1242281E+00
         21   -1    0    0  503  501  0.00000000000E+00  0.00000000000E+00  0.22481980920E+03  0.22481980920E+03  0.00000000000E+00 0.  1.
         21   -1    0    0  505  502 -0.00000000000E+00 -0.00000000000E+00 -0.19080232137E+03  0.19080232137E+03  0.00000000000E+00 0.  1.
         21    1    1    2  503  506 -0.15264642865E+02 -0.35281435511E+02  0.76224790023E+02  0.85369828555E+02  0.00000000000E+00 0.  1.
         21    1    1    2  504  501  0.38076856085E+02  0.22689625219E+01  0.41675929007E+02  0.56496709806E+02  0.00000000000E+00 0.  1.
         21    1    1    2  505  504  0.42433132089E+02 -0.57684366422E+02  0.58712587724E+02  0.92602509608E+02  0.00000000000E+00 0.  1.
         21    1    1    2  506  502 -0.65245345309E+02  0.90696839411E+02 -0.14259581892E+03  0.18115308261E+03  0.00000000000E+00 0.  1.
<scales pt_clust_3="38.44202" pt_clust_4="37.21463" pt_clust_5="37.21463" pt_clust_6="109.17560"></scales>
<clustering>
<clus scale="   37.215">  4  5 -1 -1</clus>
<clus scale="   38.442">  1  3  2 -1</clus>
<clus scale="  109.176">  2  6  1 -1</clus>
<clus scale="   38.442">  1  3  2 -1</clus>
</clustering>
</event>
<event>
 6    0  0.5510638E+002  0.3107504E+03  0.7546771E-02  0.1079987E+00
         21   -1    0    0  506  501  0.00000000000E+00  0.00000000000E+00  0.52460724069E+03  0.52460724069E+03  0.00000000000E+00 0. -1.
         21   -1    0    0  503  502 -0.00000000000E+00 -0.00000000000E+00 -0.57831948130E+03  0.57831948130E+03  0.00000000000E+00 0. -1.
         21    1    1    2  503  504  0.24365732349E+03 -0.19010167726E+03 -0.16587539560E+03  0.35074518650E+03  0.00000000000E+00 0. -1.
         21    1    1    2  504  505  0.46573676479E+01  0.66084429287E+02  0.12489107841E+03  0.14137405821E+03  0.00000000000E+00 0. -1.
         21    1    1    2  505  501  0.24198055530E+02 -0.31392028547E+02  0.21787953070E+03  0.22145540239E+03  0.00000000000E+00 0. -1.
         21    1    1    2  506  502 -0.27251274667E+03  0.15540927652E+03 -0.23060745412E+03  0.38935207489E+03  0.00000000000E+00 0. -1.
<scales pt_clust_3="310.75041" pt_clust_4="54.54609" pt_clust_5="39.63591" pt_clust_6="14000.00000"></scales>
<clustering>
<clus scale="   39.636">  1  5  2 -1</clus>
<clus scale="   54.546">  1  4  2 -1</clus>
<clus scale="  310.750">  1  3  2 -1</clus>
<clus scale="   39.636">  1  3  2 -1</clus>
</clustering>
</event>
<event>
 6    0  0.5510638E+002  0.1462274E+03  0.7546771E-02  0.1205187E+00
         21   -1    0    0  506  501  0.00000000000E+00  0.00000000000E+00  0.38259676875E+03  0.38259676875E+03  0.00000000000E+00 0. -1.
         21   -1    0    0  504  502 -0.00000000000E+00 -0.00000000000E+00 -0.23913748989E+03  0.23913748989E+03  0.00000000000E+00 0. -1.
         21    1    1    2  503  505  0.95234344682E+02 -0.94379658756E+02 -0.40036016832E+02  0.13992849259E+03  0.00000000000E+00 0. -1.
         21    1    1    2  504  501 -0.41478769687E+02 -0.44545952604E+02  0.23168300485E+03  0.23954507919E+03  0.00000000000E+00 0. -1.
         21    1    1    2  505  502 -0.84293997161E+02  0.13479511312E+03 -0.95749066375E+02  0.18558848076E+03  0.00000000000E+00 0. -1.
         21    1    1    2  506  503  0.30538422166E+02  0.41304982414E+01  0.47561357221E+02  0.56672206105E+02  0.00000000000E+00 0. -1.
<scales pt_clust_3="146.22740" pt_clust_4="46.03263" pt_clust_5="14000.00000" pt_clust_6="30.81649"></scales>
<clustering>
<clus scale="   30.816">  1  6  2 -1</clus>
<clus scale="   46.033">  1  4  2 -1</clus>
<clus scale="  146.227">  1  3  2 -1</clus>
<clus scale="   30.816">  1  3  2 -1</clus>
</clustering>
</event>
<event>
 6    0  0.5510638E+002  0.1279676E+03  0.7546771E-02  0.1230503E+00
         21   -1    0    0  503  501  0.00000000000E+00  0.00000000000E+00  0.54290684188E+03  0.54290684188E+03  0.00000000000E+00 0. -1.
         21   -1    0    0  505  502 -0.00000000000E+00 -0.00000000000E+00 -0.37164177441E+03  0.37164177441E+03  0.00000000000E+00 0.  1.
         21    1    1    2  503  506 -0.86813706340E+02 -0.16321662142E+01  0.33906156861E+03  0.35000290125E+03  0.00000000000E+00 0.  1.
         21    1    1    2  504  501 -0.32893899126E+02  0.52343571069E+02  0.16283782554E+03  0.17417811418E+03  0.00000000000E+00 0. -1.
         21    1    1    2  505  504 -0.34705509343E+02  0.31155348279E+01 -0.22347537303E+02  0.41395547581E+02  0.00000000000E+00 0. -1.
         21    1    1    2  506  502  0.15441311481E+03 -0.53826939683E+02 -0.30828678939E+03  0.34897205328E+03  0.00000000000E+00 0.  1.
<scales pt_clust_3="14000.00000" pt_clust_4="62.17509" pt_clust_5="34.84507" pt_clust_6="127.96763"></scales>
<clustering>
<clus scale="   34.845">  2  5  1 -1</clus>
<clus scale="   62.175">  1  4  2 -1</clus>
<clus scale="  127.968">  2  6  1 -1</clus>
<clus scale="   62.175">  1  3  2 -1</clus>
</clustering>
</event>
<event>
 6    0  0.5510638E+002  0.1261921E+03  0.7546771E-02  0.1233218E+00
         21   -1    0    0  504  501  0.00000000000E+00  0.00000000000E+00  0.22134156640E+03  0.22134156640E+03  0.00000000000E+00 0.  1.
         21   -1    0    0  501  502 -0.00000000000E+00 -0.00000000000E+00 -0.55338625261E+03  0.55338625261E+03  0.00000000000E+00 0.  1.
         21    1    1    2  503  506  0.45810350823E+02 -0.89208595189E+02 -0.52271103233E+02  0.11308859329E+03  0.00000000000E+00 0.  1.
         21    1    1    2  504  503 -0.28022800453E+02  0.13198198790E+03  0.15631399213E+03  0.20649112961E+03  0.00000000000E+00 0.  1.
         21    1    1    2  505  502  0.39160375315E+02 -0.53128280820E+01 -0.30352649076E+03  0.30608837242E+03  0.00000000000E+00 0.  1.
         21    1    1    2  506  505 -0.56947925685E+02 -0.37460564629E+02 -0.13256108435E+03  0.14905972369E+03  0.00000000000E+00 0.  1.
<scales pt_clust_3="14000.00000" pt_clust_4="126.19207" pt_clust_5="39.51912" pt_clust_6="53.35201"></scales>
<clustering>
<clus scale="   39.519">  2  5  1 -1</clus>
<clus scale="   53.352">  2  6  1 -1</clus>
<clus scale="  126.192">  1  4  2 -1</clus>
<clus scale="  126.192">  1  3  2 -1</clus>
</clustering>
</event>
<event>
 6    0  0.5510638E+002  0.1221644E+03  0.7546771E-02  0.1239569E+00
         21   -1    0    0  504  501  0.00000000000E+00  0.00000000000E+00  0.99345988124E+02  0.99345988124E+02  0.00000000000E+00 0. -1.
         21   -1    0    0  506  502 -0.00000000000E+00 -0.00000000000E+00 -0.29865175162E+03  0.29865175162E+03  0.00000000000E+00 0.  1.
         21    1    1    2  503  501  0.38476080022E+02  0.45730315184E+02  0.30987837643E+02  0.67319510860E+02  0.00000000000E+00 0. -1.
         21    1    1    2  504  505 -0.57093080643E+02 -0.78180789043E+02 -0.13951069658E+03  0.16980898119E+03  0.00000000000E+00 0.  1.
         21    1    1    2  505  502 -0.40598071897E+02  0.79342187701E+01 -0.87394723664E+02  0.96690190782E+02  0.00000000000E+00 0.  1.
         21    1    1    2  506  503  0.59215072518E+02  0.24516255089E+02 -0.33881809001E+01  0.64179056916E+02  0.00000000000E+00 0. -1.
<scales pt_clust_3="45.11078" pt_clust_4="113.45553" pt_clust_5="41.36611" pt_clust_6="45.11078"></scales>
<clustering>
<clus scale="   41.366">  2  5  1 -1</clus>
<clus scale="   45.111">  3  6 -1 -1</clus>
<clus scale="  113.456">  2  4  1 -1</clus>
<clus scale="  122.164">  1  3  2 -1</clus>
</clustering>
</event>
<event>
 6    0  0.5510638E+002  0.1181203E+03  0.7546771E-02  0.1246231E+00
         21   -1    0    0  504  501  0.00000000000E+00  0.00000000000E+00  0.12145376035E+03  0.12145376035E+03  0.00000000000E+00 0.  1.
         21   -1    0    0  503  502 -0.00000000000E+00 -0.00000000000E+00 -0.34726124405E+03  0.34726124405E+03  0.00000000000E+00 0. -1.
         21    1    1    2  503  501  0.14298960229E+03  0.88941028882E+02 -0.18159767911E+03  0.24765752571E+03  0.00000000000E+00 0. -1.
         21    1    1    2  504  505 -0.46712474256E+02 -0.79529111210E+01  0.17470652835E+02  0.50502749994E+02  0.00000000000E+00 0.  1.
         21    1    1    2  505  506 -0.22498489536E+02 -0.30398871805E+02  0.25523892938E+02  0.45626116963E+02  0.00000000000E+00 0.  1.
         21    1    1    2  506  502 -0.73778638503E+02 -0.50589245956E+02 -0.87204350366E+02  0.12492861173E+03  0.00000000000E+00 0.  1.
<scales pt_clust_3="118.12030" pt_clust_4="85.97807" pt_clust_5="30.04747" pt_clust_6="14000.00000"></scales>
<clustering>
<clus scale="   30.047">  4  5 -1 -1</clus>
<clus scale="   85.978">  1  4  2 -1</clus>
<clus scale="  118.120">  1  3  2 -1</clus>
<clus scale="   85.978">  1  3  2 -1</clus>
</clustering>
</event>
<event>
 6    0  0.5510638E+002  0.1010882E+03  0.7546771E-02  0.1278024E+00
         21   -1    0    0  505  501  0.00000000000E+00  0.00000000000E+00  0.27408326198E+03  0.27408326198E+03  0.00000000000E+00 0.  1.
         21   -1    0    0  503  502 -0.00000000000E+00 -0.00000000000E+00 -0.22775390568E+04  0.22775390568E+04  0.00000000000E+00 0.  1.
         21    1    1    2  503  504  0.91138900560E+02 -0.36680412636E+02 -0.55754366721E+03  0.56613310512E+03  0.00000000000E+00 0. -1.
         21    1    1    2  504  501 -0.22564095680E+02 -0.19912040049E+02  0.76351908319E+02  0.82068518062E+02  0.00000000000E+00 0.  1.
         21    1    1    2  505  506  0.29776166948E+02 -0.81256214132E+02  0.17632209253E+03  0.19641454317E+03  0.00000000000E+00 0.  1.
         21    1    1    2  506  502 -0.98350971827E+02  0.13784866682E+03 -0.16985861285E+04  0.17070061524E+04  0.00000000000E+00 0.  1.
<scales pt_clust_3="97.94765" pt_clust_4="30.09365" pt_clust_5="14000.00000" pt_clust_6="101.08820"></scales>
<clustering>
<clus scale="   30.094">  1  4  2 -1</clus>
<clus scale="   97.948">  2  3  1 -1</clus>
<clus scale="  101.088">  2  6  1 -1</clus>
<clus scale="   30.094">  1  3  2 -1</clus>
</clustering>
</event>
<event>
 6    0  0.5510638E+002  0.1618981E+03  0.7546771E-02  0.1186570E+00
         21   -1    0    0  504  501  0.00000000000E+00  0.00000000000E+00  0.35916959500E+03  0.35916959500E+03  0.00000000000E+00 0.  1.
         21   -1    0    0  501  502 -0.00000000000E+00 -0.00000000000E+00 -0.22987637597E+04  0.22987637597E+04  0.00000000000E+00 0. -1.
         21    1    1    2  503  506  0.57730321752E+02  0.32578151388E+02  0.79812067197E+02  0.10375014249E+03  0.00000000000E+00 0. -1.
         21    1    1    2  504  503  0.84366077271E+02  0.43409639049E+02  0.21892885451E+03  0.23860401315E+03  0.00000000000E+00 0.  1.
         21    1    1    2  505  502 -0.28365750679E+02 -0.16227895613E+02 -0.21696501233E+04  0.21698962229E+04  0.00000000000E+00 0. -1.
         21    1    1    2  506  505 -0.11373064834E+03 -0.59759894825E+02 -0.68684963130E+02  0.14568297623E+03  0.00000000000E+00 0. -1.
<scales pt_clust_3="36.95546" pt_clust_4="36.95546" pt_clust_5="32.67966" pt_clust_6="155.61588"></scales>
<clustering>
<clus scale="   32.680">  2  5  1 -1</clus>
<clus scale="   36.955">  3  4 -1 -1</clus>
<clus scale="  155.616">  2  6  1 -1</clus>
<clus scale="  161.898">  1  3  2 -1</clus>
</clustering>
</event>
<event>
 6    0  0.5510638E+002  0.8683194E+02  0.7546771E-02  0.1310710E+00
         21   -1    0    0  505  501  0.00000000000E+00  0.00000000000E+00  0.10604349887E+03  0.10604349887E+03  0.00000000000E+00 0.  1.
         21   -1    0    0  503  502 -0.00000000000E+00 -0.00000000000E+00 -0.69730962666E+03  0.69730962666E+03  0.00000000000E+00 0.  1.
         21    1    1    2  503  504  0.73879649336E+02 -0.49608989828E+02 -0.53116000297E+03  0.53856309121E+03  0.00000000000E+00 0.  1.
         21    1    1    2  504  506 -0.10981634637E+02  0.10427277984E+03 -0.82549286171E+02  0.13344584506E+03  0.00000000000E+00 0.  1.
         21    1    1    2  505  502 -0.12137901236E+02 -0.48096068449E+02 -0.30075777703E+02  0.58009592750E+02  0.00000000000E+00 0.  1.
         21    1    1    2  506  501 -0.50760113463E+02 -0.65677215661E+01  0.52518939064E+02  0.73334596513E+02  0.00000000000E+00 0.  1.
<scales pt_clust_3="86.83194" pt_clust_4="14000.00000" pt_clust_5="49.60404" pt_clust_6="71.01301"></scales>
<clustering>
<clus scale="   49.604">  1  5  2 -1</clus>
<clus scale="   71.013">  1  6  2 -1</clus>
<clus scale="   86.832">  2  3  1 -1</clus>
<clus scale="   49.604">  1  3  2 -1</clus>
</clustering>
</event>
<event>
 6    0  0.5510638E+002  0.9284792E+02  0.7546771E-02  0.1296098E+00
         21   -1    0    0  502  501  0.00000000000E+00  0.00000000000E+00  0.46295223570E+03  0.46295223570E+03  0.00000000000E+00 0. -1.
         21   -1    0    0  503  502 -0.00000000000E+00 -0.00000000000E+00 -0.20822350409E+03  0.20822350409E+03  0.00000000000E+00 0. -1.
         21    1    1    2  503  504  0.85630766127E+02  0.34040689099E+02 -0.14053173871E+03  0.16804929695E+03  0.00000000000E+00 0. -1.
         21    1    1    2  504  506 -0.84776100247E+02 -0.45788866823E+02  0.18930763243E+02  0.98193590906E+02  0.00000000000E+00 0. -1.
         21    1    1    2  505  501  0.54203178008E+02 -0.26329204482E+02  0.28725636876E+03  0.29350882935E+03  0.00000000000E+00 0. -1.
         21    1    1    2  506  505 -0.55057843888E+02  0.38077382206E+02  0.89073338315E+02  0.11142402258E+03  0.00000000000E+00 0. -1.
<scales pt_clust_3="92.84792" pt_clust_4="14000.00000" pt_clust_5="60.25953" pt_clust_6="32.78096"></scales>
<clustering>
<clus scale="   60.260">  1  5  2 -1</clus>
<clus scale="   32.781">  1  6  2 -1</clus>
<clus scale="   92.848">  2  3  1 -1</clus>
<clus scale="   60.260">  1  3  2 -1</clus>
</clustering>
</event>
<event>
 6    0  0.5510638E+002  0.1720625E+03  0.7546771E-02  0.1175714E+00
         21   -1    0    0  504  501  0.00000000000E+00  0.00000000000E+00  0.63370481124E+02  0.63370481124E+02  0.00000000000E+00 0.  1.
         21   -1    0    0  503  502 -0.00000000000E+00 -0.00000000000E+00 -0.16121757559E+04  0.16121757559E+04  0.00000000000E+00 0.  1.
         21    1    1    2  503  506 -0.51994141209E+02  0.22191741962E+02 -0.10493001377E+04  0.10508218893E+04  0.00000000000E+00 0.  1.
         21    1    1    2  504  502  0.14921845262E+03  0.97974706842E+02 -0.37814323640E+03  0.41815965493E+03  0.00000000000E+00 0.  1.
         21    1    1    2  505  501 -0.74212381010E+02 -0.89290934037E+02 -0.51972631505E+02  0.12720653608E+03  0.00000000000E+00 0.  1.
         21    1    1    2  506  505 -0.23011930399E+02 -0.30875514767E+02 -0.69389269134E+02  0.79358156631E+02  0.00000000000E+00 0.  1.
<scales pt_clust_3="56.53197" pt_clust_4="159.86806" pt_clust_5="36.63987" pt_clust_6="36.63987"></scales>
<clustering>
<clus scale="   36.640">  5  6 -1 -1</clus>
<clus scale="   56.532">  2  3  1 -1</clus>
<clus scale="  159.868">  2  4  1 -1</clus>
<clus scale="  172.063">  1  3  2 -1</clus>
</clustering>
</event>
<event>
 6    0  0.5510638E+002  0.1149292E+03  0.7546771E-02  0.1251705E+00
         21   -1    0    0  506  501  0.00000000000E+00  0.00000000000E+00  0.46499998061E+03  0.46499998061E+03  0.00000000000E+00 0. -1.
         21   -1    0    0  505  502 -0.00000000000E+00 -0.00000000000E+00 -0.61958795801E+03  0.61958795801E+03  0.00000000000E+00 0. -1.
         21    1    1    2  503  502 -0.35862433508E+01 -0.14888654375E+03 -0.28022331589E+03  0.31734078027E+03  0.00000000000E+00 0. -1.
         21    1    1    2  504  501 -0.40057177811E+02  0.27029036219E+02  0.25687551193E+01  0.48391577738E+02  0.00000000000E+00 0.  1.
         21    1    1    2  505  504 -0.52923856596E+02  0.50597172347E+02 -0.28461187844E+03  0.29387910745E+03  0.00000000000E+00 0. -1.
         21    1    1    2  506  503  0.96567277758E+02  0.71260335188E+02  0.40767846182E+03  0.42497647316E+03  0.00000000000E+00 0. -1.
<scales pt_clust_3="114.92917" pt_clust_4="48.32335" pt_clust_5="73.72112" pt_clust_6="14000.00000"></scales>
<clustering>
<clus scale="   48.323">  1  4  2 -1</clus>
<clus scale="   73.721">  2  5  1 -1</clus>
<clus scale="  114.929">  2  3  1 -1</clus>
<clus scale="   48.323">  1  3  2 -1</clus>
</clustering>
</event>
<event>
 6    0  0.5510638E+002  0.9157455E+02  0.7546771E-02  0.1299083E+00
         21   -1    0    0  504  501  0.00000000000E+00  0.00000000000E+00  0.10333691620E+03  0.10333691620E+03  0.00000000000E+00 0. -1.
         21   -1    0    0  506  502 -0.00000000000E+00 -0.00000000000E+00 -0.68189949583E+03  0.68189949583E+03  0.00000000000E+00 0.  1.
         21    1    1    2  503  501  0.10097749721E+02 -0.38838052591E+02 -0.59783411007E+01  0.40572151049E+02  0.00000000000E+00 0.  1.
         21    1    1    2  504  505  0.75431435506E+02  0.51662577169E+01  0.54070688269E+02  0.92952842943E+02  0.00000000000E+00 0. -1.
         21    1    1    2  505  502 -0.11453074631E+03  0.54493055440E+02 -0.57562336468E+03  0.58943111803E+03  0.00000000000E+00 0.  1.
         21    1    1    2  506  503  0.29001561080E+02 -0.20821260566E+02 -0.51031562121E+02  0.62280300008E+02  0.00000000000E+00 0.  1.
<scales pt_clust_3="41.15986" pt_clust_4="14000.00000" pt_clust_5="91.57455" pt_clust_6="35.70176"></scales>
<clustering>
<clus scale="   35.702">  2  6  1 -1</clus>
<clus scale="   41.160">  1  3  2 -1</clus>
<clus scale="   91.575">  2  5  1 -1</clus>
<clus scale="   41.160">  1  3  2 -1</clus>
</clustering>
</event>
<event>
 6    0  0.5510638E+002  0.1331503E+03  0.7546771E-02  0.1222855E+00
         21   -1    0    0  506  501  0.00000000000E+00  0.00000000000E+00  0.13585331759E+03  0.13585331759E+03  0.00000000000E+00 0. -1.
         21   -1    0    0  503  502 -0.00000000000E+00 -0.00000000000E+00 -0.28649479869E+03  0.28649479869E+03  0.00000000000E+00 0. -1.
         21    1    1    2  503  504 -0.18758662365E+02  0.30554307729E+02 -0.28235099851E+02  0.45636323232E+02  0.00000000000E+00 0. -1.
         21    1    1    2  504  505 -0.88374038768E+02 -0.95402804419E+02 -0.11954270316E+03  0.17664122876E+03  0.00000000000E+00 0. -1.
         21    1    1    2  505  501  0.94352898917E+01 -0.49025671891E+02  0.17991769039E+01  0.49957764534E+02  0.00000000000E+00 0.  1.
         21    1    1    2  506  502  0.97697411241E+02  0.11387416858E+03 -0.46628550022E+01  0.15011279975E+03  0.00000000000E+00 0. -1.
<scales pt_clust_3="35.85322" pt_clust_4="133.15030" pt_clust_5="46.70426" pt_clust_6="14000.00000"></scales>
<clustering>
<clus scale="   35.853">  2  3  1 -1</clus>
<clus scale="   46.704">  1  5  2 -1</clus>
<clus scale="  133.150">  2  4  1 -1</clus>
<clus scale="   46.704">  1  3  2 -1</clus>
</clustering>
</event>
<event>
 6    0  0.5510638E+002  0.9950507E+02  0.7546771E-02  0.1281340E+00
         21   -1    0    0  503  501  0.00000000000E+00  0.00000000000E+00  0.21237507440E+03  0.21237507440E+03  0.00000000000E+00 0.  1.
         21   -1    0    0  506  502 -0.00000000000E+00 -0.00000000000E+00 -0.25761585525E+03  0.25761585525E+03  0.00000000000E+00 0.  1.
         21    1    1    2  503  504  0.26906183817E+02  0.98311162064E+02  0.10273912423E+03  0.14472164648E+03  0.00000000000E+00 0.  1.
         21    1    1    2  504  505 -0.17753356205E+02 -0.93969739809E+02  0.29486771349E+02  0.10007478874E+03  0.00000000000E+00 0.  1.
         21    1    1    2  505  502 -0.45638808978E+02 -0.57624492247E+02 -0.10436396907E+03  0.12765312778E+03  0.00000000000E+00 0.  1.
         21    1    1    2  506  501  0.36485981366E+02  0.53283069992E+02 -0.73102707357E+02  0.97541366645E+02  0.00000000000E+00 0.  1.
<scales pt_clust_3="14000.00000" pt_clust_4="99.50507" pt_clust_5="30.28221" pt_clust_6="64.57796"></scales>
<clustering>
<clus scale="   64.578">  2  6  1 -1</clus>
<clus scale="   30.282">  2  5  1 -1</clus>
<clus scale="   99.505">  2  4  1 -1</clus>
<clus scale="   99.505">  1  3  2 -1</clus>
</clustering>
</event>
<event>
 6    0  0.5510638E+002  0.7852796E+02  0.7546771E-02  0.1333282E+00
         21   -1    0    0  504  501  0.00000000000E+00  0.00000000000E+00  0.80198556241E+03  0.80198556241E+03  0.00000000000E+00 0. -1.
         21   -1    0    0  503  502 -0.00000000000E+00 -0.00000000000E+00 -0.58484594280E+03  0.58484594280E+03  0.00000000000E+00 0.  1.
         21    1    1    2  503  501 -0.49202637139E+02  0.61120932081E+00  0.14301993309E+03  0.15124805566E+03  0.00000000000E+00 0. -1.
         21    1    1    2  504  506 -0.10862394223E+02 -0.56571410352E+02  0.47216492367E+03  0.47566588192E+03  0.00000000000E+00 0. -1.
         21    1    1    2  505  502 -0.30608432786E+02  0.72774071878E+02 -0.56430168896E+03  0.56979762886E+03  0.00000000000E+00 0.  1.
         21    1    1    2  506  505  0.90673464148E+02 -0.16813870846E+02  0.16625645181E+03  0.19011993878E+03  0.00000000000E+00 0. -1.
<scales pt_clust_3="49.20643" pt_clust_4="72.86948" pt_clust_5="78.52796" pt_clust_6="14000.00000"></scales>
<clustering>
<clus scale="   49.206">  1  3  2 -1</clus>
<clus scale="   72.869">  1  4  2 -1</clus>
<clus scale="   78.528">  2  5  1 -1</clus>
<clus scale="   49.206">  1  3  2 -1</clus>
</clustering>
</event>
<event>
 6    0  0.5510638E+002  0.9745635E+02  0.7546771E-02  0.1285738E+00
         21   -1    0    0  506  501  0.00000000000E+00  0.00000000000E+00  0.97530912982E+02  0.97530912982E+02  0.00000000000E+00 0. -1.
         21   -1    0    0  504  502 -0.00000000000E+00 -0.00000000000E+00 -0.53286271172E+03  0.53286271172E+03  0.00000000000E+00 0. -1.
         21    1    1    2  503  502 -0.73607091391E+02  0.60785105334E+02 -0.40858682513E+03  0.41959030804E+03  0.00000000000E+00 0. -1.
         21    1    1    2  504  501  0.63475843983E+02 -0.11265513658E+03  0.33877281301E+01  0.12935161100E+03  0.00000000000E+00 0. -1.
         21    1    1    2  505  503 -0.20213801408E+02  0.32057577362E+02 -0.23547408874E+02  0.44618006437E+02  0.00000000000E+00 0.  1.
         21    1    1    2  506  505  0.30345048816E+02  0.19812453880E+02 -0.65852928639E+01  0.36833699224E+02  0.00000000000E+00 0. -1.
<scales pt_clust_3="97.45635" pt_clust_4="14000.00000" pt_clust_5="38.25328" pt_clust_6="36.24024"></scales>
<clustering>
<clus scale="   36.240">  1  6  2 -1</clus>
<clus scale="   38.253">  1  5  2 -1</clus>
<clus scale="   97.456">  2  3  1 -1</clus>
<clus scale="   36.240">  1  3  2 -1</clus>
</clustering>
</event>
<event>
 6    0  0.5510638E+002  0.1386672E+03  0.7546771E-02  0.1215134E+00
         21   -1    0    0  506  501  0.00000000000E+00  0.00000000000E+00  0.30285641667E+03  0.30285641667E+03  0.00000000000E+00 0.  1.
         21   -1    0    0  504  502 -0.00000000000E+00 -0.00000000000E+00 -0.29152050456E+03  0.29152050456E+03  0.00000000000E+00 0.  1.
         21    1    1    2  503  505 -0.58977422206E+02 -0.58509063640E+02  0.56827814208E+02  0.10065310391E+03  0.00000000000E+00 0.  1.
         21    1    1    2  504  503  0.42988585203E+01  0.16589775023E+03 -0.47377343860E+02  0.17258376641E+03  0.00000000000E+00 0.  1.
         21    1    1    2  505  501 -0.47059552004E+02 -0.78542298322E+01  0.12446815948E+03  0.13329896130E+03  0.00000000000E+00 0.  1.
         21    1    1    2  506  502  0.10173811569E+03 -0.99534456757E+02 -0.12258271771E+03  0.18784108961E+03  0.00000000000E+00 0.  1.
<scales pt_clust_3="101.47055" pt_clust_4="138.66720" pt_clust_5="47.71048" pt_clust_6="14000.00000"></scales>
<clustering>
<clus scale="   47.710">  1  5  2 -1</clus>
<clus scale="  101.471">  1  3  2 -1</clus>
<clus scale="  138.667">  1  4  2 -1</clus>
<clus scale="   47.710">  1  3  2 -1</clus>
</clustering>
</event>
<event>
 6    0  0.5510638E+002  0.7397585E+02  0.7546771E-02  0.1347072E+00
         21   -1    0    0  506  501  0.00000000000E+00  0.00000000000E+00  0.15139705188E+03  0.15139705188E+03  0.00000000000E+00 0. -1.
         21   -1    0    0  504  502 -0.00000000000E+00 -0.00000000000E+00 -0.15194865230E+04  0.15194865230E+04  0.00000000000E+00 0.  1.
         21    1    1    2  503  505 -0.65930222510E+02  0.80170876838E+02  0.48745199358E+02  0.11467457518E+03  0.00000000000E+00 0. -1.
         21    1    1    2  504  503  0.66459871306E+02  0.59341046438E+01  0.45071101368E+01  0.66876319678E+02  0.00000000000E+00 0. -1.
         21    1    1    2  505  501 -0.17634862971E+02 -0.55061080301E+02  0.90340757707E+01  0.58517736464E+02  0.00000000000E+00 0. -1.
         21    1    1    2  506  502  0.17105214175E+02 -0.31043901181E+02 -0.14303758564E+04  0.14308149436E+04  0.00000000000E+00 0.  1.
<scales pt_clust_3="14000.00000" pt_clust_4="73.97585" pt_clust_5="64.98965" pt_clust_6="35.44449"></scales>
<clustering>
<clus scale="   35.444">  2  6  1 -1</clus>
<clus scale="   64.990">  1  5  2 -1</clus>
<clus scale="   73.976">  2  4  1 -1</clus>
<clus scale="   64.990">  1  3  2 -1</clus>
</clustering>
</event>
<event>
 6    0  0.5510638E+002  0.2349868E+03  0.7546771E-02  0.1123178E+00
         21   -1    0    0  503  501  0.00000000000E+00  0.00000000000E+00  0.27898859798E+03  0.27898859798E+03  0.00000000000E+00 0.  1.
         21   -1    0    0  505  502 -0.00000000000E+00 -0.00000000000E+00 -0.64751225179E+03  0.64751225179E+03  0.00000000000E+00 0.  1.
         21    1    1    2  503  506  0.42518881652E+02  0.39634631751E+02 -0.24935777753E+02  0.63249919709E+02  0.00000000000E+00 0. -1.
         21    1    1    2  504  501 -0.29684502667E+03  0.22632897942E+02 -0.15126973226E+03  0.33393375065E+03  0.00000000000E+00 0.  1.
         21    1    1    2  505  504  0.70082926906E+02 -0.10367446355E+03 -0.29062501476E+03  0.31642204449E+03  0.00000000000E+00 0.  1.
         21    1    1    2  506  502  0.18424321811E+03  0.41406933857E+02  0.98306870963E+02  0.21289513491E+03  0.00000000000E+00 0.  1.
<scales pt_clust_3="58.12710" pt_clust_4="234.98678" pt_clust_5="124.72458" pt_clust_6="14000.00000"></scales>
<clustering>
<clus scale="   58.127">  1  3  2 -1</clus>
<clus scale="  124.725">  2  5  1 -1</clus>
<clus scale="  234.987">  2  4  1 -1</clus>
<clus scale="   58.127">  1  3  2 -1</clus>
</clustering>
</event>
<event>
 6    0  0.5510638E+002  0.2047757E+03  0.7546771E-02  0.1145771E+00
         21   -1    0    0  506  501  0.00000000000E+00  0.00000000000E+00  0.10561728500E+04  0.10561728500E+04  0.00000000000E+00 0.  1.
         21   -1    0    0  504  502 -0.00000000000E+00 -0.00000000000E+00 -0.20514097649E+03  0.20514097649E+03  0.00000000000E+00 0.  1.
         21    1    1    2  503  505  0.11029826476E+03 -0.10984446966E+03  0.39686132169E+03  0.42629851440E+03  0.00000000000E+00 0.  1.
         21    1    1    2  504  503 -0.17075295076E+03  0.12624080772E+03 -0.12140195646E+03  0.24460528768E+03  0.00000000000E+00 0.  1.
         21    1    1    2  505  501  0.37007484875E+02 -0.52477364361E+02  0.49425791580E+03  0.49841179264E+03  0.00000000000E+00 0.  1.
         21    1    1    2  506  502  0.23447201131E+02  0.36081026308E+02  0.81314592527E+02  0.91998231821E+02  0.00000000000E+00 0. -1.
<scales pt_clust_3="14000.00000" pt_clust_4="204.77572" pt_clust_5="59.65311" pt_clust_6="43.03036"></scales>
<clustering>
<clus scale="   43.030">  1  6  2 -1</clus>
<clus scale="   59.653">  1  5  2 -1</clus>
<clus scale="  204.776">  2  4  1 -1</clus>
<clus scale="   43.030">  1  3  2 -1</clus>
</clustering>
</event>
<event>
 6    0  0.5510638E+002  0.1215822E+03  0.7546771E-02  0.1240510E+00
         21   -1    0    0  506  501  0.00000000000E+00  0.00000000000E+00  0.10749739454E+03  0.10749739454E+03  0.00000000000E+00 0. -1.
         21   -1    0    0  505  502 -0.00000000000E+00 -0.00000000000E+00 -0.56609943382E+03  0.56609943382E+03  0.00000000000E+00 0.  1.
         21    1    1    2  503  504 -0.46049043464E+02  0.57921812767E+02  0.13615729049E+02  0.75238546475E+02  0.00000000000E+00 0. -1.
         21    1    1    2  504  502  0.14501258384E+02 -0.74091153118E+02 -0.39904145027E+03  0.40612050490E+03  0.00000000000E+00 0.  1.
         21    1    1    2  505  501  0.54976876076E+02 -0.23877223455E+02 -0.11505795802E+03  0.12973400636E+03  0.00000000000E+00 0.  1.
         21    1    1    2  506  503 -0.23429090997E+02  0.40046563806E+02  0.41881639955E+02  0.62503770630E+02  0.00000000000E+00 0. -1.
<scales pt_clust_3="30.33874" pt_clust_4="115.38742" pt_clust_5="59.93812" pt_clust_6="30.33874"></scales>
<clustering>
<clus scale="   30.339">  3  6 -1 -1</clus>
<clus scale="   59.938">  2  5  1 -1</clus>
<clus scale="  115.387">  2  4  1 -1</clus>
<clus scale="  121.582">  1  3  2 -1</clus>
</clustering>
</event>
<event>
 6    0  0.5510638E+002  0.8193160E+02  0.7546771E-02  0.1323658E+00
         21   -1    0    0  505  501  0.00000000000E+00  0.00000000000E+00  0.66400518265E+03  0.66400518265E+03  0.00000000000E+00 0. -1.
         21   -1    0    0  504  502 -0.00000000000E+00 -0.00000000000E+00 -0.68494927311E+02  0.68494927311E+02  0.00000000000E+00 0.  1.
         21    1    1    2  503  502  0.13417985003E+03 -0.35252572348E+01  0.19450689486E+03  0.23632518220E+03  0.00000000000E+00 0. -1.
         21    1    1    2  504  506 -0.52961686331E+02  0.26232644192E+02 -0.20198541051E+02  0.62458569475E+02  0.00000000000E+00 0.  1.
         21    1    1    2  505  503 -0.41119190972E+02 -0.19025342130E+02  0.34075847540E+03  0.34375731274E+03  0.00000000000E+00 0. -1.
         21    1    1    2  506  501 -0.40098972724E+02 -0.36820448277E+01  0.80443426130E+02  0.89959045544E+02  0.00000000000E+00 0. -1.
<scales pt_clust_3="81.93160" pt_clust_4="60.35941" pt_clust_5="14000.00000" pt_clust_6="40.26767"></scales>
<clustering>
<clus scale="   40.268">  1  6  2 -1</clus>
<clus scale="   60.359">  2  4  1 -1</clus>
<clus scale="   81.932">  2  3  1 -1</clus>
<clus scale="   40.268">  1  3  2 -1</clus>
</clustering>
</event>
<event>
 6    0  0.5510638E+002  0.7878859E+02  0.7546771E-02  0.1332525E+00
         21   -1    0    0  506  501  0.00000000000E+00  0.00000000000E+00  0.40769442278E+03  0.40769442278E+03  0.00000000000E+00 0. -1.
         21   -1    0    0  503  502 -0.00000000000E+00 -0.00000000000E+00 -0.10311156552E+04  0.10311156552E+04  0.00000000000E+00 0. -1.
         21    1    1    2  503  505 -0.67506620902E+02 -0.50365572732E+02 -0.83746978492E+03  0.84169440739E+03  0.00000000000E+00 0. -1.
         21    1    1    2  504  502  0.32955061214E+02 -0.18773714801E+02 -0.15529053053E+03  0.15985505091E+03  0.00000000000E+00 0. -1.
         21    1    1    2  505  501  0.66630745191E+00 -0.58123671362E+02  0.25902292291E+03  0.26546502543E+03  0.00000000000E+00 0. -1.
         21    1    1    2  506  504  0.33885252236E+02  0.12726295889E+03  0.11031616011E+03  0.17179559426E+03  0.00000000000E+00 0. -1.
<scales pt_clust_3="14000.00000" pt_clust_4="37.92741" pt_clust_5="58.19823" pt_clust_6="78.78859"></scales>
<clustering>
<clus scale="   37.927">  2  4  1 -1</clus>
<clus scale="   58.198">  1  5  2 -1</clus>
<clus scale="   78.789">  1  6  2 -1</clus>
<clus scale="   58.198">  1  3  2 -1</clus>
</clustering>
</event>
<event>
 6    0  0.5510638E+002  0.7426658E+02  0.7546771E-02  0.1346157E+00
         21   -1    0    0  506  501  0.00000000000E+00  0.00000000000E+00  0.17825296838E+04  0.17825296838E+04  0.00000000000E+00 0.  1.
         21   -1    0    0  505  502 -0.00000000000E+00 -0.00000000000E+00 -0.90228147964E+02  0.90228147964E+02  0.00000000000E+00 0. -1.
         21    1    1    2  503  501  0.47116031341E+02 -0.14585271676E+02  0.94507148938E+03  0.94635763356E+03  0.00000000000E+00 0.  1.
         21    1    1    2  504  502 -0.11117434603E+02 -0.89605502500E+02  0.28843486963E+03  0.30223735284E+03  0.00000000000E+00 0.  1.
         21    1    1    2  505  503  0.22683378731E+02  0.33328975460E+02 -0.73577315030E+02  0.83898614785E+02  0.00000000000E+00 0. -1.
         21    1    1    2  506  504 -0.58681975468E+02  0.70861798717E+02  0.53237249183E+03  0.54026423056E+03  0.00000000000E+00 0.  1.
<scales pt_clust_3="50.02958" pt_clust_4="74.26658" pt_clust_5="40.31571" pt_clust_6="14000.00000"></scales>
<clustering>
<clus scale="   40.316">  2  5  1 -1</clus>
<clus scale="   50.030">  1  3  2 -1</clus>
<clus scale="   74.267">  2  4  1 -1</clus>
<clus scale="   50.030">  1  3  2 -1</clus>
</clustering>
</event>
<event>
 6    0  0.5510638E+002  0.1170321E+03  0.7546771E-02  0.1248075E+00
         21   -1    0    0  504  501  0.00000000000E+00  0.00000000000E+00  0.25225188382E+02  0.25225188382E+02  0.00000000000E+00 0.  1.
         21   -1    0    0  505  502 -0.00000000000E+00 -0.00000000000E+00 -0.11655815979E+04  0.11655815979E+04  0.00000000000E+00 0.  1.
         21    1    1    2  503  501 -0.20799688924E+02 -0.12118470669E+03 -0.22400106937E+03  0.25552854884E+03  0.00000000000E+00 0.  1.
         21    1    1    2  504  506 -0.23184405843E+02  0.43368433161E+02 -0.12081038363E+03  0.13043575607E+03  0.00000000000E+00 0.  1.
         21    1    1    2  505  503  0.16937015925E+02  0.36116389644E+02 -0.64647843129E+03  0.64770797296E+03  0.00000000000E+00 0.  1.
         21    1    1    2  506  502  0.27047078842E+02  0.41699883884E+02 -0.14906652524E+03  0.15713450842E+03  0.00000000000E+00 0.  1.
<scales pt_clust_3="105.28502" pt_clust_4="48.58978" pt_clust_5="39.89055" pt_clust_6="48.58978"></scales>
<clustering>
<clus scale="   39.891">  2  5  1 -1</clus>
<clus scale="   48.590">  4  6 -1 -1</clus>
<clus scale="  105.285">  1  3  2 -1</clus>
<clus scale="  105.285">  1  3  2 -1</clus>
</clustering>
</event>
<event>
 6    0  0.5510638E+002  0.9628737E+02  0.7546771E-02  0.1288303E+00
         21   -1    0    0  504  501  0.00000000000E+00  0.00000000000E+00  0.31444813196E+03  0.31444813196E+03  0.00000000000E+00 0.  1.
         21   -1    0    0  503  502 -0.00000000000E+00 -0.00000000000E+00 -0.13400474673E+03  0.13400474673E+03  0.00000000000E+00 0.  1.
         21    1    1    2  503  501 -0.79940097865E+02  0.35521880912E+02  0.87162422081E+02  0.12348891081E+03  0.00000000000E+00 0.  1.
         21    1    1    2  504  505 -0.23224241007E+02 -0.22931762128E+02  0.44424942887E+02  0.55125371973E+02  0.00000000000E+00 0.  1.
         21    1    1    2  505  506  0.49797528099E+02  0.74151013735E+02  0.11707589372E+03  0.14725804404E+03  0.00000000000E+00 0.  1.
         21    1    1    2  506  502  0.53366810772E+02 -0.86741132519E+02 -0.68219873462E+02  0.12258055187E+03  0.00000000000E+00 0.  1.
<scales pt_clust_3="96.28737" pt_clust_4="32.63788" pt_clust_5="73.42022" pt_clust_6="14000.00000"></scales>
<clustering>
<clus scale="   32.638">  1  4  2 -1</clus>
<clus scale="   73.420">  1  5  2 -1</clus>
<clus scale="   96.287">  1  3  2 -1</clus>
<clus scale="   32.638">  1  3  2 -1</clus>
</clustering>
</event>
<event>
 6    0  0.5510638E+002  0.1281842E+03  0.7546771E-02  0.1230175E+00
         21   -1    0    0  504  501  0.00000000000E+00  0.00000000000E+00  0.79856010723E+02  0.79856010723E+02  0.00000000000E+00 0.  1.
         21   -1    0    0  505  502 -0.00000000000E+00 -0.00000000000E+00 -0.75552209681E+03  0.75552209681E+03  0.00000000000E+00 0.  1.
         21    1    1    2  503  501  0.22816834434E+02 -0.26028676230E+02 -0.45706716068E+02  0.57334141780E+02  0.00000000000E+00 0.  1.
         21    1    1    2  504  502  0.94518251891E+02  0.67560237340E+02 -0.92449018672E+01  0.11654850415E+03  0.00000000000E+00 0.  1.
         21    1    1    2  505  506  0.37564317681E+01  0.55997488665E+02 -0.29847778880E+03  0.30370844559E+03  0.00000000000E+00 0.  1.
         21    1    1    2  506  503 -0.12109151809E+03 -0.97529049775E+02 -0.32223667936E+03  0.35778701602E+03  0.00000000000E+00 0.  1.
<scales pt_clust_3="34.61358" pt_clust_4="14000.00000" pt_clust_5="55.26674" pt_clust_6="128.18415"></scales>
<clustering>
<clus scale="   34.614">  1  3  2 -1</clus>
<clus scale="   55.267">  2  5  1 -1</clus>
<clus scale="  128.184">  2  6  1 -1</clus>
<clus scale="   34.614">  1  3  2 -1</clus>
</clustering>
</event>
<event>
 6    0  0.5510638E+002  0.2803018E+03  0.7546771E-02  0.1095524E+00
         21   -1    0    0  505  501  0.00000000000E+00  0.00000000000E+00  0.30660439116E+03  0.30660439116E+03  0.00000000000E+00 0.  1.
         21   -1    0    0  506  502 -0.00000000000E+00 -0.00000000000E+00 -0.17475013895E+04  0.17475013895E+04  0.00000000000E+00 0.  1.
         21    1    1    2  503  501 -0.23273945025E+03  0.86172503834E+02  0.15643338874E+03  0.29336795536E+03  0.00000000000E+00 0.  1.
         21    1    1    2  504  502  0.12591046538E+03 -0.13996763037E+03 -0.16565848905E+03  0.25077304049E+03  0.00000000000E+00 0.  1.
         21    1    1    2  505  504  0.10626501582E+03 -0.11436769031E+02 -0.36014129135E+02  0.11278329119E+03  0.00000000000E+00 0.  1.
         21    1    1    2  506  503  0.56396905269E+00  0.65231895565E+02 -0.13956577689E+04  0.13971814936E+04  0.00000000000E+00 0.  1.
<scales pt_clust_3="252.77752" pt_clust_4="98.21793" pt_clust_5="98.21793" pt_clust_6="65.23433"></scales>
<clustering>
<clus scale="   65.234">  2  6  1 -1</clus>
<clus scale="   98.218">  4  5 -1 -1</clus>
<clus scale="  252.778">  1  3  2 -1</clus>
<clus scale="  252.778">  1  3  2 -1</clus>
</clustering>
</event>
<event>
 6    0  0.5510638E+002  0.5517133E+02  0.7546771E-02  0.1419290E+00
         21   -1    0    0  503  501  0.00000000000E+00  0.00000000000E+00  0.14577418607E+04  0.14577418607E+04  0.00000000000E+00 0. -1.
         21   -1    0    0  505  502 -0.00000000000E+00 -0.00000000000E+00 -0.41920630595E+02  0.41920630595E+02  0.00000000000E+00 0.  1.
         21    1    1    2  503  506 -0.66629309883E+00  0.32275914928E+02  0.29604366471E+03  0.29779864010E+03  0.00000000000E+00 0.  1.
         21    1    1    2  504  501 -0.37997639291E+02 -0.63985442511E+02  0.10121736420E+04  0.10149056306E+04  0.00000000000E+00 0. -1.
         21    1    1    2  505  504 -0.41954932801E+02 -0.27624866298E+02  0.52635580294E+02  0.72758875315E+02  0.00000000000E+00 0. -1.
         21    1    1    2  506  502  0.80618865190E+02  0.59334393881E+02  0.54968343107E+02  0.11419934529E+03  0.00000000000E+00 0.  1.
<scales pt_clust_3="32.28279" pt_clust_4="14000.00000" pt_clust_5="49.32641" pt_clust_6="55.17133"></scales>
<clustering>
<clus scale="   32.283">  1  3  2 -1</clus>
<clus scale="   49.326">  2  5  1 -1</clus>
<clus scale="   55.171">  2  6  1 -1</clus>
<clus scale="   32.283">  1  3  2 -1</clus>
</clustering>
</event>
<event>
 6    0  0.5510638E+002  0.3080003E+03  0.7546771E-02  0.1081308E+00
         21   -1    0    0  506  501  0.00000000000E+00  0.00000000000E+00  0.23404603319E+04  0.23404603319E+04  0.00000000000E+00 0.  1.
         21   -1    0    0  501  502 -0.00000000000E+00 -0.00000000000E+00 -0.10939786046E+03  0.10939786046E+03  0.00000000000E+00 0.  1.
         21    1    1    2  503  504 -0.70704386697E+02  0.24931405093E+02  0.76119310116E+03  0.76487621385E+03  0.00000000000E+00 0. -1.
         21    1    1    2  504  505 -0.25675574562E+03 -0.48983010456E+02  0.65643053358E+03  0.70655777799E+03  0.00000000000E+00 0.  1.
         21    1    1    2  505  502  0.33393618630E+03 -0.26345485897E+02  0.26363013093E+03  0.42627257369E+03  0.00000000000E+00 0.  1.
         21    1    1    2  506  503 -0.64760539804E+01  0.50397091260E+02  0.54980870572E+03  0.55215162679E+03  0.00000000000E+00 0.  1.
<scales pt_clust_3="86.90285" pt_clust_4="14000.00000" pt_clust_5="308.00034" pt_clust_6="50.81148"></scales>
<clustering>
<clus scale="   50.811">  1  6  2 -1</clus>
<clus scale="   86.903">  1  3  2 -1</clus>
<clus scale="  308.000">  2  5  1 -1</clus>
<clus scale="   50.811">  1  3  2 -1</clus>
</clustering>
</event>
<event>
 6    0  0.5510638E+002  0.1298085E+03  0.7546771E-02  0.1227740E+00
         21   -1    0    0  504  501  0.00000000000E+00  0.00000000000E+00  0.14100413012E+04  0.14100413012E+04  0.00000000000E+00 0.  1.
         21   -1    0    0  503  502 -0.00000000000E+00 -0.00000000000E+00 -0.44449784691E+03  0.44449784691E+03  0.00000000000E+00 0.  1.
         21    1    1    2  503  506  0.32315888637E+02 -0.17086169811E+02 -0.33627666769E+03  0.33825766967E+03  0.00000000000E+00 0.  1.
         21    1    1    2  504  505  0.11939826768E+03  0.45067126632E+02  0.35414625001E+03  0.37643931599E+03  0.00000000000E+00 0.  1.
         21    1    1    2  505  502 -0.17836261530E+02 -0.43280930929E+02 -0.85736433569E+02  0.97683710253E+02  0.00000000000E+00 0.  1.
         21    1    1    2  506  501 -0.13387789479E+03  0.15299974108E+02  0.10334103055E+04  0.10421584522E+04  0.00000000000E+00 0.  1.
<scales pt_clust_3="36.55481" pt_clust_4="14000.00000" pt_clust_5="58.71800" pt_clust_6="129.80850"></scales>
<clustering>
<clus scale="   36.555">  2  3  1 -1</clus>
<clus scale="   58.718">  2  5  1 -1</clus>
<clus scale="  129.808">  1  6  2 -1</clus>
<clus scale="  129.808">  1  3  2 -1</clus>
</clustering>
</event>
<event>
 6    0  0.5510638E+002  0.9606125E+02  0.7546771E-02  0.1288804E+00
         21   -1    0    0  505  501  0.00000000000E+00  0.00000000000E+00  0.18438838873E+04  0.18438838873E+04  0.00000000000E+00 0. -1.
         21   -1    0    0  506  502 -0.00000000000E+00 -0.00000000000E+00 -0.38096784022E+02  0.38096784022E+02  0.00000000000E+00 0.  1.
         21    1    1    2  503  502 -0.48228216155E+02  0.48309122158E+02  0.11370615907E+02  0.69202767454E+02  0.00000000000E+00 0.  1.
         21    1    1    2  504  501  0.59645610310E+02 -0.58362700299E+02  0.50063384461E+03  0.50754118058E+03  0.00000000000E+00 0. -1.
         21    1    1    2  505  503 -0.45056801694E+02  0.61623334617E+02  0.10818838869E+04  0.10845737852E+04  0.00000000000E+00 0. -1.
         21    1    1    2  506  504  0.33639407539E+02 -0.51569756476E+02  0.21189875586E+03  0.22066293812E+03  0.00000000000E+00 0. -1.
<scales pt_clust_3="68.26223" pt_clust_4="36.35477" pt_clust_5="86.23498" pt_clust_6="36.35477"></scales>
<clustering>
<clus scale="   36.355">  4  6 -1 -1</clus>
<clus scale="   68.262">  2  3  1 -1</clus>
<clus scale="   86.235">  1  5  2 -1</clus>
<clus scale="   86.235">  1  3  2 -1</clus>
</clustering>
</event>
<event>
 6    0  0.5510638E+002  0.1168163E+03  0.7546771E-02  0.1248443E+00
         21   -1    0    0  504  501  0.00000000000E+00  0.00000000000E+00  0.10893107724E+04  0.10893107724E+04  0.00000000000E+00 0.  1.
         21   -1    0    0  506  502 -0.00000000000E+00 -0.00000000000E+00 -0.43871256317E+03  0.43871256317E+03  0.00000000000E+00 0. -1.
         21    1    1    2  503  505 -0.17617655810E+03 -0.56192277845E+02  0.89191016053E+02  0.20530657334E+03  0.00000000000E+00 0.  1.
         21    1    1    2  504  502  0.21592890403E+02 -0.28800546579E+02  0.13080788979E+03  0.13567029310E+03  0.00000000000E+00 0. -1.
         21    1    1    2  505  501  0.92477508352E+02  0.19434498531E+02  0.80061383968E+03  0.80617138970E+03  0.00000000000E+00 0.  1.
         21    1    1    2  506  503  0.62106159340E+02  0.65558325892E+02 -0.37001453625E+03  0.38087507947E+03  0.00000000000E+00 0. -1.
<scales pt_clust_3="116.81635" pt_clust_4="35.99617" pt_clust_5="14000.00000" pt_clust_6="90.27124"></scales>
<clustering>
<clus scale="   35.996">  1  4  2 -1</clus>
<clus scale="   90.271">  2  6  1 -1</clus>
<clus scale="  116.816">  2  3  1 -1</clus>
<clus scale="   35.996">  1  3  2 -1</clus>
</clustering>
</event>
<event>
 6    0  0.5510638E+002  0.1001345E+03  0.7546771E-02  0.1280013E+00
         21   -1    0    0  506  501  0.00000000000E+00  0.00000000000E+00  0.36770228865E+03  0.36770228865E+03  0.00000000000E+00 0. -1.
         21   -1    0    0  504  502 -0.00000000000E+00 -0.00000000000E+00 -0.42725244331E+03  0.42725244331E+03  0.00000000000E+00 0. -1.
         21    1    1    2  503  502 -0.55960389221E+02  0.12549530097E+03 -0.85022316204E+02  0.16158412663E+03  0.00000000000E+00 0. -1.
         21    1    1    2  504  505  0.77126213033E+02 -0.56339351560E+02 -0.28866631592E+03  0.30405725977E+03  0.00000000000E+00 0. -1.
         21    1    1    2  505  501 -0.15615865193E+02 -0.29364625164E+02  0.25880064777E+03  0.26092894002E+03  0.00000000000E+00 0. -1.
         21    1    1    2  506  503 -0.55499586193E+01 -0.39791324241E+02  0.55337829689E+02  0.68384405534E+02  0.00000000000E+00 0. -1.
<scales pt_clust_3="100.13453" pt_clust_4="14000.00000" pt_clust_5="33.25863" pt_clust_6="58.46505"></scales>
<clustering>
<clus scale="   33.259">  1  5  2 -1</clus>
<clus scale="   58.465">  1  6  2 -1</clus>
<clus scale="  100.135">  1  3  2 -1</clus>
<clus scale="   33.259">  1  3  2 -1</clus>
</clustering>
</event>
<event>
 6    0  0.5510638E+002  0.1091508E+03  0.7546771E-02  0.1262151E+00
         21   -1    0    0  506  501  0.00000000000E+00  0.00000000000E+00  0.15436881325E+03  0.15436881325E+03  0.00000000000E+00 0.  1.
         21   -1    0    0  505  502 -0.00000000000E+00 -0.00000000000E+00 -0.27293578648E+04  0.27293578648E+04  0.00000000000E+00 0.  1.
         21    1    1    2  503  501  0.87727513238E+02  0.52969674476E+02  0.77844056194E+02  0.12869188039E+03  0.00000000000E+00 0.  1.
         21    1    1    2  504  502  0.34574088160E+02  0.13939361575E+02 -0.12711803125E+03  0.13247138272E+03  0.00000000000E+00 0.  1.
         21    1    1    2  505  503 -0.23769725828E+02  0.29004973657E+02 -0.24760935296E+04  0.24763774865E+04  0.00000000000E+00 0.  1.
         21    1    1    2  506  504 -0.98531875571E+02 -0.95914009708E+02 -0.49621546937E+02  0.14618592847E+03  0.00000000000E+00 0.  1.
<scales pt_clust_3="14000.00000" pt_clust_4="37.27832" pt_clust_5="43.26471" pt_clust_6="109.15085"></scales>
<clustering>
<clus scale="   37.278">  2  4  1 -1</clus>
<clus scale="   43.265">  2  5  1 -1</clus>
<clus scale="  109.151">  2  6  1 -1</clus>
<clus scale="  109.151">  1  3  2 -1</clus>
</clustering>
</event>
<event>
 6    0  0.5510638E+002  0.9963723E+02  0.7546771E-02  0.1281061E+00
         21   -1    0    0  504  501  0.00000000000E+00  0.00000000000E+00  0.63444249812E+03  0.63444249812E+03  0.00000000000E+00 0.  1.
         21   -1    0    0  506  502 -0.00000000000E+00 -0.00000000000E+00 -0.21302034921E+03  0.21302034921E+03  0.00000000000E+00 0.  1.
         21    1    1    2  503  501  0.19476483518E+02 -0.10461708057E+03  0.41368569159E+03  0.42715327271E+03  0.00000000000E+00 0.  1.
         21    1    1    2  504  505  0.33541706910E+02  0.21435201934E+02  0.17015398501E+03  0.17474808325E+03  0.00000000000E+00 0.  1.
         21    1    1    2  505  502 -0.24052946717E+02  0.11119622177E+03 -0.46613829362E+02  0.12294711493E+03  0.00000000000E+00 0.  1.
         21    1    1    2  506  503 -0.28965243711E+02 -0.28014343128E+02 -0.11580369833E+03  0.12261437644E+03  0.00000000000E+00 0.  1.
<scales pt_clust_3="14000.00000" pt_clust_4="39.80595" pt_clust_5="99.63723" pt_clust_6="40.00875"></scales>
<clustering>
<clus scale="   39.806">  1  4  2 -1</clus>
<clus scale="   40.009">  2  6  1 -1</clus>
<clus scale="   99.637">  2  5  1 -1</clus>
<clus scale="   39.806">  1  3  2 -1</clus>
</clustering>
</event>
<event>
 6    0  0.5510638E+002  0.1000676E+03  0.7546771E-02  0.1280154E+00
         21   -1    0    0  504  501  0.00000000000E+00  0.00000000000E+00  0.16160124218E+04  0.16160124218E+04  0.00000000000E+00 0.  1.
         21   -1    0    0  503  502 -0.00000000000E+00 -0.00000000000E+00 -0.41417149050E+02  0.41417149050E+02  0.00000000000E+00 0.  1.
         21    1    1    2  503  501  0.38625528386E+02  0.70569895927E+02  0.36684280282E+03  0.37556049265E+03  0.00000000000E+00 0.  1.
         21    1    1    2  504  505 -0.61550550510E+02  0.27702156881E+02  0.34886288963E+03  0.35533251403E+03  0.00000000000E+00 0.  1.
         21    1    1    2  505  506  0.64512329771E+02 -0.14223118933E+03  0.85134800334E+03  0.86555472080E+03  0.00000000000E+00 0.  1.
         21    1    1    2  506  502 -0.41587307647E+02  0.43959136518E+02  0.75415769776E+01  0.60981843396E+02  0.00000000000E+00 0.  1.
<scales pt_clust_3="14000.00000" pt_clust_4="79.97578" pt_clust_5="100.06757" pt_clust_6="60.51372"></scales>
<clustering>
<clus scale="   60.514">  2  6  1 -1</clus>
<clus scale="   79.976">  1  4  2 -1</clus>
<clus scale="  100.068">  1  5  2 -1</clus>
<clus scale="   79.976">  1  3  2 -1</clus>
</clustering>
</event>
<event>
 6    0  0.5510638E+002  0.8164852E+02  0.7546771E-02  0.1324437E+00
         21   -1    0    0  505  501  0.00000000000E+00  0.00000000000E+00  0.10111712975E+04  0.10111712975E+04  0.00000000000E+00 0.  1.
         21   -1    0    0  506  502 -0.00000000000E+00 -0.00000000000E+00 -0.74412354308E+02  0.74412354308E+02  0.00000000000E+00 0. -1.
         21    1    1    2  503  501  0.11112181031E+02 -0.51273938314E+02  0.22585259949E+03  0.23186611226E+03  0.00000000000E+00 0.  1.
         21    1    1    2  504  502  0.46284537669E+01 -0.30077439739E+02  0.23387951139E+02  0.38380610001E+02  0.00000000000E+00 0.  1.
         21    1    1    2  505  504  0.64846592228E+02  0.17943791846E+02  0.70764677100E+03  0.71083824650E+03  0.00000000000E+00 0.  1.
         21    1    1    2  506  503 -0.80587227026E+02  0.63407586207E+02 -0.20128378402E+02  0.10449868308E+03  0.00000000000E+00 0. -1.
<scales pt_clust_3="53.82918" pt_clust_4="30.43148" pt_clust_5="81.64852" pt_clust_6="14000.00000"></scales>
<clustering>
<clus scale="   30.431">  2  4  1 -1</clus>
<clus scale="   53.829">  1  3  2 -1</clus>
<clus scale="   81.649">  1  5  2 -1</clus>
<clus scale="   53.829">  1  3  2 -1</clus>
</clustering>
</event>
<event>
 6    0  0.5510638E+002  0.2747940E+03  0.7546771E-02  0.1098567E+00
         21   -1    0    0  504  501  0.00000000000E+00  0.00000000000E+00  0.23861102818E+03  0.23861102818E+03  0.00000000000E+00 0.  1.
         21   -1    0    0  505  502 -0.00000000000E+00 -0.00000000000E+00 -0.65272345097E+03  0.65272345097E+03  0.00000000000E+00 0.  1.
         21    1    1    2  503  501 -0.68257496529E+01 -0.13495530075E+03 -0.44955986968E+01  0.13520256827E+03  0.00000000000E+00 0.  1.
         21    1    1    2  504  502 -0.47313505447E+02  0.48981086167E+01 -0.35964199888E+02  0.59632063014E+02  0.00000000000E+00 0. -1.
         21    1    1    2  505  506  0.11640830272E+03  0.22854087298E+03 -0.47646281552E+03  0.54110871194E+03  0.00000000000E+00 0.  1.
         21    1    1    2  506  503 -0.62269047617E+02 -0.98483680845E+02  0.10281019132E+03  0.15539113592E+03  0.00000000000E+00 0.  1.
<scales pt_clust_3="116.18865" pt_clust_4="47.56637" pt_clust_5="244.95033" pt_clust_6="116.18865"></scales>
<clustering>
<clus scale="   47.566">  2  4  1 -1</clus>
<clus scale="  116.189">  3  6 -1 -1</clus>
<clus scale="  244.950">  2  5  1 -1</clus>
<clus scale="  274.794">  1  3  2 -1</clus>
</clustering>
</event>
<event>
 6    0  0.5510638E+002  0.9822093E+02  0.7546771E-02  0.1284082E+00
         21   -1    0    0  504  501  0.00000000000E+00  0.00000000000E+00  0.13484786786E+03  0.13484786786E+03  0.00000000000E+00 0.  1.
         21   -1    0    0  506  502 -0.00000000000E+00 -0.00000000000E+00 -0.26323084097E+03  0.26323084097E+03  0.00000000000E+00 0.  1.
         21    1    1    2  503  502  0.64923200959E+01 -0.44132323086E+02 -0.12768411929E+03  0.13525178919E+03  0.00000000000E+00 0.  1.
         21    1    1    2  504  503 -0.99693586700E+02 -0.26626451538E+02  0.54379162251E+02  0.11663992643E+03  0.00000000000E+00 0.  1.
         21    1    1    2  505  501  0.84803932426E+02  0.25911852632E+02 -0.27351607133E+02  0.92796775130E+02  0.00000000000E+00 0.  1.
         21    1    1    2  506  505  0.83973341774E+01  0.44846921992E+02 -0.27726408933E+02  0.53390218072E+02  0.00000000000E+00 0.  1.
<scales pt_clust_3="44.60731" pt_clust_4="14000.00000" pt_clust_5="98.22093" pt_clust_6="32.94557"></scales>
<clustering>
<clus scale="   44.607">  2  3  1 -1</clus>
<clus scale="   32.946">  2  6  1 -1</clus>
<clus scale="   98.221">  2  5  1 -1</clus>
<clus scale="   98.221">  1  3  2 -1</clus>
</clustering>
</event>
<event>
 6    0  0.5510638E+002  0.1378351E+03  0.7546771E-02  0.1216272E+00
         21   -1    0    0  502  501  0.00000000000E+00  0.00000000000E+00  0.77598625130E+02  0.77598625130E+02  0.00000000000E+00 0.  1.
         21   -1    0    0  503  502 -0.00000000000E+00 -0.00000000000E+00 -0.11227944699E+04  0.11227944699E+04  0.00000000000E+00 0.  1.
         21    1    1    2  503  506  0.40299508311E+02  0.15240684716E+02 -0.40529928228E+03  0.40758292047E+03  0.00000000000E+00 0.  1.
         21    1    1    2  504  505 -0.11961174076E+03 -0.14833154044E+01 -0.18854431418E+02  0.12109772226E+03  0.00000000000E+00 0.  1.
         21    1    1    2  505  501 -0.21660674202E+02  0.46750416744E+02 -0.14042302203E+02  0.53403862443E+02  0.00000000000E+00 0.  1.
         21    1    1    2  506  504  0.10097290665E+03 -0.60507786056E+02 -0.60699982891E+03  0.61830858990E+03  0.00000000000E+00 0.  1.
<scales pt_clust_3="43.08513" pt_clust_4="137.83513" pt_clust_5="51.41787" pt_clust_6="14000.00000"></scales>
<clustering>
<clus scale="   43.085">  2  3  1 -1</clus>
<clus scale="   51.418">  1  5  2 -1</clus>
<clus scale="  137.835">  1  4  2 -1</clus>
<clus scale="   51.418">  1  3  2 -1</clus>
</clustering>
</event>
<event>
 6    0  0.5510638E+002  0.1107727E+03  0.7546771E-02  0.1259146E+00
         21   -1    0    0  505  501  0.00000000000E+00  0.00000000000E+00  0.33250792446E+03  0.33250792446E+03  0.00000000000E+00 0.  1.
         21   -1    0    0  503  502 -0.00000000000E+00 -0.00000000000E+00 -0.15942533525E+03  0.15942533525E+03  0.00000000000E+00 0.  1.
         21    1    1    2  503  504 -0.64278203368E+01  0.86844740857E+02 -0.69282599647E+02  0.11128074632E+03  0.00000000000E+00 0.  1.
         21    1    1    2  504  501  0.12600362380E+03 -0.50193543131E+02  0.64461549983E+02  0.15017188954E+03  0.00000000000E+00 0.  1.
         21    1    1    2  505  506 -0.28800687268E+02  0.23392600185E+02  0.36561486427E+02  0.52090648107E+02  0.00000000000E+00 0.  1.
         21    1    1    2  506  502 -0.90775116192E+02 -0.60043797911E+02  0.14134215245E+03  0.17838997574E+03  0.00000000000E+00 0.  1.
<scales pt_clust_3="88.95886" pt_clust_4="110.77270" pt_clust_5="37.10382" pt_clust_6="14000.00000"></scales>
<clustering>
<clus scale="   37.104">  1  5  2 -1</clus>
<clus scale="   88.959">  2  3  1 -1</clus>
<clus scale="  110.773">  2  4  1 -1</clus>
<clus scale="   37.104">  1  3  2 -1</clus>
</clustering>
</event>
<event>
 6    0  0.5510638E+002  0.1201689E+03  0.7546771E-02  0.1242819E+00
         21   -1    0    0  504  501  0.00000000000E+00  0.00000000000E+00  0.13028584580E+04  0.13028584580E+04  0.00000000000E+00 0.  1.
         21   -1    0    0  505  502 -0.00000000000E+00 -0.00000000000E+00 -0.91183906777E+02  0.91183906777E+02  0.00000000000E+00 0. -1.
         21    1    1    2  503  501  0.54258669698E+02 -0.45532016608E+02  0.36472877328E+03  0.37154306053E+03  0.00000000000E+00 0. -1.
         21    1    1    2  504  506  0.70704978443E+02  0.13030635774E+02  0.76567458640E+03  0.76904262802E+03  0.00000000000E+00 0.  1.
         21    1    1    2  505  503  0.16067252916E+02  0.35954086107E+02 -0.48017131789E+02  0.62100707479E+02  0.00000000000E+00 0. -1.
         21    1    1    2  506  502 -0.14103090106E+03 -0.34527052733E+01  0.12928832334E+03  0.19135596876E+03  0.00000000000E+00 0. -1.
<scales pt_clust_3="69.90428" pt_clust_4="14000.00000" pt_clust_5="39.38087" pt_clust_6="120.16886"></scales>
<clustering>
<clus scale="   39.381">  2  5  1 -1</clus>
<clus scale="   69.904">  1  3  2 -1</clus>
<clus scale="  120.169">  2  6  1 -1</clus>
<clus scale="   69.904">  1  3  2 -1</clus>
</clustering>
</event>
<event>
 6    0  0.5510638E+002  0.8529781E+02  0.7546771E-02  0.1314656E+00
         21   -1    0    0  503  501  0.00000000000E+00  0.00000000000E+00  0.40268127893E+02  0.40268127893E+02  0.00000000000E+00 0. -1.
         21   -1    0    0  506  502 -0.00000000000E+00 -0.00000000000E+00 -0.79130738173E+03  0.79130738173E+03  0.00000000000E+00 0. -1.
         21    1    1    2  503  504 -0.27229163677E+02 -0.15835908831E+02 -0.78432025615E+01  0.32461041103E+02  0.00000000000E+00 0. -1.
         21    1    1    2  504  505 -0.68048932034E+02  0.45884138456E+02 -0.69694508005E+02  0.10767235374E+03  0.00000000000E+00 0. -1.
         21    1    1    2  505  502  0.18603329651E+02 -0.65287646032E+02 -0.22295089771E+03  0.23305721055E+03  0.00000000000E+00 0. -1.
         21    1    1    2  506  501  0.76674766060E+02  0.35239416406E+02 -0.45055064555E+03  0.45838490423E+03  0.00000000000E+00 0. -1.
<scales pt_clust_3="31.49926" pt_clust_4="85.29781" pt_clust_5="69.50960" pt_clust_6="14000.00000"></scales>
<clustering>
<clus scale="   31.499">  1  3  2 -1</clus>
<clus scale="   69.510">  2  5  1 -1</clus>
<clus scale="   85.298">  1  4  2 -1</clus>
<clus scale="   31.499">  1  3  2 -1</clus>
</clustering>
</event>
<event>
 6    0  0.5510638E+002  0.1622820E+03  0.7546771E-02  0.1186144E+00
         21   -1    0    0  503  501  0.00000000000E+00  0.00000000000E+00  0.16340066350E+03  0.16340066350E+03  0.00000000000E+00 0. -1.
         21   -1    0    0  505  502 -0.00000000000E+00 -0.00000000000E+00 -0.37251134460E+03  0.37251134460E+03  0.00000000000E+00 0. -1.
         21    1    1    2  503  506  0.17761079390E+03 -0.73716474473E+02 -0.90084858262E+02  0.21235582028E+03  0.00000000000E+00 0. -1.
         21    1    1    2  504  501  0.12960945064E+01  0.43533391831E+02  0.16097806550E+01  0.43582421446E+02  0.00000000000E+00 0. -1.
         21    1    1    2  505  504 -0.14446072793E+03  0.12977117405E+02  0.84298399337E+01  0.14528719727E+03  0.00000000000E+00 0. -1.
         21    1    1    2  506  502 -0.34446160477E+02  0.17205965236E+02 -0.12906544342E+03  0.13468656910E+03  0.00000000000E+00 0. -1.
<scales pt_clust_3="14000.00000" pt_clust_4="45.06634" pt_clust_5="162.28203" pt_clust_6="38.50433"></scales>
<clustering>
<clus scale="   38.504">  2  6  1 -1</clus>
<clus scale="   45.066">  1  4  2 -1</clus>
<clus scale="  162.282">  1  5  2 -1</clus>
<clus scale="   45.066">  1  3  2 -1</clus>
</clustering>
</event>
<event>
 6    0  0.5510638E+002  0.1098957E+03  0.7546771E-02  0.1260763E+00
         21   -1    0    0  504  501  0.00000000000E+00  0.00000000000E+00  0.49777971878E+03  0.49777971878E+03  0.00000000000E+00 0. -1.
         21   -1    0    0  506  502 -0.00000000000E+00 -0.00000000000E+00 -0.22411683792E+03  0.22411683792E+03  0.00000000000E+00 0. -1.
         21    1    1    2  503  502 -0.10219304506E+03  0.12317058735E+02 -0.15888676724E+03  0.18931490485E+03  0.00000000000E+00 0. -1.
         21    1    1    2  504  503  0.55324035862E+02 -0.37310928649E+02  0.97753958747E+02  0.11835831526E+03  0.00000000000E+00 0. -1.
         21    1    1    2  505  501  0.40378107249E+02  0.10718266781E+03  0.30626540996E+03  0.32698167710E+03  0.00000000000E+00 0. -1.
         21    1    1    2  506  505  0.64909019466E+01 -0.82188797897E+02  0.28530279395E+02  0.87241659487E+02  0.00000000000E+00 0. -1.
<scales pt_clust_3="109.89569" pt_clust_4="66.72971" pt_clust_5="14000.00000" pt_clust_6="88.95501"></scales>
<clustering>
<clus scale="   66.730">  1  4  2 -1</clus>
<clus scale="   88.955">  2  6  1 -1</clus>
<clus scale="  109.896">  2  3  1 -1</clus>
<clus scale="   66.730">  1  3  2 -1</clus>
</clustering>
</event>
<event>
 6    0  0.5510638E+002  0.8695617E+02  0.7546771E-02  0.1310395E+00
         21   -1    0    0  504  501  0.00000000000E+00  0.00000000000E+00  0.11741881490E+04  0.11741881490E+04  0.00000000000E+00 0. -1.
         21   -1    0    0  505  502 -0.00000000000E+00 -0.00000000000E+00 -0.17402522989E+03  0.17402522989E+03  0.00000000000E+00 0. -1.
         21    1    1    2  503  502  0.14703730637E+02  0.82256834607E+02 -0.12255629613E+03  0.14833216864E+03  0.00000000000E+00 0. -1.
         21    1    1    2  504  506 -0.71474852329E+02  0.19154353586E+02  0.93759395204E+03  0.94050941658E+03  0.00000000000E+00 0. -1.
         21    1    1    2  505  501  0.17329963924E+02  0.28073191844E+02  0.84489778007E+02  0.90702559708E+02  0.00000000000E+00 0. -1.
         21    1    1    2  506  503  0.39441157768E+02 -0.12948438004E+03  0.10063548514E+03  0.16866923392E+03  0.00000000000E+00 0. -1.
<scales pt_clust_3="86.95617" pt_clust_4="71.25269" pt_clust_5="32.99139" pt_clust_6="14000.00000"></scales>
<clustering>
<clus scale="   32.991">  1  5  2 -1</clus>
<clus scale="   71.253">  1  4  2 -1</clus>
<clus scale="   86.956">  2  3  1 -1</clus>
<clus scale="   32.991">  1  3  2 -1</clus>
</clustering>
</event>
<event>
 6    0  0.5510638E+002  0.1964401E+03  0.7546771E-02  0.1152778E+00
         21   -1    0    0  506  501  0.00000000000E+00  0.00000000000E+00  0.63058378047E+03  0.63058378047E+03  0.00000000000E+00 0.  1.
         21   -1    0    0  504  502 -0.00000000000E+00 -0.00000000000E+00 -0.16046686161E+03  0.16046686161E+03  0.00000000000E+00 0.  1.
         21    1    1    2  503  501  0.32755505857E+02  0.33363190188E+02  0.37451624487E+02  0.59905340331E+02  0.00000000000E+00 0.  1.
         21    1    1    2  504  505 -0.31084892477E+02  0.51941591212E+02 -0.24096036121E+02  0.65152270834E+02  0.00000000000E+00 0.  1.
         21    1    1    2  505  503 -0.18021028545E+03 -0.56862966617E+02  0.16060240928E+02  0.18964987554E+03  0.00000000000E+00 0.  1.
         21    1    1    2  506  502  0.17853967207E+03 -0.28441814783E+02  0.44070108956E+03  0.47634315538E+03  0.00000000000E+00 0.  1.
<scales pt_clust_3="46.75495" pt_clust_4="60.97006" pt_clust_5="196.44007" pt_clust_6="14000.00000"></scales>
<clustering>
<clus scale="   46.755">  1  3  2 -1</clus>
<clus scale="   60.970">  2  4  1 -1</clus>
<clus scale="  196.440">  2  5  1 -1</clus>
<clus scale="   46.755">  1  3  2 -1</clus>
</clustering>
</event>
<event>
 6    0  0.5510638E+002  0.1191362E+03  0.7546771E-02  0.1244529E+00
         21   -1    0    0  504  501  0.00000000000E+00  0.00000000000E+00  0.50001619028E+02  0.50001619028E+02  0.00000000000E+00 0. -1.
         21   -1    0    0  506  502 -0.00000000000E+00 -0.00000000000E+00 -0.10385330100E+04  0.10385330100E+04  0.00000000000E+00 0. -1.
         21    1    1    2  503  505  0.11288796714E+03  0.26131449645E+02 -0.38526798546E+03  0.40231575461E+03  0.00000000000E+00 0. -1.
         21    1    1    2  504  502 -0.10575406011E+03 -0.11925774997E+02 -0.53551262895E+02  0.11913808416E+03  0.00000000000E+00 0. -1.
         21    1    1    2  505  501 -0.23043646226E+02  0.30127488989E+02 -0.39731581204E+02  0.54929716631E+02  0.00000000000E+00 0. -1.
         21    1    1    2  506  503  0.15909739197E+02 -0.44333163637E+02 -0.50998056144E+03  0.51215107366E+03  0.00000000000E+00 0. -1.
<scales pt_clust_3="14000.00000" pt_clust_4="119.13620" pt_clust_5="37.92987" pt_clust_6="46.17744"></scales>
<clustering>
<clus scale="   37.930">  1  5  2 -1</clus>
<clus scale="   46.177">  2  6  1 -1</clus>
<clus scale="  119.136">  1  4  2 -1</clus>
<clus scale="   37.930">  1  3  2 -1</clus>
</clustering>
</event>
<event>
 6    0  0.5510638E+002  0.2127053E+03  0.7546771E-02  0.1139441E+00
         21   -1    0    0  503  501  0.00000000000E+00  0.00000000000E+00  0.24639439893E+03  0.24639439893E+03  0.00000000000E+00 0. -1.
         21   -1    0    0  506  502 -0.00000000000E+00 -0.00000000000E+00 -0.12871177540E+04  0.12871177540E+04  0.00000000000E+00 0. -1.
         21    1    1    2  503  502 -0.14208794331E+02  0.27224405930E+02  0.20354543793E+02  0.36842442476E+02  0.00000000000E+00 0.  1.
         21    1    1    2  504  505 -0.11880011883E+03  0.15895456660E+03 -0.14835829152E+03  0.24777046866E+03  0.00000000000E+00 0. -1.
         21    1    1    2  505  501 -0.32181901936E+02 -0.45845661695E+02  0.15218167251E+03  0.16216276070E+03  0.00000000000E+00 0. -1.
         21    1    1    2  506  504  0.16519081510E+03 -0.14033331083E+03 -0.10649012798E+04  0.10867364811E+04  0.00000000000E+00 0. -1.
<scales pt_clust_3="30.70925" pt_clust_4="212.70531" pt_clust_5="49.87167" pt_clust_6="14000.00000"></scales>
<clustering>
<clus scale="   30.709">  1  3  2 -1</clus>
<clus scale="   49.872">  1  5  2 -1</clus>
<clus scale="  212.705">  1  4  2 -1</clus>
<clus scale="   30.709">  1  3  2 -1</clus>
</clustering>
</event>
<event>
 6    0  0.5510638E+002  0.1455666E+03  0.7546771E-02  0.1206029E+00
         21   -1    0    0  504  501  0.00000000000E+00  0.00000000000E+00  0.18973695617E+04  0.18973695617E+04  0.00000000000E+00 0. -1.
         21   -1    0    0  505  502 -0.00000000000E+00 -0.00000000000E+00 -0.56393743518E+03  0.56393743518E+03  0.00000000000E+00 0.  1.
         21    1    1    2  503  501 -0.11863598979E+03 -0.78279624400E+02  0.14706903703E+04  0.14775426772E+04  0.00000000000E+00 0. -1.
         21    1    1    2  504  506  0.11977913461E+03  0.14887939365E+03  0.20726610792E+03  0.28190664135E+03  0.00000000000E+00 0.  1.
         21    1    1    2  505  503  0.67653154282E+01 -0.12084747432E+03  0.15673187243E+03  0.19802717333E+03  0.00000000000E+00 0.  1.
         21    1    1    2  506  502 -0.79084602475E+01  0.50247705074E+02 -0.50125622410E+03  0.50383050504E+03  0.00000000000E+00 0.  1.
<scales pt_clust_3="145.56664" pt_clust_4="14000.00000" pt_clust_5="104.02954" pt_clust_6="50.86625"></scales>
<clustering>
<clus scale="   50.866">  2  6  1 -1</clus>
<clus scale="  104.030">  2  5  1 -1</clus>
<clus scale="  145.567">  1  3  2 -1</clus>
<clus scale="  145.567">  1  3  2 -1</clus>
</clustering>
</event>
<event>
 6    0  0.5510638E+002  0.8673499E+02  0.7546771E-02  0.1310957E+00
         21   -1    0    0  504  501  0.00000000000E+00  0.00000000000E+00  0.43201144700E+03  0.43201144700E+03  0.00000000000E+00 0.  1.
         21   -1    0    0  506  502 -0.00000000000E+00 -0.00000000000E+00 -0.22990315153E+03  0.22990315153E+03  0.00000000000E+00 0.  1.
         21    1    1    2  503  501  0.33098026546E+02 -0.30358870840E+02  0.33336200986E+03  0.33637385454E+03  0.00000000000E+00 0.  1.
         21    1    1    2  504  502  0.35086992867E+02  0.11070038470E+02  0.51741295400E+02  0.63488616853E+02  0.00000000000E+00 0. -1.
         21    1    1    2  505  503 -0.28742622228E+02 -0.76339184475E+02 -0.59545215930E+02  0.10099228762E+03  0.00000000000E+00 0.  1.
         21    1    1    2  506  505 -0.39442397185E+02  0.95628016845E+02 -0.12344979386E+03  0.16105983952E+03  0.00000000000E+00 0.  1.
<scales pt_clust_3="67.64803" pt_clust_4="36.79189" pt_clust_5="86.73499" pt_clust_6="14000.00000"></scales>
<clustering>
<clus scale="   36.792">  1  4  2 -1</clus>
<clus scale="   67.648">  1  3  2 -1</clus>
<clus scale="   86.735">  1  5  2 -1</clus>
<clus scale="   36.792">  1  3  2 -1</clus>
</clustering>
</event>
<event>
 6    0  0.5510638E+002  0.1570066E+03  0.7546771E-02  0.1192118E+00
         21   -1    0    0  503  501  0.00000000000E+00  0.00000000000E+00  0.57687043858E+03  0.57687043858E+03  0.00000000000E+00 0. -1.
         21   -1    0    0  505  502 -0.00000000000E+00 -0.00000000000E+00 -0.98513391031E+02  0.98513391031E+02  0.00000000000E+00 0. -1.
         21    1    1    2  503  504  0.20144333936E+01 -0.41749209450E+02  0.49734792468E+02  0.64966175918E+02  0.00000000000E+00 0.  1.
         21    1    1    2  504  502 -0.13877565763E+03 -0.67636135884E+02  0.29798701646E+03  0.33560332538E+03  0.00000000000E+00 0. -1.
         21    1    1    2  505  506  0.57973138951E+02 -0.34281522681E+02  0.35327392897E+01  0.67443219704E+02  0.00000000000E+00 0. -1.
         21    1    1    2  506  501  0.78788085286E+02  0.14366686801E+03  0.12710249933E+03  0.20737110860E+03  0.00000000000E+00 0. -1.
<scales pt_clust_3="41.79778" pt_clust_4="14000.00000" pt_clust_5="68.96192" pt_clust_6="157.00661"></scales>
<clustering>
<clus scale="   41.798">  1  3  2 -1</clus>
<clus scale="   68.962">  2  5  1 -1</clus>
<clus scale="  157.007">  2  6  1 -1</clus>
<clus scale="   41.798">  1  3  2 -1</clus>
</clustering>
</event>
<event>
 6    0  0.5510638E+002  0.7922655E+02  0.7546771E-02  0.1331261E+00
         21   -1    0    0  503  501  0.00000000000E+00  0.00000000000E+00  0.10264437015E+03  0.10264437015E+03  0.00000000000E+00 0.  1.
         21   -1    0    0  505  502 -0.00000000000E+00 -0.00000000000E+00 -0.61848556639E+03  0.61848556639E+03  0.00000000000E+00 0. -1.
         21    1    1    2  503  506  0.77760731698E+02 -0.95076222857E+01  0.63113699624E+02  0.10060052364E+03  0.00000000000E+00 0.  1.
         21    1    1    2  504  501 -0.96362827274E+02 -0.56175213109E+02 -0.23341721315E+03  0.25869875230E+03  0.00000000000E+00 0. -1.
         21    1    1    2  505  504  0.37547854514E+02  0.17486703866E+02 -0.68933401922E+02  0.80420395990E+02  0.00000000000E+00 0. -1.
         21    1    1    2  506  502 -0.18945758938E+02  0.48196131528E+02 -0.27660428079E+03  0.28141026461E+03  0.00000000000E+00 0. -1.
<scales pt_clust_3="14000.00000" pt_clust_4="79.22655" pt_clust_5="41.42012" pt_clust_6="57.16877"></scales>
<clustering>
<clus scale="   41.420">  2  5  1 -1</clus>
<clus scale="   57.169">  2  6  1 -1</clus>
<clus scale="   79.227">  2  4  1 -1</clus>
<clus scale="   79.227">  1  3  2 -1</clus>
</clustering>
</event>
<event>
 6    0  0.5510638E+002  0.9483408E+02  0.7546771E-02  0.1291550E+00
         21   -1    0    0  502  501  0.00000000000E+00  0.00000000000E+00  0.99947359496E+03  0.99947359496E+03  0.00000000000E+00 0. -1.
         21   -1    0    0  505  502 -0.00000000000E+00 -0.00000000000E+00 -0.63200926324E+02  0.63200926324E+02  0.00000000000E+00 0.  1.
         21    1    1    2  503  501  0.79808689897E+02  0.61062013961E+02  0.63446956325E+03  0.64237809989E+03  0.00000000000E+00 0. -1.
         21    1    1    2  504  503 -0.56571633673E+02 -0.66839443469E+02  0.31448602820E+03  0.32644957172E+03  0.00000000000E+00 0.  1.
         21    1    1    2  505  506  0.21553680381E+02 -0.22631889886E+02 -0.24252175676E+02  0.39559216407E+02  0.00000000000E+00 0.  1.
         21    1    1    2  506  504 -0.44790736605E+02  0.28409319394E+02  0.11569252860E+02  0.54287633267E+02  0.00000000000E+00 0.  1.
<scales pt_clust_3="14000.00000" pt_clust_4="94.83408" pt_clust_5="31.25322" pt_clust_6="32.75449"></scales>
<clustering>
<clus scale="   31.253">  2  5  1 -1</clus>
<clus scale="   32.754">  2  6  1 -1</clus>
<clus scale="   94.834">  2  4  1 -1</clus>
<clus scale="   94.834">  1  3  2 -1</clus>
</clustering>
</event>
<event>
 6    0  0.5510638E+002  0.1138581E+03  0.7546771E-02  0.1253588E+00
         21   -1    0    0  503  501  0.00000000000E+00  0.00000000000E+00  0.57492582092E+03  0.57492582092E+03  0.00000000000E+00 0. -1.
         21   -1    0    0  504  502 -0.00000000000E+00 -0.00000000000E+00 -0.16048774730E+04  0.16048774730E+04  0.00000000000E+00 0.  1.
         21    1    1    2  503  506  0.54170225846E+02  0.84622067794E+02  0.25863094158E+03  0.27746219863E+03  0.00000000000E+00 0.  1.
         21    1    1    2  504  501 -0.11365577153E+03 -0.85740854086E+02  0.28921690558E+03  0.32235934442E+03  0.00000000000E+00 0. -1.
         21    1    1    2  505  502  0.17051087800E+02  0.27433779205E+02 -0.51734976791E+03  0.51835714926E+03  0.00000000000E+00 0.  1.
         21    1    1    2  506  505  0.42434457887E+02 -0.26314992913E+02 -0.10604497313E+04  0.10616246016E+04  0.00000000000E+00 0.  1.
<scales pt_clust_3="14000.00000" pt_clust_4="113.85810" pt_clust_5="32.30096" pt_clust_6="59.07973"></scales>
<clustering>
<clus scale="   32.301">  2  5  1 -1</clus>
<clus scale="   59.080">  2  6  1 -1</clus>
<clus scale="  113.858">  2  4  1 -1</clus>
<clus scale="  113.858">  1  3  2 -1</clus>
</clustering>
</event>
<event>
 6    0  0.5510638E+002  0.7476243E+02  0.7546771E-02  0.1344608E+00
         21   -1    0    0  506  501  0.00000000000E+00  0.00000000000E+00  0.46216404857E+03  0.46216404857E+03  0.00000000000E+00 0.  1.
         21   -1    0    0  505  502 -0.00000000000E+00 -0.00000000000E+00 -0.10098927035E+03  0.10098927035E+03  0.00000000000E+00 0.  1.
         21    1    1    2  503  502 -0.76271164739E+02 -0.95842366863E+01 -0.39353351892E+02  0.86358754441E+02  0.00000000000E+00 0.  1.
         21    1    1    2  504  503  0.44726110715E+02 -0.69754583478E+02  0.23319999836E+03  0.24748407248E+03  0.00000000000E+00 0.  1.
         21    1    1    2  505  501  0.62005023275E+02  0.45079931718E+02  0.26343956106E+02  0.81060638896E+02  0.00000000000E+00 0.  1.
         21    1    1    2  506  504 -0.30459969251E+02  0.34258888447E+02  0.14098417565E+03  0.14824985311E+03  0.00000000000E+00 0.  1.
<scales pt_clust_3="74.76243" pt_clust_4="48.89073" pt_clust_5="14000.00000" pt_clust_6="45.84191"></scales>
<clustering>
<clus scale="   45.842">  1  6  2 -1</clus>
<clus scale="   48.891">  1  4  2 -1</clus>
<clus scale="   74.762">  2  3  1 -1</clus>
<clus scale="   45.842">  1  3  2 -1</clus>
</clustering>
</event>
<event>
 6    0  0.5510638E+002  0.1897979E+03  0.7546771E-02  0.1158644E+00
         21   -1    0    0  504  501  0.00000000000E+00  0.00000000000E+00  0.47846780965E+03  0.47846780965E+03  0.00000000000E+00 0. -1.
         21   -1    0    0  503  502 -0.00000000000E+00 -0.00000000000E+00 -0.36183376723E+03  0.36183376723E+03  0.00000000000E+00 0. -1.
         21    1    1    2  503  501  0.13279553959E+03 -0.12673416107E+03  0.30486033766E+03  0.35585956274E+03  0.00000000000E+00 0. -1.
         21    1    1    2  504  505 -0.46448529599E+02 -0.19562194528E+02  0.78363819765E+01  0.51005433427E+02  0.00000000000E+00 0. -1.
         21    1    1    2  505  506 -0.13777307167E+03  0.23711075374E+03 -0.10091573012E+03  0.29221039236E+03  0.00000000000E+00 0. -1.
         21    1    1    2  506  502  0.51426061686E+02 -0.90814398144E+02 -0.95146947102E+02  0.14122618834E+03  0.00000000000E+00 0. -1.
<scales pt_clust_3="14000.00000" pt_clust_4="50.39985" pt_clust_5="189.79794" pt_clust_6="104.09499"></scales>
<clustering>
<clus scale="   50.400">  1  4  2 -1</clus>
<clus scale="  104.095">  2  6  1 -1</clus>
<clus scale="  189.798">  2  5  1 -1</clus>
<clus scale="   50.400">  1  3  2 -1</clus>
</clustering>
</event>
<event>
 6    0  0.5510638E+002  0.5989724E+02  0.7546771E-02  0.1398263E+00
         21   -1    0    0  506  501  0.00000000000E+00  0.00000000000E+00  0.13416302029E+04  0.13416302029E+04  0.00000000000E+00 0. -1.
         21   -1    0    0  503  502 -0.00000000000E+00 -0.00000000000E+00 -0.51201849129E+02  0.51201849129E+02  0.00000000000E+00 0.  1.
         21    1    1    2  503  505 -0.10566476804E+03  0.84785663562E+02  0.88034287687E+03  0.89070603052E+03  0.00000000000E+00 0. -1.
         21    1    1    2  504  502  0.42873373278E+02 -0.39303949948E+02 -0.21071699018E+02  0.61862291562E+02  0.00000000000E+00 0.  1.
         21    1    1    2  505  501  0.26972981488E+02 -0.40469968112E+02  0.31104952661E+03  0.31482879165E+03  0.00000000000E+00 0. -1.
         21    1    1    2  506  504  0.35818413269E+02 -0.50117455021E+01  0.12010764930E+03  0.12543493828E+03  0.00000000000E+00 0. -1.
<scales pt_clust_3="59.89724" pt_clust_4="14000.00000" pt_clust_5="55.24346" pt_clust_6="36.16734"></scales>
<clustering>
<clus scale="   36.167">  1  6  2 -1</clus>
<clus scale="   55.243">  1  5  2 -1</clus>
<clus scale="   59.897">  1  3  2 -1</clus>
<clus scale="   36.167">  1  3  2 -1</clus>
</clustering>
</event>
<event>
 6    0  0.5510638E+002  0.1596157E+03  0.7546771E-02  0.1189131E+00
         21   -1    0    0  503  501  0.00000000000E+00  0.00000000000E+00  0.29079354650E+03  0.29079354650E+03  0.00000000000E+00 0. -1.
         21   -1    0    0  506  502 -0.00000000000E+00 -0.00000000000E+00 -0.12440805437E+04  0.12440805437E+04  0.00000000000E+00 0.  1.
         21    1    1    2  503  504  0.91425586671E+02  0.13252256639E+03  0.22398841370E+03  0.27584720041E+03  0.00000000000E+00 0. -1.
         21    1    1    2  504  505  0.53816418784E+02 -0.17297495762E+02 -0.33869083617E+02  0.65897838474E+02  0.00000000000E+00 0. -1.
         21    1    1    2  505  502 -0.88400500418E+01 -0.33622200405E+02 -0.91044592197E+03  0.91110942025E+03  0.00000000000E+00 0.  1.
         21    1    1    2  506  501 -0.13640195541E+03 -0.81602870225E+02 -0.23296040536E+03  0.28201963112E+03  0.00000000000E+00 0.  1.
<scales pt_clust_3="14000.00000" pt_clust_4="57.04527" pt_clust_5="34.76491" pt_clust_6="159.61571"></scales>
<clustering>
<clus scale="   34.765">  2  5  1 -1</clus>
<clus scale="   57.045">  2  4  1 -1</clus>
<clus scale="  159.616">  2  6  1 -1</clus>
<clus scale="  159.616">  1  3  2 -1</clus>
</clustering>
</event>
<event>
 6    0  0.5510638E+002  0.2335519E+03  0.7546771E-02  0.1124164E+00
         21   -1    0    0  505  501  0.00000000000E+00  0.00000000000E+00  0.40835415898E+03  0.40835415898E+03  0.00000000000E+00 0.  1.
         21   -1    0    0  504  502 -0.00000000000E+00 -0.00000000000E+00 -0.52430081862E+03  0.52430081862E+03  0.00000000000E+00 0. -1.
         21    1    1    2  503  501  0.27740447395E+03 -0.20225480079E+02  0.26137253653E+03  0.38167776339E+03  0.00000000000E+00 0.  1.
         21    1    1    2  504  506 -0.79168212508E+02  0.33128043378E+02 -0.29475001500E+03  0.30698964880E+03  0.00000000000E+00 0. -1.
         21    1    1    2  505  502 -0.47910406658E+02  0.47561562481E+02 -0.26658519293E+02  0.72582270167E+02  0.00000000000E+00 0.  1.
         21    1    1    2  506  503 -0.15032585479E+03 -0.60464125781E+02 -0.55910661880E+02  0.17140529524E+03  0.00000000000E+00 0.  1.
<scales pt_clust_3="14000.00000" pt_clust_4="126.49775" pt_clust_5="67.50933" pt_clust_6="233.55188"></scales>
<clustering>
<clus scale="   67.509">  2  5  1 -1</clus>
<clus scale="  126.498">  2  4  1 -1</clus>
<clus scale="  233.552">  2  6  1 -1</clus>
<clus scale="  233.552">  1  3  2 -1</clus>
</clustering>
</event>
<event>
 6    0  0.5510638E+002  0.3778466E+03  0.7546771E-02  0.1051733E+00
         21   -1    0    0  503  501  0.00000000000E+00  0.00000000000E+00  0.35416789235E+03  0.35416789235E+03  0.00000000000E+00 0.  1.
         21   -1    0    0  506  502 -0.00000000000E+00 -0.00000000000E+00 -0.16445418404E+04  0.16445418404E+04  0.00000000000E+00 0.  1.
         21    1    1    2  503  505 -0.11723702864E+03 -0.55538422451E+02  0.13879119847E+03  0.18997903576E+03  0.00000000000E+00 0.  1.
         21    1    1    2  504  502  0.21196687164E+03  0.24936539653E+03 -0.13022248455E+04  0.13427220874E+04  0.00000000000E+00 0.  1.
         21    1    1    2  505  504 -0.16882246922E+03 -0.16395092841E+03  0.76492859949E+02  0.24745118845E+03  0.00000000000E+00 0.  1.
         21    1    1    2  506  501  0.74092626228E+02 -0.29876045670E+02 -0.20343316101E+03  0.21855742121E+03  0.00000000000E+00 0.  1.
<scales pt_clust_3="90.93706" pt_clust_4="357.45723" pt_clust_5="90.93706" pt_clust_6="79.88927"></scales>
<clustering>
<clus scale="   79.889">  2  6  1 -1</clus>
<clus scale="   90.937">  3  5 -1 -1</clus>
<clus scale="  357.457">  2  4  1 -1</clus>
<clus scale="  377.847">  1  3  2 -1</clus>
</clustering>
</event>
<event>
 6    0  0.5510638E+002  0.1232121E+03  0.7546771E-02  0.1237890E+00
         21   -1    0    0  503  501  0.00000000000E+00  0.00000000000E+00  0.15400878160E+04  0.15400878160E+04  0.00000000000E+00 0.  1.
         21   -1    0    0  504  502 -0.00000000000E+00 -0.00000000000E+00 -0.22631898232E+03  0.22631898232E+03  0.00000000000E+00 0.  1.
         21    1    1    2  503  505  0.15589022472E+02 -0.83629655840E+02  0.28275300766E+03  0.29527309444E+03  0.00000000000E+00 0.  1.
         21    1    1    2  504  501 -0.12757225391E+02  0.15144601452E+03  0.12279224259E+04  0.12372922557E+04  0.00000000000E+00 0.  1.
         21    1    1    2  505  506  0.26448146550E+02 -0.50570978194E+02 -0.31915829260E+02  0.65387678112E+02  0.00000000000E+00 0.  1.
         21    1    1    2  506  502 -0.29279943631E+02 -0.17245380487E+02 -0.16499077062E+03  0.16845377003E+03  0.00000000000E+00 0.  1.
<scales pt_clust_3="14000.00000" pt_clust_4="123.21214" pt_clust_5="64.69933" pt_clust_6="33.98115"></scales>
<clustering>
<clus scale="   33.981">  2  6  1 -1</clus>
<clus scale="   64.699">  2  5  1 -1</clus>
<clus scale="  123.212">  1  4  2 -1</clus>
<clus scale="  123.212">  1  3  2 -1</clus>
</clustering>
</event>
<event>
 6    0  0.5510638E+002  0.1116855E+03  0.7546771E-02  0.1257480E+00
         21   -1    0    0  505  501  0.00000000000E+00  0.00000000000E+00  0.15437921435E+03  0.15437921435E+03  0.00000000000E+00 0.  1.
         21   -1    0    0  501  502 -0.00000000000E+00 -0.00000000000E+00 -0.37907739184E+03  0.37907739184E+03  0.00000000000E+00 0. -1.
         21    1    1    2  503  502 -0.52821725467E+02  0.11669664032E+03 -0.13252009285E+03  0.18430902189E+03  0.00000000000E+00 0.  1.
         21    1    1    2  504  503 -0.95269771016E+02 -0.10381489102E+03 -0.99272297025E+02  0.17236255343E+03  0.00000000000E+00 0. -1.
         21    1    1    2  505  506  0.55635443747E+02  0.12921013616E+02  0.45874715946E+02  0.73258069568E+02  0.00000000000E+00 0.  1.
         21    1    1    2  506  504  0.92456052735E+02 -0.25802762908E+02 -0.38780503557E+02  0.10352696131E+03  0.00000000000E+00 0.  1.
<scales pt_clust_3="111.68553" pt_clust_4="14000.00000" pt_clust_5="57.11616" pt_clust_6="113.48663"></scales>
<clustering>
<clus scale="   57.116">  1  5  2 -1</clus>
<clus scale="  113.487">  1  6  2 -1</clus>
<clus scale="  111.686">  2  3  1 -1</clus>
<clus scale="   57.116">  1  3  2 -1</clus>
</clustering>
</event>
<event>
 6    0  0.5510638E+002  0.1981401E+03  0.7546771E-02  0.1151318E+00
         21   -1    0    0  504  501  0.00000000000E+00  0.00000000000E+00  0.11083198368E+03  0.11083198368E+03  0.00000000000E+00 0.  1.
         21   -1    0    0  505  502 -0.00000000000E+00 -0.00000000000E+00 -0.17526894741E+04  0.17526894741E+04  0.00000000000E+00 0. -1.
         21    1    1    2  503  502  0.82791247058E+02 -0.16136145371E+03 -0.30128300115E+03  0.35165801016E+03  0.00000000000E+00 0.  1.
         21    1    1    2  504  503 -0.57643199935E+02  0.18859338749E+03 -0.54550296917E+02  0.20461167904E+03  0.00000000000E+00 0.  1.
         21    1    1    2  505  506  0.61409393931E+01 -0.33169564405E+02 -0.12720101695E+04  0.12724573873E+04  0.00000000000E+00 0. -1.
         21    1    1    2  506  501 -0.31288986516E+02  0.59376306182E+01 -0.14014022875E+02  0.34794381324E+02  0.00000000000E+00 0. -1.
<scales pt_clust_3="14000.00000" pt_clust_4="198.14009" pt_clust_5="33.70762" pt_clust_6="31.84739"></scales>
<clustering>
<clus scale="   31.847">  1  6  2 -1</clus>
<clus scale="   33.708">  2  5  1 -1</clus>
<clus scale="  198.140">  1  4  2 -1</clus>
<clus scale="   31.847">  1  3  2 -1</clus>
</clustering>
</event>
<event>
 6    0  0.5510638E+002  0.1099082E+03  0.7546771E-02  0.1260740E+00
         21   -1    0    0  506  501  0.00000000000E+00  0.00000000000E+00  0.14720400447E+03  0.14720400447E+03  0.00000000000E+00 0.  1.
         21   -1    0    0  505  502 -0.00000000000E+00 -0.00000000000E+00 -0.19153958685E+04  0.19153958685E+04  0.00000000000E+00 0. -1.
         21    1    1    2  503  502  0.10627253743E+02  0.61396165284E+02 -0.13799119318E+04  0.13813179819E+04  0.00000000000E+00 0. -1.
         21    1    1    2  504  501 -0.51576348904E+02  0.32445237350E+01  0.84365339825E+02  0.98935116436E+02  0.00000000000E+00 0.  1.
         21    1    1    2  505  504 -0.50575330681E+02  0.13723423354E+02  0.33407930777E+02  0.62147294879E+02  0.00000000000E+00 0. -1.
         21    1    1    2  506  503  0.91524425842E+02 -0.78364112373E+02 -0.50605320285E+03  0.52019947977E+03  0.00000000000E+00 0. -1.
<scales pt_clust_3="62.30913" pt_clust_4="36.54267" pt_clust_5="36.54267" pt_clust_6="103.56492"></scales>
<clustering>
<clus scale="   36.543">  4  5 -1 -1</clus>
<clus scale="   62.309">  2  3  1 -1</clus>
<clus scale="  103.565">  2  6  1 -1</clus>
<clus scale="  109.908">  1  3  2 -1</clus>
</clustering>
</event>
<event>
 6    0  0.5510638E+002  0.9022149E+02  0.7546771E-02  0.1302316E+00
         21   -1    0    0  503  501  0.00000000000E+00  0.00000000000E+00  0.37514082044E+03  0.37514082044E+03  0.00000000000E+00 0.  1.
         21   -1    0    0  504  502 -0.00000000000E+00 -0.00000000000E+00 -0.24486241251E+03  0.24486241251E+03  0.00000000000E+00 0.  1.
         21    1    1    2  503  505 -0.30837289556E+02  0.13116941356E+03  0.25368777332E+03  0.28725222334E+03  0.00000000000E+00 0.  1.
         21    1    1    2  504  501  0.55747589294E+01 -0.55535816562E+02  0.87602761012E+02  0.10387275194E+03  0.00000000000E+00 0.  1.
         21    1    1    2  505  506  0.13077008700E+00 -0.39001763555E+02 -0.13807112573E+03  0.14347400608E+03  0.00000000000E+00 0.  1.
         21    1    1    2  506  502  0.25131760540E+02 -0.36631833444E+02 -0.72941000680E+02  0.85404251589E+02  0.00000000000E+00 0.  1.
<scales pt_clust_3="81.48260" pt_clust_4="55.81492" pt_clust_5="36.29549" pt_clust_6="36.29549"></scales>
<clustering>
<clus scale="   36.295">  5  6 -1 -1</clus>
<clus scale="   55.815">  1  4  2 -1</clus>
<clus scale="   81.483">  1  3  2 -1</clus>
<clus scale="   55.815">  1  3  2 -1</clus>
</clustering>
</event>
<event>
 6    0  0.5510638E+002  0.1057845E+03  0.7546771E-02  0.1268582E+00
         21   -1    0    0  506  501  0.00000000000E+00  0.00000000000E+00  0.51738558853E+03  0.51738558853E+03  0.00000000000E+00 0. -1.
         21   -1    0    0  505  502 -0.00000000000E+00 -0.00000000000E+00 -0.50030906284E+03  0.50030906284E+03  0.00000000000E+00 0. -1.
         21    1    1    2  503  504 -0.62088958261E+02 -0.57660656536E+02 -0.77926796929E+02  0.11511896338E+03  0.00000000000E+00 0. -1.
         21    1    1    2  504  501  0.68359411053E+00  0.30689426134E+02  0.17439163933E+02  0.35304852585E+02  0.00000000000E+00 0. -1.
         21    1    1    2  505  503  0.50264231283E+02  0.10682815364E+03 -0.38244248477E+03  0.40025117303E+03  0.00000000000E+00 0. -1.
         21    1    1    2  506  502  0.11141132868E+02 -0.79856923239E+02  0.46000664345E+03  0.46701966238E+03  0.00000000000E+00 0. -1.
<scales pt_clust_3="14000.00000" pt_clust_4="30.69704" pt_clust_5="105.78448" pt_clust_6="52.23351"></scales>
<clustering>
<clus scale="   30.697">  1  4  2 -1</clus>
<clus scale="   52.234">  1  6  2 -1</clus>
<clus scale="  105.784">  2  5  1 -1</clus>
<clus scale="   30.697">  1  3  2 -1</clus>
</clustering>
</event>
<event>
 6    0  0.5510638E+002  0.1287634E+03  0.7546771E-02  0.1229302E+00
         21   -1    0    0  505  501  0.00000000000E+00  0.00000000000E+00  0.77535593595E+02  0.77535593595E+02  0.00000000000E+00 0. -1.
         21   -1    0    0  506  502 -0.00000000000E+00 -0.00000000000E+00 -0.43345054563E+03  0.43345054563E+03  0.00000000000E+00 0. -1.
         21    1    1    2  503  504 -0.31992466124E+02  0.67767481695E+02 -0.13522201096E+02  0.76149848236E+02  0.00000000000E+00 0. -1.
         21    1    1    2  504  501 -0.95298284679E+01  0.41062437059E+02 -0.48493968058E+02  0.64254231813E+02  0.00000000000E+00 0. -1.
         21    1    1    2  505  502 -0.33946911215E+02 -0.13899961399E+03 -0.20654756884E+03  0.25126715596E+03  0.00000000000E+00 0. -1.
         21    1    1    2  506  503  0.75469205807E+02  0.30169695232E+02 -0.87351214045E+02  0.11931490322E+03  0.00000000000E+00 0.  1.
<scales pt_clust_3="35.96296" pt_clust_4="35.96296" pt_clust_5="119.50219" pt_clust_6="81.27614"></scales>
<clustering>
<clus scale="   35.963">  3  4 -1 -1</clus>
<clus scale="   81.276">  2  6  1 -1</clus>
<clus scale="  119.502">  2  5  1 -1</clus>
<clus scale="  128.763">  1  3  2 -1</clus>
</clustering>
</event>
<event>
 6    0  0.5510638E+002  0.7475362E+02  0.7546771E-02  0.1344636E+00
         21   -1    0    0  503  501  0.00000000000E+00  0.00000000000E+00  0.49075650992E+03  0.49075650992E+03  0.00000000000E+00 0. -1.
         21   -1    0    0  506  502 -0.00000000000E+00 -0.00000000000E+00 -0.12834647138E+03  0.12834647138E+03  0.00000000000E+00 0. -1.
         21    1    1    2  503  504 -0.36861410743E+02 -0.54408671608E+01  0.25278053602E+03  0.25551196846E+03  0.00000000000E+00 0. -1.
         21    1    1    2  504  502 -0.30038482153E+02 -0.37897666534E+02  0.16232833688E+03  0.16937837079E+03  0.00000000000E+00 0. -1.
         21    1    1    2  505  501  0.62419267592E+02  0.10239888865E+03 -0.83401862501E+01  0.12021337725E+03  0.00000000000E+00 0. -1.
         21    1    1    2  506  505  0.44806253043E+01 -0.59060354955E+02 -0.44358648099E+02  0.73999264805E+02  0.00000000000E+00 0. -1.
<scales pt_clust_3="37.26079" pt_clust_4="74.75362" pt_clust_5="14000.00000" pt_clust_6="59.44084"></scales>
<clustering>
<clus scale="   37.261">  1  3  2 -1</clus>
<clus scale="   59.441">  2  6  1 -1</clus>
<clus scale="   74.754">  1  4  2 -1</clus>
<clus scale="   37.261">  1  3  2 -1</clus>
</clustering>
</event>
<event>
 6    0  0.5510638E+002  0.1129503E+03  0.7546771E-02  0.1255202E+00
         21   -1    0    0  503  501  0.00000000000E+00  0.00000000000E+00  0.62386283379E+03  0.62386283379E+03  0.00000000000E+00 0.  1.
         21   -1    0    0  505  502 -0.00000000000E+00 -0.00000000000E+00 -0.71323073506E+02  0.71323073506E+02  0.00000000000E+00 0.  1.
         21    1    1    2  503  506 -0.70023872955E+02  0.56362585892E+02  0.23886096845E+03  0.25521490184E+03  0.00000000000E+00 0.  1.
         21    1    1    2  504  501 -0.43744763879E+01  0.42304904171E+02  0.28114599052E+03  0.28434470093E+03  0.00000000000E+00 0.  1.
         21    1    1    2  505  504  0.93281836626E+02 -0.74041984778E+02  0.15144431237E+02  0.12005444745E+03  0.00000000000E+00 0.  1.
         21    1    1    2  506  502 -0.18883487283E+02 -0.24625505286E+02  0.17388370082E+02  0.35571857087E+02  0.00000000000E+00 0.  1.
<scales pt_clust_3="14000.00000" pt_clust_4="41.95444" pt_clust_5="112.95029" pt_clust_6="31.03227"></scales>
<clustering>
<clus scale="   31.032">  2  6  1 -1</clus>
<clus scale="   41.954">  1  4  2 -1</clus>
<clus scale="  112.950">  2  5  1 -1</clus>
<clus scale="   41.954">  1  3  2 -1</clus>
</clustering>
</event>
<event>
 6    0  0.5510638E+002  0.8347204E+02  0.7546771E-02  0.1319477E+00
         21   -1    0    0  506  501  0.00000000000E+00  0.00000000000E+00  0.53255762840E+02  0.53255762840E+02  0.00000000000E+00 0. -1.
         21   -1    0    0  505  502 -0.00000000000E+00 -0.00000000000E+00 -0.10358047419E+04  0.10358047419E+04  0.00000000000E+00 0. -1.
         21    1    1    2  503  501 -0.56767638669E+02  0.13890013641E+02  0.14149170013E+00  0.58442427216E+02  0.00000000000E+00 0. -1.
         21    1    1    2  504  502 -0.12422255539E+02  0.59373301754E+02 -0.41678328115E+03  0.42117431645E+03  0.00000000000E+00 0. -1.
         21    1    1    2  505  503  0.99971722232E+02 -0.41232759621E+02 -0.55258232148E+03  0.56306456798E+03  0.00000000000E+00 0. -1.
         21    1    1    2  506  504 -0.30781828024E+02 -0.32030555774E+02 -0.13324868120E+02  0.46379193073E+02  0.00000000000E+00 0. -1.
<scales pt_clust_3="14000.00000" pt_clust_4="59.20225" pt_clust_5="83.47204" pt_clust_6="44.42384"></scales>
<clustering>
<clus scale="   44.424">  1  6  2 -1</clus>
<clus scale="   59.202">  2  4  1 -1</clus>
<clus scale="   83.472">  2  5  1 -1</clus>
<clus scale="   44.424">  1  3  2 -1</clus>
</clustering>
</event>
<event>
 6    0  0.5510638E+002  0.7411430E+02  0.7546771E-02  0.1346636E+00
         21   -1    0    0  503  501  0.00000000000E+00  0.00000000000E+00  0.92799062294E+03  0.92799062294E+03  0.00000000000E+00 0. -1.
         21   -1    0    0  504  502 -0.00000000000E+00 -0.00000000000E+00 -0.53579648444E+02  0.53579648444E+02  0.00000000000E+00 0. -1.
         21    1    1    2  503  506  0.33018137666E+02  0.52838231220E+01  0.22119148342E+03  0.22370469047E+03  0.00000000000E+00 0.  1.
         21    1    1    2  504  505 -0.89870076442E+02 -0.94181181901E+02  0.18345954097E+03  0.22495361485E+03  0.00000000000E+00 0. -1.
         21    1    1    2  505  501  0.11206453621E+02  0.52379276733E+02  0.47139968333E+03  0.47443317198E+03  0.00000000000E+00 0. -1.
         21    1    1    2  506  502  0.45645485155E+02  0.36518082046E+02 -0.16397332220E+01  0.58478794075E+02  0.00000000000E+00 0. -1.
<scales pt_clust_3="33.43824" pt_clust_4="74.11430" pt_clust_5="14000.00000" pt_clust_6="59.63099"></scales>
<clustering>
<clus scale="   33.438">  1  3  2 -1</clus>
<clus scale="   59.631">  2  6  1 -1</clus>
<clus scale="   74.114">  2  4  1 -1</clus>
<clus scale="   33.438">  1  3  2 -1</clus>
</clustering>
</event>
<event>
 6    0  0.5510638E+002  0.1976600E+03  0.7546771E-02  0.1151728E+00
         21   -1    0    0  504  501  0.00000000000E+00  0.00000000000E+00  0.23757214935E+04  0.23757214935E+04  0.00000000000E+00 0. -1.
         21   -1    0    0  505  502 -0.00000000000E+00 -0.00000000000E+00 -0.40647969699E+02  0.40647969699E+02  0.00000000000E+00 0. -1.
         21    1    1    2  503  506 -0.12658963187E+03 -0.29828418730E+02  0.50257860095E+03  0.51913381666E+03  0.00000000000E+00 0. -1.
         21    1    1    2  504  503 -0.43715414627E+02  0.40782593908E+02  0.24628081021E+03  0.25343341318E+03  0.00000000000E+00 0. -1.
         21    1    1    2  505  501  0.17843970329E+03 -0.44578401377E+02  0.15970072420E+04  0.16075634024E+04  0.00000000000E+00 0. -1.
         21    1    1    2  506  502 -0.81346567959E+01  0.33624226199E+02 -0.10793129388E+02  0.36238830978E+02  0.00000000000E+00 0. -1.
<scales pt_clust_3="59.07632" pt_clust_4="59.07632" pt_clust_5="179.23052" pt_clust_6="34.59424"></scales>
<clustering>
<clus scale="   34.594">  2  6  1 -1</clus>
<clus scale="   59.076">  3  4 -1 -1</clus>
<clus scale="  179.231">  1  5  2 -1</clus>
<clus scale="  179.231">  1  3  2 -1</clus>
</clustering>
</event>
<event>
 6    0  0.5510638E+002  0.2742805E+03  0.7546771E-02  0.1098854E+00
         21   -1    0    0  504  501  0.00000000000E+00  0.00000000000E+00  0.45453657790E+03  0.45453657790E+03  0.00000000000E+00 0.  1.
         21   -1    0    0  503  502 -0.00000000000E+00 -0.00000000000E+00 -0.44747733171E+03  0.44747733171E+03  0.00000000000E+00 0. -1.
         21    1    1    2  503  501  0.13763838535E+03  0.23242527466E+03 -0.27154206601E+03  0.38301557022E+03  0.00000000000E+00 0. -1.
         21    1    1    2  504  506  0.37739232621E+02 -0.32928225666E+02  0.11994268769E+03  0.12997986788E+03  0.00000000000E+00 0.  1.
         21    1    1    2  505  502 -0.21223938711E+03 -0.20766930826E+03  0.89344467602E+02  0.31008794386E+03  0.00000000000E+00 0.  1.
         21    1    1    2  506  505  0.36861769147E+02  0.81722592629E+01  0.69314156905E+02  0.78930527640E+02  0.00000000000E+00 0.  1.
<scales pt_clust_3="14000.00000" pt_clust_4="88.46129" pt_clust_5="274.28046" pt_clust_6="35.23877"></scales>
<clustering>
<clus scale="   35.239">  4  6 -1 -1</clus>
<clus scale="   88.461">  1  4  2 -1</clus>
<clus scale="  274.280">  1  5  2 -1</clus>
<clus scale="   88.461">  1  3  2 -1</clus>
</clustering>
</event>
<event>
 6    0  0.7194502E+002  0.9661174E+02  0.7546771E-02  0.1287587E+00
         21   -1    0    0  503  501  0.00000000000E+00  0.00000000000E+00  0.46377660249E+03  0.46377660249E+03  0.00000000000E+00 0. -1.
         21   -1    0    0  506  502 -0.00000000000E+00 -0.00000000000E+00 -0.69763640365E+03  0.69763640365E+03  0.00000000000E+00 0.  1.
         21    1    1    2  503  502  0.71005915754E+02 -0.81603810272E+02  0.40874191906E+03  0.42281317189E+03  0.00000000000E+00 0. -1.
         21    1    1    2  504  501 -0.30154702855E+02 -0.71515745831E+01  0.42708680215E+00  0.30994088572E+02  0.00000000000E+00 0. -1.
         21    1    1    2  505  504  0.67306288890E+01  0.10063938719E+03 -0.50044508088E+02  0.11259680461E+03  0.00000000000E+00 0.  1.
         21    1    1    2  506  505 -0.47581841789E+02 -0.11884002330E+02 -0.59298429893E+03  0.59500894107E+03  0.00000000000E+00 0.  1.
<scales pt_clust_3="14000.00000" pt_clust_4="30.99115" pt_clust_5="96.61174" pt_clust_6="49.11348"></scales>
<clustering>
<clus scale="   30.991">  1  4  2 -1</clus>
<clus scale="   49.113">  2  6  1 -1</clus>
<clus scale="   96.612">  2  5  1 -1</clus>
<clus scale="   30.991">  1  3  2 -1</clus>
</clustering>
</event>
<event>
 6    0  0.5510638E+002  0.1230811E+03  0.7546771E-02  0.1238099E+00
         21   -1    0    0  506  501  0.00000000000E+00  0.00000000000E+00  0.38985623558E+02  0.38985623558E+02  0.00000000000E+00 0.  1.
         21   -1    0    0  505  502 -0.00000000000E+00 -0.00000000000E+00 -0.23457351073E+04  0.23457351073E+04  0.00000000000E+00 0.  1.
         21    1    1    2  503  502 -0.26239951095E+02 -0.22567996795E+02 -0.13605914135E+04  0.13610315367E+04  0.00000000000E+00 0.  1.
         21    1    1    2  504  501 -0.66467112330E+02 -0.29267515428E+02 -0.17020002346E+03  0.18504732494E+03  0.00000000000E+00 0.  1.
         21    1    1    2  505  504  0.45767073477E+01  0.14001600906E+03 -0.17141990534E+03  0.22138250380E+03  0.00000000000E+00 0.  1.
         21    1    1    2  506  503  0.88130356077E+02 -0.88180496839E+02 -0.60453814141E+03  0.61725936535E+03  0.00000000000E+00 0.  1.
<scales pt_clust_3="34.60996" pt_clust_4="78.61760" pt_clust_5="123.08111" pt_clust_6="14000.00000"></scales>
<clustering>
<clus scale="   34.610">  2  3  1 -1</clus>
<clus scale="   78.618">  1  4  2 -1</clus>
<clus scale="  123.081">  1  5  2 -1</clus>
<clus scale="   78.618">  1  3  2 -1</clus>
</clustering>
</event>
<event>
 6    0  0.5510638E+002  0.1987801E+03  0.7546771E-02  0.1150772E+00
         21   -1    0    0  506  501  0.00000000000E+00  0.00000000000E+00  0.69616789512E+03  0.69616789512E+03  0.00000000000E+00 0.  1.
         21   -1    0    0  505  502 -0.00000000000E+00 -0.00000000000E+00 -0.14583508543E+03  0.14583508543E+03  0.00000000000E+00 0.  1.
         21    1    1    2  503  501 -0.12634088004E+03 -0.67530160758E+02  0.43890324248E+03  0.46169080220E+03  0.00000000000E+00 0.  1.
         21    1    1    2  504  503 -0.55015494956E+02 -0.70251365141E+01  0.94623109198E+02  0.10967948770E+03  0.00000000000E+00 0. -1.
         21    1    1    2  505  504  0.37366753311E+02 -0.25919572563E+02 -0.63055480450E+02  0.77743759297E+02  0.00000000000E+00 0.  1.
         21    1    1    2  506  502  0.14398962168E+03  0.10047486983E+03  0.79861938463E+02  0.19288893135E+03  0.00000000000E+00 0.  1.
<scales pt_clust_3="36.09402" pt_clust_4="36.09402" pt_clust_5="45.47635" pt_clust_6="190.12763"></scales>
<clustering>
<clus scale="   36.094">  3  4 -1 -1</clus>
<clus scale="   45.476">  2  5  1 -1</clus>
<clus scale="  190.128">  2  6  1 -1</clus>
<clus scale="  198.780">  1  3  2 -1</clus>
</clustering>
</event>
<event>
 6    0  0.5510638E+002  0.1418913E+03  0.7546771E-02  0.1210806E+00
         21   -1    0    0  506  501  0.00000000000E+00  0.00000000000E+00  0.51832324242E+03  0.51832324242E+03  0.00000000000E+00 0.  1.
         21   -1    0    0  505  502 -0.00000000000E+00 -0.00000000000E+00 -0.10748197876E+03  0.10748197876E+03  0.00000000000E+00 0. -1.
         21    1    1    2  503  502 -0.20144356915E+02  0.23571496805E+02 -0.27547398595E+02  0.41476134662E+02  0.00000000000E+00 0. -1.
         21    1    1    2  504  501  0.10110488109E+03 -0.16129903621E+03  0.24868035664E+03  0.31317965426E+03  0.00000000000E+00 0.  1.
         21    1    1    2  505  504  0.15863788251E+02  0.75962020288E+02  0.61437364585E+02  0.98976957274E+02  0.00000000000E+00 0. -1.
         21    1    1    2  506  503 -0.96824312426E+02  0.61765519116E+02  0.12827094104E+03  0.17217247499E+03  0.00000000000E+00 0. -1.
<scales pt_clust_3="31.00662" pt_clust_4="141.89130" pt_clust_5="82.71785" pt_clust_6="14000.00000"></scales>
<clustering>
<clus scale="   31.007">  2  3  1 -1</clus>
<clus scale="   82.718">  2  5  1 -1</clus>
<clus scale="  141.891">  2  4  1 -1</clus>
<clus scale="  141.891">  1  3  2 -1</clus>
</clustering>
</event>
<event>
 6    0  0.5510638E+002  0.2182809E+03  0.7546771E-02  0.1135171E+00
         21   -1    0    0  505  501  0.00000000000E+00  0.00000000000E+00  0.23377469983E+04  0.23377469983E+04  0.00000000000E+00 0.  1.
         21   -1    0    0  503  502 -0.00000000000E+00 -0.00000000000E+00 -0.67876990455E+03  0.67876990455E+03  0.00000000000E+00 0. -1.
         21    1    1    2  503  506  0.85081518686E+01  0.33250010657E+02 -0.45217060744E+03  0.45347128916E+03  0.00000000000E+00 0. -1.
         21    1    1    2  504  502 -0.12251609453E+03  0.15506492949E+03 -0.17274610265E+03  0.26248150746E+03  0.00000000000E+00 0. -1.
         21    1    1    2  505  504  0.67939063517E+02  0.78541806811E+00  0.32506800370E+03  0.33209266818E+03  0.00000000000E+00 0.  1.
         21    1    1    2  506  501  0.46068879143E+02 -0.18910035821E+03  0.19588258001E+04  0.19684714380E+04  0.00000000000E+00 0.  1.
<scales pt_clust_3="34.32130" pt_clust_4="218.28094" pt_clust_5="68.08378" pt_clust_6="14000.00000"></scales>
<clustering>
<clus scale="   34.321">  2  3  1 -1</clus>
<clus scale="   68.084">  1  5  2 -1</clus>
<clus scale="  218.281">  2  4  1 -1</clus>
<clus scale="   68.084">  1  3  2 -1</clus>
</clustering>
</event>
<event>
 6    0  0.5510638E+002  0.8715235E+02  0.7546771E-02  0.1309898E+00
         21   -1    0    0  506  501  0.00000000000E+00  0.00000000000E+00  0.96431064225E+02  0.96431064225E+02  0.00000000000E+00 0.  1.
         21   -1    0    0  504  502 -0.00000000000E+00 -0.00000000000E+00 -0.20718522927E+04  0.20718522927E+04  0.00000000000E+00 0. -1.
         21    1    1    2  503  505 -0.63425342293E+02 -0.23323038558E+02 -0.63376555780E+02  0.92646241128E+02  0.00000000000E+00 0. -1.
         21    1    1    2  504  501  0.88032035054E+02  0.12384503581E+03 -0.17048971225E+04  0.17116545885E+04  0.00000000000E+00 0. -1.
         21    1    1    2  505  502 -0.38843352447E+02 -0.45206302379E+02 -0.27148392538E+03  0.27794952337E+03  0.00000000000E+00 0. -1.
         21    1    1    2  506  503  0.14236659686E+02 -0.55315694872E+02  0.64336375220E+02  0.86033003868E+02  0.00000000000E+00 0.  1.
<scales pt_clust_3="87.15235" pt_clust_4="14000.00000" pt_clust_5="64.96645" pt_clust_6="57.11837"></scales>
<clustering>
<clus scale="   57.118">  1  6  2 -1</clus>
<clus scale="   64.966">  2  5  1 -1</clus>
<clus scale="   87.152">  1  3  2 -1</clus>
<clus scale="   57.118">  1  3  2 -1</clus>
</clustering>
</event>
<event>
 6    0  0.5510638E+002  0.1213144E+03  0.7546771E-02  0.1240944E+00
         21   -1    0    0  504  501  0.00000000000E+00  0.00000000000E+00  0.39811102334E+03  0.39811102334E+03  0.00000000000E+00 0.  1.
         21   -1    0    0  505  502 -0.00000000000E+00 -0.00000000000E+00 -0.20482588258E+03  0.20482588258E+03  0.00000000000E+00 0. -1.
         21    1    1    2  503  506 -0.42022218450E+02 -0.12659883902E+02  0.10726016720E+03  0.11589168638E+03  0.00000000000E+00 0.  1.
         21    1    1    2  504  503 -0.33586777323E+02 -0.69478445620E+02  0.24219897699E+03  0.25419612599E+03  0.00000000000E+00 0.  1.
         21    1    1    2  505  501 -0.16984060485E+02  0.30289479658E+02  0.95895726387E+01  0.36025973851E+02  0.00000000000E+00 0.  1.
         21    1    1    2  506  502  0.92593056258E+02  0.51848849864E+02 -0.16576357607E+03  0.19682311970E+03  0.00000000000E+00 0. -1.
<scales pt_clust_3="37.01138" pt_clust_4="37.01138" pt_clust_5="34.72623" pt_clust_6="111.07349"></scales>
<clustering>
<clus scale="   34.726">  2  5  1 -1</clus>
<clus scale="   37.011">  3  4 -1 -1</clus>
<clus scale="  111.073">  2  6  1 -1</clus>
<clus scale="  121.314">  1  3  2 -1</clus>
</clustering>
</event>
<event>
 6    0  0.5510638E+002  0.1017378E+03  0.7546771E-02  0.1276684E+00
         21   -1    0    0  505  501  0.00000000000E+00  0.00000000000E+00  0.45527735485E+03  0.45527735485E+03  0.00000000000E+00 0. -1.
         21   -1    0    0  503  502 -0.00000000000E+00 -0.00000000000E+00 -0.35052820900E+03  0.35052820900E+03  0.00000000000E+00 0.  1.
         21    1    1    2  503  506  0.39376462288E+02  0.26741996609E+02 -0.69927003313E+02  0.84589750899E+02  0.00000000000E+00 0.  1.
         21    1    1    2  504  502 -0.56019183434E+02 -0.87546403596E+02 -0.23548732097E+03  0.25740396274E+03  0.00000000000E+00 0.  1.
         21    1    1    2  505  504 -0.68988245131E+02  0.92615039073E+02  0.29512479869E+03  0.31691571471E+03  0.00000000000E+00 0. -1.
         21    1    1    2  506  501  0.85630966278E+02 -0.31810632086E+02  0.11503867144E+03  0.14689613550E+03  0.00000000000E+00 0.  1.
<scales pt_clust_3="47.59874" pt_clust_4="66.66231" pt_clust_5="101.73777" pt_clust_6="14000.00000"></scales>
<clustering>
<clus scale="   47.599">  2  3  1 -1</clus>
<clus scale="   66.662">  2  4  1 -1</clus>
<clus scale="  101.738">  1  5  2 -1</clus>
<clus scale="  101.738">  1  3  2 -1</clus>
</clustering>
</event>
<event>
 6    0  0.5510638E+002  0.1019173E+03  0.7546771E-02  0.1276315E+00
         21   -1    0    0  504  501  0.00000000000E+00  0.00000000000E+00  0.58711968680E+03  0.58711968680E+03  0.00000000000E+00 0. -1.
         21   -1    0    0  506  502 -0.00000000000E+00 -0.00000000000E+00 -0.53517244354E+02  0.53517244354E+02  0.00000000000E+00 0.  1.
         21    1    1    2  503  505 -0.11759927487E+03  0.18612042241E+02  0.17321323908E+03  0.21018759183E+03  0.00000000000E+00 0. -1.
         21    1    1    2  504  503  0.12871729057E+02  0.36591591730E+02  0.17974284022E+03  0.18388070753E+03  0.00000000000E+00 0. -1.
         21    1    1    2  505  502  0.93940169401E+02 -0.15002673013E+02  0.46063384223E+02  0.10569612571E+03  0.00000000000E+00 0.  1.
         21    1    1    2  506  501  0.10787376411E+02 -0.40200960958E+02  0.13458297893E+03  0.14087250608E+03  0.00000000000E+00 0. -1.
<scales pt_clust_3="101.91729" pt_clust_4="38.78951" pt_clust_5="14000.00000" pt_clust_6="31.63636"></scales>
<clustering>
<clus scale="   38.790">  1  4  2 -1</clus>
<clus scale="   31.636">  1  6  2 -1</clus>
<clus scale="  101.917">  1  3  2 -1</clus>
<clus scale="   38.790">  1  3  2 -1</clus>
</clustering>
</event>
<event>
 6    0  0.5510638E+002  0.9605500E+02  0.7546771E-02  0.1288817E+00
         21   -1    0    0  505  501  0.00000000000E+00  0.00000000000E+00  0.10534638655E+04  0.10534638655E+04  0.00000000000E+00 0.  1.
         21   -1    0    0  506  502 -0.00000000000E+00 -0.00000000000E+00 -0.11489913563E+03  0.11489913563E+03  0.00000000000E+00 0.  1.
         21    1    1    2  503  502 -0.14305471658E+03 -0.14123810131E+02  0.54052672608E+03  0.55931500566E+03  0.00000000000E+00 0.  1.
         21    1    1    2  504  501  0.40669895548E+02 -0.16144133168E+02  0.95817171017E+02  0.10533567155E+03  0.00000000000E+00 0. -1.
         21    1    1    2  505  503  0.61108556551E+02  0.23325167098E+00  0.39399000114E+03  0.39870092938E+03  0.00000000000E+00 0.  1.
         21    1    1    2  506  504  0.41276264480E+02  0.30034691628E+02 -0.91769168394E+02  0.10501139452E+03  0.00000000000E+00 0.  1.
<scales pt_clust_3="96.05500" pt_clust_4="43.75698" pt_clust_5="14000.00000" pt_clust_6="51.21031"></scales>
<clustering>
<clus scale="   43.757">  1  4  2 -1</clus>
<clus scale="   51.210">  2  6  1 -1</clus>
<clus scale="   96.055">  2  3  1 -1</clus>
<clus scale="   43.757">  1  3  2 -1</clus>
</clustering>
</event>
<event>
 6    0  0.5510638E+002  0.9250349E+02  0.7546771E-02  0.1296900E+00
         21   -1    0    0  503  501  0.00000000000E+00  0.00000000000E+00  0.45159330589E+02  0.45159330589E+02  0.00000000000E+00 0.  1.
         21   -1    0    0  506  502 -0.00000000000E+00 -0.00000000000E+00 -0.91260161784E+03  0.91260161784E+03  0.00000000000E+00 0. -1.
         21    1    1    2  503  504  0.44781540912E+02  0.12368858864E+02  0.10509070412E+01  0.46470199931E+02  0.00000000000E+00 0.  1.
         21    1    1    2  504  502  0.16455001370E+02  0.82559702448E+02 -0.13396371865E+03  0.15821867605E+03  0.00000000000E+00 0.  1.
         21    1    1    2  505  501  0.19048312303E+02 -0.34570437402E+02 -0.64965968865E+02  0.76016645903E+02  0.00000000000E+00 0. -1.
         21    1    1    2  506  505 -0.80284854585E+02 -0.60358123909E+02 -0.66956350678E+03  0.67705542654E+03  0.00000000000E+00 0. -1.
<scales pt_clust_3="56.81880" pt_clust_4="92.50349" pt_clust_5="39.47092" pt_clust_6="14000.00000"></scales>
<clustering>
<clus scale="   39.471">  1  5  2 -1</clus>
<clus scale="   56.819">  1  3  2 -1</clus>
<clus scale="   92.503">  1  4  2 -1</clus>
<clus scale="   39.471">  1  3  2 -1</clus>
</clustering>
</event>
<event>
 6    0  0.5510638E+002  0.8665606E+02  0.7546771E-02  0.1311158E+00
         21   -1    0    0  506  501  0.00000000000E+00  0.00000000000E+00  0.13145321261E+03  0.13145321261E+03  0.00000000000E+00 0.  1.
         21   -1    0    0  503  502 -0.00000000000E+00 -0.00000000000E+00 -0.27599479908E+03  0.27599479908E+03  0.00000000000E+00 0.  1.
         21    1    1    2  503  504 -0.72071259305E+02  0.18709448020E+02 -0.69265500280E+02  0.10169571963E+03  0.00000000000E+00 0.  1.
         21    1    1    2  504  501  0.59724314218E+01  0.98375102522E+02 -0.62593788698E-01  0.98556251203E+02  0.00000000000E+00 0.  1.
         21    1    1    2  505  502  0.24101413126E+02 -0.42940139427E+02 -0.10576991359E+03  0.11667051173E+03  0.00000000000E+00 0. -1.
         21    1    1    2  506  505  0.41997414757E+02 -0.74144411115E+02  0.30556421187E+02  0.90525529115E+02  0.00000000000E+00 0.  1.
<scales pt_clust_3="59.67478" pt_clust_4="14000.00000" pt_clust_5="49.24158" pt_clust_6="86.65606"></scales>
<clustering>
<clus scale="   49.242">  2  5  1 -1</clus>
<clus scale="   59.675">  2  3  1 -1</clus>
<clus scale="   86.656">  1  6  2 -1</clus>
<clus scale="   86.656">  1  3  2 -1</clus>
</clustering>
</event>
<event>
 6    0  0.5510638E+002  0.1302477E+03  0.7546771E-02  0.1227089E+00
         21   -1    0    0  505  501  0.00000000000E+00  0.00000000000E+00  0.73825202467E+03  0.73825202467E+03  0.00000000000E+00 0. -1.
         21   -1    0    0  504  502 -0.00000000000E+00 -0.00000000000E+00 -0.49321621897E+03  0.49321621897E+03  0.00000000000E+00 0. -1.
         21    1    1    2  503  501  0.11350117165E+03  0.39856642880E+02  0.48707399474E+03  0.50170922286E+03  0.00000000000E+00 0. -1.
         21    1    1    2  504  506 -0.35800085415E+02  0.46958459052E+02 -0.43818218023E+03  0.44214292493E+03  0.00000000000E+00 0. -1.
         21    1    1    2  505  502  0.33475456086E+02 -0.63795053182E+02  0.14739086682E+03  0.16405633969E+03  0.00000000000E+00 0. -1.
         21    1    1    2  506  503 -0.11117654233E+03 -0.23020048750E+02  0.48753124372E+02  0.12355975617E+03  0.00000000000E+00 0. -1.
<scales pt_clust_3="130.24774" pt_clust_4="59.04865" pt_clust_5="62.92014" pt_clust_6="14000.00000"></scales>
<clustering>
<clus scale="   59.049">  2  4  1 -1</clus>
<clus scale="   62.920">  1  5  2 -1</clus>
<clus scale="  130.248">  1  3  2 -1</clus>
<clus scale="   62.920">  1  3  2 -1</clus>
</clustering>
</event>
<event>
 6    0  0.5510638E+002  0.1055501E+03  0.7546771E-02  0.1269039E+00
         21   -1    0    0  505  501  0.00000000000E+00  0.00000000000E+00  0.81248451841E+03  0.81248451841E+03  0.00000000000E+00 0.  1.
         21   -1    0    0  503  502 -0.00000000000E+00 -0.00000000000E+00 -0.73091555010E+03  0.73091555010E+03  0.00000000000E+00 0.  1.
         21    1    1    2  503  504 -0.34055602608E+02 -0.80710887126E+02 -0.37691173844E+03  0.38695799506E+03  0.00000000000E+00 0.  1.
         21    1    1    2  504  501 -0.46657102141E+02  0.10712437802E+03  0.52614372859E+03  0.53896172469E+03  0.00000000000E+00 0.  1.
         21    1    1    2  505  506  0.52493001845E+02 -0.11679308500E+01  0.27133791414E+03  0.27637138592E+03  0.00000000000E+00 0.  1.
         21    1    1    2  506  502  0.28219702904E+02 -0.25245560045E+02 -0.33900093598E+03  0.34110896284E+03  0.00000000000E+00 0.  1.
<scales pt_clust_3="14000.00000" pt_clust_4="105.55014" pt_clust_5="52.69151" pt_clust_6="37.86410"></scales>
<clustering>
<clus scale="   37.864">  2  6  1 -1</clus>
<clus scale="   52.692">  1  5  2 -1</clus>
<clus scale="  105.550">  1  4  2 -1</clus>
<clus scale="   52.692">  1  3  2 -1</clus>
</clustering>
</event>
<event>
 6    0  0.5510638E+002  0.3243233E+03  0.7546771E-02  0.1073677E+00
         21   -1    0    0  506  501  0.00000000000E+00  0.00000000000E+00  0.16191583652E+03  0.16191583652E+03  0.00000000000E+00 0.  1.
         21   -1    0    0  504  502 -0.00000000000E+00 -0.00000000000E+00 -0.18536909341E+04  0.18536909341E+04  0.00000000000E+00 0. -1.
         21    1    1    2  503  501  0.20470293238E+03 -0.25489853769E+03 -0.11227601821E+03  0.34566234870E+03  0.00000000000E+00 0.  1.
         21    1    1    2  504  503 -0.66708002487E+01  0.36202936129E+02 -0.36450525158E+03  0.36635942815E+03  0.00000000000E+00 0. -1.
         21    1    1    2  505  502  0.49985838498E+02  0.12913102051E+02 -0.65842297663E+03  0.66044390255E+03  0.00000000000E+00 0. -1.
         21    1    1    2  506  505 -0.24801797063E+03  0.20578249951E+03 -0.55657085111E+03  0.64314109118E+03  0.00000000000E+00 0. -1.
<scales pt_clust_3="14000.00000" pt_clust_4="36.81239" pt_clust_5="55.22842" pt_clust_6="324.32326"></scales>
<clustering>
<clus scale="   36.812">  2  4  1 -1</clus>
<clus scale="   55.228">  2  5  1 -1</clus>
<clus scale="  324.323">  2  6  1 -1</clus>
<clus scale="  324.323">  1  3  2 -1</clus>
</clustering>
</event>
<event>
 6    0  0.5510638E+002  0.9156758E+02  0.7546771E-02  0.1299099E+00
         21   -1    0    0  503  501  0.00000000000E+00  0.00000000000E+00  0.17786421672E+04  0.17786421672E+04  0.00000000000E+00 0. -1.
         21   -1    0    0  504  502 -0.00000000000E+00 -0.00000000000E+00 -0.52197338941E+02  0.52197338941E+02  0.00000000000E+00 0. -1.
         21    1    1    2  503  506  0.72749353862E+02  0.28967057151E+02  0.25119430761E+03  0.26311620829E+03  0.00000000000E+00 0. -1.
         21    1    1    2  504  505 -0.67259955935E+02 -0.14422284726E+03  0.31997649932E+03  0.35736408809E+03  0.00000000000E+00 0. -1.
         21    1    1    2  505  501  0.21007585424E+02  0.83437609912E+02  0.11647161512E+04  0.11678899204E+04  0.00000000000E+00 0. -1.
         21    1    1    2  506  502 -0.26496983351E+02  0.31818180195E+02 -0.94421298829E+01  0.42469289308E+02  0.00000000000E+00 0. -1.
<scales pt_clust_3="75.91447" pt_clust_4="14000.00000" pt_clust_5="91.56758" pt_clust_6="41.40636"></scales>
<clustering>
<clus scale="   41.406">  2  6  1 -1</clus>
<clus scale="   75.914">  2  3  1 -1</clus>
<clus scale="   91.568">  1  5  2 -1</clus>
<clus scale="   91.568">  1  3  2 -1</clus>
</clustering>
</event>
<event>
 6    0  0.5510638E+002  0.1056255E+03  0.7546771E-02  0.1268892E+00
         21   -1    0    0  503  501  0.00000000000E+00  0.00000000000E+00  0.38880156768E+02  0.38880156768E+02  0.00000000000E+00 0.  1.
         21   -1    0    0  505  502 -0.00000000000E+00 -0.00000000000E+00 -0.19775121928E+04  0.19775121928E+04  0.00000000000E+00 0.  1.
         21    1    1    2  503  506  0.56233761699E+02  0.10190233510E+03 -0.33454040267E+03  0.35420841728E+03  0.00000000000E+00 0.  1.
         21    1    1    2  504  501 -0.55350728423E+02  0.22520550327E+02 -0.62570551026E+02  0.86521397236E+02  0.00000000000E+00 0.  1.
         21    1    1    2  505  504  0.79733677475E+02 -0.11426957226E+03 -0.29240901251E+03  0.32391052015E+03  0.00000000000E+00 0.  1.
         21    1    1    2  506  502 -0.80616710751E+02 -0.10153313165E+02 -0.12491120698E+04  0.12517520149E+04  0.00000000000E+00 0.  1.
<scales pt_clust_3="105.62552" pt_clust_4="59.75683" pt_clust_5="14000.00000" pt_clust_6="83.82208"></scales>
<clustering>
<clus scale="   59.757">  1  4  2 -1</clus>
<clus scale="   83.822">  2  6  1 -1</clus>
<clus scale="  105.626">  2  3  1 -1</clus>
<clus scale="   59.757">  1  3  2 -1</clus>
</clustering>
</event>
<event>
 6    0  0.5510638E+002  0.9935849E+02  0.7546771E-02  0.1281651E+00
         21   -1    0    0  503  501  0.00000000000E+00  0.00000000000E+00  0.75116429859E+02  0.75116429859E+02  0.00000000000E+00 0. -1.
         21   -1    0    0  504  502 -0.00000000000E+00 -0.00000000000E+00 -0.20084687957E+04  0.20084687957E+04  0.00000000000E+00 0. -1.
         21    1    1    2  503  505  0.14709583008E+02 -0.27038416803E+02 -0.54083648103E+02  0.62229324338E+02  0.00000000000E+00 0. -1.
         21    1    1    2  504  506  0.71251594960E+02  0.68649740143E+02 -0.11461824798E+04  0.11504450676E+04  0.00000000000E+00 0. -1.
         21    1    1    2  505  502 -0.82554660124E+02  0.35044947416E+02 -0.77722983122E+03  0.78238713613E+03  0.00000000000E+00 0. -1.
         21    1    1    2  506  501 -0.34065178442E+01 -0.76656270756E+02  0.44143593190E+02  0.88523697560E+02  0.00000000000E+00 0. -1.
<scales pt_clust_3="30.78064" pt_clust_4="14000.00000" pt_clust_5="88.81288" pt_clust_6="99.35849"></scales>
<clustering>
<clus scale="   30.781">  1  3  2 -1</clus>
<clus scale="   88.813">  2  5  1 -1</clus>
<clus scale="   99.358">  1  6  2 -1</clus>
<clus scale="   30.781">  1  3  2 -1</clus>
</clustering>
</event>
<event>
 6    0  0.5510638E+002  0.1982849E+03  0.7546771E-02  0.1151194E+00
         21   -1    0    0  505  501  0.00000000000E+00  0.00000000000E+00  0.37845622072E+03  0.37845622072E+03  0.00000000000E+00 0.  1.
         21   -1    0    0  503  502 -0.00000000000E+00 -0.00000000000E+00 -0.98892708145E+02  0.98892708145E+02  0.00000000000E+00 0.  1.
         21    1    1    2  503  504  0.27979768785E+02  0.65092742099E+02  0.18161719922E+02  0.73142194428E+02  0.00000000000E+00 0.  1.
         21    1    1    2  504  501  0.16216152473E+02  0.11240052566E+03  0.14148235851E+03  0.18142243395E+03  0.00000000000E+00 0.  1.
         21    1    1    2  505  506  0.20792629357E+00 -0.83524572843E+02  0.59699897581E+02  0.10266681681E+03  0.00000000000E+00 0.  1.
         21    1    1    2  506  502 -0.44403847552E+02 -0.93968694920E+02  0.60219536560E+02  0.12011748368E+03  0.00000000000E+00 0.  1.
<scales pt_clust_3="60.46363" pt_clust_4="60.46363" pt_clust_5="37.98131" pt_clust_6="187.75562"></scales>
<clustering>
<clus scale="   37.981">  5  6 -1 -1</clus>
<clus scale="   60.464">  3  4 -1 -1</clus>
<clus scale="  187.756">  2  5  1 -1</clus>
<clus scale="  198.285">  1  3  2 -1</clus>
</clustering>
</event>
<event>
 6    0  0.5510638E+002  0.9627799E+02  0.7546771E-02  0.1288323E+00
         21   -1    0    0  506  501  0.00000000000E+00  0.00000000000E+00  0.59318924338E+03  0.59318924338E+03  0.00000000000E+00 0.  1.
         21   -1    0    0  503  502 -0.00000000000E+00 -0.00000000000E+00 -0.26261097565E+03  0.26261097565E+03  0.00000000000E+00 0.  1.
         21    1    1    2  503  504 -0.19627786908E+02 -0.34410218771E+02 -0.10624861834E+03  0.11339348338E+03  0.00000000000E+00 0.  1.
         21    1    1    2  504  501  0.10672802685E+02 -0.84635261326E+02  0.11291136929E+03  0.14151329793E+03  0.00000000000E+00 0.  1.
         21    1    1    2  505  502 -0.24774387027E+02  0.21267421349E+02 -0.13067097369E+03  0.13468844356E+03  0.00000000000E+00 0.  1.
         21    1    1    2  506  505  0.33729371250E+02  0.97778058747E+02  0.45458649047E+03  0.46620499416E+03  0.00000000000E+00 0.  1.
<scales pt_clust_3="43.77020" pt_clust_4="14000.00000" pt_clust_5="32.65078" pt_clust_6="96.27799"></scales>
<clustering>
<clus scale="   32.651">  2  5  1 -1</clus>
<clus scale="   43.770">  2  3  1 -1</clus>
<clus scale="   96.278">  1  6  2 -1</clus>
<clus scale="   96.278">  1  3  2 -1</clus>
</clustering>
</event>
<event>
 6    0  0.5510638E+002  0.1305730E+03  0.7546771E-02  0.1226608E+00
         21   -1    0    0  504  501  0.00000000000E+00  0.00000000000E+00  0.44018256202E+03  0.44018256202E+03  0.00000000000E+00 0. -1.
         21   -1    0    0  503  502 -0.00000000000E+00 -0.00000000000E+00 -0.30819299377E+03  0.30819299377E+03  0.00000000000E+00 0. -1.
         21    1    1    2  503  505 -0.15169581351E+02 -0.26090449472E+02 -0.24427527950E+03  0.24613256576E+03  0.00000000000E+00 0. -1.
         21    1    1    2  504  502 -0.14390959513E+03  0.35755896240E+02  0.19752040770E+03  0.24698738256E+03  0.00000000000E+00 0. -1.
         21    1    1    2  505  506  0.39314904594E+02 -0.18286976843E+02  0.44271280175E+01  0.43585257918E+02  0.00000000000E+00 0. -1.
         21    1    1    2  506  501  0.11976427189E+03  0.86215300754E+01  0.17431731204E+03  0.21167034955E+03  0.00000000000E+00 0. -1.
<scales pt_clust_3="30.17992" pt_clust_4="14000.00000" pt_clust_5="43.51928" pt_clust_6="130.57299"></scales>
<clustering>
<clus scale="   30.180">  2  3  1 -1</clus>
<clus scale="   43.519">  2  5  1 -1</clus>
<clus scale="  130.573">  1  6  2 -1</clus>
<clus scale="  130.573">  1  3  2 -1</clus>
</clustering>
</event>
<event>
 6    0  0.5510638E+002  0.1119009E+03  0.7546771E-02  0.1257090E+00
         21   -1    0    0  504  501  0.00000000000E+00  0.00000000000E+00  0.15378912565E+03  0.15378912565E+03  0.00000000000E+00 0. -1.
         21   -1    0    0  506  502 -0.00000000000E+00 -0.00000000000E+00 -0.13771462185E+04  0.13771462185E+04  0.00000000000E+00 0.  1.
         21    1    1    2  503  502  0.78731130283E+02 -0.21222024605E+02 -0.58735982432E+02  0.10049318801E+03  0.00000000000E+00 0. -1.
         21    1    1    2  504  503  0.15361937379E+02 -0.29067444074E+02  0.44165918647E+02  0.55059366097E+02  0.00000000000E+00 0.  1.
         21    1    1    2  505  501  0.21630756010E+02  0.62851675060E+02  0.66952106001E+02  0.94344089170E+02  0.00000000000E+00 0. -1.
         21    1    1    2  506  505 -0.11572382367E+03 -0.12562206380E+02 -0.12757391351E+04  0.12810387009E+04  0.00000000000E+00 0.  1.
<scales pt_clust_3="111.90089" pt_clust_4="32.87713" pt_clust_5="52.45815" pt_clust_6="14000.00000"></scales>
<clustering>
<clus scale="   32.877">  1  4  2 -1</clus>
<clus scale="   52.458">  1  5  2 -1</clus>
<clus scale="  111.901">  1  3  2 -1</clus>
<clus scale="   32.877">  1  3  2 -1</clus>
</clustering>
</event>
<event>
 6    0  0.5510638E+002  0.8141855E+02  0.7546771E-02  0.1325073E+00
         21   -1    0    0  504  501  0.00000000000E+00  0.00000000000E+00  0.53833062497E+03  0.53833062497E+03  0.00000000000E+00 0. -1.
         21   -1    0    0  503  502 -0.00000000000E+00 -0.00000000000E+00 -0.77447049834E+02  0.77447049834E+02  0.00000000000E+00 0. -1.
         21    1    1    2  503  501 -0.77973557738E+02  0.28034782911E+02  0.14659293941E+03  0.16839036387E+03  0.00000000000E+00 0. -1.
         21    1    1    2  504  505  0.25680304344E+02  0.54528837859E+02  0.10894385574E+03  0.12450556571E+03  0.00000000000E+00 0. -1.
         21    1    1    2  505  506  0.76062761139E+02  0.54502087333E+00  0.22215986556E+03  0.23482088183E+03  0.00000000000E+00 0. -1.
         21    1    1    2  506  502 -0.23769507744E+02 -0.83108641643E+02 -0.16813085575E+02  0.88060863389E+02  0.00000000000E+00 0. -1.
<scales pt_clust_3="14000.00000" pt_clust_4="60.27331" pt_clust_5="79.80858" pt_clust_6="81.41855"></scales>
<clustering>
<clus scale="   60.273">  1  4  2 -1</clus>
<clus scale="   81.419">  2  6  1 -1</clus>
<clus scale="   79.809">  1  5  2 -1</clus>
<clus scale="   60.273">  1  3  2 -1</clus>
</clustering>
</event>
<event>
 6    0  0.5510638E+002  0.2361645E+03  0.7546771E-02  0.1122375E+00
         21   -1    0    0  506  501  0.00000000000E+00  0.00000000000E+00  0.38423144929E+03  0.38423144929E+03  0.00000000000E+00 0. -1.
         21   -1    0    0  503  502 -0.00000000000E+00 -0.00000000000E+00 -0.30792386508E+04  0.30792386508E+04  0.00000000000E+00 0. -1.
         21    1    1    2  503  505 -0.75304316605E+02  0.28370099594E+02 -0.15154387583E+04  0.15175737982E+04  0.00000000000E+00 0. -1.
         21    1    1    2  504  502  0.56601678265E+02 -0.23554027858E+01  0.55796879297E+02  0.79514713380E+02  0.00000000000E+00 0. -1.
         21    1    1    2  505  501 -0.14022383462E+03 -0.10574642887E+03 -0.15203596816E+04  0.15304700560E+04  0.00000000000E+00 0. -1.
         21    1    1    2  506  504  0.15892647296E+03  0.79731732066E+02  0.28499435914E+03  0.33591153247E+03  0.00000000000E+00 0. -1.
<scales pt_clust_3="80.47113" pt_clust_4="35.70297" pt_clust_5="227.53652" pt_clust_6="35.70297"></scales>
<clustering>
<clus scale="   35.703">  4  6 -1 -1</clus>
<clus scale="   80.471">  2  3  1 -1</clus>
<clus scale="  227.537">  2  5  1 -1</clus>
<clus scale="  236.165">  1  3  2 -1</clus>
</clustering>
</event>
<event>
 6    0  0.5510638E+002  0.1857755E+03  0.7546771E-02  0.1162328E+00
         21   -1    0    0  503  501  0.00000000000E+00  0.00000000000E+00  0.13562453083E+03  0.13562453083E+03  0.00000000000E+00 0. -1.
         21   -1    0    0  505  502 -0.00000000000E+00 -0.00000000000E+00 -0.68141586750E+03  0.68141586750E+03  0.00000000000E+00 0.  1.
         21    1    1    2  503  506 -0.36018851090E+02 -0.64264284590E+02 -0.97891976010E+02  0.12251569236E+03  0.00000000000E+00 0.  1.
         21    1    1    2  504  501  0.16155591901E+03  0.88005434145E+02  0.24865058030E+02  0.18564359002E+03  0.00000000000E+00 0. -1.
         21    1    1    2  505  504 -0.39501825623E+02  0.30769008321E+01 -0.37034713254E+03  0.37246054842E+03  0.00000000000E+00 0.  1.
         21    1    1    2  506  502 -0.86035242293E+02 -0.26818050387E+02 -0.10241728615E+03  0.13642056753E+03  0.00000000000E+00 0.  1.
<scales pt_clust_3="53.65850" pt_clust_4="175.44674" pt_clust_5="39.62148" pt_clust_6="53.65850"></scales>
<clustering>
<clus scale="   39.621">  2  5  1 -1</clus>
<clus scale="   53.658">  3  6 -1 -1</clus>
<clus scale="  175.447">  1  4  2 -1</clus>
<clus scale="  175.447">  1  3  2 -1</clus>
</clustering>
</event>
<event>
 6    0  0.5510638E+002  0.1853170E+03  0.7546771E-02  0.1162754E+00
         21   -1    0    0  504  501  0.00000000000E+00  0.00000000000E+00  0.30829816151E+03  0.30829816151E+03  0.00000000000E+00 0. -1.
         21   -1    0    0  505  502 -0.00000000000E+00 -0.00000000000E+00 -0.26149663224E+03  0.26149663224E+03  0.00000000000E+00 0. -1.
         21    1    1    2  503  506 -0.52728894046E+02 -0.75198301448E+01 -0.76761940742E+01  0.53812712887E+02  0.00000000000E+00 0. -1.
         21    1    1    2  504  502  0.12847495954E+03  0.20044782527E+03 -0.79084031067E+02  0.25087732033E+03  0.00000000000E+00 0. -1.
         21    1    1    2  505  503 -0.19245806166E+01 -0.36638117973E+02 -0.12550096508E+02  0.38775773642E+02  0.00000000000E+00 0. -1.
         21    1    1    2  506  501 -0.73821484880E+02 -0.15628987715E+03  0.14611185093E+03  0.22632898690E+03  0.00000000000E+00 0. -1.
<scales pt_clust_3="54.38799" pt_clust_4="185.31703" pt_clust_5="36.68863" pt_clust_6="14000.00000"></scales>
<clustering>
<clus scale="   36.689">  2  5  1 -1</clus>
<clus scale="   54.388">  2  3  1 -1</clus>
<clus scale="  185.317">  2  4  1 -1</clus>
<clus scale="  185.317">  1  3  2 -1</clus>
</clustering>
</event>
<event>
 6    0  0.5510638E+002  0.7544212E+02  0.7546771E-02  0.1342507E+00
         21   -1    0    0  503  501  0.00000000000E+00  0.00000000000E+00  0.30374419851E+03  0.30374419851E+03  0.00000000000E+00 0. -1.
         21   -1    0    0  504  502 -0.00000000000E+00 -0.00000000000E+00 -0.17733034628E+03  0.17733034628E+03  0.00000000000E+00 0.  1.
         21    1    1    2  503  502  0.19033483495E+02 -0.79993669719E+02 -0.58462737856E+01  0.82434456426E+02  0.00000000000E+00 0. -1.
         21    1    1    2  504  505  0.50704050921E+02  0.64264394000E+02 -0.98781823961E+02  0.12829131639E+03  0.00000000000E+00 0.  1.
         21    1    1    2  505  506 -0.35846622662E+02  0.50094812872E+02  0.40337806146E+02  0.73631577720E+02  0.00000000000E+00 0.  1.
         21    1    1    2  506  501 -0.33890911754E+02 -0.34365537152E+02  0.19070414383E+03  0.19671719426E+03  0.00000000000E+00 0. -1.
<scales pt_clust_3="14000.00000" pt_clust_4="75.44212" pt_clust_5="62.40587" pt_clust_6="48.26576"></scales>
<clustering>
<clus scale="   48.266">  1  6  2 -1</clus>
<clus scale="   62.406">  1  5  2 -1</clus>
<clus scale="   75.442">  2  4  1 -1</clus>
<clus scale="   48.266">  1  3  2 -1</clus>
</clustering>
</event>
<event>
 6    0  0.1042098E+003  0.1454620E+03  0.7546771E-02  0.1206163E+00
         21   -1    0    0  505  501  0.00000000000E+00  0.00000000000E+00  0.21171201204E+03  0.21171201204E+03  0.00000000000E+00 0. -1.
         21   -1    0    0  506  502 -0.00000000000E+00 -0.00000000000E+00 -0.12148580357E+04  0.12148580357E+04  0.00000000000E+00 0. -1.
         21    1    1    2  503  502  0.50315079780E+02 -0.92284186303E+01  0.74653985134E+02  0.90498555016E+02  0.00000000000E+00 0. -1.
         21    1    1    2  504  501  0.44406810027E+02 -0.20539647239E+02 -0.13588710114E+02  0.50778882698E+02  0.00000000000E+00 0. -1.
         21    1    1    2  505  503  0.23892833305E+02 -0.43166134529E+02  0.10067458928E+03  0.11211402937E+03  0.00000000000E+00 0. -1.
         21    1    1    2  506  504 -0.11861472311E+03  0.72934200398E+02 -0.11648858880E+04  0.11731785807E+04  0.00000000000E+00 0. -1.
<scales pt_clust_3="44.57114" pt_clust_4="48.92690" pt_clust_5="44.57114" pt_clust_6="138.20073"></scales>
<clustering>
<clus scale="   44.571">  3  5 -1 -1</clus>
<clus scale="   48.927">  1  4  2 -1</clus>
<clus scale="  138.201">  2  6  1 -1</clus>
<clus scale="   48.927">  1  3  2 -1</clus>
</clustering>
</event>
<event>
 6    0  0.5510638E+002  0.1273099E+03  0.7546771E-02  0.1231503E+00
         21   -1    0    0  503  501  0.00000000000E+00  0.00000000000E+00  0.10027446243E+04  0.10027446243E+04  0.00000000000E+00 0.  1.
         21   -1    0    0  505  502 -0.00000000000E+00 -0.00000000000E+00 -0.73435483035E+02  0.73435483035E+02  0.00000000000E+00 0.  1.
         21    1    1    2  503  506  0.56250660009E+02 -0.73244082541E+02  0.73097941211E+03  0.73679015554E+03  0.00000000000E+00 0.  1.
         21    1    1    2  504  501 -0.94051199928E+02  0.29348919295E+02  0.11036629544E+03  0.14794494395E+03  0.00000000000E+00 0. -1.
         21    1    1    2  505  504  0.12935385208E+02  0.67255870004E+02 -0.25409275526E+02  0.73050034382E+02  0.00000000000E+00 0.  1.
         21    1    1    2  506  502  0.24865154711E+02 -0.23360706758E+02  0.11337270925E+03  0.11839497346E+03  0.00000000000E+00 0. -1.
<scales pt_clust_3="30.38330" pt_clust_4="117.08528" pt_clust_5="68.48851" pt_clust_6="30.38330"></scales>
<clustering>
<clus scale="   30.383">  3  6 -1 -1</clus>
<clus scale="   68.489">  2  5  1 -1</clus>
<clus scale="  117.085">  2  4  1 -1</clus>
<clus scale="  127.310">  1  3  2 -1</clus>
</clustering>
</event>
<event>
 6    0  0.5510638E+002  0.1500982E+03  0.7546771E-02  0.1200352E+00
         21   -1    0    0  503  501  0.00000000000E+00  0.00000000000E+00  0.15080056164E+03  0.15080056164E+03  0.00000000000E+00 0.  1.
         21   -1    0    0  505  502 -0.00000000000E+00 -0.00000000000E+00 -0.32950590099E+03  0.32950590099E+03  0.00000000000E+00 0.  1.
         21    1    1    2  503  504  0.72382289027E+02 -0.88519442802E+02 -0.51051506164E+02  0.12522437383E+03  0.00000000000E+00 0.  1.
         21    1    1    2  504  502  0.46897466836E+02 -0.19886496254E+02 -0.58051356144E+02  0.77232150553E+02  0.00000000000E+00 0. -1.
         21    1    1    2  505  506 -0.13109967943E+03  0.26748128901E+02 -0.12120276533E+03  0.18053448056E+03  0.00000000000E+00 0.  1.
         21    1    1    2  506  501  0.11819923569E+02  0.81657810155E+02  0.51600288295E+02  0.97315457686E+02  0.00000000000E+00 0.  1.
<scales pt_clust_3="37.19617" pt_clust_4="37.19617" pt_clust_5="139.36914" pt_clust_6="82.50884"></scales>
<clustering>
<clus scale="   37.196">  3  4 -1 -1</clus>
<clus scale="   82.509">  1  6  2 -1</clus>
<clus scale="  139.369">  2  5  1 -1</clus>
<clus scale="   82.509">  1  3  2 -1</clus>
</clustering>
</event>
<event>
 6    0  0.5510638E+002  0.1024583E+03  0.7546771E-02  0.1275210E+00
         21   -1    0    0  503  501  0.00000000000E+00  0.00000000000E+00  0.78828689465E+03  0.78828689465E+03  0.00000000000E+00 0. -1.
         21   -1    0    0  506  502 -0.00000000000E+00 -0.00000000000E+00 -0.46003384085E+03  0.46003384085E+03  0.00000000000E+00 0.  1.
         21    1    1    2  503  504  0.29014337471E+02  0.62790660137E+02  0.52790847510E+03  0.53242075172E+03  0.00000000000E+00 0. -1.
         21    1    1    2  504  505 -0.11908098397E+03 -0.13287501862E+03  0.11618196484E+03  0.21291852966E+03  0.00000000000E+00 0. -1.
         21    1    1    2  505  502  0.82574753823E+02  0.38733173991E+02 -0.40135636076E+03  0.41158933059E+03  0.00000000000E+00 0.  1.
         21    1    1    2  506  501  0.74918926761E+01  0.31351184495E+02  0.85518974604E+02  0.91392123525E+02  0.00000000000E+00 0. -1.
<scales pt_clust_3="14000.00000" pt_clust_4="102.45829" pt_clust_5="91.35484" pt_clust_6="32.23391"></scales>
<clustering>
<clus scale="   32.234">  1  6  2 -1</clus>
<clus scale="   91.355">  2  5  1 -1</clus>
<clus scale="  102.458">  2  4  1 -1</clus>
<clus scale="   32.234">  1  3  2 -1</clus>
</clustering>
</event>
<event>
 6    0  0.5510638E+002  0.2391004E+03  0.7546771E-02  0.1120394E+00
         21   -1    0    0  503  501  0.00000000000E+00  0.00000000000E+00  0.41694649527E+03  0.41694649527E+03  0.00000000000E+00 0.  1.
         21   -1    0    0  506  502 -0.00000000000E+00 -0.00000000000E+00 -0.64230761577E+03  0.64230761577E+03  0.00000000000E+00 0.  1.
         21    1    1    2  503  502  0.10952291460E+02  0.24005636395E+03  0.25589549798E+03  0.35104061937E+03  0.00000000000E+00 0.  1.
         21    1    1    2  504  505 -0.33764483030E+02 -0.24758338704E+03 -0.28629650024E+03  0.38000428933E+03  0.00000000000E+00 0.  1.
         21    1    1    2  505  501  0.70720000673E+02 -0.15684505327E+02  0.43085739175E+02  0.84283468858E+02  0.00000000000E+00 0.  1.
         21    1    1    2  506  504 -0.47907809103E+02  0.23211528418E+02 -0.23804585741E+03  0.24392573348E+03  0.00000000000E+00 0.  1.
<scales pt_clust_3="239.10044" pt_clust_4="14000.00000" pt_clust_5="69.78263" pt_clust_6="53.23470"></scales>
<clustering>
<clus scale="   53.235">  2  6  1 -1</clus>
<clus scale="   69.783">  1  5  2 -1</clus>
<clus scale="  239.100">  1  3  2 -1</clus>
<clus scale="   69.783">  1  3  2 -1</clus>
</clustering>
</event>
<event>
 6    0  0.5510638E+002  0.1146197E+03  0.7546771E-02  0.1252246E+00
         21   -1    0    0  503  501  0.00000000000E+00  0.00000000000E+00  0.61352696981E+03  0.61352696981E+03  0.00000000000E+00 0.  1.
         21   -1    0    0  504  502 -0.00000000000E+00 -0.00000000000E+00 -0.69825192292E+02  0.69825192292E+02  0.00000000000E+00 0.  1.
         21    1    1    2  503  502 -0.10350845545E+02 -0.13959315490E+03  0.16462552382E+03  0.21609014784E+03  0.00000000000E+00 0.  1.
         21    1    1    2  504  506  0.50554400525E+02  0.46681164851E+02 -0.40979719192E+01  0.68932372207E+02  0.00000000000E+00 0.  1.
         21    1    1    2  505  501 -0.43184956696E+02  0.52481955376E+02  0.25460768874E+03  0.26352299955E+03  0.00000000000E+00 0.  1.
         21    1    1    2  506  505  0.29814017160E+01  0.40430034676E+02  0.12856653688E+03  0.13480664251E+03  0.00000000000E+00 0.  1.
<scales pt_clust_3="107.43663" pt_clust_4="68.81045" pt_clust_5="30.84498" pt_clust_6="30.84498"></scales>
<clustering>
<clus scale="   30.845">  5  6 -1 -1</clus>
<clus scale="   68.810">  2  4  1 -1</clus>
<clus scale="  107.437">  2  3  1 -1</clus>
<clus scale="  114.620">  1  3  2 -1</clus>
</clustering>
</event>
<event>
 6    0  0.5510638E+002  0.9033501E+02  0.7546771E-02  0.1302042E+00
         21   -1    0    0  504  501  0.00000000000E+00  0.00000000000E+00  0.14504878494E+03  0.14504878494E+03  0.00000000000E+00 0. -1.
         21   -1    0    0  505  502 -0.00000000000E+00 -0.00000000000E+00 -0.55733102669E+03  0.55733102669E+03  0.00000000000E+00 0. -1.
         21    1    1    2  503  502  0.73920199131E+02  0.18168188463E+02 -0.45001581828E+01  0.76253067710E+02  0.00000000000E+00 0. -1.
         21    1    1    2  504  503  0.25934502099E+02 -0.22694707189E+02  0.47717248937E+02  0.58860716778E+02  0.00000000000E+00 0. -1.
         21    1    1    2  505  506  0.83196313388E+01 -0.54521881781E+02 -0.43955042273E+03  0.44299709478E+03  0.00000000000E+00 0. -1.
         21    1    1    2  506  501 -0.10817433257E+03  0.59048400507E+02 -0.15948909778E+02  0.12426893237E+03  0.00000000000E+00 0. -1.
<scales pt_clust_3="90.33501" pt_clust_4="34.46227" pt_clust_5="55.64937" pt_clust_6="14000.00000"></scales>
<clustering>
<clus scale="   34.462">  1  4  2 -1</clus>
<clus scale="   55.649">  2  5  1 -1</clus>
<clus scale="   90.335">  2  3  1 -1</clus>
<clus scale="   34.462">  1  3  2 -1</clus>
</clustering>
</event>
<event>
 6    0  0.5510638E+002  0.1617129E+03  0.7546771E-02  0.1186776E+00
         21   -1    0    0  504  501  0.00000000000E+00  0.00000000000E+00  0.37439868525E+03  0.37439868525E+03  0.00000000000E+00 0.  1.
         21   -1    0    0  505  502 -0.00000000000E+00 -0.00000000000E+00 -0.11090213646E+03  0.11090213646E+03  0.00000000000E+00 0.  1.
         21    1    1    2  503  506 -0.29626487921E+02 -0.48451286025E+02  0.36765145763E+02  0.67653025409E+02  0.00000000000E+00 0. -1.
         21    1    1    2  504  502  0.85411355159E+02  0.12924067163E+03  0.57518753324E+02  0.16524726254E+03  0.00000000000E+00 0.  1.
         21    1    1    2  505  503 -0.53930026600E+02  0.12767164297E+02 -0.39610537361E+01  0.55562021201E+02  0.00000000000E+00 0.  1.
         21    1    1    2  506  501 -0.18548406371E+01 -0.93556549900E+02  0.17317370344E+03  0.19683851256E+03  0.00000000000E+00 0.  1.
<scales pt_clust_3="53.54554" pt_clust_4="146.37931" pt_clust_5="55.42065" pt_clust_6="53.54554"></scales>
<clustering>
<clus scale="   53.546">  3  6 -1 -1</clus>
<clus scale="   55.421">  2  5  1 -1</clus>
<clus scale="  146.379">  2  4  1 -1</clus>
<clus scale="  161.713">  1  3  2 -1</clus>
</clustering>
</event>
<event>
 6    0  0.5510638E+002  0.1271733E+03  0.7546771E-02  0.1231711E+00
         21   -1    0    0  505  501  0.00000000000E+00  0.00000000000E+00  0.11294054410E+04  0.11294054410E+04  0.00000000000E+00 0. -1.
         21   -1    0    0  503  502 -0.00000000000E+00 -0.00000000000E+00 -0.10443114846E+03  0.10443114846E+03  0.00000000000E+00 0. -1.
         21    1    1    2  503  504  0.38391206245E+01 -0.40929026062E+02  0.67422509835E+01  0.41657916053E+02  0.00000000000E+00 0. -1.
         21    1    1    2  504  501 -0.30207976502E+02  0.27217262267E+02  0.17351181106E+03  0.17821237271E+03  0.00000000000E+00 0.  1.
         21    1    1    2  505  506 -0.99645266827E+02 -0.23673236410E+02  0.87343857496E+03  0.87942284798E+03  0.00000000000E+00 0. -1.
         21    1    1    2  506  502  0.12601412271E+03  0.37385000205E+02 -0.28718344457E+02  0.13454345272E+03  0.00000000000E+00 0. -1.
<scales pt_clust_3="40.35541" pt_clust_4="40.66081" pt_clust_5="14000.00000" pt_clust_6="127.17327"></scales>
<clustering>
<clus scale="   40.661">  1  4  2 -1</clus>
<clus scale="   40.355">  2  3  1 -1</clus>
<clus scale="  127.173">  2  6  1 -1</clus>
<clus scale="   40.661">  1  3  2 -1</clus>
</clustering>
</event>
<event>
 6    0  0.5510638E+002  0.1396619E+03  0.7546771E-02  0.1213785E+00
         21   -1    0    0  504  501  0.00000000000E+00  0.00000000000E+00  0.62446533641E+03  0.62446533641E+03  0.00000000000E+00 0.  1.
         21   -1    0    0  505  502 -0.00000000000E+00 -0.00000000000E+00 -0.74812369930E+03  0.74812369930E+03  0.00000000000E+00 0. -1.
         21    1    1    2  503  502 -0.52541852145E+02  0.12908862756E+02  0.17497485830E+03  0.18314880835E+03  0.00000000000E+00 0. -1.
         21    1    1    2  504  503 -0.61180602385E+02  0.55907862111E+02  0.43148683165E+03  0.43937414699E+03  0.00000000000E+00 0.  1.
         21    1    1    2  505  506  0.11552087292E+02 -0.51408754691E+02 -0.41518996853E+03  0.41852003625E+03  0.00000000000E+00 0. -1.
         21    1    1    2  506  501  0.10217036724E+03 -0.17407970177E+02 -0.31493008431E+03  0.33154604412E+03  0.00000000000E+00 0. -1.
<scales pt_clust_3="36.76507" pt_clust_4="36.76507" pt_clust_5="52.69071" pt_clust_6="132.04147"></scales>
<clustering>
<clus scale="   36.765">  3  4 -1 -1</clus>
<clus scale="   52.691">  2  5  1 -1</clus>
<clus scale="  132.041">  2  6  1 -1</clus>
<clus scale="  139.662">  1  3  2 -1</clus>
</clustering>
</event>
<event>
 6    0  0.5510638E+002  0.1496739E+03  0.7546771E-02  0.1200874E+00
         21   -1    0    0  504  501  0.00000000000E+00  0.00000000000E+00  0.67651684779E+03  0.67651684779E+03  0.00000000000E+00 0.  1.
         21   -1    0    0  503  502 -0.00000000000E+00 -0.00000000000E+00 -0.35893295575E+03  0.35893295575E+03  0.00000000000E+00 0.  1.
         21    1    1    2  503  506  0.26765202759E+02  0.35334897687E+02 -0.17849754575E+03  0.18391928913E+03  0.00000000000E+00 0.  1.
         21    1    1    2  504  502 -0.71568474832E+02 -0.67049782683E+02  0.27037795111E+03  0.28761424929E+03  0.00000000000E+00 0.  1.
         21    1    1    2  505  501 -0.33255815015E+02 -0.24567596498E+02  0.37990581628E+03  0.38214911393E+03  0.00000000000E+00 0.  1.
         21    1    1    2  506  505  0.78059087088E+02  0.56282481494E+02 -0.15420232960E+03  0.18176715120E+03  0.00000000000E+00 0.  1.
<scales pt_clust_3="41.03419" pt_clust_4="136.91887" pt_clust_5="41.34629" pt_clust_6="41.03419"></scales>
<clustering>
<clus scale="   41.034">  3  6 -1 -1</clus>
<clus scale="   41.346">  1  5  2 -1</clus>
<clus scale="  136.919">  1  4  2 -1</clus>
<clus scale="   41.346">  1  3  2 -1</clus>
</clustering>
</event>
<event>
 6    0  0.5510638E+002  0.8078513E+02  0.7546771E-02  0.1326838E+00
         21   -1    0    0  505  501  0.00000000000E+00  0.00000000000E+00  0.65680346731E+02  0.65680346731E+02  0.00000000000E+00 0. -1.
         21   -1    0    0  506  502 -0.00000000000E+00 -0.00000000000E+00 -0.49792280371E+03  0.49792280371E+03  0.00000000000E+00 0. -1.
         21    1    1    2  503  504  0.84355146031E+02 -0.10733706282E+03 -0.10468552114E+03  0.17203515354E+03  0.00000000000E+00 0. -1.
         21    1    1    2  504  502 -0.59047862335E+02  0.43743794394E+02 -0.28022354771E+03  0.28969881996E+03  0.00000000000E+00 0. -1.
         21    1    1    2  505  503  0.95822426384E+01  0.48308507524E+02 -0.13865899013E+02  0.51164386331E+02  0.00000000000E+00 0. -1.
         21    1    1    2  506  501 -0.34889526335E+02  0.15284760899E+02 -0.33467489120E+02  0.50704790618E+02  0.00000000000E+00 0. -1.
<scales pt_clust_3="80.78513" pt_clust_4="14000.00000" pt_clust_5="53.33505" pt_clust_6="38.09072"></scales>
<clustering>
<clus scale="   38.091">  1  6  2 -1</clus>
<clus scale="   53.335">  1  5  2 -1</clus>
<clus scale="   80.785">  1  3  2 -1</clus>
<clus scale="   38.091">  1  3  2 -1</clus>
</clustering>
</event>
<event>
 6    0  0.5510638E+002  0.1253950E+03  0.7546771E-02  0.1234453E+00
         21   -1    0    0  503  501  0.00000000000E+00  0.00000000000E+00  0.37573760073E+03  0.37573760073E+03  0.00000000000E+00 0. -1.
         21   -1    0    0  505  502 -0.00000000000E+00 -0.00000000000E+00 -0.36318513607E+03  0.36318513607E+03  0.00000000000E+00 0. -1.
         21    1    1    2  503  502  0.83734208597E+02  0.48417418180E+02  0.29678332021E+03  0.31214740625E+03  0.00000000000E+00 0. -1.
         21    1    1    2  504  501  0.14946530860E+02  0.32981101619E+02  0.44294158929E+02  0.57211225856E+02  0.00000000000E+00 0. -1.
         21    1    1    2  505  506 -0.27589583337E+02  0.19836095919E+02 -0.26193189232E+02  0.42903834004E+02  0.00000000000E+00 0.  1.
         21    1    1    2  506  504 -0.71091156120E+02 -0.10123461572E+03 -0.30233182525E+03  0.32666027070E+03  0.00000000000E+00 0. -1.
<scales pt_clust_3="125.39495" pt_clust_4="36.34699" pt_clust_5="33.98023" pt_clust_6="14000.00000"></scales>
<clustering>
<clus scale="   33.980">  2  5  1 -1</clus>
<clus scale="   36.347">  1  4  2 -1</clus>
<clus scale="  125.395">  1  3  2 -1</clus>
<clus scale="   36.347">  1  3  2 -1</clus>
</clustering>
</event>
<event>
 6    0  0.5510638E+002  0.5811119E+02  0.7546771E-02  0.1405934E+00
         21   -1    0    0  503  501  0.00000000000E+00  0.00000000000E+00  0.18537845380E+03  0.18537845380E+03  0.00000000000E+00 0.  1.
         21   -1    0    0  506  502 -0.00000000000E+00 -0.00000000000E+00 -0.21487292503E+03  0.21487292503E+03  0.00000000000E+00 0.  1.
         21    1    1    2  503  504 -0.40880648453E+02  0.38904725846E+02 -0.83177909541E+01  0.57043761776E+02  0.00000000000E+00 0.  1.
         21    1    1    2  504  502 -0.50912205329E+02  0.22586609351E+02 -0.14032647472E+03  0.15097591557E+03  0.00000000000E+00 0.  1.
         21    1    1    2  505  501 -0.16251014582E+02 -0.36408349587E+02  0.34003703997E+02  0.52401481660E+02  0.00000000000E+00 0.  1.
         21    1    1    2  506  505  0.10804386836E+03 -0.25082985611E+02  0.85146090446E+02  0.13983021983E+03  0.00000000000E+00 0.  1.
<scales pt_clust_3="54.53187" pt_clust_4="58.11119" pt_clust_5="39.87058" pt_clust_6="14000.00000"></scales>
<clustering>
<clus scale="   39.871">  1  5  2 -1</clus>
<clus scale="   54.532">  1  3  2 -1</clus>
<clus scale="   58.111">  2  4  1 -1</clus>
<clus scale="   39.871">  1  3  2 -1</clus>
</clustering>
</event>
<event>
 6    0  0.5510638E+002  0.1201129E+03  0.7546771E-02  0.1242911E+00
         21   -1    0    0  505  501  0.00000000000E+00  0.00000000000E+00  0.21786317987E+03  0.21786317987E+03  0.00000000000E+00 0. -1.
         21   -1    0    0  503  502 -0.00000000000E+00 -0.00000000000E+00 -0.44763280619E+03  0.44763280619E+03  0.00000000000E+00 0.  1.
         21    1    1    2  503  504 -0.11652011097E+02  0.28681004716E+02 -0.74172867421E+02  0.80374023512E+02  0.00000000000E+00 0.  1.
         21    1    1    2  504  506 -0.10749010995E+03  0.20539133582E+01 -0.32892949296E+03  0.34605339708E+03  0.00000000000E+00 0.  1.
         21    1    1    2  505  502  0.92289374422E+02 -0.68005427280E+02  0.14595114192E+03  0.18559041624E+03  0.00000000000E+00 0. -1.
         21    1    1    2  506  501  0.26852746623E+02  0.37270509206E+02  0.27381592129E+02  0.53478149231E+02  0.00000000000E+00 0.  1.
<scales pt_clust_3="30.95754" pt_clust_4="14000.00000" pt_clust_5="120.11295" pt_clust_6="46.52553"></scales>
<clustering>
<clus scale="   30.958">  2  3  1 -1</clus>
<clus scale="   46.526">  1  6  2 -1</clus>
<clus scale="  120.113">  1  5  2 -1</clus>
<clus scale="   46.526">  1  3  2 -1</clus>
</clustering>
</event>
<event>
 6    0  0.5510638E+002  0.8884890E+02  0.7546771E-02  0.1305663E+00
         21   -1    0    0  502  501  0.00000000000E+00  0.00000000000E+00  0.39334195516E+03  0.39334195516E+03  0.00000000000E+00 0. -1.
         21   -1    0    0  503  502 -0.00000000000E+00 -0.00000000000E+00 -0.38856339733E+03  0.38856339733E+03  0.00000000000E+00 0. -1.
         21    1    1    2  503  506 -0.30861964027E+02 -0.18321106799E+01 -0.15999874815E+03  0.16295832861E+03  0.00000000000E+00 0. -1.
         21    1    1    2  504  501  0.72283504322E+02 -0.15314879408E+01  0.12776565263E+03  0.14680365269E+03  0.00000000000E+00 0. -1.
         21    1    1    2  505  504 -0.10959249122E+03  0.13039621826E+02  0.23656608215E+03  0.26104416694E+03  0.00000000000E+00 0. -1.
         21    1    1    2  506  505  0.68170950928E+02 -0.96760232055E+01 -0.19955442881E+03  0.21109920424E+03  0.00000000000E+00 0. -1.
<scales pt_clust_3="30.91630" pt_clust_4="88.84890" pt_clust_5="14000.00000" pt_clust_6="41.83037"></scales>
<clustering>
<clus scale="   30.916">  2  3  1 -1</clus>
<clus scale="   41.830">  2  6  1 -1</clus>
<clus scale="   88.849">  1  4  2 -1</clus>
<clus scale="   88.849">  1  3  2 -1</clus>
</clustering>
</event>
<event>
 6    0  0.5510638E+002  0.1456722E+03  0.7546771E-02  0.1205894E+00
         21   -1    0    0  503  501  0.00000000000E+00  0.00000000000E+00  0.18958847928E+03  0.18958847928E+03  0.00000000000E+00 0.  1.
         21   -1    0    0  506  502 -0.00000000000E+00 -0.00000000000E+00 -0.51505991356E+03  0.51505991356E+03  0.00000000000E+00 0. -1.
         21    1    1    2  503  502 -0.60847970992E+02  0.53616308286E+01  0.80790277924E+02  0.10128322500E+03  0.00000000000E+00 0.  1.
         21    1    1    2  504  501  0.29675957243E+02  0.11267156008E+02  0.19145958327E+02  0.37069919922E+02  0.00000000000E+00 0. -1.
         21    1    1    2  505  504 -0.83758263174E+02 -0.11008183187E+03 -0.26589430880E+02  0.14085614716E+03  0.00000000000E+00 0.  1.
         21    1    1    2  506  505  0.11493027692E+03  0.93453045035E+02 -0.39881823965E+03  0.42543910076E+03  0.00000000000E+00 0. -1.
<scales pt_clust_3="45.64632" pt_clust_4="31.74289" pt_clust_5="145.67221" pt_clust_6="14000.00000"></scales>
<clustering>
<clus scale="   31.743">  1  4  2 -1</clus>
<clus scale="   45.646">  1  3  2 -1</clus>
<clus scale="  145.672">  1  5  2 -1</clus>
<clus scale="   31.743">  1  3  2 -1</clus>
</clustering>
</event>
<event>
 6    0  0.5510638E+002  0.9495767E+02  0.7546771E-02  0.1291271E+00
         21   -1    0    0  506  501  0.00000000000E+00  0.00000000000E+00  0.81877568214E+03  0.81877568214E+03  0.00000000000E+00 0.  1.
         21   -1    0    0  505  502 -0.00000000000E+00 -0.00000000000E+00 -0.72125344963E+02  0.72125344963E+02  0.00000000000E+00 0.  1.
         21    1    1    2  503  502  0.39066498310E+02 -0.45258249890E+02  0.77268441582E+02  0.97698068240E+02  0.00000000000E+00 0.  1.
         21    1    1    2  504  501  0.68301340759E+02  0.29629397637E+02  0.25301779182E+03  0.26374415127E+03  0.00000000000E+00 0.  1.
         21    1    1    2  505  504  0.59096005349E+02 -0.46051915083E+01 -0.19539965844E+02  0.62412786369E+02  0.00000000000E+00 0.  1.
         21    1    1    2  506  503 -0.16646384442E+03  0.20234043762E+02  0.43590406962E+03  0.46704602122E+03  0.00000000000E+00 0.  1.
<scales pt_clust_3="74.85476" pt_clust_4="94.95767" pt_clust_5="59.27517" pt_clust_6="14000.00000"></scales>
<clustering>
<clus scale="   59.275">  2  5  1 -1</clus>
<clus scale="   74.855">  2  3  1 -1</clus>
<clus scale="   94.958">  1  4  2 -1</clus>
<clus scale="   94.958">  1  3  2 -1</clus>
</clustering>
</event>
<event>
 6    0  0.5510638E+002  0.1294777E+03  0.7546771E-02  0.1228233E+00
         21   -1    0    0  506  501  0.00000000000E+00  0.00000000000E+00  0.23279577412E+03  0.23279577412E+03  0.00000000000E+00 0.  1.
         21   -1    0    0  501  502 -0.00000000000E+00 -0.00000000000E+00 -0.12250925477E+03  0.12250925477E+03  0.00000000000E+00 0. -1.
         21    1    1    2  503  504  0.67016569883E+02  0.55069336537E+02  0.93026335635E+02  0.12719179057E+03  0.00000000000E+00 0.  1.
         21    1    1    2  504  505 -0.29055145847E+02 -0.11900198383E+03 -0.10838167591E+02  0.12297617465E+03  0.00000000000E+00 0. -1.
         21    1    1    2  505  502 -0.32979995341E+02  0.22166568292E+02 -0.17219179720E+02  0.43307470404E+02  0.00000000000E+00 0. -1.
         21    1    1    2  506  503 -0.49814286944E+01  0.41766078996E+02  0.45317531028E+02  0.61829593279E+02  0.00000000000E+00 0.  1.
<scales pt_clust_3="41.97219" pt_clust_4="115.75777" pt_clust_5="39.73710" pt_clust_6="41.97219"></scales>
<clustering>
<clus scale="   39.737">  2  5  1 -1</clus>
<clus scale="   41.972">  3  6 -1 -1</clus>
<clus scale="  115.758">  2  4  1 -1</clus>
<clus scale="  129.478">  1  3  2 -1</clus>
</clustering>
</event>
<event>
 6    0  0.5510638E+002  0.7838328E+02  0.7546771E-02  0.1333703E+00
         21   -1    0    0  506  501  0.00000000000E+00  0.00000000000E+00  0.31679882564E+03  0.31679882564E+03  0.00000000000E+00 0.  1.
         21   -1    0    0  504  502 -0.00000000000E+00 -0.00000000000E+00 -0.18620125277E+03  0.18620125277E+03  0.00000000000E+00 0.  1.
         21    1    1    2  503  501  0.11217335692E+03 -0.10613570406E+02  0.15612488296E+03  0.19253698075E+03  0.00000000000E+00 0.  1.
         21    1    1    2  504  503 -0.13727947445E+02  0.31263967562E+02 -0.13634100379E+03  0.14055163295E+03  0.00000000000E+00 0.  1.
         21    1    1    2  505  502 -0.57787888577E+02 -0.42227984111E+02  0.31475091974E+02  0.78187749188E+02  0.00000000000E+00 0. -1.
         21    1    1    2  506  505 -0.40657520896E+02  0.21577586954E+02  0.79338601735E+02  0.91723715524E+02  0.00000000000E+00 0. -1.
<scales pt_clust_3="14000.00000" pt_clust_4="34.14516" pt_clust_5="78.38328" pt_clust_6="49.57762"></scales>
<clustering>
<clus scale="   34.145">  2  4  1 -1</clus>
<clus scale="   49.578">  1  6  2 -1</clus>
<clus scale="   78.383">  2  5  1 -1</clus>
<clus scale="   49.578">  1  3  2 -1</clus>
</clustering>
</event>
<event>
 6    0  0.5510638E+002  0.1106819E+03  0.7546771E-02  0.1259312E+00
         21   -1    0    0  504  501  0.00000000000E+00  0.00000000000E+00  0.13871707968E+04  0.13871707968E+04  0.00000000000E+00 0.  1.
         21   -1    0    0  501  502 -0.00000000000E+00 -0.00000000000E+00 -0.13364292169E+03  0.13364292169E+03  0.00000000000E+00 0.  1.
         21    1    1    2  503  502 -0.54057561697E+02 -0.27505928722E+02 -0.81731560651E+02  0.10177840684E+03  0.00000000000E+00 0.  1.
         21    1    1    2  504  506  0.83022290830E+01  0.31889231181E+02  0.18385888103E+03  0.18678848520E+03  0.00000000000E+00 0. -1.
         21    1    1    2  505  503  0.15594962580E+03 -0.16376722008E+01  0.12479829890E+03  0.19974379381E+03  0.00000000000E+00 0.  1.
         21    1    1    2  506  505 -0.11019429318E+03 -0.27456302576E+01  0.10266022558E+04  0.10325030326E+04  0.00000000000E+00 0.  1.
<scales pt_clust_3="60.47111" pt_clust_4="32.95224" pt_clust_5="110.68186" pt_clust_6="14000.00000"></scales>
<clustering>
<clus scale="   32.952">  1  4  2 -1</clus>
<clus scale="   60.471">  2  3  1 -1</clus>
<clus scale="  110.682">  2  5  1 -1</clus>
<clus scale="   32.952">  1  3  2 -1</clus>
</clustering>
</event>
<event>
 6    0  0.5510638E+002  0.3041542E+03  0.7546771E-02  0.1083182E+00
         21   -1    0    0  505  501  0.00000000000E+00  0.00000000000E+00  0.12371281609E+04  0.12371281609E+04  0.00000000000E+00 0. -1.
         21   -1    0    0  504  502 -0.00000000000E+00 -0.00000000000E+00 -0.28363262971E+03  0.28363262971E+03  0.00000000000E+00 0. -1.
         21    1    1    2  503  506  0.22907710176E+03 -0.87828611711E+02  0.10051570942E+04  0.10346646643E+04  0.00000000000E+00 0. -1.
         21    1    1    2  504  503 -0.14560752782E+02 -0.35791621113E+02 -0.37776140966E+01  0.38824296925E+02  0.00000000000E+00 0. -1.
         21    1    1    2  505  502 -0.26482225448E+03  0.12618405875E+03 -0.15289684551E+03  0.33080309629E+03  0.00000000000E+00 0. -1.
         21    1    1    2  506  501  0.50305905507E+02 -0.25638259237E+01  0.10501289664E+03  0.11646873312E+03  0.00000000000E+00 0. -1.
<scales pt_clust_3="36.26356" pt_clust_4="38.64008" pt_clust_5="293.43607" pt_clust_6="36.26356"></scales>
<clustering>
<clus scale="   36.264">  3  6 -1 -1</clus>
<clus scale="   38.640">  2  4  1 -1</clus>
<clus scale="  293.436">  2  5  1 -1</clus>
<clus scale="  304.154">  1  3  2 -1</clus>
</clustering>
</event>
<event>
 6    0  0.5510638E+002  0.9585877E+02  0.7546771E-02  0.1289254E+00
         21   -1    0    0  503  501  0.00000000000E+00  0.00000000000E+00  0.11590774677E+04  0.11590774677E+04  0.00000000000E+00 0.  1.
         21   -1    0    0  504  502 -0.00000000000E+00 -0.00000000000E+00 -0.16957472975E+03  0.16957472975E+03  0.00000000000E+00 0.  1.
         21    1    1    2  503  505 -0.11367955368E+02  0.90797626372E+02  0.55495939126E+03  0.56245298943E+03  0.00000000000E+00 0.  1.
         21    1    1    2  504  506 -0.57344748973E+02 -0.55549523514E+01 -0.13195599735E+03  0.14398494007E+03  0.00000000000E+00 0.  1.
         21    1    1    2  505  502 -0.36549616718E+02 -0.28720043791E+02  0.34315662896E+01  0.46609988680E+02  0.00000000000E+00 0.  1.
         21    1    1    2  506  501  0.10526232106E+03 -0.56522630229E+02  0.56306777773E+03  0.57560427924E+03  0.00000000000E+00 0.  1.
<scales pt_clust_3="90.90554" pt_clust_4="14000.00000" pt_clust_5="46.48350" pt_clust_6="95.85877"></scales>
<clustering>
<clus scale="   46.483">  2  5  1 -1</clus>
<clus scale="   90.906">  1  3  2 -1</clus>
<clus scale="   95.859">  1  6  2 -1</clus>
<clus scale="   90.906">  1  3  2 -1</clus>
</clustering>
</event>
<event>
 6    0  0.5510638E+002  0.2378453E+03  0.7546771E-02  0.1121237E+00
         21   -1    0    0  506  501  0.00000000000E+00  0.00000000000E+00  0.12565414927E+03  0.12565414927E+03  0.00000000000E+00 0.  1.
         21   -1    0    0  501  502 -0.00000000000E+00 -0.00000000000E+00 -0.18781235253E+04  0.18781235253E+04  0.00000000000E+00 0.  1.
         21    1    1    2  503  504  0.56424625123E+02  0.12617750405E+03 -0.16628350742E+03  0.21622836467E+03  0.00000000000E+00 0.  1.
         21    1    1    2  504  505  0.29396337820E+02  0.52313748432E+02 -0.20960987523E+03  0.21803021063E+03  0.00000000000E+00 0. -1.
         21    1    1    2  505  502 -0.40429121708E+02  0.46356566756E+02 -0.13349775329E+04  0.13363938261E+04  0.00000000000E+00 0.  1.
         21    1    1    2  506  503 -0.45391841235E+02 -0.22484781924E+03 -0.41598460496E+02  0.23312527315E+03  0.00000000000E+00 0.  1.
<scales pt_clust_3="59.15533" pt_clust_4="59.15533" pt_clust_5="61.50972" pt_clust_6="220.25003"></scales>
<clustering>
<clus scale="   59.155">  3  4 -1 -1</clus>
<clus scale="   61.510">  2  5  1 -1</clus>
<clus scale="  220.250">  1  6  2 -1</clus>
<clus scale="  220.250">  1  3  2 -1</clus>
</clustering>
</event>
<event>
 6    0  0.5510638E+002  0.1361205E+03  0.7546771E-02  0.1218647E+00
         21   -1    0    0  504  501  0.00000000000E+00  0.00000000000E+00  0.86133541226E+03  0.86133541226E+03  0.00000000000E+00 0.  1.
         21   -1    0    0  503  502 -0.00000000000E+00 -0.00000000000E+00 -0.76240421716E+03  0.76240421716E+03  0.00000000000E+00 0. -1.
         21    1    1    2  503  505 -0.10148166806E+03  0.91013627085E+02 -0.57684453743E+03  0.59273234232E+03  0.00000000000E+00 0. -1.
         21    1    1    2  504  506  0.13574156500E+03  0.76713480311E+00  0.77309444878E+03  0.78492126210E+03  0.00000000000E+00 0.  1.
         21    1    1    2  505  501 -0.14596243458E+02 -0.63629385421E+02  0.57811658497E+02  0.87200555448E+02  0.00000000000E+00 0.  1.
         21    1    1    2  506  502 -0.19663653484E+02 -0.28151376467E+02 -0.15513037475E+03  0.15888546955E+03  0.00000000000E+00 0. -1.
<scales pt_clust_3="14000.00000" pt_clust_4="136.12051" pt_clust_5="66.05553" pt_clust_6="34.33889"></scales>
<clustering>
<clus scale="   34.339">  2  6  1 -1</clus>
<clus scale="   66.056">  1  5  2 -1</clus>
<clus scale="  136.121">  1  4  2 -1</clus>
<clus scale="   66.056">  1  3  2 -1</clus>
</clustering>
</event>
<event>
 6    0  0.5510638E+002  0.1155620E+03  0.7546771E-02  0.1250603E+00
         21   -1    0    0  504  501  0.00000000000E+00  0.00000000000E+00  0.23129157569E+02  0.23129157569E+02  0.00000000000E+00 0.  1.
         21   -1    0    0  501  502 -0.00000000000E+00 -0.00000000000E+00 -0.10195130056E+04  0.10195130056E+04  0.00000000000E+00 0. -1.
         21    1    1    2  503  506  0.10786381858E+03  0.37768561272E+01 -0.55160830271E+03  0.56206813432E+03  0.00000000000E+00 0. -1.
         21    1    1    2  504  505 -0.49689073977E+02 -0.22171714650E+02 -0.67146978673E+02  0.86425145346E+02  0.00000000000E+00 0.  1.
         21    1    1    2  505  503 -0.49649408639E+02 -0.31501312135E+02 -0.15353103615E+03  0.16440552152E+03  0.00000000000E+00 0. -1.
         21    1    1    2  506  502 -0.85253359635E+01  0.49896170658E+02 -0.22409753045E+03  0.22974336194E+03  0.00000000000E+00 0. -1.
<scales pt_clust_3="109.02416" pt_clust_4="36.86091" pt_clust_5="36.86091" pt_clust_6="50.61926"></scales>
<clustering>
<clus scale="   36.861">  4  5 -1 -1</clus>
<clus scale="   50.619">  2  6  1 -1</clus>
<clus scale="  109.024">  2  3  1 -1</clus>
<clus scale="  115.562">  1  3  2 -1</clus>
</clustering>
</event>
<event>
 6    0  0.5510638E+002  0.8159534E+02  0.7546771E-02  0.1324584E+00
         21   -1    0    0  506  501  0.00000000000E+00  0.00000000000E+00  0.11612133666E+04  0.11612133666E+04  0.00000000000E+00 0.  1.
         21   -1    0    0  505  502 -0.00000000000E+00 -0.00000000000E+00 -0.26890903486E+02  0.26890903486E+02  0.00000000000E+00 0.  1.
         21    1    1    2  503  502  0.11484011611E+02 -0.28843520056E+02  0.56557910549E+02  0.64518434711E+02  0.00000000000E+00 0.  1.
         21    1    1    2  504  501 -0.10441781361E+02  0.41000028867E+02  0.34723567391E+03  0.34980372554E+03  0.00000000000E+00 0.  1.
         21    1    1    2  505  504 -0.62411464806E+02  0.74521797321E+02  0.12167715301E+03  0.15573701801E+03  0.00000000000E+00 0.  1.
         21    1    1    2  506  503  0.61369234557E+02 -0.86678306132E+02  0.60885172567E+03  0.61804509185E+03  0.00000000000E+00 0.  1.
<scales pt_clust_3="31.04563" pt_clust_4="40.58403" pt_clust_5="81.59534" pt_clust_6="14000.00000"></scales>
<clustering>
<clus scale="   31.046">  2  3  1 -1</clus>
<clus scale="   40.584">  1  4  2 -1</clus>
<clus scale="   81.595">  2  5  1 -1</clus>
<clus scale="   40.584">  1  3  2 -1</clus>
</clustering>
</event>
<event>
 6    0  0.5510638E+002  0.8209421E+02  0.7546771E-02  0.1323211E+00
         21   -1    0    0  504  501  0.00000000000E+00  0.00000000000E+00  0.34475508537E+03  0.34475508537E+03  0.00000000000E+00 0.  1.
         21   -1    0    0  505  502 -0.00000000000E+00 -0.00000000000E+00 -0.99680754068E+03  0.99680754068E+03  0.00000000000E+00 0. -1.
         21    1    1    2  503  501 -0.33809489449E+02 -0.62419478951E+02  0.24225839545E+03  0.25244485159E+03  0.00000000000E+00 0.  1.
         21    1    1    2  504  502 -0.21976852136E+02  0.36056603058E+02  0.76089849409E+02  0.87021410222E+02  0.00000000000E+00 0.  1.
         21    1    1    2  505  506 -0.72543097230E+02  0.22243377391E+02 -0.68444694513E+03  0.68863988375E+03  0.00000000000E+00 0. -1.
         21    1    1    2  506  503  0.12832943882E+03  0.41194985027E+01 -0.28595375504E+03  0.31345648048E+03  0.00000000000E+00 0.  1.
<scales pt_clust_3="61.48504" pt_clust_4="42.22630" pt_clust_5="82.09421" pt_clust_6="14000.00000"></scales>
<clustering>
<clus scale="   42.226">  1  4  2 -1</clus>
<clus scale="   61.485">  1  3  2 -1</clus>
<clus scale="   82.094">  2  5  1 -1</clus>
<clus scale="   42.226">  1  3  2 -1</clus>
</clustering>
</event>
<event>
 6    0  0.5510638E+002  0.9633938E+02  0.7546771E-02  0.1288188E+00
         21   -1    0    0  505  501  0.00000000000E+00  0.00000000000E+00  0.18417549165E+03  0.18417549165E+03  0.00000000000E+00 0.  1.
         21   -1    0    0  504  502 -0.00000000000E+00 -0.00000000000E+00 -0.28009527527E+03  0.28009527527E+03  0.00000000000E+00 0. -1.
         21    1    1    2  503  502 -0.37092372450E+02 -0.24860188041E+02 -0.17018577181E+03  0.17594621328E+03  0.00000000000E+00 0. -1.
         21    1    1    2  504  501 -0.58312806745E+02  0.40141768895E+02 -0.80957453934E+01  0.71255077952E+02  0.00000000000E+00 0. -1.
         21    1    1    2  505  506 -0.43253591871E+02  0.11799461557E+02  0.58636116930E+02  0.73812564726E+02  0.00000000000E+00 0.  1.
         21    1    1    2  506  503  0.13865877107E+03 -0.27081042411E+02  0.23725616643E+02  0.14325691096E+03  0.00000000000E+00 0.  1.
<scales pt_clust_3="44.65281" pt_clust_4="96.33938" pt_clust_5="46.96834" pt_clust_6="14000.00000"></scales>
<clustering>
<clus scale="   44.653">  2  3  1 -1</clus>
<clus scale="   46.968">  1  5  2 -1</clus>
<clus scale="   96.339">  2  4  1 -1</clus>
<clus scale="   46.968">  1  3  2 -1</clus>
</clustering>
</event>
<event>
 6    0  0.5510638E+002  0.9083641E+02  0.7546771E-02  0.1300839E+00
         21   -1    0    0  505  501  0.00000000000E+00  0.00000000000E+00  0.21285017359E+03  0.21285017359E+03  0.00000000000E+00 0. -1.
         21   -1    0    0  503  502 -0.00000000000E+00 -0.00000000000E+00 -0.14679494996E+03  0.14679494996E+03  0.00000000000E+00 0.  1.
         21    1    1    2  503  506  0.10936836427E+03 -0.76108921846E+02 -0.44868557459E+02  0.14059585533E+03  0.00000000000E+00 0.  1.
         21    1    1    2  504  502 -0.44394238468E+02  0.13899405093E+02 -0.19842694051E+02  0.50574443925E+02  0.00000000000E+00 0. -1.
         21    1    1    2  505  504 -0.33990342761E+02  0.64648957448E+02  0.75364695521E+02  0.10495079052E+03  0.00000000000E+00 0. -1.
         21    1    1    2  506  501 -0.30983783038E+02 -0.24394406940E+01  0.55401779623E+02  0.63524033780E+02  0.00000000000E+00 0.  1.
<scales pt_clust_3="90.83641" pt_clust_4="49.42195" pt_clust_5="14000.00000" pt_clust_6="31.07967"></scales>
<clustering>
<clus scale="   31.080">  1  6  2 -1</clus>
<clus scale="   49.422">  2  4  1 -1</clus>
<clus scale="   90.836">  2  3  1 -1</clus>
<clus scale="   31.080">  1  3  2 -1</clus>
</clustering>
</event>
<event>
 6    0  0.5510638E+002  0.1744792E+03  0.7546771E-02  0.1173256E+00
         21   -1    0    0  504  501  0.00000000000E+00  0.00000000000E+00  0.10817342188E+04  0.10817342188E+04  0.00000000000E+00 0.  1.
         21   -1    0    0  506  502 -0.00000000000E+00 -0.00000000000E+00 -0.42031700496E+03  0.42031700496E+03  0.00000000000E+00 0.  1.
         21    1    1    2  503  502 -0.11373474622E+03  0.47534343940E+02 -0.97491046055E+01  0.12365335172E+03  0.00000000000E+00 0.  1.
         21    1    1    2  504  503 -0.42249137228E+02 -0.10096570212E+02  0.26266948492E+02  0.50763007295E+02  0.00000000000E+00 0. -1.
         21    1    1    2  505  501  0.16146913151E+03  0.13612288400E+02  0.97762892311E+03  0.99096714684E+03  0.00000000000E+00 0.  1.
         21    1    1    2  506  505 -0.54852480688E+01 -0.51050062129E+02 -0.33272955312E+03  0.33666771795E+03  0.00000000000E+00 0.  1.
<scales pt_clust_3="39.44675" pt_clust_4="39.44675" pt_clust_5="161.32989" pt_clust_6="51.34391"></scales>
<clustering>
<clus scale="   39.447">  3  4 -1 -1</clus>
<clus scale="   51.344">  2  6  1 -1</clus>
<clus scale="  161.330">  1  5  2 -1</clus>
<clus scale="  161.330">  1  3  2 -1</clus>
</clustering>
</event>
<event>
 6    0  0.5510638E+002  0.1501070E+03  0.7546771E-02  0.1200342E+00
         21   -1    0    0  502  501  0.00000000000E+00  0.00000000000E+00  0.10333287192E+03  0.10333287192E+03  0.00000000000E+00 0.  1.
         21   -1    0    0  503  502 -0.00000000000E+00 -0.00000000000E+00 -0.30724259112E+03  0.30724259112E+03  0.00000000000E+00 0. -1.
         21    1    1    2  503  504 -0.18489110383E+02  0.73804954449E+02 -0.12548427994E+03  0.14674918403E+03  0.00000000000E+00 0. -1.
         21    1    1    2  504  505 -0.47916471196E+02  0.47147802453E+02 -0.91063987452E+02  0.11318813232E+03  0.00000000000E+00 0. -1.
         21    1    1    2  505  506  0.30972873424E+02 -0.80289554263E+02 -0.18971338326E+02  0.88122886300E+02  0.00000000000E+00 0.  1.
         21    1    1    2  506  501  0.35432708155E+02 -0.40663202639E+02  0.31609886509E+02  0.62515260386E+02  0.00000000000E+00 0.  1.
<scales pt_clust_3="143.78545" pt_clust_4="38.00704" pt_clust_5="46.78781" pt_clust_6="46.78781"></scales>
<clustering>
<clus scale="   38.007">  3  4 -1 -1</clus>
<clus scale="   46.788">  5  6 -1 -1</clus>
<clus scale="  143.785">  2  3  1 -1</clus>
<clus scale="  150.107">  1  3  2 -1</clus>
</clustering>
</event>
<event>
 6    0  0.5510638E+002  0.1071291E+03  0.7546771E-02  0.1265981E+00
         21   -1    0    0  504  501  0.00000000000E+00  0.00000000000E+00  0.32187733171E+03  0.32187733171E+03  0.00000000000E+00 0.  1.
         21   -1    0    0  503  502 -0.00000000000E+00 -0.00000000000E+00 -0.19015075475E+03  0.19015075475E+03  0.00000000000E+00 0.  1.
         21    1    1    2  503  505  0.45965124448E+02 -0.10203486846E+03 -0.14265424175E+03  0.18131227133E+03  0.00000000000E+00 0.  1.
         21    1    1    2  504  506 -0.39437199391E+02  0.20844804544E+02  0.53134029321E+02  0.69375958690E+02  0.00000000000E+00 0. -1.
         21    1    1    2  505  501 -0.29866818741E+02 -0.10500152543E+02  0.11404299399E+03  0.11835575416E+03  0.00000000000E+00 0.  1.
         21    1    1    2  506  502  0.23338893684E+02  0.91690216454E+02  0.10720379540E+03  0.14298410226E+03  0.00000000000E+00 0.  1.
<scales pt_clust_3="107.12906" pt_clust_4="51.47728" pt_clust_5="31.65881" pt_clust_6="14000.00000"></scales>
<clustering>
<clus scale="   31.659">  1  5  2 -1</clus>
<clus scale="   51.477">  1  4  2 -1</clus>
<clus scale="  107.129">  2  3  1 -1</clus>
<clus scale="   31.659">  1  3  2 -1</clus>
</clustering>
</event>
<event>
 6    0  0.5510638E+002  0.1022191E+03  0.7546771E-02  0.1275697E+00
         21   -1    0    0  504  501  0.00000000000E+00  0.00000000000E+00  0.43213533649E+03  0.43213533649E+03  0.00000000000E+00 0. -1.
         21   -1    0    0  503  502 -0.00000000000E+00 -0.00000000000E+00 -0.99386575646E+03  0.99386575646E+03  0.00000000000E+00 0.  1.
         21    1    1    2  503  506 -0.15161801581E+03  0.56774953571E+01 -0.78922299400E+03  0.80367480422E+03  0.00000000000E+00 0.  1.
         21    1    1    2  504  505  0.50177994591E+02  0.27746503764E+02  0.40257734779E+03  0.40664016103E+03  0.00000000000E+00 0. -1.
         21    1    1    2  505  502  0.33401452318E+02  0.70325814244E+01 -0.15376891391E+02  0.37437454605E+02  0.00000000000E+00 0.  1.
         21    1    1    2  506  501  0.68038568899E+02 -0.40456580546E+02 -0.15970788237E+03  0.17824867309E+03  0.00000000000E+00 0. -1.
<scales pt_clust_3="102.21912" pt_clust_4="57.40699" pt_clust_5="34.13377" pt_clust_6="14000.00000"></scales>
<clustering>
<clus scale="   34.134">  2  5  1 -1</clus>
<clus scale="   57.407">  1  4  2 -1</clus>
<clus scale="  102.219">  2  3  1 -1</clus>
<clus scale="   57.407">  1  3  2 -1</clus>
</clustering>
</event>
<event>
 6    0  0.5510638E+002  0.9521058E+02  0.7546771E-02  0.1290703E+00
         21   -1    0    0  506  501  0.00000000000E+00  0.00000000000E+00  0.39070023339E+03  0.39070023339E+03  0.00000000000E+00 0. -1.
         21   -1    0    0  505  502 -0.00000000000E+00 -0.00000000000E+00 -0.31747298499E+03  0.31747298499E+03  0.00000000000E+00 0.  1.
         21    1    1    2  503  502  0.70483281269E+02  0.48909539997E+02 -0.75315766832E+02  0.11415997887E+03  0.00000000000E+00 0. -1.
         21    1    1    2  504  503 -0.85074107271E+02  0.31698228137E+02  0.14031161581E+03  0.16712190439E+03  0.00000000000E+00 0. -1.
         21    1    1    2  505  501  0.32866135932E+02 -0.55883354277E+02 -0.20317139336E+03  0.21326450070E+03  0.00000000000E+00 0.  1.
         21    1    1    2  506  504 -0.18275309930E+02 -0.24724413857E+02  0.21140279278E+03  0.21362683443E+03  0.00000000000E+00 0. -1.
<scales pt_clust_3="14000.00000" pt_clust_4="95.21058" pt_clust_5="65.17769" pt_clust_6="30.74546"></scales>
<clustering>
<clus scale="   30.745">  1  6  2 -1</clus>
<clus scale="   65.178">  2  5  1 -1</clus>
<clus scale="   95.211">  1  4  2 -1</clus>
<clus scale="   30.745">  1  3  2 -1</clus>
</clustering>
</event>
<event>
 6    0  0.5510638E+002  0.1056789E+03  0.7546771E-02  0.1268788E+00
         21   -1    0    0  504  501  0.00000000000E+00  0.00000000000E+00  0.72634483690E+03  0.72634483690E+03  0.00000000000E+00 0.  1.
         21   -1    0    0  506  502 -0.00000000000E+00 -0.00000000000E+00 -0.38113206985E+03  0.38113206985E+03  0.00000000000E+00 0.  1.
         21    1    1    2  503  501  0.59363474262E+02 -0.65670969275E+02  0.65419118282E+03  0.66015361997E+03  0.00000000000E+00 0.  1.
         21    1    1    2  504  505 -0.86173372902E+01 -0.34923033023E+02  0.36554780306E+02  0.51284780400E+02  0.00000000000E+00 0. -1.
         21    1    1    2  505  502  0.21228808807E+02  0.62567711595E+02 -0.29016068715E+03  0.29758797897E+03  0.00000000000E+00 0.  1.
         21    1    1    2  506  503 -0.71974945779E+02  0.38026290703E+02 -0.55372508915E+02  0.98450527413E+02  0.00000000000E+00 0.  1.
<scales pt_clust_3="14000.00000" pt_clust_4="35.97050" pt_clust_5="65.87600" pt_clust_6="105.67892"></scales>
<clustering>
<clus scale="   35.970">  1  4  2 -1</clus>
<clus scale="   65.876">  2  5  1 -1</clus>
<clus scale="  105.679">  2  6  1 -1</clus>
<clus scale="   35.970">  1  3  2 -1</clus>
</clustering>
</event>
<event>
 6    0  0.5510638E+002  0.8592645E+02  0.7546771E-02  0.1313027E+00
         21   -1    0    0  505  501  0.00000000000E+00  0.00000000000E+00  0.29458924571E+03  0.29458924571E+03  0.00000000000E+00 0. -1.
         21   -1    0    0  504  502 -0.00000000000E+00 -0.00000000000E+00 -0.17418509251E+03  0.17418509251E+03  0.00000000000E+00 0. -1.
         21    1    1    2  503  501 -0.24031280992E+02  0.34224484262E+02  0.45686096142E+02  0.61935750337E+02  0.00000000000E+00 0. -1.
         21    1    1    2  504  506 -0.36555447516E+02 -0.70358006568E+01 -0.12181332929E+03  0.12737460668E+03  0.00000000000E+00 0. -1.
         21    1    1    2  505  502 -0.43420168749E+02 -0.66724888862E+02  0.12151472285E+03  0.14526992021E+03  0.00000000000E+00 0. -1.
         21    1    1    2  506  503  0.10400689726E+03  0.39536205257E+02  0.75016663493E+02  0.13419406099E+03  0.00000000000E+00 0. -1.
<scales pt_clust_3="44.66504" pt_clust_4="37.22638" pt_clust_5="14000.00000" pt_clust_6="85.92645"></scales>
<clustering>
<clus scale="   37.226">  2  4  1 -1</clus>
<clus scale="   44.665">  1  3  2 -1</clus>
<clus scale="   85.926">  2  6  1 -1</clus>
<clus scale="   44.665">  1  3  2 -1</clus>
</clustering>
</event>
<event>
 6    0  0.5510638E+002  0.2981709E+03  0.7546771E-02  0.1086159E+00
         21   -1    0    0  506  501  0.00000000000E+00  0.00000000000E+00  0.11070882056E+03  0.11070882056E+03  0.00000000000E+00 0. -1.
         21   -1    0    0  504  502 -0.00000000000E+00 -0.00000000000E+00 -0.94734826264E+03  0.94734826264E+03  0.00000000000E+00 0. -1.
         21    1    1    2  503  502  0.12974125051E+03  0.43372901474E+02 -0.15606564898E+03  0.20753430429E+03  0.00000000000E+00 0. -1.
         21    1    1    2  504  505  0.16528240014E+02 -0.29907411568E+02 -0.71601946795E+02  0.79337726017E+02  0.00000000000E+00 0. -1.
         21    1    1    2  505  501 -0.28734153492E+03 -0.81060285224E+02 -0.49338380153E+03  0.57668319131E+03  0.00000000000E+00 0. -1.
         21    1    1    2  506  503  0.14107204439E+03  0.67594795318E+02 -0.11558804477E+03  0.19450186158E+03  0.00000000000E+00 0. -1.
<scales pt_clust_3="43.86762" pt_clust_4="34.17069" pt_clust_5="294.48632" pt_clust_6="43.86762"></scales>
<clustering>
<clus scale="   34.171">  2  4  1 -1</clus>
<clus scale="   43.868">  3  6 -1 -1</clus>
<clus scale="  294.486">  2  5  1 -1</clus>
<clus scale="  298.171">  1  3  2 -1</clus>
</clustering>
</event>
<event>
 6    0  0.5510638E+002  0.1250831E+03  0.7546771E-02  0.1234939E+00
         21   -1    0    0  504  501  0.00000000000E+00  0.00000000000E+00  0.70847372886E+03  0.70847372886E+03  0.00000000000E+00 0.  1.
         21   -1    0    0  505  502 -0.00000000000E+00 -0.00000000000E+00 -0.20955292061E+03  0.20955292061E+03  0.00000000000E+00 0. -1.
         21    1    1    2  503  502 -0.22334774815E+02  0.45786950734E+02  0.15545569743E+03  0.16359022247E+03  0.00000000000E+00 0.  1.
         21    1    1    2  504  503  0.48361680909E+02  0.93513673683E+02  0.37660860155E+03  0.39104692571E+03  0.00000000000E+00 0.  1.
         21    1    1    2  505  506 -0.31936572406E+01 -0.66026480208E+02 -0.18324548641E+03  0.19480401388E+03  0.00000000000E+00 0. -1.
         21    1    1    2  506  501 -0.22833248853E+02 -0.73274144209E+02  0.15010199567E+03  0.16858548741E+03  0.00000000000E+00 0. -1.
<scales pt_clust_3="46.39298" pt_clust_4="46.39298" pt_clust_5="66.10367" pt_clust_6="105.82017"></scales>
<clustering>
<clus scale="   46.393">  3  4 -1 -1</clus>
<clus scale="   66.104">  2  5  1 -1</clus>
<clus scale="  105.820">  1  6  2 -1</clus>
<clus scale="  105.820">  1  3  2 -1</clus>
</clustering>
</event>
<event>
 6    0  0.5510638E+002  0.1045589E+03  0.7546771E-02  0.1270991E+00
         21   -1    0    0  506  501  0.00000000000E+00  0.00000000000E+00  0.59909551203E+02  0.59909551203E+02  0.00000000000E+00 0. -1.
         21   -1    0    0  503  502 -0.00000000000E+00 -0.00000000000E+00 -0.48181869103E+03  0.48181869103E+03  0.00000000000E+00 0. -1.
         21    1    1    2  503  504 -0.23259231221E+02  0.29624715196E+02 -0.48187270318E+02  0.61160678611E+02  0.00000000000E+00 0. -1.
         21    1    1    2  504  505 -0.49950317162E+02 -0.22688534087E+02 -0.13041995871E+02  0.56390579177E+02  0.00000000000E+00 0. -1.
         21    1    1    2  505  501 -0.43569935872E+02  0.16156588785E+02 -0.22802225970E+01  0.46524983484E+02  0.00000000000E+00 0. -1.
         21    1    1    2  506  502  0.11677948426E+03 -0.23092769894E+02 -0.35839965104E+03  0.37765200096E+03  0.00000000000E+00 0. -1.
<scales pt_clust_3="37.66451" pt_clust_4="36.44514" pt_clust_5="36.44514" pt_clust_6="96.77000"></scales>
<clustering>
<clus scale="   36.445">  4  5 -1 -1</clus>
<clus scale="   37.665">  2  3  1 -1</clus>
<clus scale="   96.770">  2  6  1 -1</clus>
<clus scale="  104.559">  1  3  2 -1</clus>
</clustering>
</event>
<event>
 6    0  0.5510638E+002  0.1622687E+03  0.7546771E-02  0.1186159E+00
         21   -1    0    0  503  501  0.00000000000E+00  0.00000000000E+00  0.74380925656E+03  0.74380925656E+03  0.00000000000E+00 0.  1.
         21   -1    0    0  505  502 -0.00000000000E+00 -0.00000000000E+00 -0.11801223083E+03  0.11801223083E+03  0.00000000000E+00 0.  1.
         21    1    1    2  503  502  0.20115442264E+02 -0.70997402745E+02 -0.18472422023E+02  0.76068998872E+02  0.00000000000E+00 0.  1.
         21    1    1    2  504  501  0.85961965312E+02 -0.12646745970E+03  0.25967503733E+03  0.30135461313E+03  0.00000000000E+00 0.  1.
         21    1    1    2  505  506  0.43718024065E+02  0.96866761640E+02  0.91623754037E+02  0.14031873518E+03  0.00000000000E+00 0. -1.
         21    1    1    2  506  504 -0.14979543164E+03  0.10059810081E+03  0.29297065639E+03  0.34407914021E+03  0.00000000000E+00 0.  1.
<scales pt_clust_3="73.79202" pt_clust_4="14000.00000" pt_clust_5="88.37883" pt_clust_6="162.26875"></scales>
<clustering>
<clus scale="   73.792">  2  3  1 -1</clus>
<clus scale="   88.379">  2  5  1 -1</clus>
<clus scale="  162.269">  2  6  1 -1</clus>
<clus scale="  162.269">  1  3  2 -1</clus>
</clustering>
</event>
<event>
 6    0  0.5510638E+002  0.3390421E+03  0.7546771E-02  0.1067205E+00
         21   -1    0    0  506  501  0.00000000000E+00  0.00000000000E+00  0.16125565176E+04  0.16125565176E+04  0.00000000000E+00 0.  1.
         21   -1    0    0  503  502 -0.00000000000E+00 -0.00000000000E+00 -0.13208742323E+03  0.13208742323E+03  0.00000000000E+00 0.  1.
         21    1    1    2  503  505  0.33103613253E+01 -0.64127190577E+02  0.52534656394E+02  0.82964722539E+02  0.00000000000E+00 0.  1.
         21    1    1    2  504  502  0.10993392585E+02 -0.28053996814E+02 -0.34496944409E+02  0.45803063122E+02  0.00000000000E+00 0.  1.
         21    1    1    2  505  501 -0.15280256353E+03 -0.21018374035E+03  0.25727311729E+03  0.36567100652E+03  0.00000000000E+00 0.  1.
         21    1    1    2  506  504  0.13849880962E+03  0.30236492774E+03  0.12051582651E+04  0.12502051486E+04  0.00000000000E+00 0.  1.
<scales pt_clust_3="44.35676" pt_clust_4="30.13107" pt_clust_5="44.35676" pt_clust_6="327.49162"></scales>
<clustering>
<clus scale="   30.131">  2  4  1 -1</clus>
<clus scale="   44.357">  3  5 -1 -1</clus>
<clus scale="  327.492">  1  6  2 -1</clus>
<clus scale="  327.492">  1  3  2 -1</clus>
</clustering>
</event>
<event>
 6    0  0.5510638E+002  0.1068263E+03  0.7546771E-02  0.1266562E+00
         21   -1    0    0  504  501  0.00000000000E+00  0.00000000000E+00  0.61192632532E+03  0.61192632532E+03  0.00000000000E+00 0.  1.
         21   -1    0    0  505  502 -0.00000000000E+00 -0.00000000000E+00 -0.14327377859E+03  0.14327377859E+03  0.00000000000E+00 0.  1.
         21    1    1    2  503  506 -0.11061454581E+03  0.17731770076E+01  0.47807602518E+03  0.49070908668E+03  0.00000000000E+00 0.  1.
         21    1    1    2  504  503  0.70073244668E+01  0.44956464469E+02  0.80142514437E+02  0.92157522287E+02  0.00000000000E+00 0. -1.
         21    1    1    2  505  501  0.33634176609E+02  0.47394162466E+01 -0.77524705334E+02  0.84639233454E+02  0.00000000000E+00 0.  1.
         21    1    1    2  506  502  0.69973044733E+02 -0.51469057723E+02 -0.12041287547E+02  0.87694261488E+02  0.00000000000E+00 0.  1.
<scales pt_clust_3="106.82633" pt_clust_4="46.55800" pt_clust_5="33.96645" pt_clust_6="14000.00000"></scales>
<clustering>
<clus scale="   33.966">  2  5  1 -1</clus>
<clus scale="   46.558">  1  4  2 -1</clus>
<clus scale="  106.826">  1  3  2 -1</clus>
<clus scale="   46.558">  1  3  2 -1</clus>
</clustering>
</event>
<event>
 6    0  0.5510638E+002  0.8207422E+02  0.7546771E-02  0.1323266E+00
         21   -1    0    0  506  501  0.00000000000E+00  0.00000000000E+00  0.19236579714E+03  0.19236579714E+03  0.00000000000E+00 0. -1.
         21   -1    0    0  505  502 -0.00000000000E+00 -0.00000000000E+00 -0.47672496844E+03  0.47672496844E+03  0.00000000000E+00 0.  1.
         21    1    1    2  503  502  0.68361544223E+02  0.73938443792E+02 -0.37549473558E+03  0.38876276911E+03  0.00000000000E+00 0.  1.
         21    1    1    2  504  501 -0.45788081408E+02 -0.35772034931E+02  0.13857542057E+03  0.15026421420E+03  0.00000000000E+00 0. -1.
         21    1    1    2  505  504 -0.46511130638E+02  0.80390372099E+01 -0.60186444910E+02  0.76487381595E+02  0.00000000000E+00 0. -1.
         21    1    1    2  506  503  0.23937667823E+02 -0.46205446071E+02  0.12746588612E+02  0.53576400669E+02  0.00000000000E+00 0.  1.
<scales pt_clust_3="14000.00000" pt_clust_4="82.07422" pt_clust_5="47.20076" pt_clust_6="50.64656"></scales>
<clustering>
<clus scale="   47.201">  2  5  1 -1</clus>
<clus scale="   50.647">  1  6  2 -1</clus>
<clus scale="   82.074">  1  4  2 -1</clus>
<clus scale="   50.647">  1  3  2 -1</clus>
</clustering>
</event>
<event>
 6    0  0.5510638E+002  0.1266643E+03  0.7546771E-02  0.1232491E+00
         21   -1    0    0  506  501  0.00000000000E+00  0.00000000000E+00  0.39993403434E+03  0.39993403434E+03  0.00000000000E+00 0.  1.
         21   -1    0    0  505  502 -0.00000000000E+00 -0.00000000000E+00 -0.38062362239E+03  0.38062362239E+03  0.00000000000E+00 0.  1.
         21    1    1    2  503  502 -0.92610362830E+02 -0.99780203585E+02 -0.27523990366E+03  0.30706639819E+03  0.00000000000E+00 0.  1.
         21    1    1    2  504  501  0.30033633318E+02  0.15010967532E+02  0.20011028124E+03  0.20290754775E+03  0.00000000000E+00 0. -1.
         21    1    1    2  505  504  0.39100534226E+02  0.10438335993E+03 -0.50556156082E+02  0.12239551677E+03  0.00000000000E+00 0.  1.
         21    1    1    2  506  503  0.23476195286E+02 -0.19614123876E+02  0.14499619045E+03  0.14818819401E+03  0.00000000000E+00 0.  1.
<scales pt_clust_3="14000.00000" pt_clust_4="48.71025" pt_clust_5="126.66432" pt_clust_6="30.59159"></scales>
<clustering>
<clus scale="   30.592">  1  6  2 -1</clus>
<clus scale="   48.710">  1  4  2 -1</clus>
<clus scale="  126.664">  1  5  2 -1</clus>
<clus scale="   30.592">  1  3  2 -1</clus>
</clustering>
</event>
<event>
 6    0  0.5510638E+002  0.1428894E+03  0.7546771E-02  0.1209493E+00
         21   -1    0    0  506  501  0.00000000000E+00  0.00000000000E+00  0.14952270730E+03  0.14952270730E+03  0.00000000000E+00 0. -1.
         21   -1    0    0  503  502 -0.00000000000E+00 -0.00000000000E+00 -0.23820709722E+03  0.23820709722E+03  0.00000000000E+00 0.  1.
         21    1    1    2  503  504 -0.27936402251E+02 -0.28378349964E+02 -0.70351025608E+02  0.80839595011E+02  0.00000000000E+00 0. -1.
         21    1    1    2  504  505 -0.23246338967E+02  0.63330682448E+02  0.17349229296E+02  0.69657471759E+02  0.00000000000E+00 0. -1.
         21    1    1    2  505  501 -0.54223249081E+02  0.54868453248E+02  0.31484343537E+02  0.83318496090E+02  0.00000000000E+00 0. -1.
         21    1    1    2  506  502  0.10540599030E+03 -0.89820785731E+02 -0.67166937152E+02  0.15391424166E+03  0.00000000000E+00 0.  1.
<scales pt_clust_3="39.82177" pt_clust_4="30.22128" pt_clust_5="30.22128" pt_clust_6="139.18696"></scales>
<clustering>
<clus scale="   30.221">  4  5 -1 -1</clus>
<clus scale="   39.822">  2  3  1 -1</clus>
<clus scale="  139.187">  2  6  1 -1</clus>
<clus scale="  142.889">  1  3  2 -1</clus>
</clustering>
</event>
<event>
 6    0  0.5510638E+002  0.1957787E+03  0.7546771E-02  0.1153350E+00
         21   -1    0    0  506  501  0.00000000000E+00  0.00000000000E+00  0.49106376756E+02  0.49106376756E+02  0.00000000000E+00 0. -1.
         21   -1    0    0  504  502 -0.00000000000E+00 -0.00000000000E+00 -0.22255209408E+04  0.22255209408E+04  0.00000000000E+00 0. -1.
         21    1    1    2  503  502 -0.90216302575E+01  0.30459410890E+02 -0.12936498060E+03  0.13320834707E+03  0.00000000000E+00 0.  1.
         21    1    1    2  504  505  0.91491253966E+02 -0.40531264580E+02 -0.14597690045E+03  0.17698216980E+03  0.00000000000E+00 0. -1.
         21    1    1    2  505  501  0.73911672497E+02 -0.40475129576E+02 -0.35174763684E+02  0.91315034062E+02  0.00000000000E+00 0. -1.
         21    1    1    2  506  503 -0.15638129621E+03  0.50546983267E+02 -0.18658979193E+04  0.18731217666E+04  0.00000000000E+00 0. -1.
<scales pt_clust_3="31.76737" pt_clust_4="66.73191" pt_clust_5="66.73191" pt_clust_6="181.88458"></scales>
<clustering>
<clus scale="   31.767">  2  3  1 -1</clus>
<clus scale="   66.732">  4  5 -1 -1</clus>
<clus scale="  181.885">  2  6  1 -1</clus>
<clus scale="  195.779">  1  3  2 -1</clus>
</clustering>
</event>
<event>
 6    0  0.5510638E+002  0.1308570E+03  0.7546771E-02  0.1226190E+00
         21   -1    0    0  506  501  0.00000000000E+00  0.00000000000E+00  0.24329218003E+03  0.24329218003E+03  0.00000000000E+00 0. -1.
         21   -1    0    0  505  502 -0.00000000000E+00 -0.00000000000E+00 -0.24990077366E+03  0.24990077366E+03  0.00000000000E+00 0.  1.
         21    1    1    2  503  501 -0.12311287702E+03  0.81768928902E+02  0.10679543160E+03  0.18234089621E+03  0.00000000000E+00 0. -1.
         21    1    1    2  504  503  0.56824795564E+02 -0.10189955508E+03  0.11930335596E+02  0.11728132683E+03  0.00000000000E+00 0.  1.
         21    1    1    2  505  504  0.38770739018E+02 -0.99712416649E+01 -0.14345970273E+03  0.14894053234E+03  0.00000000000E+00 0.  1.
         21    1    1    2  506  502  0.27517342436E+02  0.30101867843E+02  0.18125341910E+02  0.44630198316E+02  0.00000000000E+00 0.  1.
<scales pt_clust_3="130.85699" pt_clust_4="14000.00000" pt_clust_5="40.03244" pt_clust_6="43.42193"></scales>
<clustering>
<clus scale="   40.032">  2  5  1 -1</clus>
<clus scale="   43.422">  1  6  2 -1</clus>
<clus scale="  130.857">  1  3  2 -1</clus>
<clus scale="   43.422">  1  3  2 -1</clus>
</clustering>
</event>
<event>
 6    0  0.5510638E+002  0.7766819E+02  0.7546771E-02  0.1335802E+00
         21   -1    0    0  503  501  0.00000000000E+00  0.00000000000E+00  0.74620561198E+03  0.74620561198E+03  0.00000000000E+00 0.  1.
         21   -1    0    0  505  502 -0.00000000000E+00 -0.00000000000E+00 -0.47850433971E+03  0.47850433971E+03  0.00000000000E+00 0.  1.
         21    1    1    2  503  506 -0.74885567930E+02 -0.38169007120E+01  0.62162984282E+03  0.62613583072E+03  0.00000000000E+00 0.  1.
         21    1    1    2  504  501  0.10559723259E+03  0.50561131503E+01  0.95198362361E+02  0.14226407842E+03  0.00000000000E+00 0.  1.
         21    1    1    2  505  504 -0.39837226082E+01  0.34280134580E+02 -0.15144013874E+03  0.15532261038E+03  0.00000000000E+00 0.  1.
         21    1    1    2  506  502 -0.26727942053E+02 -0.35519347018E+02 -0.29768679418E+03  0.30098743217E+03  0.00000000000E+00 0.  1.
<scales pt_clust_3="77.66819" pt_clust_4="14000.00000" pt_clust_5="34.51083" pt_clust_6="30.65233"></scales>
<clustering>
<clus scale="   34.511">  2  5  1 -1</clus>
<clus scale="   30.652">  2  6  1 -1</clus>
<clus scale="   77.668">  1  3  2 -1</clus>
<clus scale="   77.668">  1  3  2 -1</clus>
</clustering>
</event>
<event>
 6    0  0.5510638E+002  0.9476788E+02  0.7546771E-02  0.1291700E+00
         21   -1    0    0  506  501  0.00000000000E+00  0.00000000000E+00  0.25318161760E+03  0.25318161760E+03  0.00000000000E+00 0.  1.
         21   -1    0    0  504  502 -0.00000000000E+00 -0.00000000000E+00 -0.15284643216E+04  0.15284643216E+04  0.00000000000E+00 0.  1.
         21    1    1    2  503  505  0.90639395939E+02  0.33326831245E+01  0.13309737336E+03  0.16106370686E+03  0.00000000000E+00 0.  1.
         21    1    1    2  504  503 -0.34087230419E+02 -0.52081076563E+02 -0.14035111770E+04  0.14048907437E+04  0.00000000000E+00 0.  1.
         21    1    1    2  505  501 -0.17220418909E+02  0.59005961059E+02  0.91997402900E+02  0.11064252532E+03  0.00000000000E+00 0.  1.
         21    1    1    2  506  502 -0.39331746611E+02 -0.10257567620E+02 -0.96866303288E+02  0.10504896333E+03  0.00000000000E+00 0.  1.
<scales pt_clust_3="94.76788" pt_clust_4="14000.00000" pt_clust_5="61.47567" pt_clust_6="40.64731"></scales>
<clustering>
<clus scale="   40.647">  2  6  1 -1</clus>
<clus scale="   61.476">  1  5  2 -1</clus>
<clus scale="   94.768">  1  3  2 -1</clus>
<clus scale="   61.476">  1  3  2 -1</clus>
</clustering>
</event>
<event>
 6    0  0.5510638E+002  0.1403537E+03  0.7546771E-02  0.1212854E+00
         21   -1    0    0  506  501  0.00000000000E+00  0.00000000000E+00  0.31760182686E+04  0.31760182686E+04  0.00000000000E+00 0. -1.
         21   -1    0    0  503  502 -0.00000000000E+00 -0.00000000000E+00 -0.33340474419E+03  0.33340474419E+03  0.00000000000E+00 0. -1.
         21    1    1    2  503  504  0.59206144527E+02 -0.12727960046E+03 -0.30896672330E+03  0.33936101772E+03  0.00000000000E+00 0. -1.
         21    1    1    2  504  505 -0.23661798128E+02  0.14082299500E+03  0.17857759609E+04  0.17914761453E+04  0.00000000000E+00 0. -1.
         21    1    1    2  505  501  0.72865799853E+02  0.13998827105E+02  0.46900913807E+03  0.47484204062E+03  0.00000000000E+00 0. -1.
         21    1    1    2  506  502 -0.10841014625E+03 -0.27542221642E+02  0.89679514873E+03  0.90374380915E+03  0.00000000000E+00 0. -1.
<scales pt_clust_3="140.35367" pt_clust_4="14000.00000" pt_clust_5="74.19833" pt_clust_6="87.20646"></scales>
<clustering>
<clus scale="   74.198">  1  5  2 -1</clus>
<clus scale="   87.206">  1  6  2 -1</clus>
<clus scale="  140.354">  2  3  1 -1</clus>
<clus scale="   74.198">  1  3  2 -1</clus>
</clustering>
</event>
<event>
 6    0  0.5510638E+002  0.9291247E+02  0.7546771E-02  0.1295948E+00
         21   -1    0    0  506  501  0.00000000000E+00  0.00000000000E+00  0.22847092153E+03  0.22847092153E+03  0.00000000000E+00 0. -1.
         21   -1    0    0  504  502 -0.00000000000E+00 -0.00000000000E+00 -0.67436344289E+03  0.67436344289E+03  0.00000000000E+00 0. -1.
         21    1    1    2  503  502  0.14816291901E+02 -0.28605491221E+02 -0.35635099492E+03  0.35780417579E+03  0.00000000000E+00 0. -1.
         21    1    1    2  504  501 -0.53298267027E+02  0.84449023448E+02  0.45691232037E+01  0.99966092833E+02  0.00000000000E+00 0. -1.
         21    1    1    2  505  503 -0.49464590170E+02 -0.69612035406E+02 -0.25075255964E+03  0.26489512513E+03  0.00000000000E+00 0. -1.
         21    1    1    2  506  505  0.87946565296E+02  0.13768503179E+02  0.15664190999E+03  0.18016897067E+03  0.00000000000E+00 0. -1.
<scales pt_clust_3="32.21485" pt_clust_4="92.91247" pt_clust_5="14000.00000" pt_clust_6="89.40366"></scales>
<clustering>
<clus scale="   32.215">  2  3  1 -1</clus>
<clus scale="   89.404">  1  6  2 -1</clus>
<clus scale="   92.912">  1  4  2 -1</clus>
<clus scale="   89.404">  1  3  2 -1</clus>
</clustering>
</event>
<event>
 6    0  0.5510638E+002  0.9291265E+02  0.7546771E-02  0.1295948E+00
         21   -1    0    0  505  501  0.00000000000E+00  0.00000000000E+00  0.95855201062E+03  0.95855201062E+03  0.00000000000E+00 0. -1.
         21   -1    0    0  504  502 -0.00000000000E+00 -0.00000000000E+00 -0.92304999697E+03  0.92304999697E+03  0.00000000000E+00 0. -1.
         21    1    1    2  503  502 -0.36930581050E+02 -0.19211267461E+02 -0.29288633374E+03  0.29582992598E+03  0.00000000000E+00 0. -1.
         21    1    1    2  504  506 -0.24099842026E+02  0.89683161865E+02 -0.61482368447E+03  0.62179742272E+03  0.00000000000E+00 0. -1.
         21    1    1    2  505  503  0.19250798860E+02 -0.72744463274E+02  0.90237781949E+03  0.90550984495E+03  0.00000000000E+00 0. -1.
         21    1    1    2  506  501  0.41779624217E+02  0.22725688693E+01  0.40834212369E+02  0.58464813938E+02  0.00000000000E+00 0. -1.
<scales pt_clust_3="41.62860" pt_clust_4="14000.00000" pt_clust_5="92.91265" pt_clust_6="41.31039"></scales>
<clustering>
<clus scale="   41.629">  2  3  1 -1</clus>
<clus scale="   41.310">  1  6  2 -1</clus>
<clus scale="   92.913">  1  5  2 -1</clus>
<clus scale="   41.310">  1  3  2 -1</clus>
</clustering>
</event>
<event>
 6    0  0.5510638E+002  0.9518715E+02  0.7546771E-02  0.1290755E+00
         21   -1    0    0  503  501  0.00000000000E+00  0.00000000000E+00  0.24643826023E+04  0.24643826023E+04  0.00000000000E+00 0.  1.
         21   -1    0    0  504  502 -0.00000000000E+00 -0.00000000000E+00 -0.38012365152E+02  0.38012365152E+02  0.00000000000E+00 0.  1.
         21    1    1    2  503  505 -0.57877910529E+02 -0.54081811582E+02  0.81718525346E+03  0.82101548910E+03  0.00000000000E+00 0.  1.
         21    1    1    2  504  506  0.44826884898E+02  0.95374109801E+00  0.13067478250E+03  0.13815302390E+03  0.00000000000E+00 0.  1.
         21    1    1    2  505  502  0.45891416665E+02 -0.47465725442E+02  0.53158161629E+01  0.66236508942E+02  0.00000000000E+00 0.  1.
         21    1    1    2  506  501 -0.32840391035E+02  0.10059379593E+03  0.14731943851E+04  0.14769899455E+04  0.00000000000E+00 0.  1.
<scales pt_clust_3="77.36445" pt_clust_4="44.83703" pt_clust_5="14000.00000" pt_clust_6="95.18715"></scales>
<clustering>
<clus scale="   44.837">  2  4  1 -1</clus>
<clus scale="   77.364">  1  3  2 -1</clus>
<clus scale="   95.187">  1  6  2 -1</clus>
<clus scale="   77.364">  1  3  2 -1</clus>
</clustering>
</event>
<event>
 6    0  0.5510638E+002  0.8724325E+02  0.7546771E-02  0.1309668E+00
         21   -1    0    0  506  501  0.00000000000E+00  0.00000000000E+00  0.13740602970E+03  0.13740602970E+03  0.00000000000E+00 0. -1.
         21   -1    0    0  503  502 -0.00000000000E+00 -0.00000000000E+00 -0.52132093401E+03  0.52132093401E+03  0.00000000000E+00 0. -1.
         21    1    1    2  503  505 -0.34991238429E+02 -0.22989425940E+02 -0.35350997794E+03  0.35598062444E+03  0.00000000000E+00 0. -1.
         21    1    1    2  504  502  0.60847995928E+01  0.33079612036E+02 -0.95124945121E+02  0.10089618775E+03  0.00000000000E+00 0. -1.
         21    1    1    2  505  501  0.98810762445E+02 -0.44304703594E+02  0.14572545656E+02  0.10926496521E+03  0.00000000000E+00 0. -1.
         21    1    1    2  506  504 -0.69904323609E+02  0.34214517498E+02  0.50147473095E+02  0.92585186313E+02  0.00000000000E+00 0. -1.
<scales pt_clust_3="30.26427" pt_clust_4="33.63459" pt_clust_5="87.24325" pt_clust_6="14000.00000"></scales>
<clustering>
<clus scale="   33.635">  2  4  1 -1</clus>
<clus scale="   30.264">  2  3  1 -1</clus>
<clus scale="   87.243">  2  5  1 -1</clus>
<clus scale="   87.243">  1  3  2 -1</clus>
</clustering>
</event>
<event>
 6    0  0.5510638E+002  0.7948433E+02  0.7546771E-02  0.1330521E+00
         21   -1    0    0  504  501  0.00000000000E+00  0.00000000000E+00  0.10771683474E+03  0.10771683474E+03  0.00000000000E+00 0.  1.
         21   -1    0    0  506  502 -0.00000000000E+00 -0.00000000000E+00 -0.16385303366E+04  0.16385303366E+04  0.00000000000E+00 0.  1.
         21    1    1    2  503  505  0.84548983090E+02  0.11201060248E+01 -0.32999131483E+03  0.34065239327E+03  0.00000000000E+00 0.  1.
         21    1    1    2  504  502  0.11343408181E+02  0.52243198351E+02  0.47344083875E+02  0.71410692205E+02  0.00000000000E+00 0.  1.
         21    1    1    2  505  501 -0.39903952080E+02  0.91543816327E+01  0.31569938778E+02  0.51699024451E+02  0.00000000000E+00 0.  1.
         21    1    1    2  506  503 -0.55988439190E+02 -0.62517686009E+02 -0.12797362097E+04  0.12824850615E+04  0.00000000000E+00 0.  1.
<scales pt_clust_3="79.48433" pt_clust_4="65.24794" pt_clust_5="40.94054" pt_clust_6="14000.00000"></scales>
<clustering>
<clus scale="   40.941">  1  5  2 -1</clus>
<clus scale="   65.248">  1  4  2 -1</clus>
<clus scale="   79.484">  1  3  2 -1</clus>
<clus scale="   40.941">  1  3  2 -1</clus>
</clustering>
</event>
<event>
 6    0  0.6208041E+002  0.1395197E+03  0.7546771E-02  0.1213977E+00
         21   -1    0    0  505  501  0.00000000000E+00  0.00000000000E+00  0.10934766176E+04  0.10934766176E+04  0.00000000000E+00 0. -1.
         21   -1    0    0  506  502 -0.00000000000E+00 -0.00000000000E+00 -0.30771894221E+03  0.30771894221E+03  0.00000000000E+00 0. -1.
         21    1    1    2  503  504 -0.59649192972E+02 -0.96854543606E+02  0.33630858997E+03  0.35502436047E+03  0.00000000000E+00 0. -1.
         21    1    1    2  504  501 -0.42717054204E+02 -0.40997961929E+01  0.70196326857E+03  0.70327376282E+03  0.00000000000E+00 0. -1.
         21    1    1    2  505  502  0.70784285137E+02  0.11637583454E+03 -0.27091165101E+03  0.30322742709E+03  0.00000000000E+00 0. -1.
         21    1    1    2  506  503  0.31581962040E+02 -0.15421494738E+02  0.18397467904E+02  0.39670009472E+02  0.00000000000E+00 0. -1.
<scales pt_clust_3="139.51969" pt_clust_4="42.84727" pt_clust_5="14000.00000" pt_clust_6="35.14602"></scales>
<clustering>
<clus scale="   35.146">  2  6  1 -1</clus>
<clus scale="   42.847">  1  4  2 -1</clus>
<clus scale="  139.520">  1  3  2 -1</clus>
<clus scale="   42.847">  1  3  2 -1</clus>
</clustering>
</event>
<event>
 6    0  0.5510638E+002  0.1551997E+03  0.7546771E-02  0.1194225E+00
         21   -1    0    0  503  501  0.00000000000E+00  0.00000000000E+00  0.17836066447E+03  0.17836066447E+03  0.00000000000E+00 0.  1.
         21   -1    0    0  504  502 -0.00000000000E+00 -0.00000000000E+00 -0.61667952833E+03  0.61667952833E+03  0.00000000000E+00 0.  1.
         21    1    1    2  503  505 -0.34486364928E+02  0.12483614321E+03 -0.33484283445E+03  0.35901684612E+03  0.00000000000E+00 0.  1.
         21    1    1    2  504  506  0.86514754852E+02 -0.12068808843E+03  0.56593541893E+02  0.15891270082E+03  0.00000000000E+00 0.  1.
         21    1    1    2  505  502 -0.90249306482E+02 -0.12695862940E+02 -0.20085539170E+03  0.22056520721E+03  0.00000000000E+00 0.  1.
         21    1    1    2  506  501  0.38220916558E+02  0.85478081592E+01  0.40785820393E+02  0.56545438649E+02  0.00000000000E+00 0. -1.
<scales pt_clust_3="155.19973" pt_clust_4="14000.00000" pt_clust_5="88.17187" pt_clust_6="39.16508"></scales>
<clustering>
<clus scale="   39.165">  1  6  2 -1</clus>
<clus scale="   88.172">  2  5  1 -1</clus>
<clus scale="  155.200">  2  3  1 -1</clus>
<clus scale="   39.165">  1  3  2 -1</clus>
</clustering>
</event>
<event>
 6    0  0.5510638E+002  0.1547706E+03  0.7546771E-02  0.1194731E+00
         21   -1    0    0  505  501  0.00000000000E+00  0.00000000000E+00  0.13307737456E+04  0.13307737456E+04  0.00000000000E+00 0.  1.
         21   -1    0    0  503  502 -0.00000000000E+00 -0.00000000000E+00 -0.26038434955E+03  0.26038434955E+03  0.00000000000E+00 0.  1.
         21    1    1    2  503  501 -0.11399644971E+02  0.30041185087E+02 -0.36478713276E+02  0.48611945334E+02  0.00000000000E+00 0.  1.
         21    1    1    2  504  502  0.15512055508E+03 -0.46536497811E+02 -0.18247743658E+03  0.24397960386E+03  0.00000000000E+00 0.  1.
         21    1    1    2  505  506 -0.37501435275E+02  0.20656367179E+02  0.54351981845E+03  0.54520348146E+03  0.00000000000E+00 0. -1.
         21    1    1    2  506  504 -0.10621947483E+03 -0.41610544541E+01  0.74582572741E+03  0.75336306445E+03  0.00000000000E+00 0.  1.
<scales pt_clust_3="32.13137" pt_clust_4="144.97788" pt_clust_5="34.39302" pt_clust_6="34.39302"></scales>
<clustering>
<clus scale="   32.131">  2  3  1 -1</clus>
<clus scale="   34.393">  5  6 -1 -1</clus>
<clus scale="  144.978">  2  4  1 -1</clus>
<clus scale="  154.771">  1  3  2 -1</clus>
</clustering>
</event>
<event>
 6    0  0.5510638E+002  0.1173738E+03  0.7546771E-02  0.1247493E+00
         21   -1    0    0  502  501  0.00000000000E+00  0.00000000000E+00  0.12500409089E+03  0.12500409089E+03  0.00000000000E+00 0.  1.
         21   -1    0    0  504  502 -0.00000000000E+00 -0.00000000000E+00 -0.80267660518E+03  0.80267660518E+03  0.00000000000E+00 0.  1.
         21    1    1    2  503  501  0.27522217889E+02  0.43873165139E+02 -0.79839269565E+01  0.52402959711E+02  0.00000000000E+00 0.  1.
         21    1    1    2  504  505 -0.32143315481E+02 -0.42252592285E+02 -0.29744018154E+03  0.30214092057E+03  0.00000000000E+00 0.  1.
         21    1    1    2  505  506  0.11022036227E+03 -0.48630564894E+02 -0.42812300611E+03  0.44475023154E+03  0.00000000000E+00 0.  1.
         21    1    1    2  506  503 -0.10559926468E+03  0.47009992039E+02  0.55874600315E+02  0.12838658424E+03  0.00000000000E+00 0.  1.
<scales pt_clust_3="51.79119" pt_clust_4="51.91002" pt_clust_5="14000.00000" pt_clust_6="117.37379"></scales>
<clustering>
<clus scale="   51.791">  1  3  2 -1</clus>
<clus scale="   51.910">  2  4  1 -1</clus>
<clus scale="  117.374">  1  6  2 -1</clus>
<clus scale="   51.791">  1  3  2 -1</clus>
</clustering>
</event>
<event>
 6    0  0.5510638E+002  0.9351202E+02  0.7546771E-02  0.1294563E+00
         21   -1    0    0  506  501  0.00000000000E+00  0.00000000000E+00  0.59907300523E+02  0.59907300523E+02  0.00000000000E+00 0. -1.
         21   -1    0    0  503  502 -0.00000000000E+00 -0.00000000000E+00 -0.40703292869E+03  0.40703292869E+03  0.00000000000E+00 0. -1.
         21    1    1    2  503  505 -0.24079303706E+01 -0.10133785530E+03 -0.21063881588E+03  0.23376028277E+03  0.00000000000E+00 0. -1.
         21    1    1    2  504  502  0.40234697573E+02  0.54818587809E+02 -0.73138894590E+02  0.99865941942E+02  0.00000000000E+00 0. -1.
         21    1    1    2  505  501 -0.18838965290E+02  0.77909969063E+02 -0.48840762772E+02  0.93863145061E+02  0.00000000000E+00 0. -1.
         21    1    1    2  506  504 -0.18987801913E+02 -0.31390701568E+02 -0.14507154926E+02  0.39450859439E+02  0.00000000000E+00 0. -1.
<scales pt_clust_3="93.51202" pt_clust_4="57.71233" pt_clust_5="14000.00000" pt_clust_6="36.68668"></scales>
<clustering>
<clus scale="   36.687">  1  6  2 -1</clus>
<clus scale="   57.712">  1  4  2 -1</clus>
<clus scale="   93.512">  2  3  1 -1</clus>
<clus scale="   36.687">  1  3  2 -1</clus>
</clustering>
</event>
<event>
 6    0  0.5510638E+002  0.1288419E+03  0.7546771E-02  0.1229184E+00
         21   -1    0    0  506  501  0.00000000000E+00  0.00000000000E+00  0.12651753991E+04  0.12651753991E+04  0.00000000000E+00 0.  1.
         21   -1    0    0  504  502 -0.00000000000E+00 -0.00000000000E+00 -0.72454587840E+03  0.72454587840E+03  0.00000000000E+00 0. -1.
         21    1    1    2  503  502  0.88628020386E+01 -0.55021822082E+02 -0.48818876610E+01  0.55944463465E+02  0.00000000000E+00 0. -1.
         21    1    1    2  504  505  0.94935627176E+02 -0.20393713267E+02 -0.67137655898E+03  0.67836211627E+03  0.00000000000E+00 0. -1.
         21    1    1    2  505  501 -0.15397133135E+03  0.10795910518E+03  0.11516978694E+04  0.11669491513E+04  0.00000000000E+00 0.  1.
         21    1    1    2  506  503  0.50172902132E+02 -0.32543569834E+02  0.65190097929E+02  0.88465546480E+02  0.00000000000E+00 0. -1.
<scales pt_clust_3="55.73105" pt_clust_4="14000.00000" pt_clust_5="128.84192" pt_clust_6="60.43368"></scales>
<clustering>
<clus scale="   55.731">  2  3  1 -1</clus>
<clus scale="   60.434">  1  6  2 -1</clus>
<clus scale="  128.842">  1  5  2 -1</clus>
<clus scale="   60.434">  1  3  2 -1</clus>
</clustering>
</event>
<event>
 6    0  0.5510638E+002  0.8296448E+02  0.7546771E-02  0.1320843E+00
         21   -1    0    0  503  501  0.00000000000E+00  0.00000000000E+00  0.32910212080E+03  0.32910212080E+03  0.00000000000E+00 0.  1.
         21   -1    0    0  506  502 -0.00000000000E+00 -0.00000000000E+00 -0.90393311730E+03  0.90393311730E+03  0.00000000000E+00 0.  1.
         21    1    1    2  503  505 -0.61614543563E+02 -0.81659539909E+01  0.14255923677E+03  0.15551903668E+03  0.00000000000E+00 0.  1.
         21    1    1    2  504  501  0.39275986718E+02  0.36974128429E+02  0.16679700855E+03  0.17530239978E+03  0.00000000000E+00 0.  1.
         21    1    1    2  505  502 -0.60817632865E+02  0.14893555084E+02 -0.15766329821E+03  0.16964173441E+03  0.00000000000E+00 0. -1.
         21    1    1    2  506  504  0.83156189710E+02 -0.43701729521E+02 -0.72652394361E+03  0.73257206723E+03  0.00000000000E+00 0.  1.
<scales pt_clust_3="36.29003" pt_clust_4="53.94154" pt_clust_5="82.96448" pt_clust_6="14000.00000"></scales>
<clustering>
<clus scale="   53.942">  1  4  2 -1</clus>
<clus scale="   36.290">  1  3  2 -1</clus>
<clus scale="   82.964">  1  5  2 -1</clus>
<clus scale="   53.942">  1  3  2 -1</clus>
</clustering>
</event>
<event>
 6    0  0.5510638E+002  0.1009102E+03  0.7546771E-02  0.1278394E+00
         21   -1    0    0  504  501  0.00000000000E+00  0.00000000000E+00  0.81426741520E+03  0.81426741520E+03  0.00000000000E+00 0.  1.
         21   -1    0    0  503  502 -0.00000000000E+00 -0.00000000000E+00 -0.17573416537E+03  0.17573416537E+03  0.00000000000E+00 0. -1.
         21    1    1    2  503  506 -0.74659349876E+01  0.86836697061E+02 -0.11847287635E+03  0.14707880395E+03  0.00000000000E+00 0. -1.
         21    1    1    2  504  502  0.43244805344E+02  0.14659026412E+02 -0.24193511812E+02  0.51675199646E+02  0.00000000000E+00 0. -1.
         21    1    1    2  505  501  0.76192554702E+01 -0.55021412963E+02  0.49284032489E+03  0.49596067866E+03  0.00000000000E+00 0.  1.
         21    1    1    2  506  505 -0.43398125827E+02 -0.46474310510E+02  0.28835931311E+03  0.29528689832E+03  0.00000000000E+00 0.  1.
<scales pt_clust_3="100.91017" pt_clust_4="45.66180" pt_clust_5="55.45154" pt_clust_6="14000.00000"></scales>
<clustering>
<clus scale="   45.662">  2  4  1 -1</clus>
<clus scale="   55.452">  1  5  2 -1</clus>
<clus scale="  100.910">  2  3  1 -1</clus>
<clus scale="   55.452">  1  3  2 -1</clus>
</clustering>
</event>
<event>
 6    0  0.5510638E+002  0.2865778E+03  0.7546771E-02  0.1092150E+00
         21   -1    0    0  505  501  0.00000000000E+00  0.00000000000E+00  0.52367477776E+03  0.52367477776E+03  0.00000000000E+00 0. -1.
         21   -1    0    0  506  502 -0.00000000000E+00 -0.00000000000E+00 -0.42302868539E+03  0.42302868539E+03  0.00000000000E+00 0. -1.
         21    1    1    2  503  504  0.61306083248E+02 -0.23715845643E+02  0.16875168927E+00  0.65733596090E+02  0.00000000000E+00 0. -1.
         21    1    1    2  504  501  0.27722689714E+03  0.51888767091E+01  0.27028956122E+03  0.38721844461E+03  0.00000000000E+00 0. -1.
         21    1    1    2  505  502 -0.31032122094E+03 -0.33079378416E+02  0.20689608649E+01  0.31208618368E+03  0.00000000000E+00 0. -1.
         21    1    1    2  506  503 -0.28211759446E+02  0.51606347350E+02 -0.17188118141E+03  0.18166523878E+03  0.00000000000E+00 0. -1.
<scales pt_clust_3="59.96527" pt_clust_4="14000.00000" pt_clust_5="286.57775" pt_clust_6="58.81427"></scales>
<clustering>
<clus scale="   58.814">  2  6  1 -1</clus>
<clus scale="   59.965">  2  3  1 -1</clus>
<clus scale="  286.578">  2  5  1 -1</clus>
<clus scale="  286.578">  1  3  2 -1</clus>
</clustering>
</event>
<event>
 6    0  0.5510638E+002  0.9889355E+02  0.7546771E-02  0.1282640E+00
         21   -1    0    0  503  501  0.00000000000E+00  0.00000000000E+00  0.68013495535E+03  0.68013495535E+03  0.00000000000E+00 0.  1.
         21   -1    0    0  504  502 -0.00000000000E+00 -0.00000000000E+00 -0.44349771822E+02  0.44349771822E+02  0.00000000000E+00 0.  1.
         21    1    1    2  503  502  0.52227082391E+02  0.10007612945E+03  0.12932758749E+03  0.17166398780E+03  0.00000000000E+00 0.  1.
         21    1    1    2  504  505  0.17094241083E+02 -0.44967145692E+02  0.35692015911E+02  0.59901396224E+02  0.00000000000E+00 0. -1.
         21    1    1    2  505  506 -0.98008939883E+02 -0.45414510608E+02  0.28659437703E+03  0.30627531245E+03  0.00000000000E+00 0.  1.
         21    1    1    2  506  501  0.28687616409E+02 -0.96944731525E+01  0.18417120309E+03  0.18664403070E+03  0.00000000000E+00 0.  1.
<scales pt_clust_3="98.89355" pt_clust_4="50.01805" pt_clust_5="14000.00000" pt_clust_6="30.28138"></scales>
<clustering>
<clus scale="   30.281">  1  6  2 -1</clus>
<clus scale="   50.018">  2  4  1 -1</clus>
<clus scale="   98.894">  2  3  1 -1</clus>
<clus scale="   30.281">  1  3  2 -1</clus>
</clustering>
</event>
<event>
 6    0  0.6372707E+002  0.8664129E+02  0.7546771E-02  0.1311195E+00
         21   -1    0    0  504  501  0.00000000000E+00  0.00000000000E+00  0.16921337841E+04  0.16921337841E+04  0.00000000000E+00 0. -1.
         21   -1    0    0  506  502 -0.00000000000E+00 -0.00000000000E+00 -0.13819446279E+03  0.13819446279E+03  0.00000000000E+00 0. -1.
         21    1    1    2  503  502 -0.49113214726E+02  0.29064938400E+02 -0.11468065805E+03  0.12809579164E+03  0.00000000000E+00 0. -1.
         21    1    1    2  504  503  0.98361053797E+02 -0.76814780264E+02  0.15410994121E+04  0.15461444970E+04  0.00000000000E+00 0. -1.
         21    1    1    2  505  501 -0.40431469591E+02  0.11685242040E+02  0.10385936157E+03  0.11206255217E+03  0.00000000000E+00 0. -1.
         21    1    1    2  506  505 -0.88163694802E+01  0.36064599824E+02  0.23661205639E+02  0.44025406115E+02  0.00000000000E+00 0. -1.
<scales pt_clust_3="86.64129" pt_clust_4="14000.00000" pt_clust_5="42.69088" pt_clust_6="37.12659"></scales>
<clustering>
<clus scale="   37.127">  2  6  1 -1</clus>
<clus scale="   42.691">  1  5  2 -1</clus>
<clus scale="   86.641">  2  3  1 -1</clus>
<clus scale="   42.691">  1  3  2 -1</clus>
</clustering>
</event>
<event>
 6    0  0.5510638E+002  0.1762570E+03  0.7546771E-02  0.1171475E+00
         21   -1    0    0  506  501  0.00000000000E+00  0.00000000000E+00  0.50451297115E+03  0.50451297115E+03  0.00000000000E+00 0. -1.
         21   -1    0    0  504  502 -0.00000000000E+00 -0.00000000000E+00 -0.26940246590E+03  0.26940246590E+03  0.00000000000E+00 0.  1.
         21    1    1    2  503  501  0.51206624804E+02 -0.78117890051E+01  0.10079976629E+03  0.11333020496E+03  0.00000000000E+00 0. -1.
         21    1    1    2  504  503  0.48499887854E+02 -0.21790465661E+02  0.23855073245E+03  0.24440440967E+03  0.00000000000E+00 0. -1.
         21    1    1    2  505  502 -0.18419965330E+02  0.18447997445E+03 -0.14643200487E+03  0.23625090083E+03  0.00000000000E+00 0.  1.
         21    1    1    2  506  505 -0.81286547328E+02 -0.15487771978E+03  0.42192011373E+02  0.17992992159E+03  0.00000000000E+00 0.  1.
<scales pt_clust_3="44.11462" pt_clust_4="113.20465" pt_clust_5="14000.00000" pt_clust_6="176.25700"></scales>
<clustering>
<clus scale="   44.115">  3  4 -1 -1</clus>
<clus scale="  113.205">  1  3  2 -1</clus>
<clus scale="  176.257">  1  6  2 -1</clus>
<clus scale="  113.205">  1  3  2 -1</clus>
</clustering>
</event>
<event>
 6    0  0.5510638E+002  0.1080209E+03  0.7546771E-02  0.1264279E+00
         21   -1    0    0  505  501  0.00000000000E+00  0.00000000000E+00  0.12901964277E+03  0.12901964277E+03  0.00000000000E+00 0.  1.
         21   -1    0    0  504  502 -0.00000000000E+00 -0.00000000000E+00 -0.26642728589E+03  0.26642728589E+03  0.00000000000E+00 0.  1.
         21    1    1    2  503  506 -0.37440316610E+02  0.33445360479E+02  0.20929986406E+02  0.54391486249E+02  0.00000000000E+00 0.  1.
         21    1    1    2  504  503  0.31220660524E+01  0.31218748996E+02 -0.79855037872E+02  0.85797346456E+02  0.00000000000E+00 0.  1.
         21    1    1    2  505  502  0.55027762569E+02 -0.11154232702E+03 -0.13185747705E+03  0.18126262611E+03  0.00000000000E+00 0.  1.
         21    1    1    2  506  501 -0.20709512012E+02  0.46878217541E+02  0.53374885395E+02  0.73995469851E+02  0.00000000000E+00 0.  1.
<scales pt_clust_3="33.32446" pt_clust_4="31.37447" pt_clust_5="102.66354" pt_clust_6="33.32446"></scales>
<clustering>
<clus scale="   31.374">  2  4  1 -1</clus>
<clus scale="   33.324">  3  6 -1 -1</clus>
<clus scale="  102.664">  2  5  1 -1</clus>
<clus scale="  108.021">  1  3  2 -1</clus>
</clustering>
</event>
<event>
 6    0  0.5510638E+002  0.8119785E+02  0.7546771E-02  0.1325686E+00
         21   -1    0    0  506  501  0.00000000000E+00  0.00000000000E+00  0.21670647697E+02  0.21670647697E+02  0.00000000000E+00 0.  1.
         21   -1    0    0  505  502 -0.00000000000E+00 -0.00000000000E+00 -0.11166288621E+04  0.11166288621E+04  0.00000000000E+00 0.  1.
         21    1    1    2  503  502  0.58281455211E+02 -0.24193761178E+02 -0.25032810758E+03  0.25815930653E+03  0.00000000000E+00 0.  1.
         21    1    1    2  504  501 -0.93356500575E+02  0.45853140818E+02 -0.35027333086E+03  0.36538931708E+03  0.00000000000E+00 0.  1.
         21    1    1    2  505  504  0.29719010320E+01 -0.51651416207E+02 -0.44764575248E+03  0.45062558816E+03  0.00000000000E+00 0.  1.
         21    1    1    2  506  503  0.32103144333E+02  0.29992036567E+02 -0.46711023495E+02  0.64125298046E+02  0.00000000000E+00 0.  1.
<scales pt_clust_3="14000.00000" pt_clust_4="81.19785" pt_clust_5="48.66250" pt_clust_6="43.93329"></scales>
<clustering>
<clus scale="   43.933">  1  6  2 -1</clus>
<clus scale="   48.662">  2  5  1 -1</clus>
<clus scale="   81.198">  1  4  2 -1</clus>
<clus scale="   43.933">  1  3  2 -1</clus>
</clustering>
</event>
<event>
 6    0  0.5510638E+002  0.8673766E+02  0.7546771E-02  0.1310950E+00
         21   -1    0    0  503  501  0.00000000000E+00  0.00000000000E+00  0.47338884004E+03  0.47338884004E+03  0.00000000000E+00 0. -1.
         21   -1    0    0  506  502 -0.00000000000E+00 -0.00000000000E+00 -0.11187205826E+03  0.11187205826E+03  0.00000000000E+00 0.  1.
         21    1    1    2  503  502  0.50491618750E+02  0.18297100267E+02  0.78577456931E+00  0.53710379666E+02  0.00000000000E+00 0. -1.
         21    1    1    2  504  505 -0.29221449890E+01  0.44311166276E+02  0.16266956374E+03  0.16862207850E+03  0.00000000000E+00 0. -1.
         21    1    1    2  505  501  0.19585680825E+02  0.32744907912E+02  0.23693895458E+03  0.23999145003E+03  0.00000000000E+00 0. -1.
         21    1    1    2  506  504 -0.67155154586E+02 -0.95353174455E+02 -0.38877511116E+02  0.12293699011E+03  0.00000000000E+00 0.  1.
<scales pt_clust_3="53.70463" pt_clust_4="30.21777" pt_clust_5="30.21777" pt_clust_6="80.37839"></scales>
<clustering>
<clus scale="   30.218">  4  5 -1 -1</clus>
<clus scale="   53.705">  2  3  1 -1</clus>
<clus scale="   80.378">  2  6  1 -1</clus>
<clus scale="   86.738">  1  3  2 -1</clus>
</clustering>
</event>
<event>
 6    0  0.5510638E+002  0.1115475E+03  0.7546771E-02  0.1257731E+00
         21   -1    0    0  504  501  0.00000000000E+00  0.00000000000E+00  0.26179148665E+03  0.26179148665E+03  0.00000000000E+00 0.  1.
         21   -1    0    0  503  502 -0.00000000000E+00 -0.00000000000E+00 -0.49675084423E+03  0.49675084423E+03  0.00000000000E+00 0.  1.
         21    1    1    2  503  506  0.65556375089E+01  0.51291429303E+02  0.13151241741E+03  0.14131278441E+03  0.00000000000E+00 0.  1.
         21    1    1    2  504  505 -0.21277161693E+02 -0.10912406805E+03 -0.34787560357E+03  0.36520982379E+03  0.00000000000E+00 0.  1.
         21    1    1    2  505  502  0.39009272008E+02  0.45045682020E+01 -0.12474002224E+03  0.13077495015E+03  0.00000000000E+00 0. -1.
         21    1    1    2  506  501 -0.24287747823E+02  0.53328070540E+02  0.10614385081E+03  0.12124477254E+03  0.00000000000E+00 0.  1.
<scales pt_clust_3="32.49069" pt_clust_4="106.04973" pt_clust_5="39.26849" pt_clust_6="32.49069"></scales>
<clustering>
<clus scale="   32.491">  3  6 -1 -1</clus>
<clus scale="   39.268">  2  5  1 -1</clus>
<clus scale="  106.050">  2  4  1 -1</clus>
<clus scale="  111.548">  1  3  2 -1</clus>
</clustering>
</event>
<event>
 6    0  0.5510638E+002  0.1573141E+03  0.7546771E-02  0.1191763E+00
         21   -1    0    0  504  501  0.00000000000E+00  0.00000000000E+00  0.17949730820E+03  0.17949730820E+03  0.00000000000E+00 0. -1.
         21   -1    0    0  505  502 -0.00000000000E+00 -0.00000000000E+00 -0.55834391896E+03  0.55834391896E+03  0.00000000000E+00 0. -1.
         21    1    1    2  503  501  0.93567579108E+01 -0.43745655325E+02  0.52080778348E+01  0.45037266271E+02  0.00000000000E+00 0. -1.
         21    1    1    2  504  506 -0.77523285056E+02 -0.39487905048E+02  0.64883844866E+02  0.10853141340E+03  0.00000000000E+00 0. -1.
         21    1    1    2  505  503  0.20365839143E+03  0.26162094019E+02 -0.16083386413E+03  0.26082317269E+03  0.00000000000E+00 0. -1.
         21    1    1    2  506  502 -0.13549186428E+03  0.57071466354E+02 -0.28810466934E+03  0.32344937479E+03  0.00000000000E+00 0. -1.
<scales pt_clust_3="44.73512" pt_clust_4="96.57195" pt_clust_5="157.31409" pt_clust_6="14000.00000"></scales>
<clustering>
<clus scale="   44.735">  1  3  2 -1</clus>
<clus scale="   96.572">  1  4  2 -1</clus>
<clus scale="  157.314">  1  5  2 -1</clus>
<clus scale="   44.735">  1  3  2 -1</clus>
</clustering>
</event>
<event>
 6    0  0.5510638E+002  0.2135732E+03  0.7546771E-02  0.1138767E+00
         21   -1    0    0  504  501  0.00000000000E+00  0.00000000000E+00  0.36932047569E+04  0.36932047569E+04  0.00000000000E+00 0. -1.
         21   -1    0    0  506  502 -0.00000000000E+00 -0.00000000000E+00 -0.14816800498E+03  0.14816800498E+03  0.00000000000E+00 0. -1.
         21    1    1    2  503  501 -0.10624117003E+03 -0.12268612095E+03  0.21357920121E+04  0.21419492499E+04  0.00000000000E+00 0. -1.
         21    1    1    2  504  505  0.73270597265E+02 -0.92953972912E+02  0.13267513595E+04  0.13320203420E+04  0.00000000000E+00 0. -1.
         21    1    1    2  505  502 -0.17283189507E+02 -0.41121403756E+02  0.95545269846E+02  0.10544466357E+03  0.00000000000E+00 0. -1.
         21    1    1    2  506  503  0.50253762272E+02  0.25676149762E+03 -0.13051889444E+02  0.26195850645E+03  0.00000000000E+00 0. -1.
<scales pt_clust_3="213.57319" pt_clust_4="118.75913" pt_clust_5="44.60581" pt_clust_6="14000.00000"></scales>
<clustering>
<clus scale="   44.606">  2  5  1 -1</clus>
<clus scale="  118.759">  1  4  2 -1</clus>
<clus scale="  213.573">  1  3  2 -1</clus>
<clus scale="  118.759">  1  3  2 -1</clus>
</clustering>
</event>
<event>
 6    0  0.8580812E+002  0.1049771E+03  0.7546771E-02  0.1270165E+00
         21   -1    0    0  504  501  0.00000000000E+00  0.00000000000E+00  0.55863477400E+03  0.55863477400E+03  0.00000000000E+00 0.  1.
         21   -1    0    0  506  502 -0.00000000000E+00 -0.00000000000E+00 -0.65476526401E+03  0.65476526401E+03  0.00000000000E+00 0. -1.
         21    1    1    2  503  501  0.33343701394E+02 -0.13570692106E+02  0.51041329615E+02  0.62459454334E+02  0.00000000000E+00 0.  1.
         21    1    1    2  504  502  0.24146064686E+02 -0.90565405745E+02  0.41830140526E+03  0.42867375800E+03  0.00000000000E+00 0.  1.
         21    1    1    2  505  503  0.39402186173E+02  0.62477416004E+02  0.55505775643E+02  0.92395080580E+02  0.00000000000E+00 0.  1.
         21    1    1    2  506  505 -0.96891952253E+02  0.41658681847E+02 -0.62097900053E+03  0.62987174510E+03  0.00000000000E+00 0. -1.
<scales pt_clust_3="35.99953" pt_clust_4="14000.00000" pt_clust_5="74.97605" pt_clust_6="104.97710"></scales>
<clustering>
<clus scale="   36.000">  1  3  2 -1</clus>
<clus scale="   74.976">  1  5  2 -1</clus>
<clus scale="  104.977">  2  6  1 -1</clus>
<clus scale="   36.000">  1  3  2 -1</clus>
</clustering>
</event>
<event>
 6    0  0.5510638E+002  0.9521445E+02  0.7546771E-02  0.1290694E+00
         21   -1    0    0  503  501  0.00000000000E+00  0.00000000000E+00  0.25070435433E+03  0.25070435433E+03  0.00000000000E+00 0.  1.
         21   -1    0    0  504  502 -0.00000000000E+00 -0.00000000000E+00 -0.36189581264E+03  0.36189581264E+03  0.00000000000E+00 0.  1.
         21    1    1    2  503  505  0.95824867450E+00  0.46839630051E+02  0.31780974980E+02  0.56611832284E+02  0.00000000000E+00 0. -1.
         21    1    1    2  504  506  0.36200535806E+02 -0.28951707951E+02 -0.22347257763E+03  0.22822943092E+03  0.00000000000E+00 0.  1.
         21    1    1    2  505  502 -0.79831822421E+02 -0.62683163947E+02 -0.96626050748E+02  0.14013883329E+03  0.00000000000E+00 0. -1.
         21    1    1    2  506  501  0.42673037940E+02  0.44795241848E+02  0.17712619509E+03  0.18762007048E+03  0.00000000000E+00 0.  1.
<scales pt_clust_3="44.40251" pt_clust_4="46.35386" pt_clust_5="95.21445" pt_clust_6="14000.00000"></scales>
<clustering>
<clus scale="   46.354">  2  4  1 -1</clus>
<clus scale="   44.403">  1  3  2 -1</clus>
<clus scale="   95.214">  2  5  1 -1</clus>
<clus scale="   44.403">  1  3  2 -1</clus>
</clustering>
</event>
<event>
 6    0  0.5510638E+002  0.1671252E+03  0.7546771E-02  0.1180879E+00
         21   -1    0    0  503  501  0.00000000000E+00  0.00000000000E+00  0.80319997764E+03  0.80319997764E+03  0.00000000000E+00 0. -1.
         21   -1    0    0  504  502 -0.00000000000E+00 -0.00000000000E+00 -0.99287069161E+02  0.99287069161E+02  0.00000000000E+00 0. -1.
         21    1    1    2  503  502 -0.16410889550E+03 -0.12007342977E+03  0.81605573394E+02  0.21910916852E+03  0.00000000000E+00 0. -1.
         21    1    1    2  504  506  0.35275347501E+02  0.47822616610E+01  0.53601519369E+01  0.35999324948E+02  0.00000000000E+00 0.  1.
         21    1    1    2  505  501  0.33462669992E+02  0.45957749687E+02  0.83231710920E+02  0.10079376341E+03  0.00000000000E+00 0. -1.
         21    1    1    2  506  505  0.95370878009E+02  0.69333418426E+02  0.53371547222E+03  0.54658478992E+03  0.00000000000E+00 0. -1.
<scales pt_clust_3="14000.00000" pt_clust_4="35.59804" pt_clust_5="59.48594" pt_clust_6="167.12521"></scales>
<clustering>
<clus scale="   35.598">  2  4  1 -1</clus>
<clus scale="   59.486">  1  5  2 -1</clus>
<clus scale="  167.125">  1  6  2 -1</clus>
<clus scale="   59.486">  1  3  2 -1</clus>
</clustering>
</event>
<event>
 6    0  0.5510638E+002  0.1034884E+03  0.7546771E-02  0.1273127E+00
         21   -1    0    0  506  501  0.00000000000E+00  0.00000000000E+00  0.17526244065E+03  0.17526244065E+03  0.00000000000E+00 0.  1.
         21   -1    0    0  503  502 -0.00000000000E+00 -0.00000000000E+00 -0.35569881766E+03  0.35569881766E+03  0.00000000000E+00 0.  1.
         21    1    1    2  503  501 -0.31271910305E+02 -0.18985329090E+02  0.34554948351E+02  0.50323151236E+02  0.00000000000E+00 0.  1.
         21    1    1    2  504  502 -0.11426877368E+02  0.12069244108E+03 -0.27105643782E+03  0.29693236830E+03  0.00000000000E+00 0.  1.
         21    1    1    2  505  504  0.45494060534E+02 -0.62575499878E+02 -0.34725702051E+02  0.84801398053E+02  0.00000000000E+00 0.  1.
         21    1    1    2  506  505 -0.27952728603E+01 -0.39131612115E+02  0.90790814503E+02  0.98904340730E+02  0.00000000000E+00 0.  1.
<scales pt_clust_3="36.58381" pt_clust_4="103.48839" pt_clust_5="14000.00000" pt_clust_6="58.37323"></scales>
<clustering>
<clus scale="   36.584">  1  3  2 -1</clus>
<clus scale="   58.373">  1  6  2 -1</clus>
<clus scale="  103.488">  2  4  1 -1</clus>
<clus scale="   36.584">  1  3  2 -1</clus>
</clustering>
</event>
<event>
 6    0  0.5510638E+002  0.1134876E+03  0.7546771E-02  0.1254244E+00
         21   -1    0    0  503  501  0.00000000000E+00  0.00000000000E+00  0.12421493145E+03  0.12421493145E+03  0.00000000000E+00 0. -1.
         21   -1    0    0  506  502 -0.00000000000E+00 -0.00000000000E+00 -0.39214420261E+03  0.39214420261E+03  0.00000000000E+00 0. -1.
         21    1    1    2  503  502 -0.61926032927E+02 -0.11168224654E+03 -0.99312394587E+01  0.12808742040E+03  0.00000000000E+00 0. -1.
         21    1    1    2  504  505 -0.19441906268E+02  0.61736171862E+02 -0.13427660126E+02  0.66103288058E+02  0.00000000000E+00 0. -1.
         21    1    1    2  505  501  0.34341027850E+00  0.37783890782E+02  0.21703029346E+02  0.43574784177E+02  0.00000000000E+00 0. -1.
         21    1    1    2  506  504  0.81024528916E+02  0.12162183898E+02 -0.26627340092E+03  0.27859364142E+03  0.00000000000E+00 0. -1.
<scales pt_clust_3="105.77162" pt_clust_4="31.42684" pt_clust_5="31.42684" pt_clust_6="81.93225"></scales>
<clustering>
<clus scale="   31.427">  4  5 -1 -1</clus>
<clus scale="   81.932">  2  6  1 -1</clus>
<clus scale="  105.772">  2  3  1 -1</clus>
<clus scale="  113.488">  1  3  2 -1</clus>
</clustering>
</event>
<event>
 6    0  0.5510638E+002  0.2197278E+03  0.7546771E-02  0.1134086E+00
         21   -1    0    0  505  501  0.00000000000E+00  0.00000000000E+00  0.57984392456E+03  0.57984392456E+03  0.00000000000E+00 0. -1.
         21   -1    0    0  506  502 -0.00000000000E+00 -0.00000000000E+00 -0.13333612764E+03  0.13333612764E+03  0.00000000000E+00 0. -1.
         21    1    1    2  503  501  0.11837951853E+03 -0.17707784292E+03  0.30389848019E+03  0.37111259629E+03  0.00000000000E+00 0. -1.
         21    1    1    2  504  502 -0.36397861564E+02  0.11011278959E+03  0.78816501785E+02  0.14022008312E+03  0.00000000000E+00 0. -1.
         21    1    1    2  505  504 -0.61275344569E+02  0.89215883629E+02  0.10489871383E+03  0.15072452325E+03  0.00000000000E+00 0. -1.
         21    1    1    2  506  503 -0.20706312395E+02 -0.22250830299E+02 -0.41105898892E+02  0.51122849546E+02  0.00000000000E+00 0. -1.
<scales pt_clust_3="215.99725" pt_clust_4="39.50432" pt_clust_5="39.50432" pt_clust_6="30.39491"></scales>
<clustering>
<clus scale="   30.395">  2  6  1 -1</clus>
<clus scale="   39.504">  4  5 -1 -1</clus>
<clus scale="  215.997">  1  3  2 -1</clus>
<clus scale="  215.997">  1  3  2 -1</clus>
</clustering>
</event>
<event>
 6    0  0.5510638E+002  0.1117729E+03  0.7546771E-02  0.1257321E+00
         21   -1    0    0  503  501  0.00000000000E+00  0.00000000000E+00  0.26923028532E+03  0.26923028532E+03  0.00000000000E+00 0. -1.
         21   -1    0    0  504  502 -0.00000000000E+00 -0.00000000000E+00 -0.10858329393E+04  0.10858329393E+04  0.00000000000E+00 0.  1.
         21    1    1    2  503  505 -0.45627977897E+02  0.10664394043E+03  0.24525861228E+03  0.27130541701E+03  0.00000000000E+00 0. -1.
         21    1    1    2  504  501  0.45291733780E+02  0.11734607127E+02 -0.45209878905E+03  0.45451331908E+03  0.00000000000E+00 0.  1.
         21    1    1    2  505  506  0.13497549905E+02 -0.66506148264E+02 -0.13131815785E+03  0.14781647469E+03  0.00000000000E+00 0.  1.
         21    1    1    2  506  502 -0.13161305787E+02 -0.51872399289E+02 -0.47844431937E+03  0.48142801384E+03  0.00000000000E+00 0.  1.
<scales pt_clust_3="111.77293" pt_clust_4="46.78720" pt_clust_5="14000.00000" pt_clust_6="47.91581"></scales>
<clustering>
<clus scale="   46.787">  2  4  1 -1</clus>
<clus scale="   47.916">  2  6  1 -1</clus>
<clus scale="  111.773">  1  3  2 -1</clus>
<clus scale="  111.773">  1  3  2 -1</clus>
</clustering>
</event>
<event>
 6    0  0.5510638E+002  0.1805647E+03  0.7546771E-02  0.1167258E+00
         21   -1    0    0  502  501  0.00000000000E+00  0.00000000000E+00  0.29014371570E+04  0.29014371570E+04  0.00000000000E+00 0.  1.
         21   -1    0    0  503  502 -0.00000000000E+00 -0.00000000000E+00 -0.20608889326E+02  0.20608889326E+02  0.00000000000E+00 0.  1.
         21    1    1    2  503  504 -0.16257739181E+03  0.61413857203E+02  0.47513179564E+03  0.50591826752E+03  0.00000000000E+00 0.  1.
         21    1    1    2  504  506  0.87077103031E+02 -0.52709048414E+01  0.63329869781E+03  0.63927884757E+03  0.00000000000E+00 0.  1.
         21    1    1    2  505  501  0.97536402043E+01 -0.56512491399E+02  0.64898993093E+03  0.65151878379E+03  0.00000000000E+00 0.  1.
         21    1    1    2  506  505  0.65746648577E+02  0.36953903734E+00  0.11234078433E+04  0.11253301474E+04  0.00000000000E+00 0.  1.
<scales pt_clust_3="167.79656" pt_clust_4="60.47972" pt_clust_5="57.34802" pt_clust_6="60.47972"></scales>
<clustering>
<clus scale="   57.348">  1  5  2 -1</clus>
<clus scale="   60.480">  4  6 -1 -1</clus>
<clus scale="  167.797">  2  3  1 -1</clus>
<clus scale="   57.348">  1  3  2 -1</clus>
</clustering>
</event>
<event>
 6    0  0.5510638E+002  0.9632695E+02  0.7546771E-02  0.1288215E+00
         21   -1    0    0  503  501  0.00000000000E+00  0.00000000000E+00  0.27905351195E+03  0.27905351195E+03  0.00000000000E+00 0.  1.
         21   -1    0    0  506  502 -0.00000000000E+00 -0.00000000000E+00 -0.13904134166E+04  0.13904134166E+04  0.00000000000E+00 0.  1.
         21    1    1    2  503  505 -0.81462141459E+02 -0.20239280360E+02 -0.32972845823E+03  0.34024486055E+03  0.00000000000E+00 0.  1.
         21    1    1    2  504  501 -0.51548528929E+02 -0.21279863227E+01  0.23066558881E+03  0.23636495726E+03  0.00000000000E+00 0.  1.
         21    1    1    2  505  502  0.10280294936E+03 -0.31836930800E+02 -0.10240594878E+04  0.10296989226E+04  0.00000000000E+00 0.  1.
         21    1    1    2  506  504  0.30207721029E+02  0.54204197482E+02  0.11762452637E+02  0.63158188119E+02  0.00000000000E+00 0.  1.
<scales pt_clust_3="96.32695" pt_clust_4="51.59243" pt_clust_5="14000.00000" pt_clust_6="53.85304"></scales>
<clustering>
<clus scale="   51.592">  1  4  2 -1</clus>
<clus scale="   53.853">  1  6  2 -1</clus>
<clus scale="   96.327">  1  3  2 -1</clus>
<clus scale="   51.592">  1  3  2 -1</clus>
</clustering>
</event>
<event>
 6    0  0.5510638E+002  0.1593541E+03  0.7546771E-02  0.1189428E+00
         21   -1    0    0  504  501  0.00000000000E+00  0.00000000000E+00  0.16598455475E+03  0.16598455475E+03  0.00000000000E+00 0.  1.
         21   -1    0    0  503  502 -0.00000000000E+00 -0.00000000000E+00 -0.76113109290E+03  0.76113109290E+03  0.00000000000E+00 0. -1.
         21    1    1    2  503  501 -0.21416625969E+03  0.39559372624E+02 -0.54262821848E+03  0.58470292820E+03  0.00000000000E+00 0. -1.
         21    1    1    2  504  506  0.61500045079E+02 -0.36524085033E+02  0.15952578906E+02  0.73285394902E+02  0.00000000000E+00 0.  1.
         21    1    1    2  505  502  0.81405199235E+02  0.23646217394E+02 -0.14066723165E+03  0.16423525845E+03  0.00000000000E+00 0.  1.
         21    1    1    2  506  505  0.71261015379E+02 -0.26681504984E+02  0.72196333075E+02  0.10489206610E+03  0.00000000000E+00 0.  1.
<scales pt_clust_3="151.78008" pt_clust_4="47.06570" pt_clust_5="84.76998" pt_clust_6="47.06570"></scales>
<clustering>
<clus scale="   47.066">  4  6 -1 -1</clus>
<clus scale="   84.770">  2  5  1 -1</clus>
<clus scale="  151.780">  2  3  1 -1</clus>
<clus scale="  159.354">  1  3  2 -1</clus>
</clustering>
</event>
<event>
 6    0  0.5510638E+002  0.1896648E+03  0.7546771E-02  0.1158764E+00
         21   -1    0    0  505  501  0.00000000000E+00  0.00000000000E+00  0.17827198201E+04  0.17827198201E+04  0.00000000000E+00 0. -1.
         21   -1    0    0  504  502 -0.00000000000E+00 -0.00000000000E+00 -0.11563149386E+04  0.11563149386E+04  0.00000000000E+00 0. -1.
         21    1    1    2  503  502 -0.85867724841E+02  0.16911463263E+03 -0.11368668369E+04  0.11525793812E+04  0.00000000000E+00 0. -1.
         21    1    1    2  504  506  0.11382623137E+03 -0.15475577499E+03  0.13694060023E+04  0.13828154468E+04  0.00000000000E+00 0. -1.
         21    1    1    2  505  503  0.17812593333E+02 -0.27617372790E+02  0.85216197209E+02  0.91333498936E+02  0.00000000000E+00 0.  1.
         21    1    1    2  506  501 -0.45771099862E+02  0.13258515152E+02  0.30864951890E+03  0.31230643177E+03  0.00000000000E+00 0. -1.
<scales pt_clust_3="189.66482" pt_clust_4="14000.00000" pt_clust_5="32.86347" pt_clust_6="43.29059"></scales>
<clustering>
<clus scale="   32.863">  1  5  2 -1</clus>
<clus scale="   43.291">  1  6  2 -1</clus>
<clus scale="  189.665">  2  3  1 -1</clus>
<clus scale="   32.863">  1  3  2 -1</clus>
</clustering>
</event>
<event>
 6    0  0.5510638E+002  0.1402091E+03  0.7546771E-02  0.1213048E+00
         21   -1    0    0  503  501  0.00000000000E+00  0.00000000000E+00  0.94278239593E+02  0.94278239593E+02  0.00000000000E+00 0. -1.
         21   -1    0    0  505  502 -0.00000000000E+00 -0.00000000000E+00 -0.44013114979E+03  0.44013114979E+03  0.00000000000E+00 0. -1.
         21    1    1    2  503  504  0.14117793403E+03 -0.33476201781E+02 -0.66766541118E+02  0.15971736335E+03  0.00000000000E+00 0. -1.
         21    1    1    2  504  502 -0.39054230888E+02 -0.29617842168E+02 -0.22907009787E+03  0.23425532921E+03  0.00000000000E+00 0. -1.
         21    1    1    2  505  506 -0.18207574475E+02  0.39858540785E+02 -0.21515563756E+02  0.48817399823E+02  0.00000000000E+00 0. -1.
         21    1    1    2  506  501 -0.83916128665E+02  0.23235503165E+02 -0.28500707447E+02  0.91619296998E+02  0.00000000000E+00 0. -1.
<scales pt_clust_3="129.79937" pt_clust_4="49.01479" pt_clust_5="37.61006" pt_clust_6="37.61006"></scales>
<clustering>
<clus scale="   37.610">  5  6 -1 -1</clus>
<clus scale="   49.015">  2  4  1 -1</clus>
<clus scale="  129.799">  2  3  1 -1</clus>
<clus scale="  140.209">  1  3  2 -1</clus>
</clustering>
</event>
<event>
 6    0  0.5510638E+002  0.1354379E+03  0.7546771E-02  0.1219603E+00
         21   -1    0    0  506  501  0.00000000000E+00  0.00000000000E+00  0.53377633369E+02  0.53377633369E+02  0.00000000000E+00 0. -1.
         21   -1    0    0  504  502 -0.00000000000E+00 -0.00000000000E+00 -0.33236768163E+04  0.33236768163E+04  0.00000000000E+00 0. -1.
         21    1    1    2  503  505 -0.10445222745E+03 -0.13954768907E+02 -0.76601190303E+02  0.13027949090E+03  0.00000000000E+00 0. -1.
         21    1    1    2  504  501  0.62477156016E+02  0.13798591584E+02 -0.29096498741E+04  0.29103532751E+04  0.00000000000E+00 0. -1.
         21    1    1    2  505  502  0.78391785542E+02 -0.13539319059E+02 -0.28659540754E+03  0.29743152627E+03  0.00000000000E+00 0.  1.
         21    1    1    2  506  503 -0.36416714113E+02  0.13695496381E+02  0.25472890428E+01  0.38990157339E+02  0.00000000000E+00 0.  1.
<scales pt_clust_3="35.03249" pt_clust_4="63.98278" pt_clust_5="122.55332" pt_clust_6="35.03249"></scales>
<clustering>
<clus scale="   35.032">  3  6 -1 -1</clus>
<clus scale="   63.983">  2  4  1 -1</clus>
<clus scale="  122.553">  2  5  1 -1</clus>
<clus scale="  135.438">  1  3  2 -1</clus>
</clustering>
</event>
<event>
 6    0  0.5510638E+002  0.1328400E+03  0.7546771E-02  0.1223301E+00
         21   -1    0    0  506  501  0.00000000000E+00  0.00000000000E+00  0.23053212267E+04  0.23053212267E+04  0.00000000000E+00 0.  1.
         21   -1    0    0  504  502 -0.00000000000E+00 -0.00000000000E+00 -0.64305904642E+02  0.64305904642E+02  0.00000000000E+00 0. -1.
         21    1    1    2  503  502  0.10122574303E+03  0.27330718122E+02  0.10179608703E+04  0.10233464480E+04  0.00000000000E+00 0. -1.
         21    1    1    2  504  505 -0.46050558022E+02  0.95188597034E+01 -0.46749728394E+02  0.66308368168E+02  0.00000000000E+00 0. -1.
         21    1    1    2  505  501 -0.93785411849E+02 -0.58805387085E+02  0.10431581548E+04  0.10490151157E+04  0.00000000000E+00 0.  1.
         21    1    1    2  506  503  0.38610226844E+02  0.21955809259E+02  0.22664602534E+03  0.23095719946E+03  0.00000000000E+00 0. -1.
<scales pt_clust_3="30.85954" pt_clust_4="47.02406" pt_clust_5="124.09038" pt_clust_6="30.85954"></scales>
<clustering>
<clus scale="   30.860">  3  6 -1 -1</clus>
<clus scale="   47.024">  2  4  1 -1</clus>
<clus scale="  124.090">  1  5  2 -1</clus>
<clus scale="  124.090">  1  3  2 -1</clus>
</clustering>
</event>
<event>
 6    0  0.5510638E+002  0.1144125E+03  0.7546771E-02  0.1252610E+00
         21   -1    0    0  505  501  0.00000000000E+00  0.00000000000E+00  0.22021524227E+03  0.22021524227E+03  0.00000000000E+00 0. -1.
         21   -1    0    0  506  502 -0.00000000000E+00 -0.00000000000E+00 -0.15874300572E+04  0.15874300572E+04  0.00000000000E+00 0.  1.
         21    1    1    2  503  501 -0.16806610326E+02 -0.38997261187E+02  0.44227485509E+02  0.61313285715E+02  0.00000000000E+00 0. -1.
         21    1    1    2  504  503  0.12000748131E+03 -0.11695568947E+02  0.13972723964E+03  0.18455970146E+03  0.00000000000E+00 0. -1.
         21    1    1    2  505  502 -0.11014228662E+02  0.34104041279E+02 -0.80432546349E+02  0.88055626605E+02  0.00000000000E+00 0.  1.
         21    1    1    2  506  504 -0.92186642326E+02  0.16588788856E+02 -0.14707369937E+04  0.14737166857E+04  0.00000000000E+00 0.  1.
<scales pt_clust_3="42.31167" pt_clust_4="14000.00000" pt_clust_5="35.83851" pt_clust_6="114.41247"></scales>
<clustering>
<clus scale="   35.839">  2  5  1 -1</clus>
<clus scale="   42.312">  1  3  2 -1</clus>
<clus scale="  114.412">  2  6  1 -1</clus>
<clus scale="   42.312">  1  3  2 -1</clus>
</clustering>
</event>
<event>
 6    0  0.5510638E+002  0.1015362E+03  0.7546771E-02  0.1277098E+00
         21   -1    0    0  503  501  0.00000000000E+00  0.00000000000E+00  0.85039707538E+03  0.85039707538E+03  0.00000000000E+00 0. -1.
         21   -1    0    0  504  502 -0.00000000000E+00 -0.00000000000E+00 -0.11081061967E+04  0.11081061967E+04  0.00000000000E+00 0.  1.
         21    1    1    2  503  506  0.32122135571E+02  0.25615535573E+02  0.42452006694E+03  0.42650354570E+03  0.00000000000E+00 0. -1.
         21    1    1    2  504  505 -0.12835220488E+03  0.72391430032E+02 -0.67595695216E+02  0.16212336553E+03  0.00000000000E+00 0.  1.
         21    1    1    2  505  501 -0.37891757504E+01 -0.10572128944E+03  0.36760717937E+03  0.38252632225E+03  0.00000000000E+00 0.  1.
         21    1    1    2  506  502  0.10001924505E+03  0.77143238317E+01 -0.98224067239E+03  0.98735003857E+03  0.00000000000E+00 0.  1.
<scales pt_clust_3="41.08512" pt_clust_4="101.53622" pt_clust_5="86.66406" pt_clust_6="14000.00000"></scales>
<clustering>
<clus scale="   41.085">  1  3  2 -1</clus>
<clus scale="   86.664">  1  5  2 -1</clus>
<clus scale="  101.536">  1  4  2 -1</clus>
<clus scale="   41.085">  1  3  2 -1</clus>
</clustering>
</event>
<event>
 6    0  0.5510638E+002  0.1568951E+03  0.7546771E-02  0.1192247E+00
         21   -1    0    0  506  501  0.00000000000E+00  0.00000000000E+00  0.10074880334E+04  0.10074880334E+04  0.00000000000E+00 0.  1.
         21   -1    0    0  503  502 -0.00000000000E+00 -0.00000000000E+00 -0.23952203653E+03  0.23952203653E+03  0.00000000000E+00 0.  1.
         21    1    1    2  503  505 -0.46940658194E+02 -0.13752672992E+02 -0.10308940946E+03  0.11410516092E+03  0.00000000000E+00 0.  1.
         21    1    1    2  504  501  0.15736334259E+03  0.22399573443E+02  0.89086245184E+03  0.90493141761E+03  0.00000000000E+00 0.  1.
         21    1    1    2  505  504 -0.14289608894E+03 -0.32075897078E+01  0.49485496724E+02  0.15125605856E+03  0.00000000000E+00 0.  1.
         21    1    1    2  506  502  0.32473404548E+02 -0.54393107436E+01 -0.69292542197E+02  0.76717432885E+02  0.00000000000E+00 0. -1.
<scales pt_clust_3="31.03220" pt_clust_4="156.89506" pt_clust_5="14000.00000" pt_clust_6="32.92580"></scales>
<clustering>
<clus scale="   32.926">  2  6  1 -1</clus>
<clus scale="   31.032">  2  3  1 -1</clus>
<clus scale="  156.895">  1  4  2 -1</clus>
<clus scale="  156.895">  1  3  2 -1</clus>
</clustering>
</event>
<event>
 6    0  0.5510638E+002  0.7249129E+02  0.7546771E-02  0.1351821E+00
         21   -1    0    0  506  501  0.00000000000E+00  0.00000000000E+00  0.58537985946E+02  0.58537985946E+02  0.00000000000E+00 0. -1.
         21   -1    0    0  504  502 -0.00000000000E+00 -0.00000000000E+00 -0.81884136916E+03  0.81884136916E+03  0.00000000000E+00 0. -1.
         21    1    1    2  503  505 -0.83130242125E+02 -0.27231558600E+02 -0.27197946338E+03  0.28570093357E+03  0.00000000000E+00 0. -1.
         21    1    1    2  504  503 -0.42773548907E+02  0.16138590345E+02 -0.43753137494E+03  0.43991332628E+03  0.00000000000E+00 0. -1.
         21    1    1    2  505  501  0.68176146838E+02  0.18858327946E+02  0.52550460884E+01  0.70931227537E+02  0.00000000000E+00 0. -1.
         21    1    1    2  506  502  0.57727644194E+02 -0.77653596915E+01 -0.56047590976E+02  0.80833867714E+02  0.00000000000E+00 0.  1.
<scales pt_clust_3="14000.00000" pt_clust_4="45.71685" pt_clust_5="72.49129" pt_clust_6="50.26171"></scales>
<clustering>
<clus scale="   45.717">  2  4  1 -1</clus>
<clus scale="   50.262">  2  6  1 -1</clus>
<clus scale="   72.491">  1  5  2 -1</clus>
<clus scale="   72.491">  1  3  2 -1</clus>
</clustering>
</event>
<event>
 6    0  0.5510638E+002  0.8492094E+02  0.7546771E-02  0.1315639E+00
         21   -1    0    0  505  501  0.00000000000E+00  0.00000000000E+00  0.15453394494E+04  0.15453394494E+04  0.00000000000E+00 0.  1.
         21   -1    0    0  506  502 -0.00000000000E+00 -0.00000000000E+00 -0.29653943498E+02  0.29653943498E+02  0.00000000000E+00 0.  1.
         21    1    1    2  503  501  0.94558683849E-01  0.93601076545E+02  0.76145959110E+03  0.76719090151E+03  0.00000000000E+00 0.  1.
         21    1    1    2  504  502  0.41289429974E+02 -0.52736727177E+02  0.23318195928E+03  0.24261039869E+03  0.00000000000E+00 0. -1.
         21    1    1    2  505  504 -0.63942807412E+02 -0.62747232299E+02  0.52582476057E+03  0.53340189033E+03  0.00000000000E+00 0.  1.
         21    1    1    2  506  503  0.22558818754E+02  0.21882882930E+02 -0.47808050590E+01  0.31790202357E+02  0.00000000000E+00 0.  1.
<scales pt_clust_3="14000.00000" pt_clust_4="66.86722" pt_clust_5="84.92094" pt_clust_6="31.42866"></scales>
<clustering>
<clus scale="   31.429">  2  6  1 -1</clus>
<clus scale="   66.867">  2  4  1 -1</clus>
<clus scale="   84.921">  2  5  1 -1</clus>
<clus scale="   84.921">  1  3  2 -1</clus>
</clustering>
</event>
<event>
 6    0  0.5510638E+002  0.8578749E+02  0.7546771E-02  0.1313386E+00
         21   -1    0    0  506  501  0.00000000000E+00  0.00000000000E+00  0.25092459254E+03  0.25092459254E+03  0.00000000000E+00 0. -1.
         21   -1    0    0  503  502 -0.00000000000E+00 -0.00000000000E+00 -0.46840531421E+03  0.46840531421E+03  0.00000000000E+00 0. -1.
         21    1    1    2  503  505  0.52203084997E+02  0.68905332709E+02 -0.39760463164E+03  0.40689378228E+03  0.00000000000E+00 0. -1.
         21    1    1    2  504  501  0.36861905142E+02 -0.37634368628E+02  0.97525123827E+02  0.11084356332E+03  0.00000000000E+00 0. -1.
         21    1    1    2  505  504 -0.23657089265E+02 -0.69632163417E+02  0.99672863307E+02  0.12386676606E+03  0.00000000000E+00 0. -1.
         21    1    1    2  506  502 -0.65407900874E+02  0.38361199336E+02 -0.17074077165E+02  0.77725795090E+02  0.00000000000E+00 0. -1.
<scales pt_clust_3="85.78749" pt_clust_4="52.67965" pt_clust_5="14000.00000" pt_clust_6="65.38367"></scales>
<clustering>
<clus scale="   52.680">  1  4  2 -1</clus>
<clus scale="   65.384">  1  6  2 -1</clus>
<clus scale="   85.787">  2  3  1 -1</clus>
<clus scale="   52.680">  1  3  2 -1</clus>
</clustering>
</event>
<event>
 6    0  0.5510638E+002  0.1242032E+03  0.7546771E-02  0.1236320E+00
         21   -1    0    0  506  501  0.00000000000E+00  0.00000000000E+00  0.10679661961E+03  0.10679661961E+03  0.00000000000E+00 0.  1.
         21   -1    0    0  505  502 -0.00000000000E+00 -0.00000000000E+00 -0.10955479603E+04  0.10955479603E+04  0.00000000000E+00 0. -1.
         21    1    1    2  503  501 -0.13157117874E+01 -0.36248987188E+02  0.10305660215E+02  0.37708444706E+02  0.00000000000E+00 0.  1.
         21    1    1    2  504  502  0.75241391471E+02 -0.10616256815E+02 -0.32519741060E+02  0.82652921654E+02  0.00000000000E+00 0.  1.
         21    1    1    2  505  503 -0.13278048176E+03  0.18199196471E+01 -0.99408452457E+03  0.10029147573E+04  0.00000000000E+00 0. -1.
         21    1    1    2  506  504  0.58854802073E+02  0.45045324356E+02  0.27547264755E+02  0.79068456219E+02  0.00000000000E+00 0.  1.
<scales pt_clust_3="36.27286" pt_clust_4="124.20318" pt_clust_5="14000.00000" pt_clust_6="61.93529"></scales>
<clustering>
<clus scale="   36.273">  1  3  2 -1</clus>
<clus scale="   61.935">  1  6  2 -1</clus>
<clus scale="  124.203">  1  4  2 -1</clus>
<clus scale="   36.273">  1  3  2 -1</clus>
</clustering>
</event>
<event>
 6    0  0.5510638E+002  0.1547191E+03  0.7546771E-02  0.1194791E+00
         21   -1    0    0  503  501  0.00000000000E+00  0.00000000000E+00  0.24363894754E+03  0.24363894754E+03  0.00000000000E+00 0.  1.
         21   -1    0    0  506  502 -0.00000000000E+00 -0.00000000000E+00 -0.13181710022E+04  0.13181710022E+04  0.00000000000E+00 0. -1.
         21    1    1    2  503  504 -0.59189707411E+01  0.15948638328E+03  0.11654584592E+03  0.19762053250E+03  0.00000000000E+00 0.  1.
         21    1    1    2  504  502  0.62914755433E+02 -0.32839285326E+02 -0.12140712460E+04  0.12161437725E+04  0.00000000000E+00 0. -1.
         21    1    1    2  505  501 -0.55319855080E+02 -0.71084385248E+02  0.20637865180E+02  0.92407779279E+02  0.00000000000E+00 0. -1.
         21    1    1    2  506  505 -0.16759296119E+01 -0.55562712703E+02  0.23554802138E+01  0.55637865434E+02  0.00000000000E+00 0. -1.
<scales pt_clust_3="147.77412" pt_clust_4="70.96961" pt_clust_5="36.00684" pt_clust_6="36.00684"></scales>
<clustering>
<clus scale="   36.007">  5  6 -1 -1</clus>
<clus scale="   70.970">  2  4  1 -1</clus>
<clus scale="  147.774">  1  3  2 -1</clus>
<clus scale="  147.774">  1  3  2 -1</clus>
</clustering>
</event>
<event>
 6    0  0.5510638E+002  0.2374303E+03  0.7546771E-02  0.1121517E+00
         21   -1    0    0  503  501  0.00000000000E+00  0.00000000000E+00  0.53162123834E+03  0.53162123834E+03  0.00000000000E+00 0.  1.
         21   -1    0    0  506  502 -0.00000000000E+00 -0.00000000000E+00 -0.46835977905E+03  0.46835977905E+03  0.00000000000E+00 0.  1.
         21    1    1    2  503  505 -0.13647368681E+02  0.29881981510E+02  0.70508190316E+01  0.33599070521E+02  0.00000000000E+00 0.  1.
         21    1    1    2  504  502 -0.11358724939E+02 -0.58902399252E+02 -0.11988021212E+03  0.13405140255E+03  0.00000000000E+00 0.  1.
         21    1    1    2  505  504  0.47731967197E+02 -0.17196166820E+03 -0.28077632004E+03  0.33269279811E+03  0.00000000000E+00 0.  1.
         21    1    1    2  506  501 -0.22725873576E+02  0.20098208594E+03  0.45686717242E+03  0.49963774620E+03  0.00000000000E+00 0.  1.
<scales pt_clust_3="32.85093" pt_clust_4="30.14396" pt_clust_5="30.14396" pt_clust_6="231.66762"></scales>
<clustering>
<clus scale="   30.144">  4  5 -1 -1</clus>
<clus scale="   32.851">  1  3  2 -1</clus>
<clus scale="  231.668">  1  6  2 -1</clus>
<clus scale="   32.851">  1  3  2 -1</clus>
</clustering>
</event>
<event>
 6    0  0.5510638E+002  0.1877320E+03  0.7546771E-02  0.1160523E+00
         21   -1    0    0  504  501  0.00000000000E+00  0.00000000000E+00  0.17705313714E+03  0.17705313714E+03  0.00000000000E+00 0.  1.
         21   -1    0    0  505  502 -0.00000000000E+00 -0.00000000000E+00 -0.36277601603E+03  0.36277601603E+03  0.00000000000E+00 0.  1.
         21    1    1    2  503  502  0.19892852046E+03 -0.68020248313E+02 -0.12757748342E+03  0.24591731275E+03  0.00000000000E+00 0.  1.
         21    1    1    2  504  506  0.41954043001E+01  0.46752705440E+02  0.67927633867E+01  0.47429511041E+02  0.00000000000E+00 0. -1.
         21    1    1    2  505  501 -0.17158091048E+03 -0.32398566499E+02 -0.38251968358E+02  0.17875371055E+03  0.00000000000E+00 0.  1.
         21    1    1    2  506  503 -0.31543014277E+02  0.53666109372E+02 -0.26686190507E+02  0.67728618830E+02  0.00000000000E+00 0. -1.
<scales pt_clust_3="187.73197" pt_clust_4="39.16172" pt_clust_5="14000.00000" pt_clust_6="113.42683"></scales>
<clustering>
<clus scale="   39.162">  4  6 -1 -1</clus>
<clus scale="  113.427">  1  4  2 -1</clus>
<clus scale="  187.732">  2  3  1 -1</clus>
<clus scale="  113.427">  1  3  2 -1</clus>
</clustering>
</event>
<event>
 6    0  0.5510638E+002  0.1044975E+03  0.7546771E-02  0.1271113E+00
         21   -1    0    0  506  501  0.00000000000E+00  0.00000000000E+00  0.24673557997E+03  0.24673557997E+03  0.00000000000E+00 0. -1.
         21   -1    0    0  503  502 -0.00000000000E+00 -0.00000000000E+00 -0.80736550749E+03  0.80736550749E+03  0.00000000000E+00 0.  1.
         21    1    1    2  503  504  0.75927122823E+01  0.35033950539E+02 -0.55335372452E+02  0.65932013579E+02  0.00000000000E+00 0.  1.
         21    1    1    2  504  501  0.67876812684E+02  0.38635843370E+02 -0.73242964561E+02  0.10707250791E+03  0.00000000000E+00 0.  1.
         21    1    1    2  505  502 -0.43476992971E+02  0.13433461026E+02 -0.64615204045E+03  0.64775239572E+03  0.00000000000E+00 0.  1.
         21    1    1    2  506  505 -0.31992531994E+02 -0.87103254935E+02  0.21410044994E+03  0.23334417025E+03  0.00000000000E+00 0. -1.
<scales pt_clust_3="32.31573" pt_clust_4="32.31573" pt_clust_5="45.50502" pt_clust_6="92.97549"></scales>
<clustering>
<clus scale="   32.316">  3  4 -1 -1</clus>
<clus scale="   45.505">  2  5  1 -1</clus>
<clus scale="   92.975">  1  6  2 -1</clus>
<clus scale="   92.975">  1  3  2 -1</clus>
</clustering>
</event>
<event>
 6    0  0.5510638E+002  0.2538764E+03  0.7546771E-02  0.1110879E+00
         21   -1    0    0  503  501  0.00000000000E+00  0.00000000000E+00  0.28585037004E+04  0.28585037004E+04  0.00000000000E+00 0. -1.
         21   -1    0    0  504  502 -0.00000000000E+00 -0.00000000000E+00 -0.48739933556E+02  0.48739933556E+02  0.00000000000E+00 0. -1.
         21    1    1    2  503  506 -0.85704001371E+02 -0.38388237097E+02  0.79163416509E+03  0.79718472385E+03  0.00000000000E+00 0.  1.
         21    1    1    2  504  501  0.25905699673E+03 -0.63682274526E+02  0.45994308644E+03  0.53170819291E+03  0.00000000000E+00 0. -1.
         21    1    1    2  505  502 -0.23760977255E+02  0.58592971453E+02  0.16871179443E+03  0.18017044687E+03  0.00000000000E+00 0. -1.
         21    1    1    2  506  505 -0.14959201810E+03  0.43477540169E+02  0.13894747208E+04  0.13981802703E+04  0.00000000000E+00 0. -1.
<scales pt_clust_3="64.11923" pt_clust_4="239.69122" pt_clust_5="63.22753" pt_clust_6="64.11923"></scales>
<clustering>
<clus scale="   63.228">  2  5  1 -1</clus>
<clus scale="   64.119">  3  6 -1 -1</clus>
<clus scale="  239.691">  2  4  1 -1</clus>
<clus scale="  253.876">  1  3  2 -1</clus>
</clustering>
</event>
<event>
 6    0  0.5510638E+002  0.1750430E+03  0.7546771E-02  0.1172689E+00
         21   -1    0    0  506  501  0.00000000000E+00  0.00000000000E+00  0.13978325517E+03  0.13978325517E+03  0.00000000000E+00 0. -1.
         21   -1    0    0  504  502 -0.00000000000E+00 -0.00000000000E+00 -0.10755142629E+04  0.10755142629E+04  0.00000000000E+00 0. -1.
         21    1    1    2  503  505 -0.74155249112E+02 -0.51662224370E+02  0.35052277777E+02  0.96936311953E+02  0.00000000000E+00 0. -1.
         21    1    1    2  504  501  0.49553227026E+02  0.20667105736E+02 -0.79895068304E+03  0.80075267436E+03  0.00000000000E+00 0. -1.
         21    1    1    2  505  502  0.10780139308E+03  0.79970403348E+02 -0.17556021907E+03  0.22099275165E+03  0.00000000000E+00 0. -1.
         21    1    1    2  506  503 -0.83199370991E+02 -0.48975284713E+02  0.37276165731E+01  0.96615780137E+02  0.00000000000E+00 0. -1.
<scales pt_clust_3="31.65106" pt_clust_4="53.69033" pt_clust_5="171.95898" pt_clust_6="31.65106"></scales>
<clustering>
<clus scale="   31.651">  3  6 -1 -1</clus>
<clus scale="   53.690">  2  4  1 -1</clus>
<clus scale="  171.959">  2  5  1 -1</clus>
<clus scale="  175.043">  1  3  2 -1</clus>
</clustering>
</event>
<event>
 6    0  0.5510638E+002  0.8383371E+02  0.7546771E-02  0.1318511E+00
         21   -1    0    0  503  501  0.00000000000E+00  0.00000000000E+00  0.24372210799E+03  0.24372210799E+03  0.00000000000E+00 0.  1.
         21   -1    0    0  504  502 -0.00000000000E+00 -0.00000000000E+00 -0.26795009480E+03  0.26795009480E+03  0.00000000000E+00 0. -1.
         21    1    1    2  503  505 -0.37120740684E+01  0.73640741438E+02  0.16913296132E+03  0.18450663104E+03  0.00000000000E+00 0.  1.
         21    1    1    2  504  506  0.73429553216E+02 -0.21385800269E+02 -0.74452654892E+02  0.10673541848E+03  0.00000000000E+00 0.  1.
         21    1    1    2  505  502 -0.92932414057E+02 -0.15840581215E+02 -0.14277357257E+03  0.17108959822E+03  0.00000000000E+00 0. -1.
         21    1    1    2  506  501  0.23214934910E+02 -0.36414359954E+02  0.23865279332E+02  0.49340555037E+02  0.00000000000E+00 0.  1.
<scales pt_clust_3="45.49969" pt_clust_4="83.83371" pt_clust_5="14000.00000" pt_clust_6="43.18494"></scales>
<clustering>
<clus scale="   43.185">  1  6  2 -1</clus>
<clus scale="   45.500">  1  3  2 -1</clus>
<clus scale="   83.834">  1  4  2 -1</clus>
<clus scale="   43.185">  1  3  2 -1</clus>
</clustering>
</event>
<event>
 6    0  0.5510638E+002  0.6798156E+02  0.7546771E-02  0.1367095E+00
         21   -1    0    0  505  501  0.00000000000E+00  0.00000000000E+00  0.31124456397E+02  0.31124456397E+02  0.00000000000E+00 0.  1.
         21   -1    0    0  503  502 -0.00000000000E+00 -0.00000000000E+00 -0.84380091530E+03  0.84380091530E+03  0.00000000000E+00 0. -1.
         21    1    1    2  503  504 -0.40716478507E+02  0.52999364073E+02 -0.14464681265E+03  0.15934071866E+03  0.00000000000E+00 0. -1.
         21    1    1    2  504  501  0.73879687284E+02 -0.12515522410E+02 -0.57949993896E+02  0.94726175300E+02  0.00000000000E+00 0.  1.
         21    1    1    2  505  506 -0.32370175879E+02 -0.74465109206E+02 -0.42988472280E+03  0.43748572054E+03  0.00000000000E+00 0.  1.
         21    1    1    2  506  502 -0.79303289764E+00  0.33981267543E+02 -0.18019492955E+03  0.18337275720E+03  0.00000000000E+00 0. -1.
<scales pt_clust_3="67.98156" pt_clust_4="14000.00000" pt_clust_5="61.70088" pt_clust_6="33.99052"></scales>
<clustering>
<clus scale="   33.991">  2  6  1 -1</clus>
<clus scale="   61.701">  2  5  1 -1</clus>
<clus scale="   67.982">  2  3  1 -1</clus>
<clus scale="   67.982">  1  3  2 -1</clus>
</clustering>
</event>
<event>
 6    0  0.5510638E+002  0.8410042E+02  0.7546771E-02  0.1317802E+00
         21   -1    0    0  504  501  0.00000000000E+00  0.00000000000E+00  0.27651086291E+03  0.27651086291E+03  0.00000000000E+00 0.  1.
         21   -1    0    0  505  502 -0.00000000000E+00 -0.00000000000E+00 -0.15898670852E+04  0.15898670852E+04  0.00000000000E+00 0. -1.
         21    1    1    2  503  501  0.28608929555E+02  0.48982264278E+02  0.16575527595E+03  0.17519287820E+03  0.00000000000E+00 0.  1.
         21    1    1    2  504  506  0.75045123343E+02  0.22463625002E+02  0.44502157289E+02  0.90093434773E+02  0.00000000000E+00 0.  1.
         21    1    1    2  505  503 -0.79782582565E+02 -0.22285231388E+02 -0.66055708484E+01  0.83099492086E+02  0.00000000000E+00 0.  1.
         21    1    1    2  506  502 -0.23871470332E+02 -0.49160657892E+02 -0.15170080847E+04  0.15179921430E+04  0.00000000000E+00 0. -1.
<scales pt_clust_3="53.17267" pt_clust_4="84.10042" pt_clust_5="14000.00000" pt_clust_6="54.64995"></scales>
<clustering>
<clus scale="   54.650">  2  6  1 -1</clus>
<clus scale="   53.173">  1  3  2 -1</clus>
<clus scale="   84.100">  2  4  1 -1</clus>
<clus scale="   53.173">  1  3  2 -1</clus>
</clustering>
</event>
<event>
 6    0  0.5510638E+002  0.1813798E+03  0.7546771E-02  0.1166474E+00
         21   -1    0    0  503  501  0.00000000000E+00  0.00000000000E+00  0.83433660777E+02  0.83433660777E+02  0.00000000000E+00 0. -1.
         21   -1    0    0  504  502 -0.00000000000E+00 -0.00000000000E+00 -0.80632452592E+03  0.80632452592E+03  0.00000000000E+00 0. -1.
         21    1    1    2  503  506 -0.81902632162E+00  0.11179433832E+03 -0.15863920418E+02  0.11291726553E+03  0.00000000000E+00 0. -1.
         21    1    1    2  504  501  0.35302430290E+02 -0.18607880899E+03 -0.45285368533E+03  0.49086458932E+03  0.00000000000E+00 0. -1.
         21    1    1    2  505  502 -0.42907540242E+02  0.16509666903E+02 -0.20362117098E+03  0.20874675419E+03  0.00000000000E+00 0. -1.
         21    1    1    2  506  505  0.84241362738E+01  0.57774803766E+02 -0.50552088423E+02  0.77229577664E+02  0.00000000000E+00 0. -1.
<scales pt_clust_3="39.13892" pt_clust_4="173.10521" pt_clust_5="45.97419" pt_clust_6="39.13892"></scales>
<clustering>
<clus scale="   39.139">  3  6 -1 -1</clus>
<clus scale="   45.974">  2  5  1 -1</clus>
<clus scale="  173.105">  2  4  1 -1</clus>
<clus scale="  181.380">  1  3  2 -1</clus>
</clustering>
</event>
<event>
 6    0  0.5510638E+002  0.9615050E+02  0.7546771E-02  0.1288606E+00
         21   -1    0    0  503  501  0.00000000000E+00  0.00000000000E+00  0.94916272038E+03  0.94916272038E+03  0.00000000000E+00 0.  1.
         21   -1    0    0  504  502 -0.00000000000E+00 -0.00000000000E+00 -0.16069398817E+03  0.16069398817E+03  0.00000000000E+00 0.  1.
         21    1    1    2  503  502 -0.53836655129E+02  0.57209823451E+02  0.16370686700E+03  0.18157997587E+03  0.00000000000E+00 0.  1.
         21    1    1    2  504  505  0.18328878592E+02 -0.25505917495E+02 -0.69638524434E+02  0.76393872156E+02  0.00000000000E+00 0.  1.
         21    1    1    2  505  506 -0.34290306157E+02 -0.74171849863E+02 -0.54704580870E+02  0.98335545845E+02  0.00000000000E+00 0.  1.
         21    1    1    2  506  501  0.69798082694E+02  0.42467943906E+02  0.74910497051E+03  0.75354731467E+03  0.00000000000E+00 0.  1.
<scales pt_clust_3="75.38561" pt_clust_4="31.40859" pt_clust_5="96.15050" pt_clust_6="14000.00000"></scales>
<clustering>
<clus scale="   31.409">  2  4  1 -1</clus>
<clus scale="   75.386">  1  3  2 -1</clus>
<clus scale="   96.150">  2  5  1 -1</clus>
<clus scale="   75.386">  1  3  2 -1</clus>
</clustering>
</event>
<event>
 6    0  0.5510638E+002  0.2183230E+03  0.7546771E-02  0.1135140E+00
         21   -1    0    0  505  501  0.00000000000E+00  0.00000000000E+00  0.31901049061E+03  0.31901049061E+03  0.00000000000E+00 0. -1.
         21   -1    0    0  506  502 -0.00000000000E+00 -0.00000000000E+00 -0.95673062408E+03  0.95673062408E+03  0.00000000000E+00 0.  1.
         21    1    1    2  503  504 -0.21678933196E+03  0.60018211873E+01 -0.16048949564E+03  0.26979717293E+03  0.00000000000E+00 0. -1.
         21    1    1    2  504  501 -0.17460938190E+02 -0.77658584078E+02  0.22565154423E+03  0.23927883202E+03  0.00000000000E+00 0. -1.
         21    1    1    2  505  502  0.29733210197E+02 -0.20025369088E+02 -0.82705785240E+01  0.36789695091E+02  0.00000000000E+00 0. -1.
         21    1    1    2  506  503  0.20451705995E+03  0.91682131978E+02 -0.69461160354E+03  0.72987541465E+03  0.00000000000E+00 0.  1.
<scales pt_clust_3="218.32299" pt_clust_4="93.08048" pt_clust_5="35.84800" pt_clust_6="14000.00000"></scales>
<clustering>
<clus scale="   35.848">  1  5  2 -1</clus>
<clus scale="   93.080">  1  4  2 -1</clus>
<clus scale="  218.323">  1  3  2 -1</clus>
<clus scale="   35.848">  1  3  2 -1</clus>
</clustering>
</event>
<event>
 6    0  0.5510638E+002  0.2163177E+03  0.7546771E-02  0.1136658E+00
         21   -1    0    0  502  501  0.00000000000E+00  0.00000000000E+00  0.47909439103E+03  0.47909439103E+03  0.00000000000E+00 0. -1.
         21   -1    0    0  503  502 -0.00000000000E+00 -0.00000000000E+00 -0.14031486085E+03  0.14031486085E+03  0.00000000000E+00 0.  1.
         21    1    1    2  503  504  0.33622513643E+02 -0.14747194132E+02 -0.25453728012E+01  0.36802609706E+02  0.00000000000E+00 0.  1.
         21    1    1    2  504  506  0.18053664824E+02 -0.18950982865E+03  0.19340602364E+02  0.19134776944E+03  0.00000000000E+00 0.  1.
         21    1    1    2  505  501  0.11888189583E+02  0.86593296386E+02  0.14697662886E+03  0.17100250718E+03  0.00000000000E+00 0. -1.
         21    1    1    2  506  505 -0.63564368049E+02  0.11766372640E+03  0.17500767176E+03  0.22025636556E+03  0.00000000000E+00 0. -1.
<scales pt_clust_3="36.71448" pt_clust_4="204.38956" pt_clust_5="58.14172" pt_clust_6="58.14172"></scales>
<clustering>
<clus scale="   36.714">  2  3  1 -1</clus>
<clus scale="   58.142">  5  6 -1 -1</clus>
<clus scale="  204.390">  2  4  1 -1</clus>
<clus scale="  216.318">  1  3  2 -1</clus>
</clustering>
</event>
<event>
 6    0  0.5510638E+002  0.7125717E+02  0.7546771E-02  0.1355869E+00
         21   -1    0    0  503  501  0.00000000000E+00  0.00000000000E+00  0.86985767469E+03  0.86985767469E+03  0.00000000000E+00 0. -1.
         21   -1    0    0  504  502 -0.00000000000E+00 -0.00000000000E+00 -0.50361027499E+02  0.50361027499E+02  0.00000000000E+00 0. -1.
         21    1    1    2  503  505 -0.52713743594E+02 -0.68460763575E+02  0.43551582819E+03  0.44400411205E+03  0.00000000000E+00 0. -1.
         21    1    1    2  504  506 -0.32232211004E+02  0.36229178062E+02 -0.12622634860E+02  0.50107880419E+02  0.00000000000E+00 0. -1.
         21    1    1    2  505  502  0.59877792777E+02 -0.24066542740E+02  0.76312008545E+02  0.99940338180E+02  0.00000000000E+00 0. -1.
         21    1    1    2  506  501  0.25068161822E+02  0.56298128252E+02  0.32029144532E+03  0.32616637155E+03  0.00000000000E+00 0. -1.
<scales pt_clust_3="71.25717" pt_clust_4="48.49195" pt_clust_5="39.86094" pt_clust_6="14000.00000"></scales>
<clustering>
<clus scale="   48.492">  2  4  1 -1</clus>
<clus scale="   39.861">  2  5  1 -1</clus>
<clus scale="   71.257">  2  3  1 -1</clus>
<clus scale="   71.257">  1  3  2 -1</clus>
</clustering>
</event>
<event>
 6    0  0.5510638E+002  0.9859689E+02  0.7546771E-02  0.1283274E+00
         21   -1    0    0  505  501  0.00000000000E+00  0.00000000000E+00  0.97059888352E+03  0.97059888352E+03  0.00000000000E+00 0. -1.
         21   -1    0    0  503  502 -0.00000000000E+00 -0.00000000000E+00 -0.10497264425E+03  0.10497264425E+03  0.00000000000E+00 0. -1.
         21    1    1    2  503  506  0.67611091985E+01 -0.50374297895E+02 -0.32067344126E+02  0.60096564339E+02  0.00000000000E+00 0. -1.
         21    1    1    2  504  502 -0.59775416263E+02 -0.41586314571E+02 -0.28273013070E+02  0.78114564692E+02  0.00000000000E+00 0. -1.
         21    1    1    2  505  504 -0.16290831010E+02  0.58598864570E+02  0.26270346429E+03  0.26965223577E+03  0.00000000000E+00 0. -1.
         21    1    1    2  506  501  0.69305138074E+02  0.33361747896E+02  0.66326313218E+03  0.66770816297E+03  0.00000000000E+00 0. -1.
<scales pt_clust_3="50.82600" pt_clust_4="98.59689" pt_clust_5="57.85247" pt_clust_6="14000.00000"></scales>
<clustering>
<clus scale="   50.826">  2  3  1 -1</clus>
<clus scale="   57.852">  1  5  2 -1</clus>
<clus scale="   98.597">  2  4  1 -1</clus>
<clus scale="   57.852">  1  3  2 -1</clus>
</clustering>
</event>
<event>
 6    0  0.5510638E+002  0.9269129E+02  0.7546771E-02  0.1296462E+00
         21   -1    0    0  503  501  0.00000000000E+00  0.00000000000E+00  0.40017619609E+03  0.40017619609E+03  0.00000000000E+00 0. -1.
         21   -1    0    0  504  502 -0.00000000000E+00 -0.00000000000E+00 -0.11080123214E+03  0.11080123214E+03  0.00000000000E+00 0.  1.
         21    1    1    2  503  506  0.20186150060E+02 -0.58131214016E+02  0.16307918334E+03  0.17430300840E+03  0.00000000000E+00 0. -1.
         21    1    1    2  504  501 -0.52177488598E+02 -0.49491176855E+02  0.17275825674E+03  0.18712905219E+03  0.00000000000E+00 0. -1.
         21    1    1    2  505  502  0.49185244502E+02  0.24894990697E+02 -0.47950293845E+01  0.55334809527E+02  0.00000000000E+00 0. -1.
         21    1    1    2  506  505 -0.17193905964E+02  0.82727400174E+02 -0.41667446743E+02  0.94210558113E+02  0.00000000000E+00 0.  1.
<scales pt_clust_3="61.14118" pt_clust_4="14000.00000" pt_clust_5="55.12666" pt_clust_6="92.69129"></scales>
<clustering>
<clus scale="   55.127">  2  5  1 -1</clus>
<clus scale="   61.141">  1  3  2 -1</clus>
<clus scale="   92.691">  2  6  1 -1</clus>
<clus scale="   61.141">  1  3  2 -1</clus>
</clustering>
</event>
<event>
 6    0  0.5510638E+002  0.1146134E+03  0.7546771E-02  0.1252257E+00
         21   -1    0    0  506  501  0.00000000000E+00  0.00000000000E+00  0.38262119455E+03  0.38262119455E+03  0.00000000000E+00 0. -1.
         21   -1    0    0  505  502 -0.00000000000E+00 -0.00000000000E+00 -0.13561437748E+04  0.13561437748E+04  0.00000000000E+00 0.  1.
         21    1    1    2  503  504 -0.90562592117E+02  0.12437586015E+03 -0.38910905498E+03  0.41842179000E+03  0.00000000000E+00 0.  1.
         21    1    1    2  504  502 -0.18026088842E+02 -0.10058874467E+03 -0.91819696627E+03  0.92386617229E+03  0.00000000000E+00 0.  1.
         21    1    1    2  505  501  0.14729847014E+03 -0.55915937732E+02  0.20746146929E+03  0.26050660767E+03  0.00000000000E+00 0. -1.
         21    1    1    2  506  503 -0.38709789180E+02  0.32128822254E+02  0.12632197167E+03  0.13597039944E+03  0.00000000000E+00 0. -1.
<scales pt_clust_3="114.61344" pt_clust_4="101.91286" pt_clust_5="14000.00000" pt_clust_6="50.30615"></scales>
<clustering>
<clus scale="   50.306">  1  6  2 -1</clus>
<clus scale="  101.913">  2  4  1 -1</clus>
<clus scale="  114.613">  2  3  1 -1</clus>
<clus scale="   50.306">  1  3  2 -1</clus>
</clustering>
</event>
<event>
 6    0  0.5510638E+002  0.8446046E+02  0.7546771E-02  0.1316850E+00
         21   -1    0    0  503  501  0.00000000000E+00  0.00000000000E+00  0.28443080059E+03  0.28443080059E+03  0.00000000000E+00 0. -1.
         21   -1    0    0  504  502 -0.00000000000E+00 -0.00000000000E+00 -0.24548827654E+04  0.24548827654E+04  0.00000000000E+00 0. -1.
         21    1    1    2  503  502  0.47253489932E+02 -0.38891938864E+02  0.55937135959E+02  0.82912233106E+02  0.00000000000E+00 0. -1.
         21    1    1    2  504  506  0.38353981301E+02  0.73714861721E+02 -0.22507354597E+04  0.22522688602E+04  0.00000000000E+00 0. -1.
         21    1    1    2  505  501 -0.55402658176E+02  0.99950647476E+02  0.16907663835E+03  0.20407473166E+03  0.00000000000E+00 0. -1.
         21    1    1    2  506  505 -0.30204813058E+02 -0.13477357033E+03 -0.14473027938E+03  0.20005774107E+03  0.00000000000E+00 0. -1.
<scales pt_clust_3="61.20029" pt_clust_4="14000.00000" pt_clust_5="67.74893" pt_clust_6="84.46046"></scales>
<clustering>
<clus scale="   61.200">  1  3  2 -1</clus>
<clus scale="   67.749">  1  5  2 -1</clus>
<clus scale="   84.460">  1  6  2 -1</clus>
<clus scale="   61.200">  1  3  2 -1</clus>
</clustering>
</event>
<event>
 6    0  0.5510638E+002  0.1866655E+03  0.7546771E-02  0.1161504E+00
         21   -1    0    0  505  501  0.00000000000E+00  0.00000000000E+00  0.15612986433E+03  0.15612986433E+03  0.00000000000E+00 0.  1.
         21   -1    0    0  503  502 -0.00000000000E+00 -0.00000000000E+00 -0.10830469211E+04  0.10830469211E+04  0.00000000000E+00 0.  1.
         21    1    1    2  503  501 -0.25194346630E+02 -0.36409762970E+02 -0.21854112354E+02  0.49376392825E+02  0.00000000000E+00 0. -1.
         21    1    1    2  504  506 -0.66736735401E+02  0.12817748387E+03 -0.28376512960E+03  0.31844294309E+03  0.00000000000E+00 0.  1.
         21    1    1    2  505  504  0.99472303253E+02 -0.15707933190E+03  0.53416422478E+02  0.19344758932E+03  0.00000000000E+00 0.  1.
         21    1    1    2  506  502 -0.75412212224E+01  0.65311610994E+02 -0.67471423731E+03  0.67790986021E+03  0.00000000000E+00 0.  1.
<scales pt_clust_3="44.27670" pt_clust_4="186.66549" pt_clust_5="14000.00000" pt_clust_6="65.37287"></scales>
<clustering>
<clus scale="   44.277">  1  3  2 -1</clus>
<clus scale="   65.373">  2  6  1 -1</clus>
<clus scale="  186.665">  2  4  1 -1</clus>
<clus scale="   44.277">  1  3  2 -1</clus>
</clustering>
</event>
<event>
 6    0  0.5510638E+002  0.8577557E+02  0.7546771E-02  0.1313417E+00
         21   -1    0    0  506  501  0.00000000000E+00  0.00000000000E+00  0.51522590170E+02  0.51522590170E+02  0.00000000000E+00 0.  1.
         21   -1    0    0  504  502 -0.00000000000E+00 -0.00000000000E+00 -0.10463977535E+04  0.10463977535E+04  0.00000000000E+00 0. -1.
         21    1    1    2  503  502 -0.13290001101E+02 -0.83962020359E+02 -0.37865176931E+03  0.38807654836E+03  0.00000000000E+00 0. -1.
         21    1    1    2  504  505 -0.34689266813E+02 -0.14414766165E+02 -0.54062066024E+03  0.54192419119E+03  0.00000000000E+00 0. -1.
         21    1    1    2  505  501  0.61790771620E+02  0.39325953093E+02 -0.78297369021E+02  0.10721524164E+03  0.00000000000E+00 0. -1.
         21    1    1    2  506  503 -0.13811503706E+02  0.59050833430E+02  0.26946352486E+01  0.60704362467E+02  0.00000000000E+00 0.  1.
<scales pt_clust_3="85.77557" pt_clust_4="37.56502" pt_clust_5="14000.00000" pt_clust_6="60.32975"></scales>
<clustering>
<clus scale="   37.565">  2  4  1 -1</clus>
<clus scale="   60.330">  1  6  2 -1</clus>
<clus scale="   85.776">  2  3  1 -1</clus>
<clus scale="   60.330">  1  3  2 -1</clus>
</clustering>
</event>
<event>
 6    0  0.5510638E+002  0.3681066E+03  0.7546771E-02  0.1055419E+00
         21   -1    0    0  503  501  0.00000000000E+00  0.00000000000E+00  0.42815962673E+03  0.42815962673E+03  0.00000000000E+00 0.  1.
         21   -1    0    0  505  502 -0.00000000000E+00 -0.00000000000E+00 -0.46743862627E+03  0.46743862627E+03  0.00000000000E+00 0.  1.
         21    1    1    2  503  502  0.31008036001E+02  0.80963521867E+01 -0.89429584606E+02  0.94998420083E+02  0.00000000000E+00 0.  1.
         21    1    1    2  504  506 -0.49503277595E+02  0.12306920049E+03 -0.37461650970E+02  0.13784040734E+03  0.00000000000E+00 0.  1.
         21    1    1    2  505  504 -0.32645206604E+02  0.23119615934E+03 -0.97049198510E+02  0.25285553294E+03  0.00000000000E+00 0.  1.
         21    1    1    2  506  501  0.51140448198E+02 -0.36236171202E+03  0.18466143455E+03  0.40990389263E+03  0.00000000000E+00 0.  1.
<scales pt_clust_3="32.04761" pt_clust_4="35.86302" pt_clust_5="35.86302" pt_clust_6="364.97214"></scales>
<clustering>
<clus scale="   32.048">  2  3  1 -1</clus>
<clus scale="   35.863">  4  5 -1 -1</clus>
<clus scale="  364.972">  1  6  2 -1</clus>
<clus scale="  364.972">  1  3  2 -1</clus>
</clustering>
</event>
<event>
 6    0  0.5548431E+002  0.8320963E+02  0.7546771E-02  0.1320182E+00
         21   -1    0    0  504  501  0.00000000000E+00  0.00000000000E+00  0.51509808083E+03  0.51509808083E+03  0.00000000000E+00 0. -1.
         21   -1    0    0  503  502 -0.00000000000E+00 -0.00000000000E+00 -0.35093874634E+03  0.35093874634E+03  0.00000000000E+00 0.  1.
         21    1    1    2  503  506  0.78708536549E+02  0.58779273576E+02 -0.30683945624E+03  0.32218083219E+03  0.00000000000E+00 0.  1.
         21    1    1    2  504  505 -0.20144796290E+02 -0.95780327928E+02  0.44126123373E+03  0.45198579671E+03  0.00000000000E+00 0. -1.
         21    1    1    2  505  502 -0.37375824711E+02  0.12579934301E+02 -0.99580144953E+01  0.40673936035E+02  0.00000000000E+00 0. -1.
         21    1    1    2  506  501 -0.21187915548E+02  0.24421120050E+02  0.39695571503E+02  0.51196262234E+02  0.00000000000E+00 0.  1.
<scales pt_clust_3="14000.00000" pt_clust_4="83.20963" pt_clust_5="40.35108" pt_clust_6="32.33139"></scales>
<clustering>
<clus scale="   32.331">  1  6  2 -1</clus>
<clus scale="   40.351">  2  5  1 -1</clus>
<clus scale="   83.210">  1  4  2 -1</clus>
<clus scale="   32.331">  1  3  2 -1</clus>
</clustering>
</event>
<event>
 6    0  0.5510638E+002  0.7275844E+02  0.7546771E-02  0.1350956E+00
         21   -1    0    0  506  501  0.00000000000E+00  0.00000000000E+00  0.18541817978E+02  0.18541817978E+02  0.00000000000E+00 0.  1.
         21   -1    0    0  505  502 -0.00000000000E+00 -0.00000000000E+00 -0.16315761860E+04  0.16315761860E+04  0.00000000000E+00 0. -1.
         21    1    1    2  503  502 -0.25629913442E+01  0.58939322635E+02 -0.17720540643E+03  0.18676768657E+03  0.00000000000E+00 0.  1.
         21    1    1    2  504  501 -0.97002110857E+02 -0.30380982308E+02 -0.74162098560E+03  0.74855467394E+03  0.00000000000E+00 0. -1.
         21    1    1    2  505  504  0.57743895303E+02 -0.37973206827E+02 -0.64834374300E+03  0.65201681801E+03  0.00000000000E+00 0. -1.
         21    1    1    2  506  503  0.41821206898E+02  0.94148665003E+01 -0.45864232976E+02  0.62778825444E+02  0.00000000000E+00 0.  1.
<scales pt_clust_3="65.71155" pt_clust_4="72.75844" pt_clust_5="14000.00000" pt_clust_6="42.86786"></scales>
<clustering>
<clus scale="   42.868">  1  6  2 -1</clus>
<clus scale="   65.712">  1  3  2 -1</clus>
<clus scale="   72.758">  1  4  2 -1</clus>
<clus scale="   42.868">  1  3  2 -1</clus>
</clustering>
</event>
<event>
 6    0  0.5510638E+002  0.1450141E+03  0.7546771E-02  0.1206737E+00
         21   -1    0    0  506  501  0.00000000000E+00  0.00000000000E+00  0.16487756980E+03  0.16487756980E+03  0.00000000000E+00 0.  1.
         21   -1    0    0  501  502 -0.00000000000E+00 -0.00000000000E+00 -0.51028603892E+03  0.51028603892E+03  0.00000000000E+00 0. -1.
         21    1    1    2  503  502 -0.41025808942E+02  0.10072440825E+02 -0.84346405774E+02  0.94333913469E+02  0.00000000000E+00 0. -1.
         21    1    1    2  504  505  0.75228744450E+01  0.44702256885E+02 -0.75215574928E+02  0.87819520166E+02  0.00000000000E+00 0.  1.
         21    1    1    2  505  503 -0.18909507729E+02  0.70014816367E+02 -0.30449873294E+03  0.31301616948E+03  0.00000000000E+00 0. -1.
         21    1    1    2  506  504  0.52412442226E+02 -0.12478951408E+03  0.11865224452E+03  0.17999400561E+03  0.00000000000E+00 0.  1.
<scales pt_clust_3="42.24418" pt_clust_4="40.34815" pt_clust_5="40.34815" pt_clust_6="133.53820"></scales>
<clustering>
<clus scale="   42.244">  2  3  1 -1</clus>
<clus scale="   40.348">  4  5 -1 -1</clus>
<clus scale="  133.538">  1  6  2 -1</clus>
<clus scale="  133.538">  1  3  2 -1</clus>
</clustering>
</event>
<event>
 6    0  0.5510638E+002  0.1025553E+03  0.7546771E-02  0.1275013E+00
         21   -1    0    0  506  501  0.00000000000E+00  0.00000000000E+00  0.14692817252E+03  0.14692817252E+03  0.00000000000E+00 0.  1.
         21   -1    0    0  503  502 -0.00000000000E+00 -0.00000000000E+00 -0.64570368800E+03  0.64570368800E+03  0.00000000000E+00 0.  1.
         21    1    1    2  503  504  0.14163874302E+02 -0.41202166699E+02  0.10270441831E+03  0.11156357567E+03  0.00000000000E+00 0.  1.
         21    1    1    2  504  501 -0.12288516802E+02 -0.28004374780E+02  0.91665368715E+01  0.31926134282E+02  0.00000000000E+00 0.  1.
         21    1    1    2  505  502  0.93012771706E+02  0.69446525039E+02 -0.42612724780E+03  0.44165442018E+03  0.00000000000E+00 0.  1.
         21    1    1    2  506  505 -0.94888129207E+02 -0.23998356017E+00 -0.18451922286E+03  0.20748773038E+03  0.00000000000E+00 0.  1.
<scales pt_clust_3="65.04950" pt_clust_4="30.58190" pt_clust_5="102.55527" pt_clust_6="14000.00000"></scales>
<clustering>
<clus scale="   30.582">  1  4  2 -1</clus>
<clus scale="   65.050">  1  3  2 -1</clus>
<clus scale="  102.555">  2  5  1 -1</clus>
<clus scale="   30.582">  1  3  2 -1</clus>
</clustering>
</event>
<event>
 6    0  0.5510638E+002  0.6737550E+02  0.7546771E-02  0.1369252E+00
         21   -1    0    0  505  501  0.00000000000E+00  0.00000000000E+00  0.85561206729E+03  0.85561206729E+03  0.00000000000E+00 0. -1.
         21   -1    0    0  503  502 -0.00000000000E+00 -0.00000000000E+00 -0.21725239931E+03  0.21725239931E+03  0.00000000000E+00 0. -1.
         21    1    1    2  503  504  0.11381149938E+03 -0.16149243910E+02  0.66453755239E+03  0.67440641605E+03  0.00000000000E+00 0. -1.
         21    1    1    2  504  506 -0.48222440548E+02 -0.15094629030E+02  0.11412307274E+03  0.12480916364E+03  0.00000000000E+00 0. -1.
         21    1    1    2  505  502 -0.66935047007E+02 -0.28799491865E+01 -0.19665538870E+03  0.20775451025E+03  0.00000000000E+00 0. -1.
         21    1    1    2  506  501  0.13459881749E+01  0.34123822127E+02  0.56354431552E+02  0.65894376667E+02  0.00000000000E+00 0.  1.
<scales pt_clust_3="14000.00000" pt_clust_4="49.04279" pt_clust_5="67.37550" pt_clust_6="34.15036"></scales>
<clustering>
<clus scale="   34.150">  1  6  2 -1</clus>
<clus scale="   49.043">  1  4  2 -1</clus>
<clus scale="   67.376">  2  5  1 -1</clus>
<clus scale="   34.150">  1  3  2 -1</clus>
</clustering>
</event>
<event>
 6    0  0.5510638E+002  0.9939471E+02  0.7546771E-02  0.1281574E+00
         21   -1    0    0  504  501  0.00000000000E+00  0.00000000000E+00  0.83744636195E+02  0.83744636195E+02  0.00000000000E+00 0. -1.
         21   -1    0    0  506  502 -0.00000000000E+00 -0.00000000000E+00 -0.32973815040E+03  0.32973815040E+03  0.00000000000E+00 0. -1.
         21    1    1    2  503  501 -0.95200260917E+00 -0.34116840229E+02 -0.12060479409E+02  0.36198346091E+02  0.00000000000E+00 0.  1.
         21    1    1    2  504  505 -0.10986006600E+03 -0.11718694783E+02 -0.42115683293E+02  0.11823828774E+03  0.00000000000E+00 0. -1.
         21    1    1    2  505  502  0.51771524945E+02  0.84983142578E+02 -0.13773393600E+03  0.16992075342E+03  0.00000000000E+00 0. -1.
         21    1    1    2  506  503  0.59040543667E+02 -0.39147607566E+02 -0.54083415507E+02  0.89125399340E+02  0.00000000000E+00 0. -1.
<scales pt_clust_3="34.13012" pt_clust_4="14000.00000" pt_clust_5="99.39471" pt_clust_6="75.58713"></scales>
<clustering>
<clus scale="   34.130">  1  3  2 -1</clus>
<clus scale="   75.587">  2  6  1 -1</clus>
<clus scale="   99.395">  2  5  1 -1</clus>
<clus scale="   34.130">  1  3  2 -1</clus>
</clustering>
</event>
<event>
 6    0  0.5510638E+002  0.1120594E+03  0.7546771E-02  0.1256803E+00
         21   -1    0    0  506  501  0.00000000000E+00  0.00000000000E+00  0.77458999097E+03  0.77458999097E+03  0.00000000000E+00 0. -1.
         21   -1    0    0  505  502 -0.00000000000E+00 -0.00000000000E+00 -0.51888445811E+02  0.51888445811E+02  0.00000000000E+00 0. -1.
         21    1    1    2  503  502  0.11922160889E+03  0.44389996730E+02  0.97090474625E+02  0.16003382174E+03  0.00000000000E+00 0. -1.
         21    1    1    2  504  503 -0.80207913446E+02  0.48565740942E+01  0.51331834296E+03  0.51956964587E+03  0.00000000000E+00 0. -1.
         21    1    1    2  505  501  0.65323788269E+00 -0.35207473869E+02  0.10527426643E+02  0.36753498442E+02  0.00000000000E+00 0.  1.
         21    1    1    2  506  504 -0.39666933328E+02 -0.14039096955E+02  0.10176530093E+03  0.11012147073E+03  0.00000000000E+00 0. -1.
<scales pt_clust_3="112.05944" pt_clust_4="14000.00000" pt_clust_5="35.21353" pt_clust_6="43.42687"></scales>
<clustering>
<clus scale="   35.214">  2  5  1 -1</clus>
<clus scale="   43.427">  1  6  2 -1</clus>
<clus scale="  112.059">  2  3  1 -1</clus>
<clus scale="   43.427">  1  3  2 -1</clus>
</clustering>
</event>
<event>
 6    0  0.5510638E+002  0.1176812E+03  0.7546771E-02  0.1246972E+00
         21   -1    0    0  505  501  0.00000000000E+00  0.00000000000E+00  0.24137646067E+03  0.24137646067E+03  0.00000000000E+00 0.  1.
         21   -1    0    0  503  502 -0.00000000000E+00 -0.00000000000E+00 -0.36702923601E+03  0.36702923601E+03  0.00000000000E+00 0.  1.
         21    1    1    2  503  501 -0.15767745503E+03  0.96839048143E+02 -0.15769992167E+02  0.18571126440E+03  0.00000000000E+00 0.  1.
         21    1    1    2  504  502  0.81653802074E+02 -0.36437149069E+02 -0.23962266881E+03  0.25576167155E+03  0.00000000000E+00 0.  1.
         21    1    1    2  505  506  0.28867843118E+02 -0.32455338847E+02  0.87650037395E+02  0.97822443443E+02  0.00000000000E+00 0.  1.
         21    1    1    2  506  504  0.47155809839E+02 -0.27946560227E+02  0.42089848245E+02  0.69110317287E+02  0.00000000000E+00 0.  1.
<scales pt_clust_3="110.64693" pt_clust_4="89.41482" pt_clust_5="35.67514" pt_clust_6="35.67514"></scales>
<clustering>
<clus scale="   35.675">  5  6 -1 -1</clus>
<clus scale="   89.415">  2  4  1 -1</clus>
<clus scale="  110.647">  2  3  1 -1</clus>
<clus scale="  117.681">  1  3  2 -1</clus>
</clustering>
</event>
<event>
 6    0  0.5510638E+002  0.8530944E+02  0.7546771E-02  0.1314625E+00
         21   -1    0    0  504  501  0.00000000000E+00  0.00000000000E+00  0.18427531530E+03  0.18427531530E+03  0.00000000000E+00 0. -1.
         21   -1    0    0  506  502 -0.00000000000E+00 -0.00000000000E+00 -0.75874043207E+03  0.75874043207E+03  0.00000000000E+00 0.  1.
         21    1    1    2  503  502 -0.10472355793E+03  0.36820461042E+02 -0.19908909080E+03  0.22794568654E+03  0.00000000000E+00 0.  1.
         21    1    1    2  504  503  0.37631008570E+02  0.18577204811E+02  0.18633356059E+01  0.42008063085E+02  0.00000000000E+00 0. -1.
         21    1    1    2  505  501  0.13462940515E+02 -0.86422678950E+02  0.13294095404E+03  0.15913336377E+03  0.00000000000E+00 0. -1.
         21    1    1    2  506  505  0.53629608843E+02  0.31025013097E+02 -0.51018031561E+03  0.51392863397E+03  0.00000000000E+00 0.  1.
<scales pt_clust_3="14000.00000" pt_clust_4="41.96672" pt_clust_5="85.30944" pt_clust_6="62.44058"></scales>
<clustering>
<clus scale="   41.967">  1  4  2 -1</clus>
<clus scale="   62.441">  2  6  1 -1</clus>
<clus scale="   85.309">  1  5  2 -1</clus>
<clus scale="   41.967">  1  3  2 -1</clus>
</clustering>
</event>
<event>
 6    0  0.5510638E+002  0.1893741E+03  0.7546771E-02  0.1159027E+00
         21   -1    0    0  505  501  0.00000000000E+00  0.00000000000E+00  0.10602363903E+04  0.10602363903E+04  0.00000000000E+00 0. -1.
         21   -1    0    0  506  502 -0.00000000000E+00 -0.00000000000E+00 -0.33675006038E+03  0.33675006038E+03  0.00000000000E+00 0. -1.
         21    1    1    2  503  504  0.78156910952E+02  0.11202578131E+03  0.57081070893E+03  0.58692686413E+03  0.00000000000E+00 0. -1.
         21    1    1    2  504  501  0.33526897879E+02  0.24223610913E+02  0.35857762287E+03  0.36095532664E+03  0.00000000000E+00 0. -1.
         21    1    1    2  505  502 -0.19210385741E+03 -0.12518530735E+03 -0.16358716741E+01  0.22929877733E+03  0.00000000000E+00 0. -1.
         21    1    1    2  506  503  0.80420048578E+02 -0.11064084868E+02 -0.20426613025E+03  0.21980548254E+03  0.00000000000E+00 0. -1.
<scales pt_clust_3="33.38533" pt_clust_4="33.38533" pt_clust_5="179.39269" pt_clust_6="81.17757"></scales>
<clustering>
<clus scale="   33.385">  3  4 -1 -1</clus>
<clus scale="   81.178">  2  6  1 -1</clus>
<clus scale="  179.393">  2  5  1 -1</clus>
<clus scale="  189.374">  1  3  2 -1</clus>
</clustering>
</event>
<event>
 6    0  0.5510638E+002  0.4369495E+03  0.7546771E-02  0.1031687E+00
         21   -1    0    0  504  501  0.00000000000E+00  0.00000000000E+00  0.11473991956E+04  0.11473991956E+04  0.00000000000E+00 0.  1.
         21   -1    0    0  506  502 -0.00000000000E+00 -0.00000000000E+00 -0.29987749769E+03  0.29987749769E+03  0.00000000000E+00 0.  1.
         21    1    1    2  503  502 -0.25372131123E+02  0.37253666441E+02 -0.11169032415E+03  0.12044214050E+03  0.00000000000E+00 0.  1.
         21    1    1    2  504  503  0.43360790306E+03  0.29106872054E+02  0.26230734062E+03  0.50761024866E+03  0.00000000000E+00 0.  1.
         21    1    1    2  505  501 -0.44626796534E+02 -0.12079281945E+02  0.17385589304E+03  0.17989811440E+03  0.00000000000E+00 0. -1.
         21    1    1    2  506  505 -0.36360897541E+03 -0.54281256550E+02  0.52304878837E+03  0.63932618969E+03  0.00000000000E+00 0.  1.
<scales pt_clust_3="45.07306" pt_clust_4="420.15793" pt_clust_5="42.54290" pt_clust_6="42.54290"></scales>
<clustering>
<clus scale="   42.543">  5  6 -1 -1</clus>
<clus scale="   45.073">  2  3  1 -1</clus>
<clus scale="  420.158">  2  4  1 -1</clus>
<clus scale="  436.949">  1  3  2 -1</clus>
</clustering>
</event>
<event>
 6    0  0.5510638E+002  0.7215102E+02  0.7546771E-02  0.1352927E+00
         21   -1    0    0  503  501  0.00000000000E+00  0.00000000000E+00  0.29566796646E+03  0.29566796646E+03  0.00000000000E+00 0.  1.
         21   -1    0    0  505  502 -0.00000000000E+00 -0.00000000000E+00 -0.18709667355E+03  0.18709667355E+03  0.00000000000E+00 0.  1.
         21    1    1    2  503  502  0.26929806453E+02  0.38082990909E+02  0.84473830781E+02  0.96495371698E+02  0.00000000000E+00 0.  1.
         21    1    1    2  504  506 -0.57018661567E+02 -0.44309350334E+02  0.31782534757E+02  0.78895980946E+02  0.00000000000E+00 0.  1.
         21    1    1    2  505  504 -0.42621026768E+02  0.40882529851E+02 -0.14029443184E+03  0.15221846398E+03  0.00000000000E+00 0.  1.
         21    1    1    2  506  501  0.72709881882E+02 -0.34656170426E+02  0.13260935921E+03  0.15515482339E+03  0.00000000000E+00 0.  1.
<scales pt_clust_3="46.64256" pt_clust_4="14000.00000" pt_clust_5="59.27518" pt_clust_6="72.15102"></scales>
<clustering>
<clus scale="   46.643">  1  3  2 -1</clus>
<clus scale="   59.275">  2  5  1 -1</clus>
<clus scale="   72.151">  1  6  2 -1</clus>
<clus scale="   46.643">  1  3  2 -1</clus>
</clustering>
</event>
<event>
 6    0  0.5510638E+002  0.1676328E+03  0.7546771E-02  0.1180339E+00
         21   -1    0    0  506  501  0.00000000000E+00  0.00000000000E+00  0.67672196262E+02  0.67672196262E+02  0.00000000000E+00 0.  1.
         21   -1    0    0  503  502 -0.00000000000E+00 -0.00000000000E+00 -0.25994985072E+04  0.25994985072E+04  0.00000000000E+00 0. -1.
         21    1    1    2  503  504 -0.11693376123E+03 -0.17371951690E+03 -0.43759259249E+03  0.48511777134E+03  0.00000000000E+00 0.  1.
         21    1    1    2  504  501 -0.85350435150E+02  0.15296216261E+02 -0.36582003994E+02  0.94111179083E+02  0.00000000000E+00 0.  1.
         21    1    1    2  505  502  0.66624771169E+02  0.93108883554E+02 -0.16397898560E+04  0.16437818882E+04  0.00000000000E+00 0. -1.
         21    1    1    2  506  505  0.13565942521E+03  0.65314417089E+02 -0.41786185848E+03  0.44415986481E+03  0.00000000000E+00 0.  1.
<scales pt_clust_3="167.63281" pt_clust_4="86.71027" pt_clust_5="112.65254" pt_clust_6="14000.00000"></scales>
<clustering>
<clus scale="   86.710">  1  4  2 -1</clus>
<clus scale="  112.653">  2  5  1 -1</clus>
<clus scale="  167.633">  2  3  1 -1</clus>
<clus scale="   86.710">  1  3  2 -1</clus>
</clustering>
</event>
<event>
 6    0  0.5510638E+002  0.2159745E+03  0.7546771E-02  0.1136920E+00
         21   -1    0    0  505  501  0.00000000000E+00  0.00000000000E+00  0.20874715808E+04  0.20874715808E+04  0.00000000000E+00 0.  1.
         21   -1    0    0  506  502 -0.00000000000E+00 -0.00000000000E+00 -0.15919763103E+04  0.15919763103E+04  0.00000000000E+00 0.  1.
         21    1    1    2  503  501  0.15979244733E+03 -0.53480886268E+02  0.18869118212E+04  0.18944207696E+04  0.00000000000E+00 0.  1.
         21    1    1    2  504  503  0.65891005470E+02  0.15823006197E+03 -0.15210183246E+02  0.17207477092E+03  0.00000000000E+00 0.  1.
         21    1    1    2  505  502 -0.32070478995E+02  0.83581793694E+01  0.10745117309E+03  0.11244611769E+03  0.00000000000E+00 0.  1.
         21    1    1    2  506  504 -0.19361297381E+03 -0.11310735508E+03 -0.14836575405E+04  0.15005062329E+04  0.00000000000E+00 0.  1.
<scales pt_clust_3="136.90882" pt_clust_4="14000.00000" pt_clust_5="33.14174" pt_clust_6="215.97448"></scales>
<clustering>
<clus scale="   33.142">  1  5  2 -1</clus>
<clus scale="  136.909">  1  3  2 -1</clus>
<clus scale="  215.974">  2  6  1 -1</clus>
<clus scale="   33.142">  1  3  2 -1</clus>
</clustering>
</event>
<event>
 6    0  0.5510638E+002  0.1215304E+03  0.7546771E-02  0.1240593E+00
         21   -1    0    0  504  501  0.00000000000E+00  0.00000000000E+00  0.72377903683E+02  0.72377903683E+02  0.00000000000E+00 0.  1.
         21   -1    0    0  506  502 -0.00000000000E+00 -0.00000000000E+00 -0.71964890723E+03  0.71964890723E+03  0.00000000000E+00 0.  1.
         21    1    1    2  503  505 -0.25606310291E+02  0.27832405916E+02 -0.87200859777E+02  0.95049018362E+02  0.00000000000E+00 0.  1.
         21    1    1    2  504  503  0.99606097748E+02 -0.91316850367E+02 -0.26392763312E+02  0.13768340432E+03  0.00000000000E+00 0.  1.
         21    1    1    2  505  502 -0.21655436095E+02  0.41186752970E+02 -0.37219401173E+02  0.59586830394E+02  0.00000000000E+00 0.  1.
         21    1    1    2  506  501 -0.52344351361E+02  0.22297691481E+02 -0.49645797928E+03  0.49970755784E+03  0.00000000000E+00 0.  1.
<scales pt_clust_3="34.14549" pt_clust_4="115.47780" pt_clust_5="34.14549" pt_clust_6="56.89568"></scales>
<clustering>
<clus scale="   34.145">  3  5 -1 -1</clus>
<clus scale="   56.896">  2  6  1 -1</clus>
<clus scale="  115.478">  1  4  2 -1</clus>
<clus scale="  115.478">  1  3  2 -1</clus>
</clustering>
</event>
<event>
 6    0  0.5510638E+002  0.9699319E+02  0.7546771E-02  0.1286749E+00
         21   -1    0    0  503  501  0.00000000000E+00  0.00000000000E+00  0.14135538152E+04  0.14135538152E+04  0.00000000000E+00 0.  1.
         21   -1    0    0  506  502 -0.00000000000E+00 -0.00000000000E+00 -0.18358264244E+03  0.18358264244E+03  0.00000000000E+00 0. -1.
         21    1    1    2  503  505 -0.17641416754E+02  0.39869043663E+02  0.97576154881E+02  0.10687313146E+03  0.00000000000E+00 0.  1.
         21    1    1    2  504  502 -0.35191566783E+02  0.29469415726E+02 -0.13616520579E+03  0.14369361887E+03  0.00000000000E+00 0. -1.
         21    1    1    2  505  504 -0.43174611190E+02  0.38105684065E+02 -0.11249713532E+02  0.58674068071E+02  0.00000000000E+00 0.  1.
         21    1    1    2  506  501  0.96007594727E+02 -0.10744414345E+03  0.12798099372E+04  0.12878956392E+04  0.00000000000E+00 0.  1.
<scales pt_clust_3="43.59771" pt_clust_4="46.01324" pt_clust_5="96.99319" pt_clust_6="14000.00000"></scales>
<clustering>
<clus scale="   43.598">  1  3  2 -1</clus>
<clus scale="   46.013">  2  4  1 -1</clus>
<clus scale="   96.993">  2  5  1 -1</clus>
<clus scale="   43.598">  1  3  2 -1</clus>
</clustering>
</event>
<event>
 6    0  0.5510638E+002  0.1296236E+03  0.7546771E-02  0.1228015E+00
         21   -1    0    0  506  501  0.00000000000E+00  0.00000000000E+00  0.10451718083E+04  0.10451718083E+04  0.00000000000E+00 0. -1.
         21   -1    0    0  505  502 -0.00000000000E+00 -0.00000000000E+00 -0.47393473188E+02  0.47393473188E+02  0.00000000000E+00 0. -1.
         21    1    1    2  503  502 -0.20979770976E+02 -0.43160781922E+02  0.26830067221E+02  0.54980509214E+02  0.00000000000E+00 0. -1.
         21    1    1    2  504  501  0.24789272513E+02  0.12622112230E+03  0.55855786012E+03  0.57317812489E+03  0.00000000000E+00 0. -1.
         21    1    1    2  505  504  0.48489371235E+02  0.39278340416E+02  0.55461323299E+02  0.83486319422E+02  0.00000000000E+00 0. -1.
         21    1    1    2  506  503 -0.52298872772E+02 -0.12233868080E+03  0.35692908443E+03  0.38092032792E+03  0.00000000000E+00 0. -1.
<scales pt_clust_3="47.98962" pt_clust_4="14000.00000" pt_clust_5="44.94127" pt_clust_6="129.62356"></scales>
<clustering>
<clus scale="   47.990">  2  3  1 -1</clus>
<clus scale="   44.941">  2  5  1 -1</clus>
<clus scale="  129.624">  2  6  1 -1</clus>
<clus scale="  129.624">  1  3  2 -1</clus>
</clustering>
</event>
<event>
 6    0  0.5510638E+002  0.1042778E+03  0.7546771E-02  0.1271549E+00
         21   -1    0    0  506  501  0.00000000000E+00  0.00000000000E+00  0.27742469556E+03  0.27742469556E+03  0.00000000000E+00 0.  1.
         21   -1    0    0  505  502 -0.00000000000E+00 -0.00000000000E+00 -0.27272440542E+03  0.27272440542E+03  0.00000000000E+00 0. -1.
         21    1    1    2  503  502  0.24913795918E+02 -0.79647643318E+02 -0.21783265769E+03  0.23327132501E+03  0.00000000000E+00 0. -1.
         21    1    1    2  504  501 -0.19195385581E+02  0.11502472132E+03  0.15544164586E+03  0.19432255302E+03  0.00000000000E+00 0.  1.
         21    1    1    2  505  504 -0.11542199749E+02  0.30144067321E+02  0.60975159536E+01  0.32849153269E+02  0.00000000000E+00 0.  1.
         21    1    1    2  506  503  0.58237894128E+01 -0.65521145322E+02  0.60993786019E+02  0.89706069696E+02  0.00000000000E+00 0.  1.
<scales pt_clust_3="85.91012" pt_clust_4="31.09536" pt_clust_5="31.09536" pt_clust_6="65.77946"></scales>
<clustering>
<clus scale="   31.095">  4  5 -1 -1</clus>
<clus scale="   65.779">  1  6  2 -1</clus>
<clus scale="   85.910">  2  3  1 -1</clus>
<clus scale="   65.779">  1  3  2 -1</clus>
</clustering>
</event>
<event>
 6    0  0.5510638E+002  0.1418679E+03  0.7546771E-02  0.1210837E+00
         21   -1    0    0  505  501  0.00000000000E+00  0.00000000000E+00  0.68791245831E+02  0.68791245831E+02  0.00000000000E+00 0.  1.
         21   -1    0    0  506  502 -0.00000000000E+00 -0.00000000000E+00 -0.34644735650E+03  0.34644735650E+03  0.00000000000E+00 0.  1.
         21    1    1    2  503  501 -0.38658030034E+01 -0.60629276719E+02 -0.12207532342E+02  0.61966744905E+02  0.00000000000E+00 0.  1.
         21    1    1    2  504  502  0.15079740687E+02  0.48007124684E+02 -0.89949578083E+02  0.10306798337E+03  0.00000000000E+00 0.  1.
         21    1    1    2  505  504 -0.54481736903E+02  0.73263824310E+02 -0.14130764417E+03  0.16823702895E+03  0.00000000000E+00 0.  1.
         21    1    1    2  506  503  0.43267799220E+02 -0.60641672275E+02 -0.34191356070E+02  0.81966845099E+02  0.00000000000E+00 0.  1.
<scales pt_clust_3="43.35511" pt_clust_4="46.16773" pt_clust_5="46.16773" pt_clust_6="136.24985"></scales>
<clustering>
<clus scale="   43.355">  3  6 -1 -1</clus>
<clus scale="   46.168">  4  5 -1 -1</clus>
<clus scale="  136.250">  1  3  2 -1</clus>
<clus scale="  136.250">  1  3  2 -1</clus>
</clustering>
</event>
<event>
 6    0  0.5510638E+002  0.6053547E+02  0.7546771E-02  0.1395598E+00
         21   -1    0    0  504  501  0.00000000000E+00  0.00000000000E+00  0.37581374470E+03  0.37581374470E+03  0.00000000000E+00 0.  1.
         21   -1    0    0  503  502 -0.00000000000E+00 -0.00000000000E+00 -0.92640418425E+03  0.92640418425E+03  0.00000000000E+00 0.  1.
         21    1    1    2  503  505 -0.37599625122E+02 -0.31136006863E+02 -0.34430829319E+02  0.59738302120E+02  0.00000000000E+00 0.  1.
         21    1    1    2  504  506 -0.34882403394E+01  0.51293567060E+02  0.14763654583E+03  0.15633217042E+03  0.00000000000E+00 0.  1.
         21    1    1    2  505  501 -0.15811639972E+02 -0.75196835386E+02  0.20232012469E+03  0.21642089748E+03  0.00000000000E+00 0.  1.
         21    1    1    2  506  502  0.56899505433E+02  0.55039275189E+02 -0.86611628075E+03  0.86972655893E+03  0.00000000000E+00 0.  1.
<scales pt_clust_3="48.81785" pt_clust_4="60.53547" pt_clust_5="14000.00000" pt_clust_6="31.34262"></scales>
<clustering>
<clus scale="   48.818">  2  3  1 -1</clus>
<clus scale="   31.343">  2  6  1 -1</clus>
<clus scale="   60.535">  1  4  2 -1</clus>
<clus scale="   60.535">  1  3  2 -1</clus>
</clustering>
</event>
<event>
 6    0  0.5510638E+002  0.9972975E+02  0.7546771E-02  0.1280865E+00
         21   -1    0    0  506  501  0.00000000000E+00  0.00000000000E+00  0.22898635634E+03  0.22898635634E+03  0.00000000000E+00 0. -1.
         21   -1    0    0  505  502 -0.00000000000E+00 -0.00000000000E+00 -0.35589382443E+03  0.35589382443E+03  0.00000000000E+00 0.  1.
         21    1    1    2  503  502 -0.62491957723E+02 -0.52079170986E+02 -0.18374613092E+03  0.20094806657E+03  0.00000000000E+00 0.  1.
         21    1    1    2  504  501  0.54017146815E+02  0.37608615251E+02  0.17439069208E+03  0.18639842696E+03  0.00000000000E+00 0. -1.
         21    1    1    2  505  504 -0.43856689258E+02  0.29429587125E+02 -0.13119084953E+03  0.14142329650E+03  0.00000000000E+00 0.  1.
         21    1    1    2  506  503  0.52331500165E+02 -0.14959031390E+02  0.13638820281E+02  0.56110390734E+02  0.00000000000E+00 0. -1.
<scales pt_clust_3="99.72975" pt_clust_4="14000.00000" pt_clust_5="52.81581" pt_clust_6="49.59226"></scales>
<clustering>
<clus scale="   52.816">  2  5  1 -1</clus>
<clus scale="   49.592">  1  6  2 -1</clus>
<clus scale="   99.730">  2  3  1 -1</clus>
<clus scale="   49.592">  1  3  2 -1</clus>
</clustering>
</event>
<event>
 6    0  0.5510638E+002  0.1057678E+03  0.7546771E-02  0.1268614E+00
         21   -1    0    0  505  501  0.00000000000E+00  0.00000000000E+00  0.14557407311E+03  0.14557407311E+03  0.00000000000E+00 0. -1.
         21   -1    0    0  503  502 -0.00000000000E+00 -0.00000000000E+00 -0.10356239038E+04  0.10356239038E+04  0.00000000000E+00 0.  1.
         21    1    1    2  503  506 -0.24898035428E+02 -0.28924434999E+02 -0.46805661317E+03  0.46960997459E+03  0.00000000000E+00 0.  1.
         21    1    1    2  504  501  0.49970492342E+02 -0.18763728323E+02  0.10166023140E+03  0.11482129704E+03  0.00000000000E+00 0. -1.
         21    1    1    2  505  502 -0.85751242470E+02 -0.96209334092E+01 -0.50358437979E+03  0.51092373747E+03  0.00000000000E+00 0.  1.
         21    1    1    2  506  504  0.60678785556E+02  0.57309096732E+02 -0.20069069138E+02  0.85842967801E+02  0.00000000000E+00 0.  1.
<scales pt_clust_3="38.16458" pt_clust_4="53.22627" pt_clust_5="105.76780" pt_clust_6="14000.00000"></scales>
<clustering>
<clus scale="   38.165">  2  3  1 -1</clus>
<clus scale="   53.226">  1  4  2 -1</clus>
<clus scale="  105.768">  2  5  1 -1</clus>
<clus scale="   53.226">  1  3  2 -1</clus>
</clustering>
</event>
<event>
 6    0  0.5510638E+002  0.1616193E+03  0.7546771E-02  0.1186881E+00
         21   -1    0    0  505  501  0.00000000000E+00  0.00000000000E+00  0.47705500286E+03  0.47705500286E+03  0.00000000000E+00 0.  1.
         21   -1    0    0  504  502 -0.00000000000E+00 -0.00000000000E+00 -0.49130070701E+03  0.49130070701E+03  0.00000000000E+00 0.  1.
         21    1    1    2  503  502  0.39759243911E+02 -0.16731085983E+02 -0.19007394582E+03  0.19490723843E+03  0.00000000000E+00 0.  1.
         21    1    1    2  504  501  0.57662209494E+01  0.15978834621E+03 -0.26192842890E+03  0.30687467597E+03  0.00000000000E+00 0.  1.
         21    1    1    2  505  506 -0.33436415779E+02 -0.10965594470E+03  0.39330780313E+03  0.40967480775E+03  0.00000000000E+00 0.  1.
         21    1    1    2  506  503 -0.12089049081E+02 -0.33401315525E+02  0.44448867435E+02  0.56898987713E+02  0.00000000000E+00 0. -1.
<scales pt_clust_3="43.13614" pt_clust_4="150.32811" pt_clust_5="33.03609" pt_clust_6="33.03609"></scales>
<clustering>
<clus scale="   33.036">  5  6 -1 -1</clus>
<clus scale="   43.136">  2  3  1 -1</clus>
<clus scale="  150.328">  2  4  1 -1</clus>
<clus scale="  161.619">  1  3  2 -1</clus>
</clustering>
</event>
<event>
 6    0  0.5510638E+002  0.9207858E+02  0.7546771E-02  0.1297895E+00
         21   -1    0    0  504  501  0.00000000000E+00  0.00000000000E+00  0.12181711572E+03  0.12181711572E+03  0.00000000000E+00 0.  1.
         21   -1    0    0  503  502 -0.00000000000E+00 -0.00000000000E+00 -0.35907142108E+03  0.35907142108E+03  0.00000000000E+00 0.  1.
         21    1    1    2  503  506  0.83317302571E+00  0.65593404576E+02 -0.64507811495E+02  0.92002427386E+02  0.00000000000E+00 0.  1.
         21    1    1    2  504  505  0.29396135773E+02  0.24136783262E+02  0.30951562825E+02  0.49037907234E+02  0.00000000000E+00 0.  1.
         21    1    1    2  505  502 -0.10212376124E+03 -0.64806466589E+02 -0.22956573920E+03  0.25947941987E+03  0.00000000000E+00 0.  1.
         21    1    1    2  506  501  0.71894452438E+02 -0.24923721248E+02  0.25867682505E+02  0.80368782312E+02  0.00000000000E+00 0.  1.
<scales pt_clust_3="69.88750" pt_clust_4="38.03573" pt_clust_5="14000.00000" pt_clust_6="92.07858"></scales>
<clustering>
<clus scale="   38.036">  1  4  2 -1</clus>
<clus scale="   69.887">  2  3  1 -1</clus>
<clus scale="   92.079">  1  6  2 -1</clus>
<clus scale="   38.036">  1  3  2 -1</clus>
</clustering>
</event>
<event>
 6    0  0.5510638E+002  0.1474498E+03  0.7546771E-02  0.1203642E+00
         21   -1    0    0  506  501  0.00000000000E+00  0.00000000000E+00  0.13681420440E+03  0.13681420440E+03  0.00000000000E+00 0.  1.
         21   -1    0    0  503  502 -0.00000000000E+00 -0.00000000000E+00 -0.12197420649E+04  0.12197420649E+04  0.00000000000E+00 0. -1.
         21    1    1    2  503  501 -0.10674567699E+03  0.10882222934E+03 -0.10374872519E+04  0.10486261083E+04  0.00000000000E+00 0. -1.
         21    1    1    2  504  502  0.35046514386E+02  0.61346998845E+01 -0.13244363148E+03  0.13713937521E+03  0.00000000000E+00 0. -1.
         21    1    1    2  505  504  0.31886178766E+02 -0.63149498494E+02  0.12748442865E+02  0.71882615088E+02  0.00000000000E+00 0.  1.
         21    1    1    2  506  505  0.39812983841E+02 -0.51807430734E+02  0.74254580066E+02  0.98908170655E+02  0.00000000000E+00 0.  1.
<scales pt_clust_3="136.00495" pt_clust_4="35.57939" pt_clust_5="54.70584" pt_clust_6="54.70584"></scales>
<clustering>
<clus scale="   35.579">  2  4  1 -1</clus>
<clus scale="   54.706">  5  6 -1 -1</clus>
<clus scale="  136.005">  2  3  1 -1</clus>
<clus scale="  147.450">  1  3  2 -1</clus>
</clustering>
</event>
<event>
 6    0  0.5510638E+002  0.1165256E+03  0.7546771E-02  0.1248941E+00
         21   -1    0    0  504  501  0.00000000000E+00  0.00000000000E+00  0.20682363990E+03  0.20682363990E+03  0.00000000000E+00 0.  1.
         21   -1    0    0  505  502 -0.00000000000E+00 -0.00000000000E+00 -0.10449067852E+04  0.10449067852E+04  0.00000000000E+00 0.  1.
         21    1    1    2  503  506  0.10797976626E+03 -0.50704541200E+02 -0.65094798730E+03  0.66178838203E+03  0.00000000000E+00 0.  1.
         21    1    1    2  504  503  0.25925641504E+02 -0.77450058281E+02  0.79731094965E+02  0.11413894129E+03  0.00000000000E+00 0.  1.
         21    1    1    2  505  501 -0.10829195890E+03  0.15361168174E+03  0.17862934134E+02  0.18879295947E+03  0.00000000000E+00 0.  1.
         21    1    1    2  506  502 -0.25613448867E+02 -0.25457082259E+02 -0.28472918713E+03  0.28701014234E+03  0.00000000000E+00 0.  1.
<scales pt_clust_3="116.52556" pt_clust_4="82.04021" pt_clust_5="14000.00000" pt_clust_6="36.11249"></scales>
<clustering>
<clus scale="   36.112">  2  6  1 -1</clus>
<clus scale="   82.040">  1  4  2 -1</clus>
<clus scale="  116.526">  2  3  1 -1</clus>
<clus scale="   82.040">  1  3  2 -1</clus>
</clustering>
</event>
<event>
 6    0  0.5510638E+002  0.9454952E+02  0.7546771E-02  0.1292194E+00
         21   -1    0    0  503  501  0.00000000000E+00  0.00000000000E+00  0.13509497023E+03  0.13509497023E+03  0.00000000000E+00 0. -1.
         21   -1    0    0  505  502 -0.00000000000E+00 -0.00000000000E+00 -0.10790087513E+04  0.10790087513E+04  0.00000000000E+00 0. -1.
         21    1    1    2  503  506  0.24132556835E+02 -0.19108288387E+02  0.18181364461E+02  0.35750090883E+02  0.00000000000E+00 0. -1.
         21    1    1    2  504  501 -0.74745667353E+02 -0.65399219331E+01  0.74437865001E+02  0.10569144295E+03  0.00000000000E+00 0. -1.
         21    1    1    2  505  504  0.12755285571E+02 -0.67469654470E+02 -0.60646709580E+02  0.91612635412E+02  0.00000000000E+00 0.  1.
         21    1    1    2  506  502  0.37857824946E+02  0.93117864790E+02 -0.97588630091E+03  0.98104955225E+03  0.00000000000E+00 0. -1.
<scales pt_clust_3="30.78160" pt_clust_4="59.07895" pt_clust_5="14000.00000" pt_clust_6="94.54952"></scales>
<clustering>
<clus scale="   30.782">  1  3  2 -1</clus>
<clus scale="   59.079">  1  4  2 -1</clus>
<clus scale="   94.550">  2  6  1 -1</clus>
<clus scale="   30.782">  1  3  2 -1</clus>
</clustering>
</event>
<event>
 6    0  0.5510638E+002  0.1729871E+03  0.7546771E-02  0.1174768E+00
         21   -1    0    0  503  501  0.00000000000E+00  0.00000000000E+00  0.22501879667E+03  0.22501879667E+03  0.00000000000E+00 0. -1.
         21   -1    0    0  506  502 -0.00000000000E+00 -0.00000000000E+00 -0.10331717501E+04  0.10331717501E+04  0.00000000000E+00 0.  1.
         21    1    1    2  503  505 -0.23677270854E+02  0.17851169785E+03  0.10317156492E+03  0.20753652987E+03  0.00000000000E+00 0. -1.
         21    1    1    2  504  502  0.35812605883E+02 -0.80695038742E+02 -0.57933056033E+03  0.58601888208E+03  0.00000000000E+00 0.  1.
         21    1    1    2  505  504  0.15331897010E+02 -0.80713876285E+02 -0.38981376809E+03  0.39837742241E+03  0.00000000000E+00 0.  1.
         21    1    1    2  506  501 -0.27467232039E+02 -0.17102782823E+02  0.57819810078E+02  0.66257712408E+02  0.00000000000E+00 0. -1.
<scales pt_clust_3="169.69904" pt_clust_4="32.42510" pt_clust_5="32.42510" pt_clust_6="32.35667"></scales>
<clustering>
<clus scale="   32.357">  1  6  2 -1</clus>
<clus scale="   32.425">  4  5 -1 -1</clus>
<clus scale="  169.699">  1  3  2 -1</clus>
<clus scale="   32.357">  1  3  2 -1</clus>
</clustering>
</event>
<event>
 6    0  0.5510638E+002  0.7126996E+02  0.7546771E-02  0.1355827E+00
         21   -1    0    0  506  501  0.00000000000E+00  0.00000000000E+00  0.27105059160E+03  0.27105059160E+03  0.00000000000E+00 0. -1.
         21   -1    0    0  503  502 -0.00000000000E+00 -0.00000000000E+00 -0.86792937103E+02  0.86792937103E+02  0.00000000000E+00 0. -1.
         21    1    1    2  503  504  0.59348486733E+02 -0.11558364061E+02 -0.86880064301E+01  0.61084532518E+02  0.00000000000E+00 0. -1.
         21    1    1    2  504  505  0.45272620611E+02 -0.52443991987E+02  0.89994416690E+02  0.11357366556E+03  0.00000000000E+00 0. -1.
         21    1    1    2  505  501  0.58716548004E+01  0.36830514280E+02  0.31574871667E+02  0.48866508296E+02  0.00000000000E+00 0.  1.
         21    1    1    2  506  502 -0.11049276214E+03  0.27171841768E+02  0.71376372568E+02  0.13431882233E+03  0.00000000000E+00 0. -1.
<scales pt_clust_3="71.26996" pt_clust_4="60.01206" pt_clust_5="37.29562" pt_clust_6="14000.00000"></scales>
<clustering>
<clus scale="   37.296">  1  5  2 -1</clus>
<clus scale="   60.012">  1  4  2 -1</clus>
<clus scale="   71.270">  2  3  1 -1</clus>
<clus scale="   37.296">  1  3  2 -1</clus>
</clustering>
</event>
<event>
 6    0  0.5510638E+002  0.1213376E+03  0.7546771E-02  0.1240907E+00
         21   -1    0    0  502  501  0.00000000000E+00  0.00000000000E+00  0.19767743868E+04  0.19767743868E+04  0.00000000000E+00 0.  1.
         21   -1    0    0  506  502 -0.00000000000E+00 -0.00000000000E+00 -0.65379012346E+02  0.65379012346E+02  0.00000000000E+00 0.  1.
         21    1    1    2  503  501  0.55761225023E+02 -0.64786064778E+01  0.13379362462E+04  0.13391133953E+04  0.00000000000E+00 0.  1.
         21    1    1    2  504  505 -0.91843392851E+02  0.54150003969E+02  0.49713326795E+02  0.11763862717E+03  0.00000000000E+00 0.  1.
         21    1    1    2  505  503  0.52294240793E+02 -0.16463971151E+02  0.54269266800E+03  0.54545493110E+03  0.00000000000E+00 0.  1.
         21    1    1    2  506  504 -0.16212072965E+02 -0.31207426340E+02 -0.18946866494E+02  0.39946445630E+02  0.00000000000E+00 0.  1.
<scales pt_clust_3="50.67445" pt_clust_4="109.96590" pt_clust_5="50.67445" pt_clust_6="35.16724"></scales>
<clustering>
<clus scale="   35.167">  2  6  1 -1</clus>
<clus scale="   50.674">  3  5 -1 -1</clus>
<clus scale="  109.966">  2  4  1 -1</clus>
<clus scale="  121.338">  1  3  2 -1</clus>
</clustering>
</event>
<event>
 6    0  0.5510638E+002  0.1071703E+03  0.7546771E-02  0.1265902E+00
         21   -1    0    0  502  501  0.00000000000E+00  0.00000000000E+00  0.34090269514E+02  0.34090269514E+02  0.00000000000E+00 0. -1.
         21   -1    0    0  504  502 -0.00000000000E+00 -0.00000000000E+00 -0.92501746009E+03  0.92501746009E+03  0.00000000000E+00 0. -1.
         21    1    1    2  503  505 -0.61279718874E+02  0.44521906858E+02 -0.20212328905E+03  0.21585001300E+03  0.00000000000E+00 0. -1.
         21    1    1    2  504  506  0.54317258490E+01  0.30861978181E+02 -0.90773115687E+02  0.96029807219E+02  0.00000000000E+00 0. -1.
         21    1    1    2  505  501  0.10046027464E+03 -0.96083905118E+02 -0.18566327915E+03  0.23193800212E+03  0.00000000000E+00 0. -1.
         21    1    1    2  506  503 -0.44612281616E+02  0.20700020080E+02 -0.41236750669E+03  0.41528990727E+03  0.00000000000E+00 0. -1.
<scales pt_clust_3="14000.00000" pt_clust_4="31.33633" pt_clust_5="107.17033" pt_clust_6="55.28599"></scales>
<clustering>
<clus scale="   31.336">  2  4  1 -1</clus>
<clus scale="   55.286">  2  6  1 -1</clus>
<clus scale="  107.170">  1  5  2 -1</clus>
<clus scale="  107.170">  1  3  2 -1</clus>
</clustering>
</event>
<event>
 6    0  0.5510638E+002  0.1407915E+03  0.7546771E-02  0.1212268E+00
         21   -1    0    0  504  501  0.00000000000E+00  0.00000000000E+00  0.77933054215E+02  0.77933054215E+02  0.00000000000E+00 0. -1.
         21   -1    0    0  506  502 -0.00000000000E+00 -0.00000000000E+00 -0.23652680879E+03  0.23652680879E+03  0.00000000000E+00 0. -1.
         21    1    1    2  503  505 -0.52188157151E+02 -0.97989710792E+01 -0.23243654563E+02  0.57964567267E+02  0.00000000000E+00 0. -1.
         21    1    1    2  504  503 -0.24487692331E+02 -0.32621529441E+02 -0.47157439191E+02  0.62350904804E+02  0.00000000000E+00 0. -1.
         21    1    1    2  505  502 -0.40148460320E+02  0.68782167408E+01 -0.53420850974E+02  0.67178836328E+02  0.00000000000E+00 0. -1.
         21    1    1    2  506  501  0.11682430980E+03  0.35542283779E+02 -0.34771809849E+02  0.12696555461E+03  0.00000000000E+00 0. -1.
<scales pt_clust_3="36.91746" pt_clust_4="36.91746" pt_clust_5="30.95148" pt_clust_6="122.11132"></scales>
<clustering>
<clus scale="   30.951">  3  5 -1 -1</clus>
<clus scale="   36.917">  3  4 -1 -1</clus>
<clus scale="  122.111">  1  6  2 -1</clus>
<clus scale="  122.111">  1  3  2 -1</clus>
</clustering>
</event>
<event>
 6    0  0.5510638E+002  0.2259158E+03  0.7546771E-02  0.1129548E+00
         21   -1    0    0  505  501  0.00000000000E+00  0.00000000000E+00  0.58955475343E+03  0.58955475343E+03  0.00000000000E+00 0. -1.
         21   -1    0    0  504  502 -0.00000000000E+00 -0.00000000000E+00 -0.45435498148E+03  0.45435498148E+03  0.00000000000E+00 0. -1.
         21    1    1    2  503  502  0.23367906163E+02  0.20402992296E+02 -0.29652365855E+03  0.29814194810E+03  0.00000000000E+00 0. -1.
         21    1    1    2  504  501 -0.11134236894E+03  0.16000136602E+03  0.10360087726E+03  0.22075031601E+03  0.00000000000E+00 0. -1.
         21    1    1    2  505  506  0.15384705298E+03 -0.19150584622E+03  0.37149753096E+03  0.44536930782E+03  0.00000000000E+00 0. -1.
         21    1    1    2  506  503 -0.65872590196E+02  0.11101487897E+02 -0.43374977716E+02  0.79648162971E+02  0.00000000000E+00 0. -1.
<scales pt_clust_3="31.02162" pt_clust_4="225.91578" pt_clust_5="14000.00000" pt_clust_6="59.84624"></scales>
<clustering>
<clus scale="   31.022">  2  3  1 -1</clus>
<clus scale="   59.846">  2  6  1 -1</clus>
<clus scale="  225.916">  2  4  1 -1</clus>
<clus scale="  225.916">  1  3  2 -1</clus>
</clustering>
</event>
<event>
 6    0  0.5510638E+002  0.7505664E+02  0.7546771E-02  0.1343696E+00
         21   -1    0    0  505  501  0.00000000000E+00  0.00000000000E+00  0.40374534440E+03  0.40374534440E+03  0.00000000000E+00 0.  1.
         21   -1    0    0  503  502 -0.00000000000E+00 -0.00000000000E+00 -0.23361171714E+03  0.23361171714E+03  0.00000000000E+00 0.  1.
         21    1    1    2  503  506 -0.35198701162E+02 -0.34357554984E+02 -0.18816183615E+03  0.19448461824E+03  0.00000000000E+00 0.  1.
         21    1    1    2  504  501 -0.48722702090E+01  0.47774946912E+02  0.50710820157E+02  0.69841047032E+02  0.00000000000E+00 0.  1.
         21    1    1    2  505  502 -0.58381837109E+02 -0.43764188408E+02  0.23743350802E+03  0.24839165409E+03  0.00000000000E+00 0.  1.
         21    1    1    2  506  504  0.98452808480E+02  0.30346796480E+02  0.70151135239E+02  0.12463974217E+03  0.00000000000E+00 0.  1.
<scales pt_clust_3="48.91346" pt_clust_4="48.02275" pt_clust_5="14000.00000" pt_clust_6="75.05664"></scales>
<clustering>
<clus scale="   48.023">  1  4  2 -1</clus>
<clus scale="   48.913">  2  3  1 -1</clus>
<clus scale="   75.057">  2  6  1 -1</clus>
<clus scale="   48.023">  1  3  2 -1</clus>
</clustering>
</event>
<event>
 6    0  0.5510638E+002  0.5939825E+02  0.7546771E-02  0.1400374E+00
         21   -1    0    0  503  501  0.00000000000E+00  0.00000000000E+00  0.43388331307E+02  0.43388331307E+02  0.00000000000E+00 0. -1.
         21   -1    0    0  505  502 -0.00000000000E+00 -0.00000000000E+00 -0.13279041381E+04  0.13279041381E+04  0.00000000000E+00 0. -1.
         21    1    1    2  503  504 -0.79348933974E+02 -0.48777248149E+02 -0.65295003805E+02  0.11374933310E+03  0.00000000000E+00 0. -1.
         21    1    1    2  504  502 -0.34827985000E+02  0.27984342557E+02 -0.19372587703E+03  0.19881103440E+03  0.00000000000E+00 0. -1.
         21    1    1    2  505  506  0.84003131560E+02 -0.10640648677E+02 -0.10083647415E+04  0.10119136333E+04  0.00000000000E+00 0. -1.
         21    1    1    2  506  501  0.30173787414E+02  0.31433554269E+02 -0.17130184546E+02  0.46818468615E+02  0.00000000000E+00 0. -1.
<scales pt_clust_3="59.39825" pt_clust_4="44.50470" pt_clust_5="14000.00000" pt_clust_6="43.57208"></scales>
<clustering>
<clus scale="   43.572">  1  6  2 -1</clus>
<clus scale="   44.505">  2  4  1 -1</clus>
<clus scale="   59.398">  1  3  2 -1</clus>
<clus scale="   43.572">  1  3  2 -1</clus>
</clustering>
</event>
<event>
 6    0  0.5510638E+002  0.1506991E+03  0.7546771E-02  0.1199617E+00
         21   -1    0    0  505  501  0.00000000000E+00  0.00000000000E+00  0.24980984854E+04  0.24980984854E+04  0.00000000000E+00 0. -1.
         21   -1    0    0  506  502 -0.00000000000E+00 -0.00000000000E+00 -0.83684826501E+02  0.83684826501E+02  0.00000000000E+00 0. -1.
         21    1    1    2  503  504 -0.94313907442E+02 -0.14897801852E+02  0.11684036575E+04  0.11722986669E+04  0.00000000000E+00 0.  1.
         21    1    1    2  504  502  0.14015803805E+03  0.42998560716E+02  0.25325310814E+03  0.29262653440E+03  0.00000000000E+00 0. -1.
         21    1    1    2  505  503 -0.45097284075E+02  0.23716437724E+02  0.10432560874E+04  0.10444996402E+04  0.00000000000E+00 0. -1.
         21    1    1    2  506  501 -0.74684652946E+00 -0.51817196588E+02 -0.50499194079E+02  0.72358470442E+02  0.00000000000E+00 0. -1.
<scales pt_clust_3="41.59804" pt_clust_4="139.52625" pt_clust_5="41.59804" pt_clust_6="51.82258"></scales>
<clustering>
<clus scale="   41.598">  3  5 -1 -1</clus>
<clus scale="   51.823">  2  6  1 -1</clus>
<clus scale="  139.526">  2  4  1 -1</clus>
<clus scale="  150.699">  1  3  2 -1</clus>
</clustering>
</event>
<event>
 6    0  0.5510638E+002  0.1046861E+03  0.7546771E-02  0.1270739E+00
         21   -1    0    0  503  501  0.00000000000E+00  0.00000000000E+00  0.36258201208E+03  0.36258201208E+03  0.00000000000E+00 0. -1.
         21   -1    0    0  506  502 -0.00000000000E+00 -0.00000000000E+00 -0.15639664430E+03  0.15639664430E+03  0.00000000000E+00 0.  1.
         21    1    1    2  503  504 -0.94036424839E+02 -0.59951245106E+02  0.19161820515E+03  0.22170822612E+03  0.00000000000E+00 0. -1.
         21    1    1    2  504  502  0.66686776055E+02  0.60421044021E+02 -0.69738179588E+02  0.11384745212E+03  0.00000000000E+00 0.  1.
         21    1    1    2  505  501 -0.11893388958E+02  0.33568771912E+02  0.11682681059E+03  0.12213442930E+03  0.00000000000E+00 0. -1.
         21    1    1    2  506  505  0.39243037743E+02 -0.34038570826E+02 -0.32521468368E+02  0.61288548849E+02  0.00000000000E+00 0. -1.
<scales pt_clust_3="14000.00000" pt_clust_4="104.68610" pt_clust_5="35.61341" pt_clust_6="50.12622"></scales>
<clustering>
<clus scale="   35.613">  1  5  2 -1</clus>
<clus scale="   50.126">  2  6  1 -1</clus>
<clus scale="  104.686">  2  4  1 -1</clus>
<clus scale="   35.613">  1  3  2 -1</clus>
</clustering>
</event>
<event>
 6    0  0.5510638E+002  0.1296208E+03  0.7546771E-02  0.1228019E+00
         21   -1    0    0  505  501  0.00000000000E+00  0.00000000000E+00  0.55505751471E+03  0.55505751471E+03  0.00000000000E+00 0. -1.
         21   -1    0    0  503  502 -0.00000000000E+00 -0.00000000000E+00 -0.97784386840E+03  0.97784386840E+03  0.00000000000E+00 0.  1.
         21    1    1    2  503  501  0.53764829080E+02  0.12519072446E+03  0.78576757494E+02  0.15728217050E+03  0.00000000000E+00 0.  1.
         21    1    1    2  504  506 -0.52325519054E+02 -0.13921943160E+03  0.27688363660E+02  0.15128336181E+03  0.00000000000E+00 0.  1.
         21    1    1    2  505  504 -0.41755382806E+02 -0.23554629420E+02  0.34511731787E+03  0.34843119214E+03  0.00000000000E+00 0. -1.
         21    1    1    2  506  502  0.40316072780E+02  0.37583336555E+02 -0.87416879272E+03  0.87590465866E+03  0.00000000000E+00 0.  1.
<scales pt_clust_3="129.62079" pt_clust_4="14000.00000" pt_clust_5="47.94093" pt_clust_6="54.92290"></scales>
<clustering>
<clus scale="   47.941">  1  5  2 -1</clus>
<clus scale="   54.923">  2  6  1 -1</clus>
<clus scale="  129.621">  1  3  2 -1</clus>
<clus scale="   47.941">  1  3  2 -1</clus>
</clustering>
</event>
<event>
 6    0  0.5510638E+002  0.1178175E+03  0.7546771E-02  0.1246742E+00
         21   -1    0    0  505  501  0.00000000000E+00  0.00000000000E+00  0.42601063846E+03  0.42601063846E+03  0.00000000000E+00 0.  1.
         21   -1    0    0  504  502 -0.00000000000E+00 -0.00000000000E+00 -0.21247179375E+03  0.21247179375E+03  0.00000000000E+00 0. -1.
         21    1    1    2  503  502 -0.32742840527E+02  0.51814321645E+02 -0.28887162967E+02  0.67759026835E+02  0.00000000000E+00 0. -1.
         21    1    1    2  504  506  0.87574688183E+02 -0.13044509850E+03 -0.69186623822E+02  0.17167422244E+03  0.00000000000E+00 0. -1.
         21    1    1    2  505  503 -0.14340333342E+02  0.15808590351E+03  0.21904483605E+03  0.27051328664E+03  0.00000000000E+00 0.  1.
         21    1    1    2  506  501 -0.40491514314E+02 -0.79455126652E+02  0.92567795451E+02  0.12853589630E+03  0.00000000000E+00 0. -1.
<scales pt_clust_3="61.29288" pt_clust_4="117.81750" pt_clust_5="14000.00000" pt_clust_6="85.94294"></scales>
<clustering>
<clus scale="   61.293">  2  3  1 -1</clus>
<clus scale="   85.943">  1  6  2 -1</clus>
<clus scale="  117.818">  2  4  1 -1</clus>
<clus scale="   85.943">  1  3  2 -1</clus>
</clustering>
</event>
<event>
 6    0  0.5510638E+002  0.1488480E+03  0.7546771E-02  0.1201896E+00
         21   -1    0    0  506  501  0.00000000000E+00  0.00000000000E+00  0.12678985485E+03  0.12678985485E+03  0.00000000000E+00 0.  1.
         21   -1    0    0  505  502 -0.00000000000E+00 -0.00000000000E+00 -0.15981321419E+04  0.15981321419E+04  0.00000000000E+00 0. -1.
         21    1    1    2  503  504 -0.45026278367E+01 -0.71489220673E+02  0.24699558037E+02  0.75769720186E+02  0.00000000000E+00 0.  1.
         21    1    1    2  504  502 -0.30227923830E+02  0.10878799768E+02 -0.12115901720E+03  0.12534585399E+03  0.00000000000E+00 0.  1.
         21    1    1    2  505  501  0.76112586397E+02  0.12401045741E+03 -0.14253886936E+04  0.14327960941E+04  0.00000000000E+00 0. -1.
         21    1    1    2  506  503 -0.41382034730E+02 -0.63400036506E+02  0.50505865692E+02  0.91010328517E+02  0.00000000000E+00 0.  1.
<scales pt_clust_3="41.86758" pt_clust_4="32.12593" pt_clust_5="142.46584" pt_clust_6="41.86758"></scales>
<clustering>
<clus scale="   32.126">  2  4  1 -1</clus>
<clus scale="   41.868">  3  6 -1 -1</clus>
<clus scale="  142.466">  2  5  1 -1</clus>
<clus scale="  148.848">  1  3  2 -1</clus>
</clustering>
</event>
<event>
 6    0  0.5510638E+002  0.1645191E+03  0.7546771E-02  0.1183687E+00
         21   -1    0    0  506  501  0.00000000000E+00  0.00000000000E+00  0.12996839090E+03  0.12996839090E+03  0.00000000000E+00 0.  1.
         21   -1    0    0  504  502 -0.00000000000E+00 -0.00000000000E+00 -0.10804962876E+04  0.10804962876E+04  0.00000000000E+00 0.  1.
         21    1    1    2  503  502  0.11355909838E+03  0.18069459944E+03 -0.20325041740E+03  0.29471501365E+03  0.00000000000E+00 0.  1.
         21    1    1    2  504  501 -0.13296461238E+03 -0.39759992818E+02 -0.74641943448E+03  0.75921170785E+03  0.00000000000E+00 0.  1.
         21    1    1    2  505  503  0.28586480549E+02 -0.25162388285E+02  0.11410863094E+02  0.39756011507E+02  0.00000000000E+00 0.  1.
         21    1    1    2  506  505 -0.91809665550E+01 -0.11577221834E+03 -0.12268907879E+02  0.11678194546E+03  0.00000000000E+00 0.  1.
<scales pt_clust_3="151.00423" pt_clust_4="138.78201" pt_clust_5="37.39434" pt_clust_6="37.39434"></scales>
<clustering>
<clus scale="   37.394">  5  6 -1 -1</clus>
<clus scale="  138.782">  2  4  1 -1</clus>
<clus scale="  151.004">  2  3  1 -1</clus>
<clus scale="  164.519">  1  3  2 -1</clus>
</clustering>
</event>
<event>
 6    0  0.5510638E+002  0.1175482E+03  0.7546771E-02  0.1247197E+00
         21   -1    0    0  505  501  0.00000000000E+00  0.00000000000E+00  0.13531675906E+03  0.13531675906E+03  0.00000000000E+00 0.  1.
         21   -1    0    0  503  502 -0.00000000000E+00 -0.00000000000E+00 -0.78392845484E+03  0.78392845484E+03  0.00000000000E+00 0.  1.
         21    1    1    2  503  506 -0.29405095760E+02 -0.10613258715E+02 -0.47786377374E+03  0.47888525470E+03  0.00000000000E+00 0.  1.
         21    1    1    2  504  502  0.55968393224E+02  0.74308043898E+02 -0.74451555152E+02  0.11915192190E+03  0.00000000000E+00 0.  1.
         21    1    1    2  505  504  0.68611375841E+02 -0.12699768974E+03 -0.13783929050E+03  0.19958858710E+03  0.00000000000E+00 0.  1.
         21    1    1    2  506  501 -0.95174673306E+02  0.63302904561E+02  0.41542923616E+02  0.12161945020E+03  0.00000000000E+00 0.  1.
<scales pt_clust_3="31.26181" pt_clust_4="84.91030" pt_clust_5="117.54817" pt_clust_6="14000.00000"></scales>
<clustering>
<clus scale="   31.262">  2  3  1 -1</clus>
<clus scale="   84.910">  2  4  1 -1</clus>
<clus scale="  117.548">  2  5  1 -1</clus>
<clus scale="  117.548">  1  3  2 -1</clus>
</clustering>
</event>
<event>
 6    0  0.5510638E+002  0.1813477E+03  0.7546771E-02  0.1166505E+00
         21   -1    0    0  506  501  0.00000000000E+00  0.00000000000E+00  0.49653479581E+03  0.49653479581E+03  0.00000000000E+00 0.  1.
         21   -1    0    0  501  502 -0.00000000000E+00 -0.00000000000E+00 -0.77155320268E+03  0.77155320268E+03  0.00000000000E+00 0.  1.
         21    1    1    2  503  504  0.15828374713E+03 -0.85214923343E+02 -0.31056118555E+03  0.35883642197E+03  0.00000000000E+00 0.  1.
         21    1    1    2  504  502 -0.96738701601E+02 -0.96982831309E+02 -0.39854995796E+03  0.42143340512E+03  0.00000000000E+00 0.  1.
         21    1    1    2  505  503 -0.92922791518E+02  0.11712196363E+03  0.27272961408E+03  0.31102032401E+03  0.00000000000E+00 0. -1.
         21    1    1    2  506  505  0.31377745987E+02  0.65075791018E+02  0.16136312256E+03  0.17679784739E+03  0.00000000000E+00 0.  1.
<scales pt_clust_3="181.34766" pt_clust_4="134.60032" pt_clust_5="14000.00000" pt_clust_6="72.24556"></scales>
<clustering>
<clus scale="   72.246">  1  6  2 -1</clus>
<clus scale="  134.600">  2  4  1 -1</clus>
<clus scale="  181.348">  2  3  1 -1</clus>
<clus scale="   72.246">  1  3  2 -1</clus>
</clustering>
</event>
<event>
 6    0  0.5510638E+002  0.2329589E+03  0.7546771E-02  0.1124574E+00
         21   -1    0    0  506  501  0.00000000000E+00  0.00000000000E+00  0.13059707330E+03  0.13059707330E+03  0.00000000000E+00 0.  1.
         21   -1    0    0  505  502 -0.00000000000E+00 -0.00000000000E+00 -0.77059744565E+03  0.77059744565E+03  0.00000000000E+00 0.  1.
         21    1    1    2  503  504  0.82981775645E+02  0.11778552810E+01 -0.36981771815E+02  0.90857106925E+02  0.00000000000E+00 0.  1.
         21    1    1    2  504  502 -0.13847199014E+03  0.20424145550E+03 -0.36894109950E+03  0.44385425434E+03  0.00000000000E+00 0.  1.
         21    1    1    2  505  501  0.27335825479E+02 -0.22897246874E+03 -0.23569679317E+03  0.32974022670E+03  0.00000000000E+00 0.  1.
         21    1    1    2  506  503  0.28154389013E+02  0.23553157962E+02  0.16192921298E+01  0.36742930990E+02  0.00000000000E+00 0. -1.
<scales pt_clust_3="122.60206" pt_clust_4="232.95892" pt_clust_5="14000.00000" pt_clust_6="30.24679"></scales>
<clustering>
<clus scale="   30.247">  3  6 -1 -1</clus>
<clus scale="  122.602">  1  3  2 -1</clus>
<clus scale="  232.959">  2  4  1 -1</clus>
<clus scale="  122.602">  1  3  2 -1</clus>
</clustering>
</event>
<event>
 6    0  0.5510638E+002  0.6277351E+03  0.7546771E-02  0.9849479E-01
         21   -1    0    0  506  501  0.00000000000E+00  0.00000000000E+00  0.45427595058E+03  0.45427595058E+03  0.00000000000E+00 0. -1.
         21   -1    0    0  504  502 -0.00000000000E+00 -0.00000000000E+00 -0.29447641672E+04  0.29447641672E+04  0.00000000000E+00 0. -1.
         21    1    1    2  503  505  0.64119352050E+02  0.11987799225E+02  0.19164460907E+02  0.67987316459E+02  0.00000000000E+00 0.  1.
         21    1    1    2  504  503 -0.62263751051E+02 -0.22671572368E+02 -0.20753291377E+04  0.20763867185E+04  0.00000000000E+00 0. -1.
         21    1    1    2  505  501  0.55609518151E+03 -0.16014710328E+03 -0.11684818751E+03  0.59037483391E+03  0.00000000000E+00 0. -1.
         21    1    1    2  506  502 -0.55795078251E+03  0.17083087642E+03 -0.31747535224E+03  0.66429124887E+03  0.00000000000E+00 0. -1.
<scales pt_clust_3="44.13556" pt_clust_4="66.26292" pt_clust_5="44.13556" pt_clust_6="613.81593"></scales>
<clustering>
<clus scale="   44.136">  3  5 -1 -1</clus>
<clus scale="   66.263">  2  4  1 -1</clus>
<clus scale="  613.816">  2  6  1 -1</clus>
<clus scale="  627.735">  1  3  2 -1</clus>
</clustering>
</event>
<event>
 6    0  0.8960160E+002  0.1040037E+03  0.7546771E-02  0.1272095E+00
         21   -1    0    0  506  501  0.00000000000E+00  0.00000000000E+00  0.18771606668E+03  0.18771606668E+03  0.00000000000E+00 0.  1.
         21   -1    0    0  505  502 -0.00000000000E+00 -0.00000000000E+00 -0.10460000181E+04  0.10460000181E+04  0.00000000000E+00 0.  1.
         21    1    1    2  503  502 -0.32166834272E+02  0.15083146772E+02 -0.93806906041E+02  0.10030923270E+03  0.00000000000E+00 0. -1.
         21    1    1    2  504  501 -0.20899161926E+02 -0.21678225274E+02 -0.24408729847E+02  0.38762178899E+02  0.00000000000E+00 0.  1.
         21    1    1    2  505  504 -0.72912362316E+02 -0.14361073611E+02 -0.89261152663E+03  0.89569960952E+03  0.00000000000E+00 0.  1.
         21    1    1    2  506  503  0.12597835851E+03  0.20956152114E+02  0.15254321107E+03  0.19894506369E+03  0.00000000000E+00 0.  1.
<scales pt_clust_3="35.70625" pt_clust_4="30.11180" pt_clust_5="14000.00000" pt_clust_6="104.00367"></scales>
<clustering>
<clus scale="   30.112">  1  4  2 -1</clus>
<clus scale="   35.706">  2  3  1 -1</clus>
<clus scale="  104.004">  1  6  2 -1</clus>
<clus scale="   30.112">  1  3  2 -1</clus>
</clustering>
</event>
<event>
 6    0  0.5510638E+002  0.1658802E+03  0.7546771E-02  0.1182214E+00
         21   -1    0    0  503  501  0.00000000000E+00  0.00000000000E+00  0.74082876036E+03  0.74082876036E+03  0.00000000000E+00 0.  1.
         21   -1    0    0  506  502 -0.00000000000E+00 -0.00000000000E+00 -0.31354159322E+03  0.31354159322E+03  0.00000000000E+00 0.  1.
         21    1    1    2  503  502  0.18622313789E+03 -0.15780321152E+03 -0.41285344538E+02  0.24755886234E+03  0.00000000000E+00 0.  1.
         21    1    1    2  504  505 -0.51716528216E+02  0.41585854674E+02  0.40842855063E+03  0.41378480345E+03  0.00000000000E+00 0.  1.
         21    1    1    2  505  501 -0.39475169153E+02  0.69539035723E+02  0.20128595611E+03  0.21658717089E+03  0.00000000000E+00 0. -1.
         21    1    1    2  506  504 -0.95031440519E+02  0.46678321122E+02 -0.14114199506E+03  0.17643951689E+03  0.00000000000E+00 0.  1.
<scales pt_clust_3="150.21268" pt_clust_4="64.11000" pt_clust_5="64.11000" pt_clust_6="105.87653"></scales>
<clustering>
<clus scale="   64.110">  4  5 -1 -1</clus>
<clus scale="  105.877">  2  6  1 -1</clus>
<clus scale="  150.213">  2  3  1 -1</clus>
<clus scale="  165.880">  1  3  2 -1</clus>
</clustering>
</event>
<event>
 6    0  0.5510638E+002  0.9683096E+02  0.7546771E-02  0.1287105E+00
         21   -1    0    0  505  501  0.00000000000E+00  0.00000000000E+00  0.23990840852E+03  0.23990840852E+03  0.00000000000E+00 0.  1.
         21   -1    0    0  504  502 -0.00000000000E+00 -0.00000000000E+00 -0.10698476904E+04  0.10698476904E+04  0.00000000000E+00 0.  1.
         21    1    1    2  503  506  0.39421748262E+02 -0.15658356764E+02 -0.57025234522E+03  0.57182776743E+03  0.00000000000E+00 0.  1.
         21    1    1    2  504  501  0.45438799060E+02 -0.76331369235E+02  0.98970638578E+02  0.13299003606E+03  0.00000000000E+00 0.  1.
         21    1    1    2  505  503 -0.10327563531E+03  0.59426294386E+02  0.93362157614E+02  0.15137316072E+03  0.00000000000E+00 0.  1.
         21    1    1    2  506  502  0.18415087985E+02  0.32563431613E+02 -0.45201973285E+03  0.45356513472E+03  0.00000000000E+00 0.  1.
<scales pt_clust_3="58.28990" pt_clust_4="96.83096" pt_clust_5="14000.00000" pt_clust_6="37.40979"></scales>
<clustering>
<clus scale="   37.410">  2  6  1 -1</clus>
<clus scale="   58.290">  2  3  1 -1</clus>
<clus scale="   96.831">  1  4  2 -1</clus>
<clus scale="   96.831">  1  3  2 -1</clus>
</clustering>
</event>
<event>
 6    0  0.5510638E+002  0.9480254E+02  0.7546771E-02  0.1291621E+00
         21   -1    0    0  506  501  0.00000000000E+00  0.00000000000E+00  0.13473734288E+04  0.13473734288E+04  0.00000000000E+00 0. -1.
         21   -1    0    0  505  502 -0.00000000000E+00 -0.00000000000E+00 -0.27321606059E+02  0.27321606059E+02  0.00000000000E+00 0. -1.
         21    1    1    2  503  504  0.68687011265E+02  0.48875738800E+02  0.30560747089E+03  0.31702156019E+03  0.00000000000E+00 0. -1.
         21    1    1    2  504  501 -0.97982215264E+02 -0.29188761005E+02  0.83670820680E+03  0.84293126743E+03  0.00000000000E+00 0. -1.
         21    1    1    2  505  503 -0.12142752997E+02  0.35822531572E+02  0.11579747746E+03  0.12181853719E+03  0.00000000000E+00 0. -1.
         21    1    1    2  506  502  0.41437956996E+02 -0.55509509367E+02  0.61938667554E+02  0.92923670013E+02  0.00000000000E+00 0. -1.
<scales pt_clust_3="94.80254" pt_clust_4="14000.00000" pt_clust_5="37.82460" pt_clust_6="46.94402"></scales>
<clustering>
<clus scale="   37.825">  2  5  1 -1</clus>
<clus scale="   46.944">  2  6  1 -1</clus>
<clus scale="   94.803">  2  3  1 -1</clus>
<clus scale="   94.803">  1  3  2 -1</clus>
</clustering>
</event>
<event>
 6    0  0.5510638E+002  0.7205421E+02  0.7546771E-02  0.1353244E+00
         21   -1    0    0  505  501  0.00000000000E+00  0.00000000000E+00  0.30852169794E+03  0.30852169794E+03  0.00000000000E+00 0. -1.
         21   -1    0    0  504  502 -0.00000000000E+00 -0.00000000000E+00 -0.41296994602E+03  0.41296994602E+03  0.00000000000E+00 0.  1.
         21    1    1    2  503  502 -0.32925290376E+02 -0.18606334532E+02 -0.56260350188E+01  0.38235097765E+02  0.00000000000E+00 0.  1.
         21    1    1    2  504  501  0.89995127175E+02  0.64372349999E+02 -0.32268928014E+03  0.34113237002E+03  0.00000000000E+00 0.  1.
         21    1    1    2  505  506 -0.61776671710E+02  0.32573340143E+02  0.24987125582E+03  0.25944753639E+03  0.00000000000E+00 0. -1.
         21    1    1    2  506  503  0.47068349109E+01 -0.78339355610E+02 -0.26004188740E+02  0.82676639773E+02  0.00000000000E+00 0.  1.
<scales pt_clust_3="37.81892" pt_clust_4="14000.00000" pt_clust_5="70.08968" pt_clust_6="72.05421"></scales>
<clustering>
<clus scale="   37.819">  2  3  1 -1</clus>
<clus scale="   70.090">  1  5  2 -1</clus>
<clus scale="   72.054">  1  6  2 -1</clus>
<clus scale="   70.090">  1  3  2 -1</clus>
</clustering>
</event>
<event>
 6    0  0.5510638E+002  0.1113564E+03  0.7546771E-02  0.1258078E+00
         21   -1    0    0  504  501  0.00000000000E+00  0.00000000000E+00  0.17676268110E+03  0.17676268110E+03  0.00000000000E+00 0. -1.
         21   -1    0    0  505  502 -0.00000000000E+00 -0.00000000000E+00 -0.20115457009E+04  0.20115457009E+04  0.00000000000E+00 0. -1.
         21    1    1    2  503  501 -0.59465096741E+01  0.31691945537E+02  0.58612592666E+01  0.32773384772E+02  0.00000000000E+00 0. -1.
         21    1    1    2  504  502 -0.36525049117E+02  0.93836871581E+01  0.14597518509E+03  0.15076766052E+03  0.00000000000E+00 0. -1.
         21    1    1    2  505  506  0.20160256267E+02 -0.12055008510E+03 -0.17481032403E+04  0.17523708790E+04  0.00000000000E+00 0. -1.
         21    1    1    2  506  503  0.22311302524E+02  0.79474452401E+02 -0.23851622386E+03  0.25239645768E+03  0.00000000000E+00 0. -1.
<scales pt_clust_3="32.24501" pt_clust_4="57.57895" pt_clust_5="111.35640" pt_clust_6="14000.00000"></scales>
<clustering>
<clus scale="   32.245">  1  3  2 -1</clus>
<clus scale="   57.579">  1  4  2 -1</clus>
<clus scale="  111.356">  2  5  1 -1</clus>
<clus scale="   32.245">  1  3  2 -1</clus>
</clustering>
</event>
<event>
 6    0  0.5510638E+002  0.1684253E+03  0.7546771E-02  0.1179500E+00
         21   -1    0    0  504  501  0.00000000000E+00  0.00000000000E+00  0.20389925752E+03  0.20389925752E+03  0.00000000000E+00 0.  1.
         21   -1    0    0  503  502 -0.00000000000E+00 -0.00000000000E+00 -0.27034000825E+03  0.27034000825E+03  0.00000000000E+00 0.  1.
         21    1    1    2  503  505 -0.65551714360E+02  0.11806452016E+02 -0.87757673886E+02  0.11017181532E+03  0.00000000000E+00 0.  1.
         21    1    1    2  504  506  0.44318087738E+02  0.48662837551E+02  0.54908948084E+02  0.85715560075E+02  0.00000000000E+00 0. -1.
         21    1    1    2  505  501 -0.86872559599E+02 -0.98735211841E+02 -0.80784327873E+02  0.15434244814E+03  0.00000000000E+00 0.  1.
         21    1    1    2  506  502  0.10810618622E+03  0.38265922274E+02  0.47192302942E+02  0.12400944224E+03  0.00000000000E+00 0.  1.
<scales pt_clust_3="66.60645" pt_clust_4="39.87362" pt_clust_5="159.99043" pt_clust_6="39.87362"></scales>
<clustering>
<clus scale="   39.874">  4  6 -1 -1</clus>
<clus scale="   66.606">  2  3  1 -1</clus>
<clus scale="  159.990">  2  5  1 -1</clus>
<clus scale="  168.425">  1  3  2 -1</clus>
</clustering>
</event>
<event>
 6    0  0.5510638E+002  0.7605233E+02  0.7546771E-02  0.1340643E+00
         21   -1    0    0  504  501  0.00000000000E+00  0.00000000000E+00  0.50894697296E+03  0.50894697296E+03  0.00000000000E+00 0.  1.
         21   -1    0    0  505  502 -0.00000000000E+00 -0.00000000000E+00 -0.27420847281E+03  0.27420847281E+03  0.00000000000E+00 0.  1.
         21    1    1    2  503  506  0.11991707219E+03 -0.20960359869E+02  0.24364908288E+03  0.27236797991E+03  0.00000000000E+00 0.  1.
         21    1    1    2  504  503 -0.44699583669E+02  0.17173685936E+02  0.23051682360E+03  0.23543787765E+03  0.00000000000E+00 0. -1.
         21    1    1    2  505  501 -0.27920537154E+02  0.57669598225E+02 -0.12075171903E+03  0.13669790270E+03  0.00000000000E+00 0.  1.
         21    1    1    2  506  502 -0.47296951368E+02 -0.53882924292E+02 -0.11867568730E+03  0.13865168551E+03  0.00000000000E+00 0.  1.
<scales pt_clust_3="76.05233" pt_clust_4="47.88516" pt_clust_5="65.08913" pt_clust_6="14000.00000"></scales>
<clustering>
<clus scale="   47.885">  1  4  2 -1</clus>
<clus scale="   65.089">  2  5  1 -1</clus>
<clus scale="   76.052">  1  3  2 -1</clus>
<clus scale="   47.885">  1  3  2 -1</clus>
</clustering>
</event>
<event>
 6    0  0.5510638E+002  0.1445990E+03  0.7546771E-02  0.1207271E+00
         21   -1    0    0  505  501  0.00000000000E+00  0.00000000000E+00  0.32199918061E+03  0.32199918061E+03  0.00000000000E+00 0. -1.
         21   -1    0    0  503  502 -0.00000000000E+00 -0.00000000000E+00 -0.16336695625E+03  0.16336695625E+03  0.00000000000E+00 0. -1.
         21    1    1    2  503  504  0.32807035907E+02  0.29528686120E+02  0.25481398617E+02  0.50966131739E+02  0.00000000000E+00 0. -1.
         21    1    1    2  504  501  0.12124152216E+03  0.33079942415E+02  0.16727019256E+03  0.20922023469E+03  0.00000000000E+00 0. -1.
         21    1    1    2  505  506 -0.23980936006E+02 -0.56289464757E+02  0.42121378370E+02  0.74281893152E+02  0.00000000000E+00 0. -1.
         21    1    1    2  506  502 -0.13006762206E+03 -0.63191637786E+01 -0.76240745182E+02  0.15089787727E+03  0.00000000000E+00 0. -1.
<scales pt_clust_3="31.87582" pt_clust_4="31.87582" pt_clust_5="61.18488" pt_clust_6="134.22329"></scales>
<clustering>
<clus scale="   31.876">  3  4 -1 -1</clus>
<clus scale="   61.185">  1  5  2 -1</clus>
<clus scale="  134.223">  2  6  1 -1</clus>
<clus scale="   61.185">  1  3  2 -1</clus>
</clustering>
</event>
<event>
 6    0  0.5510638E+002  0.1936027E+03  0.7546771E-02  0.1155252E+00
         21   -1    0    0  506  501  0.00000000000E+00  0.00000000000E+00  0.15695264406E+03  0.15695264406E+03  0.00000000000E+00 0.  1.
         21   -1    0    0  504  502 -0.00000000000E+00 -0.00000000000E+00 -0.28235163339E+03  0.28235163339E+03  0.00000000000E+00 0.  1.
         21    1    1    2  503  505 -0.95222454727E+02 -0.50149298331E+02 -0.28829918966E+02  0.11141558345E+03  0.00000000000E+00 0.  1.
         21    1    1    2  504  501 -0.71439907204E+01  0.31225290805E+02 -0.27627847915E+02  0.42300749044E+02  0.00000000000E+00 0. -1.
         21    1    1    2  505  502  0.18780581329E+03  0.25804469593E+02 -0.62595547409E+02  0.19963741310E+03  0.00000000000E+00 0.  1.
         21    1    1    2  506  503 -0.85439367840E+02 -0.68804620670E+01 -0.63456750392E+01  0.85950531859E+02  0.00000000000E+00 0.  1.
<scales pt_clust_3="38.71619" pt_clust_4="32.03210" pt_clust_5="188.83068" pt_clust_6="38.71619"></scales>
<clustering>
<clus scale="   32.032">  2  4  1 -1</clus>
<clus scale="   38.716">  3  6 -1 -1</clus>
<clus scale="  188.831">  2  5  1 -1</clus>
<clus scale="  193.603">  1  3  2 -1</clus>
</clustering>
</event>
<event>
 6    0  0.5510638E+002  0.1466478E+03  0.7546771E-02  0.1204654E+00
         21   -1    0    0  506  501  0.00000000000E+00  0.00000000000E+00  0.97572925287E+02  0.97572925287E+02  0.00000000000E+00 0. -1.
         21   -1    0    0  505  502 -0.00000000000E+00 -0.00000000000E+00 -0.57041308329E+03  0.57041308329E+03  0.00000000000E+00 0. -1.
         21    1    1    2  503  501 -0.54897668036E+01 -0.90351955022E+02  0.18335022626E+02  0.92356842576E+02  0.00000000000E+00 0. -1.
         21    1    1    2  504  503 -0.24426124254E+02 -0.52889116759E+02 -0.14182286299E+02  0.59958581223E+02  0.00000000000E+00 0. -1.
         21    1    1    2  505  504 -0.31625488554E+02  0.47866048830E+02 -0.58019601355E+02  0.81594143774E+02  0.00000000000E+00 0. -1.
         21    1    1    2  506  502  0.61541379611E+02  0.95375022951E+02 -0.41897329297E+03  0.43407644100E+03  0.00000000000E+00 0. -1.
<scales pt_clust_3="33.74933" pt_clust_4="33.74933" pt_clust_5="57.37012" pt_clust_6="140.48415"></scales>
<clustering>
<clus scale="   33.749">  3  4 -1 -1</clus>
<clus scale="   57.370">  2  5  1 -1</clus>
<clus scale="  140.484">  2  6  1 -1</clus>
<clus scale="  146.648">  1  3  2 -1</clus>
</clustering>
</event>
<event>
 6    0  0.5510638E+002  0.1457511E+03  0.7546771E-02  0.1205793E+00
         21   -1    0    0  505  501  0.00000000000E+00  0.00000000000E+00  0.95429929542E+03  0.95429929542E+03  0.00000000000E+00 0.  1.
         21   -1    0    0  504  502 -0.00000000000E+00 -0.00000000000E+00 -0.71922451613E+03  0.71922451613E+03  0.00000000000E+00 0. -1.
         21    1    1    2  503  502  0.92317309878E+01  0.54280550774E+02 -0.58838878386E+03  0.59095935903E+03  0.00000000000E+00 0. -1.
         21    1    1    2  504  501 -0.67385341415E+02  0.70763535850E+02 -0.10441831779E+03  0.14300855685E+03  0.00000000000E+00 0. -1.
         21    1    1    2  505  506  0.18662877818E+02 -0.97223954535E+02  0.59271705637E+03  0.60092787359E+03  0.00000000000E+00 0.  1.
         21    1    1    2  506  503  0.39490732609E+02 -0.27820132088E+02  0.33516482456E+03  0.33862802208E+03  0.00000000000E+00 0.  1.
<scales pt_clust_3="55.05999" pt_clust_4="135.87041" pt_clust_5="36.84794" pt_clust_6="36.84794"></scales>
<clustering>
<clus scale="   36.848">  5  6 -1 -1</clus>
<clus scale="   55.060">  2  3  1 -1</clus>
<clus scale="  135.870">  2  4  1 -1</clus>
<clus scale="  145.751">  1  3  2 -1</clus>
</clustering>
</event>
<event>
 6    0  0.5510638E+002  0.1996939E+03  0.7546771E-02  0.1149998E+00
         21   -1    0    0  505  501  0.00000000000E+00  0.00000000000E+00  0.70112715680E+03  0.70112715680E+03  0.00000000000E+00 0. -1.
         21   -1    0    0  506  502 -0.00000000000E+00 -0.00000000000E+00 -0.10183440941E+03  0.10183440941E+03  0.00000000000E+00 0. -1.
         21    1    1    2  503  504 -0.15199936204E+03 -0.33312182263E+02  0.13560647687E+03  0.20640403125E+03  0.00000000000E+00 0. -1.
         21    1    1    2  504  502  0.11630882772E+02  0.34115537794E+02 -0.20523949872E+02  0.41477462210E+02  0.00000000000E+00 0. -1.
         21    1    1    2  505  503 -0.48382172916E+02  0.13824460190E+02  0.20721823837E+02  0.54418235351E+02  0.00000000000E+00 0. -1.
         21    1    1    2  506  501  0.18875065218E+03 -0.14627815721E+02  0.46348839655E+03  0.50066183740E+03  0.00000000000E+00 0. -1.
<scales pt_clust_3="31.44201" pt_clust_4="36.04369" pt_clust_5="31.44201" pt_clust_6="191.88655"></scales>
<clustering>
<clus scale="   31.442">  3  5 -1 -1</clus>
<clus scale="   36.044">  2  4  1 -1</clus>
<clus scale="  191.887">  1  6  2 -1</clus>
<clus scale="  191.887">  1  3  2 -1</clus>
</clustering>
</event>
<event>
 6    0  0.5510638E+002  0.9257411E+02  0.7546771E-02  0.1296735E+00
         21   -1    0    0  503  501  0.00000000000E+00  0.00000000000E+00  0.10005004026E+04  0.10005004026E+04  0.00000000000E+00 0. -1.
         21   -1    0    0  506  502 -0.00000000000E+00 -0.00000000000E+00 -0.33765838252E+03  0.33765838252E+03  0.00000000000E+00 0. -1.
         21    1    1    2  503  505 -0.22394174780E+02 -0.28181750337E+02  0.10911860613E+03  0.11490248178E+03  0.00000000000E+00 0.  1.
         21    1    1    2  504  501 -0.37691862706E+01 -0.61280492490E+02  0.84377263299E+03  0.84600340526E+03  0.00000000000E+00 0. -1.
         21    1    1    2  505  502 -0.62418978247E+01  0.11286761850E+03 -0.33915013740E+02  0.11801817127E+03  0.00000000000E+00 0. -1.
         21    1    1    2  506  504  0.32405258875E+02 -0.23405375671E+02 -0.25613420534E+03  0.25923472676E+03  0.00000000000E+00 0. -1.
<scales pt_clust_3="35.99597" pt_clust_4="92.57411" pt_clust_5="14000.00000" pt_clust_6="39.97106"></scales>
<clustering>
<clus scale="   35.996">  1  3  2 -1</clus>
<clus scale="   39.971">  2  6  1 -1</clus>
<clus scale="   92.574">  1  4  2 -1</clus>
<clus scale="   35.996">  1  3  2 -1</clus>
</clustering>
</event>
<event>
 6    0  0.5510638E+002  0.7234881E+02  0.7546771E-02  0.1352283E+00
         21   -1    0    0  503  501  0.00000000000E+00  0.00000000000E+00  0.22152575510E+04  0.22152575510E+04  0.00000000000E+00 0. -1.
         21   -1    0    0  504  502 -0.00000000000E+00 -0.00000000000E+00 -0.27010709842E+03  0.27010709842E+03  0.00000000000E+00 0.  1.
         21    1    1    2  503  502 -0.17895545354E+02 -0.26326482022E+02  0.79055097756E+03  0.79119162175E+03  0.00000000000E+00 0.  1.
         21    1    1    2  504  505 -0.14747217948E+02  0.44560236586E+02 -0.21161782548E+03  0.21676069565E+03  0.00000000000E+00 0.  1.
         21    1    1    2  505  506  0.31743563227E+02 -0.11265036035E+03  0.95097772476E+01  0.11742313808E+03  0.00000000000E+00 0.  1.
         21    1    1    2  506  501  0.89920007372E+00  0.94416605782E+02  0.13567075232E+04  0.13599891939E+04  0.00000000000E+00 0. -1.
<scales pt_clust_3="31.83291" pt_clust_4="46.90219" pt_clust_5="14000.00000" pt_clust_6="72.34881"></scales>
<clustering>
<clus scale="   31.833">  1  3  2 -1</clus>
<clus scale="   46.902">  2  4  1 -1</clus>
<clus scale="   72.349">  1  6  2 -1</clus>
<clus scale="   31.833">  1  3  2 -1</clus>
</clustering>
</event>
<event>
 6    0  0.5510638E+002  0.1467569E+03  0.7546771E-02  0.1204516E+00
         21   -1    0    0  503  501  0.00000000000E+00  0.00000000000E+00  0.13679174858E+04  0.13679174858E+04  0.00000000000E+00 0.  1.
         21   -1    0    0  506  502 -0.00000000000E+00 -0.00000000000E+00 -0.14553798608E+03  0.14553798608E+03  0.00000000000E+00 0.  1.
         21    1    1    2  503  504  0.35911895172E+02  0.59366937969E+02  0.23601180270E+03  0.24599932632E+03  0.00000000000E+00 0.  1.
         21    1    1    2  504  502 -0.18393052752E+03 -0.36581106512E+02 -0.36041550842E+02  0.19096494362E+03  0.00000000000E+00 0.  1.
         21    1    1    2  505  501  0.10982739478E+03 -0.42000237910E+02  0.10268030037E+04  0.10335136598E+04  0.00000000000E+00 0.  1.
         21    1    1    2  506  505  0.38191237558E+02  0.19214406454E+02 -0.43937557800E+01  0.42977542175E+02  0.00000000000E+00 0. -1.
<scales pt_clust_3="70.87369" pt_clust_4="146.75689" pt_clust_5="14000.00000" pt_clust_6="42.75236"></scales>
<clustering>
<clus scale="   42.752">  2  6  1 -1</clus>
<clus scale="   70.874">  1  3  2 -1</clus>
<clus scale="  146.757">  2  4  1 -1</clus>
<clus scale="   70.874">  1  3  2 -1</clus>
</clustering>
</event>
<event>
 6    0  0.5510638E+002  0.1002862E+03  0.7546771E-02  0.1279695E+00
         21   -1    0    0  505  501  0.00000000000E+00  0.00000000000E+00  0.21617963580E+03  0.21617963580E+03  0.00000000000E+00 0. -1.
         21   -1    0    0  506  502 -0.00000000000E+00 -0.00000000000E+00 -0.31703233867E+03  0.31703233867E+03  0.00000000000E+00 0.  1.
         21    1    1    2  503  501  0.25226986571E-01 -0.37070521834E+02  0.29375381241E+02  0.47298385263E+02  0.00000000000E+00 0. -1.
         21    1    1    2  504  502  0.11199452187E+03  0.40192759775E+02 -0.24121373808E+03  0.26896523624E+03  0.00000000000E+00 0.  1.
         21    1    1    2  505  504 -0.83464361625E+02 -0.20145837356E+02  0.14555187640E+03  0.16898965396E+03  0.00000000000E+00 0. -1.
         21    1    1    2  506  503 -0.28555387231E+02  0.17023599415E+02 -0.34566222428E+02  0.47958699001E+02  0.00000000000E+00 0.  1.
<scales pt_clust_3="36.52847" pt_clust_4="100.28622" pt_clust_5="14000.00000" pt_clust_6="33.24475"></scales>
<clustering>
<clus scale="   33.245">  2  6  1 -1</clus>
<clus scale="   36.528">  1  3  2 -1</clus>
<clus scale="  100.286">  2  4  1 -1</clus>
<clus scale="   36.528">  1  3  2 -1</clus>
</clustering>
</event>
<event>
 6    0  0.5510638E+002  0.1157701E+03  0.7546771E-02  0.1250243E+00
         21   -1    0    0  504  501  0.00000000000E+00  0.00000000000E+00  0.12084207777E+03  0.12084207777E+03  0.00000000000E+00 0.  1.
         21   -1    0    0  506  502 -0.00000000000E+00 -0.00000000000E+00 -0.41248010311E+03  0.41248010311E+03  0.00000000000E+00 0.  1.
         21    1    1    2  503  502 -0.72952289920E+01 -0.92659901120E+02 -0.39954390086E+02  0.10117030656E+03  0.00000000000E+00 0.  1.
         21    1    1    2  504  503 -0.11314604047E+03  0.95807813820E+02 -0.76428432859E+02  0.16680068649E+03  0.00000000000E+00 0.  1.
         21    1    1    2  505  501  0.87663083333E+02 -0.48119629695E+02 -0.22121229524E+02  0.10241905944E+03  0.00000000000E+00 0.  1.
         21    1    1    2  506  505  0.32778186132E+02  0.44971716995E+02 -0.15313397287E+03  0.16293212839E+03  0.00000000000E+00 0.  1.
<scales pt_clust_3="80.20859" pt_clust_4="14000.00000" pt_clust_5="115.77007" pt_clust_6="55.64948"></scales>
<clustering>
<clus scale="   55.649">  2  6  1 -1</clus>
<clus scale="   80.209">  2  3  1 -1</clus>
<clus scale="  115.770">  1  5  2 -1</clus>
<clus scale="  115.770">  1  3  2 -1</clus>
</clustering>
</event>
<event>
 6    0  0.5510638E+002  0.2298984E+03  0.7546771E-02  0.1126711E+00
         21   -1    0    0  506  501  0.00000000000E+00  0.00000000000E+00  0.24113313976E+04  0.24113313976E+04  0.00000000000E+00 0. -1.
         21   -1    0    0  504  502 -0.00000000000E+00 -0.00000000000E+00 -0.66020989827E+02  0.66020989827E+02  0.00000000000E+00 0. -1.
         21    1    1    2  503  505  0.16159163880E+03 -0.13708718061E+03  0.11306220662E+04  0.11503090929E+04  0.00000000000E+00 0. -1.
         21    1    1    2  504  501 -0.24424097991E+03  0.11659998658E+03  0.45254982203E+03  0.52730499197E+03  0.00000000000E+00 0. -1.
         21    1    1    2  505  502  0.45525918255E+02 -0.14076190505E+02  0.13699518110E+02  0.49582508695E+02  0.00000000000E+00 0. -1.
         21    1    1    2  506  503  0.37123422847E+02  0.34563384534E+02  0.74843900150E+03  0.75015579384E+03  0.00000000000E+00 0. -1.
<scales pt_clust_3="229.89841" pt_clust_4="14000.00000" pt_clust_5="47.65237" pt_clust_6="51.15150"></scales>
<clustering>
<clus scale="   47.652">  2  5  1 -1</clus>
<clus scale="   51.151">  1  6  2 -1</clus>
<clus scale="  229.898">  1  3  2 -1</clus>
<clus scale="   51.151">  1  3  2 -1</clus>
</clustering>
</event>
<event>
 6    0  0.5510638E+002  0.9626652E+02  0.7546771E-02  0.1288349E+00
         21   -1    0    0  506  501  0.00000000000E+00  0.00000000000E+00  0.26862017048E+02  0.26862017048E+02  0.00000000000E+00 0.  1.
         21   -1    0    0  505  502 -0.00000000000E+00 -0.00000000000E+00 -0.10083730205E+04  0.10083730205E+04  0.00000000000E+00 0.  1.
         21    1    1    2  503  501  0.11963591982E+03  0.22293356916E-01 -0.51397626371E+03  0.52771616752E+03  0.00000000000E+00 0.  1.
         21    1    1    2  504  502 -0.52734760342E+02  0.28534575965E+02 -0.97595210780E+02  0.11454257785E+03  0.00000000000E+00 0.  1.
         21    1    1    2  505  503 -0.65680314137E+02 -0.60335645307E+02 -0.33044565060E+03  0.34226980842E+03  0.00000000000E+00 0.  1.
         21    1    1    2  506  504 -0.12208453449E+01  0.31778775985E+02 -0.39493878395E+02  0.50706483778E+02  0.00000000000E+00 0.  1.
<scales pt_clust_3="96.26652" pt_clust_4="67.30704" pt_clust_5="14000.00000" pt_clust_6="31.80222"></scales>
<clustering>
<clus scale="   31.802">  1  6  2 -1</clus>
<clus scale="   67.307">  1  4  2 -1</clus>
<clus scale="   96.267">  1  3  2 -1</clus>
<clus scale="   31.802">  1  3  2 -1</clus>
</clustering>
</event>
<event>
 6    0  0.5510638E+002  0.7495488E+02  0.7546771E-02  0.1344011E+00
         21   -1    0    0  504  501  0.00000000000E+00  0.00000000000E+00  0.72653294937E+03  0.72653294937E+03  0.00000000000E+00 0.  1.
         21   -1    0    0  506  502 -0.00000000000E+00 -0.00000000000E+00 -0.47767729288E+02  0.47767729288E+02  0.00000000000E+00 0.  1.
         21    1    1    2  503  505 -0.62381883106E+02  0.12567299074E+02  0.19771808268E+02  0.66636031905E+02  0.00000000000E+00 0.  1.
         21    1    1    2  504  503 -0.45069821995E+02  0.31164827454E+02  0.15390253510E+03  0.16336623163E+03  0.00000000000E+00 0. -1.
         21    1    1    2  505  502 -0.96275176507E+01 -0.31649555120E+02  0.87867551559E+01  0.34228504226E+02  0.00000000000E+00 0.  1.
         21    1    1    2  506  501  0.11707922275E+03 -0.12082571408E+02  0.49630412155E+03  0.51006991090E+03  0.00000000000E+00 0.  1.
<scales pt_clust_3="74.95488" pt_clust_4="53.60325" pt_clust_5="33.08147" pt_clust_6="14000.00000"></scales>
<clustering>
<clus scale="   33.081">  2  5  1 -1</clus>
<clus scale="   53.603">  1  4  2 -1</clus>
<clus scale="   74.955">  2  3  1 -1</clus>
<clus scale="   53.603">  1  3  2 -1</clus>
</clustering>
</event>
<event>
 6    0  0.5510638E+002  0.9328272E+02  0.7546771E-02  0.1295091E+00
         21   -1    0    0  505  501  0.00000000000E+00  0.00000000000E+00  0.56311910001E+03  0.56311910001E+03  0.00000000000E+00 0. -1.
         21   -1    0    0  501  502 -0.00000000000E+00 -0.00000000000E+00 -0.35202856012E+03  0.35202856012E+03  0.00000000000E+00 0.  1.
         21    1    1    2  503  504 -0.10745032416E+03 -0.59526334342E+02  0.10568567732E+03  0.16204449708E+03  0.00000000000E+00 0.  1.
         21    1    1    2  504  502  0.55589877965E+02 -0.46953962712E+00 -0.31683664523E+03  0.32167672399E+03  0.00000000000E+00 0.  1.
         21    1    1    2  505  506  0.39879150559E+02  0.16070084208E+02  0.20016676020E+03  0.20473232804E+03  0.00000000000E+00 0. -1.
         21    1    1    2  506  503  0.11981295637E+02  0.43925789761E+02  0.22207474760E+03  0.22669411102E+03  0.00000000000E+00 0. -1.
<scales pt_clust_3="84.55647" pt_clust_4="55.59186" pt_clust_5="38.28132" pt_clust_6="38.28132"></scales>
<clustering>
<clus scale="   38.281">  5  6 -1 -1</clus>
<clus scale="   55.592">  2  4  1 -1</clus>
<clus scale="   84.556">  2  3  1 -1</clus>
<clus scale="   93.283">  1  3  2 -1</clus>
</clustering>
</event>
<event>
 6    0  0.5510638E+002  0.8261919E+02  0.7546771E-02  0.1321779E+00
         21   -1    0    0  505  501  0.00000000000E+00  0.00000000000E+00  0.52076084033E+03  0.52076084033E+03  0.00000000000E+00 0.  1.
         21   -1    0    0  504  502 -0.00000000000E+00 -0.00000000000E+00 -0.72869545191E+03  0.72869545191E+03  0.00000000000E+00 0. -1.
         21    1    1    2  503  501 -0.40897347113E+02  0.24227378114E+02  0.30677926462E+03  0.31044013279E+03  0.00000000000E+00 0.  1.
         21    1    1    2  504  503 -0.66028104873E+02 -0.54643240703E+02 -0.38324137100E+03  0.39270796126E+03  0.00000000000E+00 0.  1.
         21    1    1    2  505  506  0.70156995392E+01  0.54719677602E+02  0.19571633833E+03  0.20334293262E+03  0.00000000000E+00 0.  1.
         21    1    1    2  506  502  0.99909752446E+02 -0.24303815014E+02 -0.32718884353E+03  0.34296526557E+03  0.00000000000E+00 0. -1.
<scales pt_clust_3="47.53482" pt_clust_4="14000.00000" pt_clust_5="83.64295" pt_clust_6="82.61919"></scales>
<clustering>
<clus scale="   47.535">  1  3  2 -1</clus>
<clus scale="   83.643">  1  5  2 -1</clus>
<clus scale="   82.619">  1  6  2 -1</clus>
<clus scale="   47.535">  1  3  2 -1</clus>
</clustering>
</event>
<event>
 6    0  0.5510638E+002  0.1188612E+03  0.7546771E-02  0.1244988E+00
         21   -1    0    0  503  501  0.00000000000E+00  0.00000000000E+00  0.57914733332E+02  0.57914733332E+02  0.00000000000E+00 0.  1.
         21   -1    0    0  506  502 -0.00000000000E+00 -0.00000000000E+00 -0.15304380273E+04  0.15304380273E+04  0.00000000000E+00 0. -1.
         21    1    1    2  503  502 -0.58746159362E+02 -0.13334776624E+03 -0.13131272778E+04  0.13211873394E+04  0.00000000000E+00 0. -1.
         21    1    1    2  504  505  0.33686993564E+02  0.52864896449E+02 -0.34631474488E+02  0.71615988698E+02  0.00000000000E+00 0.  1.
         21    1    1    2  505  501  0.37124618013E+02  0.27351931743E+02  0.12575955017E+02  0.47796653411E+02  0.00000000000E+00 0.  1.
         21    1    1    2  506  504 -0.12065452215E+02  0.53130938048E+02 -0.13734049667E+03  0.14775277913E+03  0.00000000000E+00 0.  1.
<scales pt_clust_3="108.64656" pt_clust_4="41.34609" pt_clust_5="41.34609" pt_clust_6="54.48368"></scales>
<clustering>
<clus scale="   41.346">  4  5 -1 -1</clus>
<clus scale="   54.484">  2  6  1 -1</clus>
<clus scale="  108.647">  2  3  1 -1</clus>
<clus scale="  118.861">  1  3  2 -1</clus>
</clustering>
</event>
<event>
 6    0  0.5510638E+002  0.8826810E+02  0.7546771E-02  0.1307101E+00
         21   -1    0    0  503  501  0.00000000000E+00  0.00000000000E+00  0.38895234989E+03  0.38895234989E+03  0.00000000000E+00 0. -1.
         21   -1    0    0  504  502 -0.00000000000E+00 -0.00000000000E+00 -0.40756181986E+03  0.40756181986E+03  0.00000000000E+00 0.  1.
         21    1    1    2  503  506  0.15465245208E+02 -0.26933291692E+02  0.16234214367E+02  0.35044624792E+02  0.00000000000E+00 0. -1.
         21    1    1    2  504  505 -0.99694149052E+02  0.17195456104E+02 -0.22273813465E+03  0.24463622727E+03  0.00000000000E+00 0.  1.
         21    1    1    2  505  501  0.14026815538E+02 -0.51320747617E+02  0.33694934034E+03  0.34112377320E+03  0.00000000000E+00 0. -1.
         21    1    1    2  506  502  0.70202088306E+02  0.61058583205E+02 -0.14905489002E+03  0.17570954449E+03  0.00000000000E+00 0. -1.
<scales pt_clust_3="31.05762" pt_clust_4="88.26810" pt_clust_5="81.57921" pt_clust_6="14000.00000"></scales>
<clustering>
<clus scale="   31.058">  1  3  2 -1</clus>
<clus scale="   81.579">  1  5  2 -1</clus>
<clus scale="   88.268">  2  4  1 -1</clus>
<clus scale="   31.058">  1  3  2 -1</clus>
</clustering>
</event>
<event>
 6    0  0.5510638E+002  0.1015285E+03  0.7546771E-02  0.1277114E+00
         21   -1    0    0  504  501  0.00000000000E+00  0.00000000000E+00  0.11153229521E+04  0.11153229521E+04  0.00000000000E+00 0. -1.
         21   -1    0    0  505  502 -0.00000000000E+00 -0.00000000000E+00 -0.45644351782E+03  0.45644351782E+03  0.00000000000E+00 0. -1.
         21    1    1    2  503  502 -0.10829908039E+03 -0.46312242687E+02 -0.51200233452E+02  0.12843277830E+03  0.00000000000E+00 0.  1.
         21    1    1    2  504  503  0.40451426005E+02  0.26543262114E+02  0.84674888515E+02  0.97522814636E+02  0.00000000000E+00 0. -1.
         21    1    1    2  505  506  0.49431780710E+02  0.89667856716E+02 -0.35156442832E+03  0.36617123417E+03  0.00000000000E+00 0. -1.
         21    1    1    2  506  501  0.18415873673E+02 -0.69898876143E+02  0.97696920756E+03  0.97963964283E+03  0.00000000000E+00 0. -1.
<scales pt_clust_3="101.52850" pt_clust_4="48.38246" pt_clust_5="14000.00000" pt_clust_6="72.38398"></scales>
<clustering>
<clus scale="   48.382">  1  4  2 -1</clus>
<clus scale="   72.384">  1  6  2 -1</clus>
<clus scale="  101.529">  1  3  2 -1</clus>
<clus scale="   48.382">  1  3  2 -1</clus>
</clustering>
</event>
<event>
 6    0  0.5510638E+002  0.1237218E+03  0.7546771E-02  0.1237081E+00
         21   -1    0    0  504  501  0.00000000000E+00  0.00000000000E+00  0.20152332205E+03  0.20152332205E+03  0.00000000000E+00 0. -1.
         21   -1    0    0  505  502 -0.00000000000E+00 -0.00000000000E+00 -0.94211572104E+03  0.94211572104E+03  0.00000000000E+00 0. -1.
         21    1    1    2  503  506 -0.43963802026E+02  0.86087725401E+02 -0.52011538944E+02  0.10976844964E+03  0.00000000000E+00 0. -1.
         21    1    1    2  504  502 -0.12540916388E+02 -0.14030634558E+03 -0.79676720268E+03  0.80912367439E+03  0.00000000000E+00 0. -1.
         21    1    1    2  505  503  0.38812036960E+02  0.64590471328E+01 -0.47070707747E+02  0.61349368625E+02  0.00000000000E+00 0. -1.
         21    1    1    2  506  501  0.17692681455E+02  0.47759573041E+02  0.15525705038E+03  0.16339755043E+03  0.00000000000E+00 0. -1.
<scales pt_clust_3="14000.00000" pt_clust_4="123.72177" pt_clust_5="39.34582" pt_clust_6="51.02121"></scales>
<clustering>
<clus scale="   39.346">  2  5  1 -1</clus>
<clus scale="   51.021">  1  6  2 -1</clus>
<clus scale="  123.722">  2  4  1 -1</clus>
<clus scale="   51.021">  1  3  2 -1</clus>
</clustering>
</event>
<event>
 6    0  0.5510638E+002  0.1145280E+03  0.7546771E-02  0.1252407E+00
         21   -1    0    0  506  501  0.00000000000E+00  0.00000000000E+00  0.49169875922E+03  0.49169875922E+03  0.00000000000E+00 0. -1.
         21   -1    0    0  505  502 -0.00000000000E+00 -0.00000000000E+00 -0.51096766465E+02  0.51096766465E+02  0.00000000000E+00 0. -1.
         21    1    1    2  503  504  0.73227551605E+02  0.22680879221E+02  0.22048081853E+03  0.23342769316E+03  0.00000000000E+00 0. -1.
         21    1    1    2  504  502 -0.81017390827E+01  0.32183928745E+02  0.25669621202E+02  0.41956797999E+02  0.00000000000E+00 0. -1.
         21    1    1    2  505  501 -0.75107780996E+02 -0.88280610488E+02  0.64052079287E+02  0.13242852342E+03  0.00000000000E+00 0. -1.
         21    1    1    2  506  503  0.99819684729E+01  0.33415802522E+02  0.13039947374E+03  0.13498251111E+03  0.00000000000E+00 0. -1.
<scales pt_clust_3="34.62415" pt_clust_4="33.18800" pt_clust_5="102.85045" pt_clust_6="34.62415"></scales>
<clustering>
<clus scale="   33.188">  2  4  1 -1</clus>
<clus scale="   34.624">  3  6 -1 -1</clus>
<clus scale="  102.850">  2  5  1 -1</clus>
<clus scale="  114.528">  1  3  2 -1</clus>
</clustering>
</event>
<event>
 6    0  0.5510638E+002  0.2101135E+03  0.7546771E-02  0.1141476E+00
         21   -1    0    0  504  501  0.00000000000E+00  0.00000000000E+00  0.14747547941E+04  0.14747547941E+04  0.00000000000E+00 0. -1.
         21   -1    0    0  505  502 -0.00000000000E+00 -0.00000000000E+00 -0.15297604087E+04  0.15297604087E+04  0.00000000000E+00 0. -1.
         21    1    1    2  503  506  0.20724228047E+03  0.14829809785E+02 -0.12565570542E+04  0.12736188271E+04  0.00000000000E+00 0. -1.
         21    1    1    2  504  503 -0.14663853117E+03 -0.19546036694E+03  0.95030398720E+03  0.98121622589E+03  0.00000000000E+00 0. -1.
         21    1    1    2  505  501 -0.56542881887E+02  0.14065099100E+03  0.48724702712E+03  0.51028370951E+03  0.00000000000E+00 0. -1.
         21    1    1    2  506  502 -0.40608674188E+01  0.39979566152E+02 -0.23599957469E+03  0.23939644026E+03  0.00000000000E+00 0.  1.
<scales pt_clust_3="210.11346" pt_clust_4="14000.00000" pt_clust_5="151.93511" pt_clust_6="40.18528"></scales>
<clustering>
<clus scale="   40.185">  2  6  1 -1</clus>
<clus scale="  151.935">  1  5  2 -1</clus>
<clus scale="  210.113">  2  3  1 -1</clus>
<clus scale="  151.935">  1  3  2 -1</clus>
</clustering>
</event>
<event>
 6    0  0.5510638E+002  0.8598397E+02  0.7546771E-02  0.1312879E+00
         21   -1    0    0  505  501  0.00000000000E+00  0.00000000000E+00  0.77770414564E+03  0.77770414564E+03  0.00000000000E+00 0.  1.
         21   -1    0    0  504  502 -0.00000000000E+00 -0.00000000000E+00 -0.10389519969E+03  0.10389519969E+03  0.00000000000E+00 0.  1.
         21    1    1    2  503  502  0.23305355976E+02  0.90801440086E+02 -0.18245496890E+02  0.95503608809E+02  0.00000000000E+00 0.  1.
         21    1    1    2  504  501  0.31834687701E+02 -0.64023153064E+02  0.27410285705E+03  0.28327510959E+03  0.00000000000E+00 0.  1.
         21    1    1    2  505  506 -0.71936509960E+02  0.53371194613E+02  0.41098658484E+03  0.42063442417E+03  0.00000000000E+00 0.  1.
         21    1    1    2  506  503  0.16796466284E+02 -0.80149481635E+02  0.69650009519E+01  0.82186202761E+02  0.00000000000E+00 0.  1.
<scales pt_clust_3="14000.00000" pt_clust_4="71.50113" pt_clust_5="45.40987" pt_clust_6="85.98397"></scales>
<clustering>
<clus scale="   71.501">  1  4  2 -1</clus>
<clus scale="   45.410">  1  5  2 -1</clus>
<clus scale="   85.984">  1  6  2 -1</clus>
<clus scale="   71.501">  1  3  2 -1</clus>
</clustering>
</event>
<event>
 6    0  0.5510638E+002  0.2090858E+03  0.7546771E-02  0.1142292E+00
         21   -1    0    0  503  501  0.00000000000E+00  0.00000000000E+00  0.58621264460E+03  0.58621264460E+03  0.00000000000E+00 0.  1.
         21   -1    0    0  504  502 -0.00000000000E+00 -0.00000000000E+00 -0.15953966292E+03  0.15953966292E+03  0.00000000000E+00 0.  1.
         21    1    1    2  503  505  0.15089974735E+02  0.33037955480E+02  0.81684302526E+02  0.89395408825E+02  0.00000000000E+00 0.  1.
         21    1    1    2  504  506 -0.25188832425E+02  0.37921918486E+02 -0.11620191524E+02  0.46984870242E+02  0.00000000000E+00 0.  1.
         21    1    1    2  505  502  0.11332949812E+03 -0.22317425946E+03  0.55252830528E+02  0.25632635548E+03  0.00000000000E+00 0.  1.
         21    1    1    2  506  501 -0.10323064043E+03  0.15221438549E+03  0.30135604014E+03  0.35304567298E+03  0.00000000000E+00 0.  1.
<scales pt_clust_3="36.32098" pt_clust_4="46.21517" pt_clust_5="14000.00000" pt_clust_6="209.08580"></scales>
<clustering>
<clus scale="   36.321">  1  3  2 -1</clus>
<clus scale="   46.215">  2  4  1 -1</clus>
<clus scale="  209.086">  1  6  2 -1</clus>
<clus scale="   36.321">  1  3  2 -1</clus>
</clustering>
</event>
<event>
 6    0  0.5510638E+002  0.7950560E+02  0.7546771E-02  0.1330460E+00
         21   -1    0    0  504  501  0.00000000000E+00  0.00000000000E+00  0.16318558948E+03  0.16318558948E+03  0.00000000000E+00 0. -1.
         21   -1    0    0  505  502 -0.00000000000E+00 -0.00000000000E+00 -0.19030372903E+03  0.19030372903E+03  0.00000000000E+00 0. -1.
         21    1    1    2  503  502  0.67288948140E+02  0.36324378888E+02 -0.11871151431E+03  0.14120795542E+03  0.00000000000E+00 0. -1.
         21    1    1    2  504  503  0.45342882464E+02  0.12826301403E+02  0.85466787606E+01  0.47890883430E+02  0.00000000000E+00 0. -1.
         21    1    1    2  505  506 -0.10295658711E+03 -0.19132311550E+02  0.42483308716E+02  0.11300856469E+03  0.00000000000E+00 0. -1.
         21    1    1    2  506  501 -0.96752434980E+01 -0.30018368741E+02  0.40563387282E+02  0.51381914974E+02  0.00000000000E+00 0.  1.
<scales pt_clust_3="79.50560" pt_clust_4="43.37652" pt_clust_5="14000.00000" pt_clust_6="31.53907"></scales>
<clustering>
<clus scale="   31.539">  1  6  2 -1</clus>
<clus scale="   43.377">  1  4  2 -1</clus>
<clus scale="   79.506">  2  3  1 -1</clus>
<clus scale="   31.539">  1  3  2 -1</clus>
</clustering>
</event>
<event>
 6    0  0.5510638E+002  0.1904239E+03  0.7546771E-02  0.1158080E+00
         21   -1    0    0  504  501  0.00000000000E+00  0.00000000000E+00  0.12631443593E+04  0.12631443593E+04  0.00000000000E+00 0. -1.
         21   -1    0    0  501  502 -0.00000000000E+00 -0.00000000000E+00 -0.24369271828E+03  0.24369271828E+03  0.00000000000E+00 0.  1.
         21    1    1    2  503  505 -0.51246539145E+00 -0.67677007400E+02  0.16584293843E+03  0.17912096521E+03  0.00000000000E+00 0.  1.
         21    1    1    2  504  506 -0.54941170868E+02  0.17823565689E+03  0.88023165111E+03  0.89977455024E+03  0.00000000000E+00 0. -1.
         21    1    1    2  505  502  0.57941017232E+02  0.11810657965E+02 -0.20402111780E+03  0.21241767729E+03  0.00000000000E+00 0.  1.
         21    1    1    2  506  503 -0.24873809727E+01 -0.12236930746E+03  0.17739816929E+03  0.21552388484E+03  0.00000000000E+00 0. -1.
<scales pt_clust_3="31.57938" pt_clust_4="185.62802" pt_clust_5="59.13250" pt_clust_6="31.57938"></scales>
<clustering>
<clus scale="   31.579">  3  6 -1 -1</clus>
<clus scale="   59.133">  2  5  1 -1</clus>
<clus scale="  185.628">  1  4  2 -1</clus>
<clus scale="  185.628">  1  3  2 -1</clus>
</clustering>
</event>
<event>
 6    0  0.5510638E+002  0.2955187E+03  0.7546771E-02  0.1087502E+00
         21   -1    0    0  506  501  0.00000000000E+00  0.00000000000E+00  0.31115568550E+03  0.31115568550E+03  0.00000000000E+00 0. -1.
         21   -1    0    0  505  502 -0.00000000000E+00 -0.00000000000E+00 -0.64199168371E+03  0.64199168371E+03  0.00000000000E+00 0. -1.
         21    1    1    2  503  504 -0.26913974920E+03 -0.15262867920E+03 -0.33909823940E+03  0.45904175658E+03  0.00000000000E+00 0. -1.
         21    1    1    2  504  501 -0.40261812751E+02 -0.15877256012E+02  0.21568566486E+02  0.48356011878E+02  0.00000000000E+00 0. -1.
         21    1    1    2  505  503  0.16364322615E+02  0.32649980232E+02 -0.10402818088E+03  0.11025277630E+03  0.00000000000E+00 0. -1.
         21    1    1    2  506  502  0.29303723934E+03  0.13585595498E+03  0.90721855588E+02  0.33549682446E+03  0.00000000000E+00 0. -1.
<scales pt_clust_3="295.51866" pt_clust_4="42.60254" pt_clust_5="36.52139" pt_clust_6="14000.00000"></scales>
<clustering>
<clus scale="   36.521">  2  5  1 -1</clus>
<clus scale="   42.603">  1  4  2 -1</clus>
<clus scale="  295.519">  2  3  1 -1</clus>
<clus scale="   42.603">  1  3  2 -1</clus>
</clustering>
</event>
<event>
 6    0  0.5510638E+002  0.1096302E+03  0.7546771E-02  0.1261256E+00
         21   -1    0    0  506  501  0.00000000000E+00  0.00000000000E+00  0.14659225400E+03  0.14659225400E+03  0.00000000000E+00 0.  1.
         21   -1    0    0  505  502 -0.00000000000E+00 -0.00000000000E+00 -0.13297990334E+04  0.13297990334E+04  0.00000000000E+00 0. -1.
         21    1    1    2  503  504 -0.11423087438E+03  0.57312885677E+02 -0.27025226237E+03  0.29894772928E+03  0.00000000000E+00 0. -1.
         21    1    1    2  504  502  0.21264654735E+02 -0.25817295045E+02 -0.96498544181E+03  0.96556492334E+03  0.00000000000E+00 0. -1.
         21    1    1    2  505  501  0.13829927751E+03 -0.56473783511E+02  0.19270623387E+02  0.15062315662E+03  0.00000000000E+00 0.  1.
         21    1    1    2  506  503 -0.45333057862E+02  0.24978192879E+02  0.32760301414E+02  0.61255478150E+02  0.00000000000E+00 0.  1.
<scales pt_clust_3="14000.00000" pt_clust_4="33.44725" pt_clust_5="109.63016" pt_clust_6="50.54641"></scales>
<clustering>
<clus scale="   33.447">  2  4  1 -1</clus>
<clus scale="   50.546">  1  6  2 -1</clus>
<clus scale="  109.630">  1  5  2 -1</clus>
<clus scale="   50.546">  1  3  2 -1</clus>
</clustering>
</event>
<event>
 6    0  0.9517070E+002  0.9235115E+02  0.7546771E-02  0.1297256E+00
         21   -1    0    0  503  501  0.00000000000E+00  0.00000000000E+00  0.62465931775E+03  0.62465931775E+03  0.00000000000E+00 0.  1.
         21   -1    0    0  505  502 -0.00000000000E+00 -0.00000000000E+00 -0.10085360873E+04  0.10085360873E+04  0.00000000000E+00 0. -1.
         21    1    1    2  503  506  0.53108365357E+02  0.88612910851E+02  0.55036877453E+03  0.55998083398E+03  0.00000000000E+00 0.  1.
         21    1    1    2  504  501  0.40226937489E+02 -0.77132197276E+02  0.29138753591E+02  0.91742298408E+02  0.00000000000E+00 0.  1.
         21    1    1    2  505  504 -0.68403496063E+02  0.29579296655E+02 -0.89389224929E+03  0.89699349296E+03  0.00000000000E+00 0. -1.
         21    1    1    2  506  502 -0.24931806784E+02 -0.41060010230E+02 -0.69492048350E+02  0.84478779663E+02  0.00000000000E+00 0. -1.
<scales pt_clust_3="92.35115" pt_clust_4="87.83863" pt_clust_5="14000.00000" pt_clust_6="48.03665"></scales>
<clustering>
<clus scale="   48.037">  2  6  1 -1</clus>
<clus scale="   87.839">  1  4  2 -1</clus>
<clus scale="   92.351">  1  3  2 -1</clus>
<clus scale="   87.839">  1  3  2 -1</clus>
</clustering>
</event>
<event>
 6    0  0.5510638E+002  0.9368617E+02  0.7546771E-02  0.1294163E+00
         21   -1    0    0  503  501  0.00000000000E+00  0.00000000000E+00  0.72921117064E+03  0.72921117064E+03  0.00000000000E+00 0. -1.
         21   -1    0    0  504  502 -0.00000000000E+00 -0.00000000000E+00 -0.38647937149E+02  0.38647937149E+02  0.00000000000E+00 0. -1.
         21    1    1    2  503  506 -0.56870358226E+02 -0.47787797585E+02  0.15945062590E+03  0.17590455748E+03  0.00000000000E+00 0. -1.
         21    1    1    2  504  505 -0.15501397136E+02  0.48417742001E+02  0.91696701224E+02  0.10484682193E+03  0.00000000000E+00 0. -1.
         21    1    1    2  505  501  0.93546967315E+02  0.64111023196E+02  0.38052116403E+03  0.39706122282E+03  0.00000000000E+00 0. -1.
         21    1    1    2  506  502 -0.21175211953E+02 -0.64740967612E+02  0.58894742334E+02  0.90046505558E+02  0.00000000000E+00 0. -1.
<scales pt_clust_3="14000.00000" pt_clust_4="50.83868" pt_clust_5="93.68617" pt_clust_6="50.23520"></scales>
<clustering>
<clus scale="   50.839">  2  4  1 -1</clus>
<clus scale="   50.235">  2  6  1 -1</clus>
<clus scale="   93.686">  2  5  1 -1</clus>
<clus scale="   93.686">  1  3  2 -1</clus>
</clustering>
</event>
<event>
 6    0  0.5510638E+002  0.1582189E+03  0.7546771E-02  0.1190722E+00
         21   -1    0    0  505  501  0.00000000000E+00  0.00000000000E+00  0.45538069106E+03  0.45538069106E+03  0.00000000000E+00 0.  1.
         21   -1    0    0  504  502 -0.00000000000E+00 -0.00000000000E+00 -0.22463280199E+04  0.22463280199E+04  0.00000000000E+00 0. -1.
         21    1    1    2  503  502  0.77764674192E+02 -0.63696576541E+02 -0.20043712363E+04  0.20068902938E+04  0.00000000000E+00 0. -1.
         21    1    1    2  504  506 -0.80416593328E+01 -0.49532644783E+02 -0.50736892252E+02  0.71360937630E+02  0.00000000000E+00 0. -1.
         21    1    1    2  505  503 -0.11530840421E+03 -0.10439187042E+03  0.35165394146E+03  0.38451812082E+03  0.00000000000E+00 0.  1.
         21    1    1    2  506  501  0.45585389355E+02  0.21762109174E+03 -0.87493141740E+02  0.23893935872E+03  0.00000000000E+00 0. -1.
<scales pt_clust_3="129.88157" pt_clust_4="50.18118" pt_clust_5="14000.00000" pt_clust_6="158.21892"></scales>
<clustering>
<clus scale="   50.181">  2  4  1 -1</clus>
<clus scale="  129.882">  2  3  1 -1</clus>
<clus scale="  158.219">  2  6  1 -1</clus>
<clus scale="  158.219">  1  3  2 -1</clus>
</clustering>
</event>
<event>
 6    0  0.5510638E+002  0.2062500E+03  0.7546771E-02  0.1144571E+00
         21   -1    0    0  506  501  0.00000000000E+00  0.00000000000E+00  0.14172876731E+03  0.14172876731E+03  0.00000000000E+00 0.  1.
         21   -1    0    0  505  502 -0.00000000000E+00 -0.00000000000E+00 -0.29874833990E+04  0.29874833990E+04  0.00000000000E+00 0. -1.
         21    1    1    2  503  501  0.35725774309E+02  0.20257017824E+03  0.13646193722E+02  0.20614855484E+03  0.00000000000E+00 0.  1.
         21    1    1    2  504  502 -0.31072002361E+02 -0.20842575088E+03 -0.50933587274E+03  0.55120757816E+03  0.00000000000E+00 0.  1.
         21    1    1    2  505  503 -0.35963225078E+02  0.13427590960E+02 -0.23366449713E+04  0.23369602855E+04  0.00000000000E+00 0. -1.
         21    1    1    2  506  504  0.31309453130E+02 -0.75720183128E+01 -0.13419981279E+02  0.34895747795E+02  0.00000000000E+00 0. -1.
<scales pt_clust_3="206.24995" pt_clust_4="14000.00000" pt_clust_5="38.34971" pt_clust_6="32.21207"></scales>
<clustering>
<clus scale="   32.212">  1  6  2 -1</clus>
<clus scale="   38.350">  2  5  1 -1</clus>
<clus scale="  206.250">  1  3  2 -1</clus>
<clus scale="   32.212">  1  3  2 -1</clus>
</clustering>
</event>
<event>
 6    0  0.5510638E+002  0.6059361E+02  0.7546771E-02  0.1395357E+00
         21   -1    0    0  506  501  0.00000000000E+00  0.00000000000E+00  0.13050298111E+04  0.13050298111E+04  0.00000000000E+00 0.  1.
         21   -1    0    0  505  502 -0.00000000000E+00 -0.00000000000E+00 -0.29807073604E+03  0.29807073604E+03  0.00000000000E+00 0.  1.
         21    1    1    2  503  504 -0.17516578255E+01 -0.79986685875E+02  0.98514415901E+01  0.80610105593E+02  0.00000000000E+00 0.  1.
         21    1    1    2  504  502  0.29573814899E+02  0.51953597057E+02 -0.25510419117E+03  0.26201514294E+03  0.00000000000E+00 0.  1.
         21    1    1    2  505  501  0.18670331459E+02 -0.47344430129E+02  0.31456659226E+03  0.31865689590E+03  0.00000000000E+00 0.  1.
         21    1    1    2  506  503 -0.46492488533E+02  0.75377518946E+02  0.93764523240E+03  0.94181840272E+03  0.00000000000E+00 0.  1.
<scales pt_clust_3="60.59361" pt_clust_4="14000.00000" pt_clust_5="50.89279" pt_clust_6="41.81066"></scales>
<clustering>
<clus scale="   50.893">  1  5  2 -1</clus>
<clus scale="   41.811">  1  6  2 -1</clus>
<clus scale="   60.594">  1  3  2 -1</clus>
<clus scale="   50.893">  1  3  2 -1</clus>
</clustering>
</event>
<event>
 6    0  0.5510638E+002  0.9757321E+02  0.7546771E-02  0.1285484E+00
         21   -1    0    0  503  501  0.00000000000E+00  0.00000000000E+00  0.49594826857E+02  0.49594826857E+02  0.00000000000E+00 0.  1.
         21   -1    0    0  504  502 -0.00000000000E+00 -0.00000000000E+00 -0.10135161873E+04  0.10135161873E+04  0.00000000000E+00 0.  1.
         21    1    1    2  503  502 -0.16962625797E+02  0.28602223076E+02  0.13352421867E+02  0.35834410956E+02  0.00000000000E+00 0.  1.
         21    1    1    2  504  505  0.70678060336E-01 -0.41646703040E+02 -0.42801740535E+03  0.43003877982E+03  0.00000000000E+00 0.  1.
         21    1    1    2  505  506 -0.90558930684E+02  0.40669886074E-01 -0.41510304614E+03  0.42486640312E+03  0.00000000000E+00 0.  1.
         21    1    1    2  506  501  0.10745087842E+03  0.13003810078E+02 -0.13415333077E+03  0.17237142022E+03  0.00000000000E+00 0.  1.
<scales pt_clust_3="33.25384" pt_clust_4="40.49512" pt_clust_5="14000.00000" pt_clust_6="97.57321"></scales>
<clustering>
<clus scale="   33.254">  1  3  2 -1</clus>
<clus scale="   40.495">  2  4  1 -1</clus>
<clus scale="   97.573">  1  6  2 -1</clus>
<clus scale="   33.254">  1  3  2 -1</clus>
</clustering>
</event>
<event>
 6    0  0.5510638E+002  0.1001696E+03  0.7546771E-02  0.1279940E+00
         21   -1    0    0  504  501  0.00000000000E+00  0.00000000000E+00  0.96715626060E+02  0.96715626060E+02  0.00000000000E+00 0. -1.
         21   -1    0    0  501  502 -0.00000000000E+00 -0.00000000000E+00 -0.50302756728E+03  0.50302756728E+03  0.00000000000E+00 0. -1.
         21    1    1    2  503  505 -0.11606386305E+03  0.14707360240E+02 -0.27741678248E+03  0.30107673101E+03  0.00000000000E+00 0. -1.
         21    1    1    2  504  506  0.41079402414E+02  0.42251892976E+01  0.45843710991E+02  0.61701015913E+02  0.00000000000E+00 0. -1.
         21    1    1    2  505  502  0.52524126588E+01 -0.29730512527E+02 -0.16258365817E+03  0.16536304641E+03  0.00000000000E+00 0. -1.
         21    1    1    2  506  503  0.69732047972E+02  0.10797962990E+02 -0.12155211555E+02  0.71602400009E+02  0.00000000000E+00 0. -1.
<scales pt_clust_3="14000.00000" pt_clust_4="41.35316" pt_clust_5="30.19091" pt_clust_6="100.16958"></scales>
<clustering>
<clus scale="   30.191">  2  5  1 -1</clus>
<clus scale="   41.353">  1  4  2 -1</clus>
<clus scale="  100.170">  1  6  2 -1</clus>
<clus scale="   41.353">  1  3  2 -1</clus>
</clustering>
</event>
<event>
 6    0  0.5510638E+002  0.9015318E+02  0.7546771E-02  0.1302481E+00
         21   -1    0    0  503  501  0.00000000000E+00  0.00000000000E+00  0.19199261455E+03  0.19199261455E+03  0.00000000000E+00 0.  1.
         21   -1    0    0  506  502 -0.00000000000E+00 -0.00000000000E+00 -0.49703516141E+03  0.49703516141E+03  0.00000000000E+00 0.  1.
         21    1    1    2  503  504 -0.22889420256E+02  0.60102603878E+02  0.20567359279E+02  0.67522328309E+02  0.00000000000E+00 0.  1.
         21    1    1    2  504  502 -0.13297825610E+02  0.35427971063E+02 -0.18409834372E+03  0.18794726245E+03  0.00000000000E+00 0.  1.
         21    1    1    2  505  501  0.27781684676E+02  0.33007989056E+02  0.12787571641E+03  0.13495757924E+03  0.00000000000E+00 0.  1.
         21    1    1    2  506  505  0.84055611904E+01 -0.12853856400E+03 -0.26938727882E+03  0.29860060597E+03  0.00000000000E+00 0.  1.
<scales pt_clust_3="14000.00000" pt_clust_4="37.84142" pt_clust_5="43.35609" pt_clust_6="90.15318"></scales>
<clustering>
<clus scale="   37.841">  2  4  1 -1</clus>
<clus scale="   43.356">  1  5  2 -1</clus>
<clus scale="   90.153">  2  6  1 -1</clus>
<clus scale="   43.356">  1  3  2 -1</clus>
</clustering>
</event>
<event>
 6    0  0.5510638E+002  0.1217586E+03  0.7546771E-02  0.1240224E+00
         21   -1    0    0  506  501  0.00000000000E+00  0.00000000000E+00  0.18260507576E+04  0.18260507576E+04  0.00000000000E+00 0.  1.
         21   -1    0    0  504  502 -0.00000000000E+00 -0.00000000000E+00 -0.69170306790E+02  0.69170306790E+02  0.00000000000E+00 0.  1.
         21    1    1    2  503  501  0.13943745350E+02  0.68097997261E+02  0.63732361395E+03  0.64110307608E+03  0.00000000000E+00 0.  1.
         21    1    1    2  504  503  0.10505024937E+03  0.10830146560E+03  0.12453438874E+03  0.19563633691E+03  0.00000000000E+00 0.  1.
         21    1    1    2  505  502 -0.91263557296E+02 -0.52494159587E+02  0.73855387666E+02  0.12860517862E+03  0.00000000000E+00 0.  1.
         21    1    1    2  506  505 -0.27730437421E+02 -0.12390530327E+03  0.92116706046E+03  0.92987647277E+03  0.00000000000E+00 0.  1.
<scales pt_clust_3="69.51090" pt_clust_4="121.75863" pt_clust_5="14000.00000" pt_clust_6="72.78003"></scales>
<clustering>
<clus scale="   69.511">  1  3  2 -1</clus>
<clus scale="   72.780">  1  6  2 -1</clus>
<clus scale="  121.759">  1  4  2 -1</clus>
<clus scale="   69.511">  1  3  2 -1</clus>
</clustering>
</event>
<event>
 6    0  0.5510638E+002  0.6263785E+02  0.7546771E-02  0.1387084E+00
         21   -1    0    0  504  501  0.00000000000E+00  0.00000000000E+00  0.69387720101E+02  0.69387720101E+02  0.00000000000E+00 0.  1.
         21   -1    0    0  506  502 -0.00000000000E+00 -0.00000000000E+00 -0.16004524356E+04  0.16004524356E+04  0.00000000000E+00 0.  1.
         21    1    1    2  503  501 -0.70954378810E+02  0.26854868399E+02 -0.41033838179E+02  0.86252441732E+02  0.00000000000E+00 0.  1.
         21    1    1    2  504  505  0.28167203001E+02 -0.56453463074E+02  0.20505059432E+02  0.66338844430E+02  0.00000000000E+00 0.  1.
         21    1    1    2  505  502 -0.15996453968E+02  0.49427069452E+02 -0.25805314885E+03  0.26323060112E+03  0.00000000000E+00 0.  1.
         21    1    1    2  506  503  0.58783629777E+02 -0.19828474777E+02 -0.12524827879E+04  0.12540182685E+04  0.00000000000E+00 0.  1.
<scales pt_clust_3="62.63785" pt_clust_4="14000.00000" pt_clust_5="51.95115" pt_clust_6="51.16140"></scales>
<clustering>
<clus scale="   51.951">  2  5  1 -1</clus>
<clus scale="   51.161">  2  6  1 -1</clus>
<clus scale="   62.638">  2  3  1 -1</clus>
<clus scale="   62.638">  1  3  2 -1</clus>
</clustering>
</event>
<event>
 6    0  0.5510638E+002  0.7351017E+02  0.7546771E-02  0.1348548E+00
         21   -1    0    0  503  501  0.00000000000E+00  0.00000000000E+00  0.13047368653E+04  0.13047368653E+04  0.00000000000E+00 0. -1.
         21   -1    0    0  506  502 -0.00000000000E+00 -0.00000000000E+00 -0.19130877060E+03  0.19130877060E+03  0.00000000000E+00 0. -1.
         21    1    1    2  503  504 -0.46766272419E+02 -0.59278559835E+02 -0.12718818840E+03  0.14791168703E+03  0.00000000000E+00 0. -1.
         21    1    1    2  504  502 -0.24091675246E+02  0.38404528285E+02 -0.22388666986E+02  0.50562525830E+02  0.00000000000E+00 0. -1.
         21    1    1    2  505  501 -0.26022579981E+02  0.65466254841E+02  0.11031974688E+04  0.11054445532E+04  0.00000000000E+00 0. -1.
         21    1    1    2  506  505  0.96880527646E+02 -0.44592223290E+02  0.15980748129E+03  0.19212686978E+03  0.00000000000E+00 0. -1.
<scales pt_clust_3="73.51017" pt_clust_4="45.33560" pt_clust_5="70.77217" pt_clust_6="14000.00000"></scales>
<clustering>
<clus scale="   45.336">  2  4  1 -1</clus>
<clus scale="   70.772">  1  5  2 -1</clus>
<clus scale="   73.510">  2  3  1 -1</clus>
<clus scale="   70.772">  1  3  2 -1</clus>
</clustering>
</event>
<event>
 6    0  0.5510638E+002  0.8614152E+02  0.7546771E-02  0.1312474E+00
         21   -1    0    0  506  501  0.00000000000E+00  0.00000000000E+00  0.94746522964E+02  0.94746522964E+02  0.00000000000E+00 0.  1.
         21   -1    0    0  504  502 -0.00000000000E+00 -0.00000000000E+00 -0.65758875379E+03  0.65758875379E+03  0.00000000000E+00 0. -1.
         21    1    1    2  503  505  0.12308224401E+03 -0.15701243801E+02 -0.21506850485E+03  0.24829464276E+03  0.00000000000E+00 0.  1.
         21    1    1    2  504  503 -0.67099620778E+02  0.36144611065E+02 -0.28004281924E+03  0.29022882804E+03  0.00000000000E+00 0. -1.
         21    1    1    2  505  501 -0.37295714807E+02 -0.68354401926E+02 -0.11833948958E+03  0.14165990753E+03  0.00000000000E+00 0. -1.
         21    1    1    2  506  502 -0.18686908423E+02  0.47911034662E+02  0.50608582845E+02  0.72151898425E+02  0.00000000000E+00 0.  1.
<scales pt_clust_3="14000.00000" pt_clust_4="86.14152" pt_clust_5="67.70862" pt_clust_6="51.42633"></scales>
<clustering>
<clus scale="   51.426">  1  6  2 -1</clus>
<clus scale="   67.709">  1  5  2 -1</clus>
<clus scale="   86.142">  2  4  1 -1</clus>
<clus scale="   51.426">  1  3  2 -1</clus>
</clustering>
</event>
<event>
 6    0  0.5510638E+002  0.1574525E+03  0.7546771E-02  0.1191603E+00
         21   -1    0    0  506  501  0.00000000000E+00  0.00000000000E+00  0.24224463987E+03  0.24224463987E+03  0.00000000000E+00 0. -1.
         21   -1    0    0  503  502 -0.00000000000E+00 -0.00000000000E+00 -0.23405991367E+03  0.23405991367E+03  0.00000000000E+00 0.  1.
         21    1    1    2  503  504  0.64218944000E+02  0.32586962656E+02 -0.65428350681E+01  0.72310383724E+02  0.00000000000E+00 0. -1.
         21    1    1    2  504  505 -0.35003629335E+01 -0.10019711886E+03  0.55864850811E+02  0.11477193352E+03  0.00000000000E+00 0. -1.
         21    1    1    2  505  501 -0.81091402126E+01 -0.52495966233E+02  0.89534078540E+02  0.10410540738E+03  0.00000000000E+00 0.  1.
         21    1    1    2  506  502 -0.52609440854E+02  0.12010612243E+03 -0.13067136808E+03  0.18511682891E+03  0.00000000000E+00 0.  1.
<scales pt_clust_3="72.01377" pt_clust_4="41.91815" pt_clust_5="41.91815" pt_clust_6="146.54283"></scales>
<clustering>
<clus scale="   41.918">  4  5 -1 -1</clus>
<clus scale="   72.014">  2  3  1 -1</clus>
<clus scale="  146.543">  2  6  1 -1</clus>
<clus scale="  157.452">  1  3  2 -1</clus>
</clustering>
</event>
<event>
 6    0  0.5510638E+002  0.8074579E+02  0.7546771E-02  0.1326948E+00
         21   -1    0    0  506  501  0.00000000000E+00  0.00000000000E+00  0.71458959570E+03  0.71458959570E+03  0.00000000000E+00 0. -1.
         21   -1    0    0  504  502 -0.00000000000E+00 -0.00000000000E+00 -0.20028634382E+03  0.20028634382E+03  0.00000000000E+00 0.  1.
         21    1    1    2  503  502 -0.22321230663E+02 -0.23526203731E+02 -0.25004587201E+02  0.40950567535E+02  0.00000000000E+00 0.  1.
         21    1    1    2  504  505  0.38542767904E+02 -0.11531779587E+02 -0.14702726802E+03  0.15243209780E+03  0.00000000000E+00 0.  1.
         21    1    1    2  505  501  0.76748533942E+02 -0.91169852659E+01  0.52124277413E+03  0.52694163478E+03  0.00000000000E+00 0. -1.
         21    1    1    2  506  503 -0.92970071183E+02  0.44174968584E+02  0.16509233298E+03  0.19455163940E+03  0.00000000000E+00 0.  1.
<scales pt_clust_3="32.43023" pt_clust_4="37.50440" pt_clust_5="80.74579" pt_clust_6="14000.00000"></scales>
<clustering>
<clus scale="   32.430">  2  3  1 -1</clus>
<clus scale="   37.504">  2  4  1 -1</clus>
<clus scale="   80.746">  1  5  2 -1</clus>
<clus scale="   80.746">  1  3  2 -1</clus>
</clustering>
</event>
<event>
 6    0  0.5510638E+002  0.1008819E+03  0.7546771E-02  0.1278452E+00
         21   -1    0    0  504  501  0.00000000000E+00  0.00000000000E+00  0.16811439382E+03  0.16811439382E+03  0.00000000000E+00 0.  1.
         21   -1    0    0  503  502 -0.00000000000E+00 -0.00000000000E+00 -0.47406408069E+03  0.47406408069E+03  0.00000000000E+00 0.  1.
         21    1    1    2  503  506 -0.50659567659E+02 -0.11909186937E+02 -0.38586280812E+03  0.38935629855E+03  0.00000000000E+00 0.  1.
         21    1    1    2  504  502  0.23136684859E+01  0.94601079483E+02 -0.32461345817E+02  0.10004227243E+03  0.00000000000E+00 0.  1.
         21    1    1    2  505  501  0.36702287007E+02 -0.24467060291E+02  0.46444971490E+02  0.64053339394E+02  0.00000000000E+00 0.  1.
         21    1    1    2  506  505  0.11643612166E+02 -0.58224832255E+02  0.65929495576E+02  0.88726564130E+02  0.00000000000E+00 0.  1.
<scales pt_clust_3="52.04057" pt_clust_4="92.94495" pt_clust_5="33.80588" pt_clust_6="33.80588"></scales>
<clustering>
<clus scale="   33.806">  5  6 -1 -1</clus>
<clus scale="   52.041">  2  3  1 -1</clus>
<clus scale="   92.945">  2  4  1 -1</clus>
<clus scale="  100.882">  1  3  2 -1</clus>
</clustering>
</event>
<event>
 6    0  0.5510638E+002  0.1079910E+03  0.7546771E-02  0.1264336E+00
         21   -1    0    0  504  501  0.00000000000E+00  0.00000000000E+00  0.12218480618E+04  0.12218480618E+04  0.00000000000E+00 0.  1.
         21   -1    0    0  506  502 -0.00000000000E+00 -0.00000000000E+00 -0.53400207095E+02  0.53400207095E+02  0.00000000000E+00 0.  1.
         21    1    1    2  503  502 -0.52834763381E+02 -0.75356683660E+01 -0.13529812011E+02  0.55057736353E+02  0.00000000000E+00 0.  1.
         21    1    1    2  504  503  0.65762007048E+02 -0.10350494524E+03  0.69033502538E+03  0.70114218424E+03  0.00000000000E+00 0.  1.
         21    1    1    2  505  501 -0.30775041175E+02  0.18632073655E+01  0.26563490536E+03  0.26741817000E+03  0.00000000000E+00 0. -1.
         21    1    1    2  506  505  0.17847797508E+02  0.10917740624E+03  0.22600773597E+03  0.25163017829E+03  0.00000000000E+00 0.  1.
<scales pt_clust_3="54.02610" pt_clust_4="107.99096" pt_clust_5="30.83139" pt_clust_6="14000.00000"></scales>
<clustering>
<clus scale="   30.831">  1  5  2 -1</clus>
<clus scale="   54.026">  2  3  1 -1</clus>
<clus scale="  107.991">  1  4  2 -1</clus>
<clus scale="   30.831">  1  3  2 -1</clus>
</clustering>
</event>
<event>
 6    0  0.5510638E+002  0.1651657E+03  0.7546771E-02  0.1182985E+00
         21   -1    0    0  504  501  0.00000000000E+00  0.00000000000E+00  0.67118374280E+03  0.67118374280E+03  0.00000000000E+00 0. -1.
         21   -1    0    0  503  502 -0.00000000000E+00 -0.00000000000E+00 -0.81998213990E+02  0.81998213990E+02  0.00000000000E+00 0. -1.
         21    1    1    2  503  501 -0.14717207251E+03  0.59114917769E+02  0.31110165649E+03  0.34919684004E+03  0.00000000000E+00 0. -1.
         21    1    1    2  504  505  0.78417738343E+02  0.15935212381E+02  0.18730060558E+03  0.20367815183E+03  0.00000000000E+00 0. -1.
         21    1    1    2  505  506  0.78973307272E+02 -0.24304169754E+02  0.11624459939E+03  0.14261936340E+03  0.00000000000E+00 0. -1.
         21    1    1    2  506  502 -0.10218973110E+02 -0.50745960396E+02 -0.25461332654E+02  0.57687601514E+02  0.00000000000E+00 0. -1.
<scales pt_clust_3="156.01092" pt_clust_4="51.16991" pt_clust_5="51.16991" pt_clust_6="51.76466"></scales>
<clustering>
<clus scale="   51.765">  2  6  1 -1</clus>
<clus scale="   51.170">  4  5 -1 -1</clus>
<clus scale="  156.011">  1  3  2 -1</clus>
<clus scale="  156.011">  1  3  2 -1</clus>
</clustering>
</event>
<event>
 6    0  0.5510638E+002  0.1258692E+03  0.7546771E-02  0.1233717E+00
         21   -1    0    0  506  501  0.00000000000E+00  0.00000000000E+00  0.10022863709E+03  0.10022863709E+03  0.00000000000E+00 0.  1.
         21   -1    0    0  505  502 -0.00000000000E+00 -0.00000000000E+00 -0.12073572806E+04  0.12073572806E+04  0.00000000000E+00 0. -1.
         21    1    1    2  503  501 -0.39543599565E+02  0.14089662015E+02 -0.76936679284E+01  0.42677949441E+02  0.00000000000E+00 0.  1.
         21    1    1    2  504  503 -0.82953035161E+02 -0.52447144859E+02  0.40541739188E+02  0.10618635347E+03  0.00000000000E+00 0.  1.
         21    1    1    2  505  504 -0.25275333787E+02  0.25540040155E+02 -0.71733270057E+02  0.80229658994E+02  0.00000000000E+00 0.  1.
         21    1    1    2  506  502  0.14777196851E+03  0.12817442689E+02 -0.10682434447E+04  0.10784919558E+04  0.00000000000E+00 0. -1.
<scales pt_clust_3="42.70100" pt_clust_4="125.86925" pt_clust_5="35.93238" pt_clust_6="14000.00000"></scales>
<clustering>
<clus scale="   35.932">  2  5  1 -1</clus>
<clus scale="   42.701">  1  3  2 -1</clus>
<clus scale="  125.869">  1  4  2 -1</clus>
<clus scale="   42.701">  1  3  2 -1</clus>
</clustering>
</event>
<event>
 6    0  0.5510638E+002  0.1102724E+03  0.7546771E-02  0.1260066E+00
         21   -1    0    0  502  501  0.00000000000E+00  0.00000000000E+00  0.65338967120E+02  0.65338967120E+02  0.00000000000E+00 0. -1.
         21   -1    0    0  504  502 -0.00000000000E+00 -0.00000000000E+00 -0.64599681681E+03  0.64599681681E+03  0.00000000000E+00 0. -1.
         21    1    1    2  503  505 -0.10462150293E+03  0.10122905353E+03 -0.30324208143E+03  0.33637589108E+03  0.00000000000E+00 0. -1.
         21    1    1    2  504  506 -0.77397112500E+01 -0.35083931930E+02 -0.17173981243E+03  0.17545754069E+03  0.00000000000E+00 0. -1.
         21    1    1    2  505  501  0.10563293802E+03 -0.16471107738E+02 -0.34289125812E+02  0.11227359055E+03  0.00000000000E+00 0. -1.
         21    1    1    2  506  503  0.67282761595E+01 -0.49674013857E+02 -0.71386830020E+02  0.87228761616E+02  0.00000000000E+00 0. -1.
<scales pt_clust_3="110.27239" pt_clust_4="35.92750" pt_clust_5="14000.00000" pt_clust_6="55.82861"></scales>
<clustering>
<clus scale="   35.928">  2  4  1 -1</clus>
<clus scale="   55.829">  2  6  1 -1</clus>
<clus scale="  110.272">  2  3  1 -1</clus>
<clus scale="  110.272">  1  3  2 -1</clus>
</clustering>
</event>
<event>
 6    0  0.5510638E+002  0.1229526E+03  0.7546771E-02  0.1238304E+00
         21   -1    0    0  503  501  0.00000000000E+00  0.00000000000E+00  0.29829205206E+03  0.29829205206E+03  0.00000000000E+00 0.  1.
         21   -1    0    0  504  502 -0.00000000000E+00 -0.00000000000E+00 -0.34448878302E+03  0.34448878302E+03  0.00000000000E+00 0. -1.
         21    1    1    2  503  502 -0.11245368532E+03  0.10351494633E+02  0.24888448296E+03  0.27330655068E+03  0.00000000000E+00 0.  1.
         21    1    1    2  504  506  0.12433218520E+02  0.35650799369E+02 -0.22770735287E+03  0.23081638367E+03  0.00000000000E+00 0. -1.
         21    1    1    2  505  501  0.56706079882E+02  0.99609935787E+00 -0.25047900115E+02  0.61999750078E+02  0.00000000000E+00 0. -1.
         21    1    1    2  506  505  0.43314386914E+02 -0.46998393360E+02 -0.42325960937E+02  0.76658150652E+02  0.00000000000E+00 0. -1.
<scales pt_clust_3="112.03069" pt_clust_4="37.75665" pt_clust_5="48.31069" pt_clust_6="48.31069"></scales>
<clustering>
<clus scale="   37.757">  2  4  1 -1</clus>
<clus scale="   48.311">  5  6 -1 -1</clus>
<clus scale="  112.031">  1  3  2 -1</clus>
<clus scale="  112.031">  1  3  2 -1</clus>
</clustering>
</event>
<event>
 6    0  0.5510638E+002  0.1676845E+03  0.7546771E-02  0.1180284E+00
         21   -1    0    0  504  501  0.00000000000E+00  0.00000000000E+00  0.14922911997E+03  0.14922911997E+03  0.00000000000E+00 0.  1.
         21   -1    0    0  506  502 -0.00000000000E+00 -0.00000000000E+00 -0.87699628516E+03  0.87699628516E+03  0.00000000000E+00 0.  1.
         21    1    1    2  503  501 -0.87437393954E+02  0.52261279382E+02  0.79478637275E+02  0.12920291393E+03  0.00000000000E+00 0.  1.
         21    1    1    2  504  505 -0.59675835434E+02  0.47552099973E+02 -0.31429176205E+02  0.82523939941E+02  0.00000000000E+00 0. -1.
         21    1    1    2  505  502  0.18264751668E+03 -0.57093658629E+02 -0.63134680125E+03  0.65971098570E+03  0.00000000000E+00 0.  1.
         21    1    1    2  506  503 -0.35534287291E+02 -0.42719720725E+02 -0.14446982502E+03  0.15478756556E+03  0.00000000000E+00 0.  1.
<scales pt_clust_3="14000.00000" pt_clust_4="76.52004" pt_clust_5="167.68450" pt_clust_6="55.56672"></scales>
<clustering>
<clus scale="   55.567">  2  6  1 -1</clus>
<clus scale="   76.520">  1  4  2 -1</clus>
<clus scale="  167.684">  2  5  1 -1</clus>
<clus scale="   76.520">  1  3  2 -1</clus>
</clustering>
</event>
<event>
 6    0  0.5510638E+002  0.8046713E+02  0.7546771E-02  0.1327731E+00
         21   -1    0    0  505  501  0.00000000000E+00  0.00000000000E+00  0.14616928872E+04  0.14616928872E+04  0.00000000000E+00 0.  1.
         21   -1    0    0  504  502 -0.00000000000E+00 -0.00000000000E+00 -0.46410666047E+02  0.46410666047E+02  0.00000000000E+00 0. -1.
         21    1    1    2  503  502 -0.41813137544E+01  0.10368731363E+03  0.35436624823E+02  0.10965535450E+03  0.00000000000E+00 0. -1.
         21    1    1    2  504  506  0.23854424464E+02 -0.31228853028E+02  0.66417998587E+02  0.77172698309E+02  0.00000000000E+00 0. -1.
         21    1    1    2  505  503 -0.10900890775E+02  0.34556760608E+02  0.30311474519E+03  0.30527290720E+03  0.00000000000E+00 0. -1.
         21    1    1    2  506  501 -0.87722199346E+01 -0.10701522121E+03  0.10103128526E+04  0.10160025932E+04  0.00000000000E+00 0.  1.
<scales pt_clust_3="80.46713" pt_clust_4="37.19133" pt_clust_5="36.23533" pt_clust_6="14000.00000"></scales>
<clustering>
<clus scale="   36.235">  1  5  2 -1</clus>
<clus scale="   37.191">  2  4  1 -1</clus>
<clus scale="   80.467">  2  3  1 -1</clus>
<clus scale="   36.235">  1  3  2 -1</clus>
</clustering>
</event>
<event>
 6    0  0.5510638E+002  0.1430963E+03  0.7546771E-02  0.1209222E+00
         21   -1    0    0  506  501  0.00000000000E+00  0.00000000000E+00  0.92983252679E+03  0.92983252679E+03  0.00000000000E+00 0. -1.
         21   -1    0    0  504  502 -0.00000000000E+00 -0.00000000000E+00 -0.17050232904E+03  0.17050232904E+03  0.00000000000E+00 0. -1.
         21    1    1    2  503  505 -0.71040231406E+02  0.93367645633E+02  0.26563936392E+02  0.12029079119E+03  0.00000000000E+00 0. -1.
         21    1    1    2  504  503  0.25981594273E+02 -0.25317448879E+02 -0.10027343957E+03  0.10663385551E+03  0.00000000000E+00 0. -1.
         21    1    1    2  505  501  0.13046242069E+03 -0.71811197667E+02  0.69706810800E+03  0.71279817516E+03  0.00000000000E+00 0. -1.
         21    1    1    2  506  502 -0.85403783555E+02  0.37610009124E+01  0.13597159292E+03  0.16061203397E+03  0.00000000000E+00 0. -1.
<scales pt_clust_3="14000.00000" pt_clust_4="36.27694" pt_clust_5="143.09630" pt_clust_6="80.63458"></scales>
<clustering>
<clus scale="   36.277">  2  4  1 -1</clus>
<clus scale="   80.635">  2  6  1 -1</clus>
<clus scale="  143.096">  1  5  2 -1</clus>
<clus scale="  143.096">  1  3  2 -1</clus>
</clustering>
</event>
<event>
 6    0  0.5510638E+002  0.7251011E+02  0.7546771E-02  0.1351759E+00
         21   -1    0    0  504  501  0.00000000000E+00  0.00000000000E+00  0.25097323136E+03  0.25097323136E+03  0.00000000000E+00 0.  1.
         21   -1    0    0  505  502 -0.00000000000E+00 -0.00000000000E+00 -0.30967659375E+03  0.30967659375E+03  0.00000000000E+00 0.  1.
         21    1    1    2  503  502  0.17961229155E+01  0.65938276823E+02 -0.81825674186E+02  0.10510244224E+03  0.00000000000E+00 0.  1.
         21    1    1    2  504  506 -0.35259888663E+02  0.37381233601E+02  0.18092754668E+03  0.18808347488E+03  0.00000000000E+00 0.  1.
         21    1    1    2  505  501  0.65338468024E+02 -0.62644063955E+02 -0.18725465977E+03  0.20798485944E+03  0.00000000000E+00 0.  1.
         21    1    1    2  506  503 -0.31874702277E+02 -0.40675446469E+02  0.29449424880E+02  0.59479048551E+02  0.00000000000E+00 0.  1.
<scales pt_clust_3="14000.00000" pt_clust_4="51.38693" pt_clust_5="72.51011" pt_clust_6="57.63302"></scales>
<clustering>
<clus scale="   51.387">  1  4  2 -1</clus>
<clus scale="   57.633">  1  6  2 -1</clus>
<clus scale="   72.510">  2  5  1 -1</clus>
<clus scale="   51.387">  1  3  2 -1</clus>
</clustering>
</event>
<event>
 6    0  0.5510638E+002  0.1187917E+03  0.7546771E-02  0.1245104E+00
         21   -1    0    0  503  501  0.00000000000E+00  0.00000000000E+00  0.11664004092E+03  0.11664004092E+03  0.00000000000E+00 0. -1.
         21   -1    0    0  501  502 -0.00000000000E+00 -0.00000000000E+00 -0.25514747716E+03  0.25514747716E+03  0.00000000000E+00 0. -1.
         21    1    1    2  503  506 -0.41021199550E+02  0.40105821978E+02  0.40640647949E+02  0.70305604576E+02  0.00000000000E+00 0. -1.
         21    1    1    2  504  505  0.12857057389E+03 -0.37345790293E+02 -0.90940298693E+02  0.16184943141E+03  0.00000000000E+00 0. -1.
         21    1    1    2  505  502 -0.42458904213E+02 -0.12721631127E+02 -0.81766976548E+02  0.93007724944E+02  0.00000000000E+00 0. -1.
         21    1    1    2  506  504 -0.45090470126E+02  0.99615994418E+01 -0.64408089492E+01  0.46624757152E+02  0.00000000000E+00 0. -1.
<scales pt_clust_3="47.73644" pt_clust_4="107.37950" pt_clust_5="44.32379" pt_clust_6="47.73644"></scales>
<clustering>
<clus scale="   44.324">  2  5  1 -1</clus>
<clus scale="   47.736">  3  6 -1 -1</clus>
<clus scale="  107.379">  2  4  1 -1</clus>
<clus scale="  118.792">  1  3  2 -1</clus>
</clustering>
</event>
<event>
 6    0  0.5510638E+002  0.1215914E+03  0.7546771E-02  0.1240495E+00
         21   -1    0    0  504  501  0.00000000000E+00  0.00000000000E+00  0.16508818909E+04  0.16508818909E+04  0.00000000000E+00 0. -1.
         21   -1    0    0  506  502 -0.00000000000E+00 -0.00000000000E+00 -0.45098095588E+03  0.45098095588E+03  0.00000000000E+00 0.  1.
         21    1    1    2  503  502  0.23418998051E+02  0.54599675139E+02  0.97839037371E+03  0.98019247975E+03  0.00000000000E+00 0. -1.
         21    1    1    2  504  503  0.29141167465E+02 -0.10397416488E+02  0.54246511611E+03  0.54334677335E+03  0.00000000000E+00 0. -1.
         21    1    1    2  505  501 -0.17020566959E+03 -0.49051888922E+02  0.54108300154E+02  0.18521275851E+03  0.00000000000E+00 0. -1.
         21    1    1    2  506  505  0.11764550408E+03  0.48496302716E+01 -0.37506285496E+03  0.39311083516E+03  0.00000000000E+00 0.  1.
<scales pt_clust_3="66.93500" pt_clust_4="30.94049" pt_clust_5="14000.00000" pt_clust_6="121.59141"></scales>
<clustering>
<clus scale="   30.940">  1  4  2 -1</clus>
<clus scale="   66.935">  1  3  2 -1</clus>
<clus scale="  121.591">  2  6  1 -1</clus>
<clus scale="   30.940">  1  3  2 -1</clus>
</clustering>
</event>
<event>
 6    0  0.5510638E+002  0.1238706E+03  0.7546771E-02  0.1236845E+00
         21   -1    0    0  504  501  0.00000000000E+00  0.00000000000E+00  0.95698505733E+03  0.95698505733E+03  0.00000000000E+00 0. -1.
         21   -1    0    0  505  502 -0.00000000000E+00 -0.00000000000E+00 -0.28909450245E+03  0.28909450245E+03  0.00000000000E+00 0. -1.
         21    1    1    2  503  502 -0.32130689757E+02 -0.23514637996E+02 -0.63071808403E+00  0.39821065149E+02  0.00000000000E+00 0.  1.
         21    1    1    2  504  506 -0.36791171785E+02 -0.11703200532E+03  0.84932846111E+03  0.85814271275E+03  0.00000000000E+00 0. -1.
         21    1    1    2  505  501  0.10131336971E+03  0.16982645914E+03 -0.21540098491E+03  0.29240897628E+03  0.00000000000E+00 0. -1.
         21    1    1    2  506  503 -0.32391508167E+02 -0.29279815818E+02  0.34593796770E+02  0.55706805604E+02  0.00000000000E+00 0.  1.
<scales pt_clust_3="30.52347" pt_clust_4="123.87064" pt_clust_5="14000.00000" pt_clust_6="89.28652"></scales>
<clustering>
<clus scale="   30.523">  3  6 -1 -1</clus>
<clus scale="   89.287">  2  3  1 -1</clus>
<clus scale="  123.871">  1  4  2 -1</clus>
<clus scale="  123.871">  1  3  2 -1</clus>
</clustering>
</event>
<event>
 6    0  0.5510638E+002  0.1683415E+03  0.7546771E-02  0.1179589E+00
         21   -1    0    0  503  501  0.00000000000E+00  0.00000000000E+00  0.36846923861E+03  0.36846923861E+03  0.00000000000E+00 0. -1.
         21   -1    0    0  505  502 -0.00000000000E+00 -0.00000000000E+00 -0.28270931385E+03  0.28270931385E+03  0.00000000000E+00 0. -1.
         21    1    1    2  503  502  0.77797893335E+02 -0.12909721173E+03  0.23591748246E+03  0.27995653380E+03  0.00000000000E+00 0. -1.
         21    1    1    2  504  501 -0.42717325877E+02  0.51050929984E+02 -0.21418812419E+02  0.69926625170E+02  0.00000000000E+00 0. -1.
         21    1    1    2  505  506  0.50419710389E+02  0.14171974895E+02 -0.17669313539E+03  0.18429176911E+03  0.00000000000E+00 0. -1.
         21    1    1    2  506  504 -0.85500277846E+02  0.63874306854E+02  0.47954390107E+02  0.11700362438E+03  0.00000000000E+00 0. -1.
<scales pt_clust_3="154.10267" pt_clust_4="53.66799" pt_clust_5="52.37358" pt_clust_6="53.66799"></scales>
<clustering>
<clus scale="   52.374">  2  5  1 -1</clus>
<clus scale="   53.668">  4  6 -1 -1</clus>
<clus scale="  154.103">  1  3  2 -1</clus>
<clus scale="  154.103">  1  3  2 -1</clus>
</clustering>
</event>
<event>
 6    0  0.5510638E+002  0.1037549E+03  0.7546771E-02  0.1272592E+00
         21   -1    0    0  506  501  0.00000000000E+00  0.00000000000E+00  0.16977269213E+04  0.16977269213E+04  0.00000000000E+00 0. -1.
         21   -1    0    0  503  502 -0.00000000000E+00 -0.00000000000E+00 -0.81585189466E+02  0.81585189466E+02  0.00000000000E+00 0. -1.
         21    1    1    2  503  505 -0.34115964854E+02 -0.36160785323E+02  0.91853552098E+02  0.10444413093E+03  0.00000000000E+00 0. -1.
         21    1    1    2  504  502  0.29402026505E+00  0.14087862367E+03 -0.29302521852E+01  0.14090940150E+03  0.00000000000E+00 0. -1.
         21    1    1    2  505  501  0.60200456738E+02 -0.38021984812E+02  0.68436944158E+03  0.68806344104E+03  0.00000000000E+00 0. -1.
         21    1    1    2  506  504 -0.26378512149E+02 -0.66695853532E+02  0.84284899036E+03  0.84589513732E+03  0.00000000000E+00 0. -1.
<scales pt_clust_3="49.71420" pt_clust_4="103.75490" pt_clust_5="70.97848" pt_clust_6="14000.00000"></scales>
<clustering>
<clus scale="   49.714">  2  3  1 -1</clus>
<clus scale="   70.978">  1  5  2 -1</clus>
<clus scale="  103.755">  2  4  1 -1</clus>
<clus scale="   70.978">  1  3  2 -1</clus>
</clustering>
</event>
<event>
 6    0  0.5510638E+002  0.9798777E+02  0.7546771E-02  0.1284585E+00
         21   -1    0    0  506  501  0.00000000000E+00  0.00000000000E+00  0.54657174290E+02  0.54657174290E+02  0.00000000000E+00 0.  1.
         21   -1    0    0  503  502 -0.00000000000E+00 -0.00000000000E+00 -0.13712300774E+04  0.13712300774E+04  0.00000000000E+00 0.  1.
         21    1    1    2  503  504  0.85676571064E+02  0.55659774563E+02 -0.11524567600E+04  0.11569766934E+04  0.00000000000E+00 0.  1.
         21    1    1    2  504  501 -0.30864170663E+01  0.35045398849E+02  0.50150850530E+01  0.35536699747E+02  0.00000000000E+00 0.  1.
         21    1    1    2  505  502 -0.35329440126E+02 -0.82337338643E+02 -0.16162055300E+03  0.18479396588E+03  0.00000000000E+00 0.  1.
         21    1    1    2  506  505 -0.47260713871E+02 -0.83678347684E+01 -0.75106751874E+01  0.48579892714E+02  0.00000000000E+00 0.  1.
<scales pt_clust_3="97.98777" pt_clust_4="35.18105" pt_clust_5="14000.00000" pt_clust_6="50.68583"></scales>
<clustering>
<clus scale="   35.181">  1  4  2 -1</clus>
<clus scale="   50.686">  1  6  2 -1</clus>
<clus scale="   97.988">  2  3  1 -1</clus>
<clus scale="   35.181">  1  3  2 -1</clus>
</clustering>
</event>
<event>
 6    0  0.5510638E+002  0.1287944E+03  0.7546771E-02  0.1229256E+00
         21   -1    0    0  505  501  0.00000000000E+00  0.00000000000E+00  0.50397885523E+03  0.50397885523E+03  0.00000000000E+00 0. -1.
         21   -1    0    0  506  502 -0.00000000000E+00 -0.00000000000E+00 -0.78813998406E+03  0.78813998406E+03  0.00000000000E+00 0.  1.
         21    1    1    2  503  501  0.29470163018E+02 -0.13084037055E+02  0.36053487784E+03  0.36197386739E+03  0.00000000000E+00 0. -1.
         21    1    1    2  504  503 -0.76562581039E+02 -0.79171038948E+02 -0.93667373355E+02  0.14458028584E+03  0.00000000000E+00 0. -1.
         21    1    1    2  505  502 -0.32524657203E+01 -0.33761508861E+02  0.10774611613E+03  0.11295859221E+03  0.00000000000E+00 0.  1.
         21    1    1    2  506  504  0.50344883742E+02  0.12601658486E+03 -0.65877474944E+03  0.67260609384E+03  0.00000000000E+00 0.  1.
<scales pt_clust_3="32.24411" pt_clust_4="14000.00000" pt_clust_5="48.02939" pt_clust_6="128.79444"></scales>
<clustering>
<clus scale="   32.244">  1  3  2 -1</clus>
<clus scale="   48.029">  1  5  2 -1</clus>
<clus scale="  128.794">  2  6  1 -1</clus>
<clus scale="   32.244">  1  3  2 -1</clus>
</clustering>
</event>
<event>
 6    0  0.5510638E+002  0.1668007E+03  0.7546771E-02  0.1181226E+00
         21   -1    0    0  506  501  0.00000000000E+00  0.00000000000E+00  0.61229266889E+03  0.61229266889E+03  0.00000000000E+00 0.  1.
         21   -1    0    0  505  502 -0.00000000000E+00 -0.00000000000E+00 -0.88847839738E+02  0.88847839738E+02  0.00000000000E+00 0.  1.
         21    1    1    2  503  504  0.77300725893E+02  0.85550401184E+02  0.19748964586E+03  0.22868413498E+03  0.00000000000E+00 0.  1.
         21    1    1    2  504  501 -0.69153820328E+01  0.61023906269E+02  0.13600261485E+03  0.14922617361E+03  0.00000000000E+00 0.  1.
         21    1    1    2  505  503  0.28418051111E+02 -0.43481167826E+02 -0.30748501652E+02  0.60362802605E+02  0.00000000000E+00 0.  1.
         21    1    1    2  506  502 -0.98803394972E+02 -0.10309313963E+03  0.22070107009E+03  0.26286739744E+03  0.00000000000E+00 0.  1.
<scales pt_clust_3="50.08494" pt_clust_4="50.08494" pt_clust_5="51.94418" pt_clust_6="150.53731"></scales>
<clustering>
<clus scale="   51.944">  2  5  1 -1</clus>
<clus scale="   50.085">  3  4 -1 -1</clus>
<clus scale="  150.537">  2  6  1 -1</clus>
<clus scale="  166.801">  1  3  2 -1</clus>
</clustering>
</event>
<event>
 6    0  0.5510638E+002  0.1570584E+03  0.7546771E-02  0.1192058E+00
         21   -1    0    0  505  501  0.00000000000E+00  0.00000000000E+00  0.23902314822E+03  0.23902314822E+03  0.00000000000E+00 0.  1.
         21   -1    0    0  506  502 -0.00000000000E+00 -0.00000000000E+00 -0.39138386067E+03  0.39138386067E+03  0.00000000000E+00 0.  1.
         21    1    1    2  503  502  0.18928132845E+02  0.29253774388E+02 -0.22435284325E+02  0.41441519177E+02  0.00000000000E+00 0. -1.
         21    1    1    2  504  503  0.60098745864E+02 -0.53736527304E+02  0.92080124321E+02  0.12238555028E+03  0.00000000000E+00 0.  1.
         21    1    1    2  505  504  0.75366783212E+02  0.77810252914E+01  0.90251004950E+02  0.11783861956E+03  0.00000000000E+00 0.  1.
         21    1    1    2  506  501 -0.15439366192E+03  0.16701727624E+02 -0.31225655740E+03  0.34874131987E+03  0.00000000000E+00 0.  1.
<scales pt_clust_3="34.84333" pt_clust_4="61.73729" pt_clust_5="61.73729" pt_clust_6="143.76072"></scales>
<clustering>
<clus scale="   34.843">  2  3  1 -1</clus>
<clus scale="   61.737">  4  5 -1 -1</clus>
<clus scale="  143.761">  2  6  1 -1</clus>
<clus scale="  157.058">  1  3  2 -1</clus>
</clustering>
</event>
<event>
 6    0  0.5510638E+002  0.1028727E+03  0.7546771E-02  0.1274368E+00
         21   -1    0    0  505  501  0.00000000000E+00  0.00000000000E+00  0.55847295643E+03  0.55847295643E+03  0.00000000000E+00 0. -1.
         21   -1    0    0  506  502 -0.00000000000E+00 -0.00000000000E+00 -0.50238002591E+02  0.50238002591E+02  0.00000000000E+00 0. -1.
         21    1    1    2  503  504  0.15341765189E+02 -0.29883343575E+02  0.51380723313E+02  0.61386991379E+02  0.00000000000E+00 0. -1.
         21    1    1    2  504  502 -0.26708622984E+02  0.18820928985E+02  0.26582448561E+02  0.42121306736E+02  0.00000000000E+00 0. -1.
         21    1    1    2  505  503  0.10075927921E+03  0.56002205860E+02  0.78469517440E+02  0.13944943376E+03  0.00000000000E+00 0. -1.
         21    1    1    2  506  501 -0.89392421415E+02 -0.44939791270E+02  0.35180226453E+03  0.36575322715E+03  0.00000000000E+00 0. -1.
<scales pt_clust_3="30.23470" pt_clust_4="32.67381" pt_clust_5="14000.00000" pt_clust_6="102.87273"></scales>
<clustering>
<clus scale="   32.674">  2  4  1 -1</clus>
<clus scale="   30.235">  2  3  1 -1</clus>
<clus scale="  102.873">  1  6  2 -1</clus>
<clus scale="  102.873">  1  3  2 -1</clus>
</clustering>
</event>
<event>
 6    0  0.5510638E+002  0.8482414E+02  0.7546771E-02  0.1315893E+00
         21   -1    0    0  506  501  0.00000000000E+00  0.00000000000E+00  0.27303215523E+04  0.27303215523E+04  0.00000000000E+00 0. -1.
         21   -1    0    0  503  502 -0.00000000000E+00 -0.00000000000E+00 -0.36984571431E+03  0.36984571431E+03  0.00000000000E+00 0.  1.
         21    1    1    2  503  505  0.37258954887E+02  0.10806315231E+03 -0.27501931721E+03  0.29782796955E+03  0.00000000000E+00 0.  1.
         21    1    1    2  504  502 -0.44472169985E+02 -0.23571369359E+02 -0.72836057886E+02  0.88535160728E+02  0.00000000000E+00 0.  1.
         21    1    1    2  505  501 -0.18936844037E+02 -0.60631698278E+02  0.25770866880E+04  0.25778693925E+04  0.00000000000E+00 0. -1.
         21    1    1    2  506  504  0.26150059136E+02 -0.23860084676E+02  0.13124452500E+03  0.13593474381E+03  0.00000000000E+00 0. -1.
<scales pt_clust_3="84.82414" pt_clust_4="50.29676" pt_clust_5="14000.00000" pt_clust_6="35.39957"></scales>
<clustering>
<clus scale="   35.400">  1  6  2 -1</clus>
<clus scale="   50.297">  2  4  1 -1</clus>
<clus scale="   84.824">  2  3  1 -1</clus>
<clus scale="   35.400">  1  3  2 -1</clus>
</clustering>
</event>
<event>
 6    0  0.5510638E+002  0.7672650E+02  0.7546771E-02  0.1338606E+00
         21   -1    0    0  505  501  0.00000000000E+00  0.00000000000E+00  0.20852775230E+03  0.20852775230E+03  0.00000000000E+00 0.  1.
         21   -1    0    0  506  502 -0.00000000000E+00 -0.00000000000E+00 -0.10210042170E+04  0.10210042170E+04  0.00000000000E+00 0. -1.
         21    1    1    2  503  502  0.42716080511E+02 -0.10227124116E+03 -0.10410303886E+03  0.15205759765E+03  0.00000000000E+00 0.  1.
         21    1    1    2  504  501 -0.13412332536E+02  0.30777794792E+02  0.92836034769E+01  0.34833153889E+02  0.00000000000E+00 0.  1.
         21    1    1    2  505  503  0.27573960343E+02  0.45829164612E+02  0.15694900463E+03  0.16581201908E+03  0.00000000000E+00 0.  1.
         21    1    1    2  506  504 -0.56877708318E+02  0.25664281758E+02 -0.87460603395E+03  0.87682919869E+03  0.00000000000E+00 0. -1.
<scales pt_clust_3="76.72650" pt_clust_4="33.57325" pt_clust_5="14000.00000" pt_clust_6="62.54823"></scales>
<clustering>
<clus scale="   33.573">  1  4  2 -1</clus>
<clus scale="   62.548">  2  6  1 -1</clus>
<clus scale="   76.727">  2  3  1 -1</clus>
<clus scale="   33.573">  1  3  2 -1</clus>
</clustering>
</event>
<event>
 6    0  0.5510638E+002  0.8240152E+02  0.7546771E-02  0.1322371E+00
         21   -1    0    0  506  501  0.00000000000E+00  0.00000000000E+00  0.62760462728E+03  0.62760462728E+03  0.00000000000E+00 0. -1.
         21   -1    0    0  504  502 -0.00000000000E+00 -0.00000000000E+00 -0.84262572235E+02  0.84262572235E+02  0.00000000000E+00 0.  1.
         21    1    1    2  503  505  0.53042076841E+02 -0.11907952132E+02  0.43818730404E+03  0.44154657134E+03  0.00000000000E+00 0. -1.
         21    1    1    2  504  503  0.53567860978E+02  0.35063336425E+02  0.78480346634E+01  0.64502286309E+02  0.00000000000E+00 0.  1.
         21    1    1    2  505  501  0.22196809995E+02 -0.25166165673E+02  0.64776293485E+02  0.72952055943E+02  0.00000000000E+00 0. -1.
         21    1    1    2  506  502 -0.12880674781E+03  0.20107813808E+01  0.32530422859E+02  0.13286628593E+03  0.00000000000E+00 0.  1.
<scales pt_clust_3="14000.00000" pt_clust_4="64.36908" pt_clust_5="33.55643" pt_clust_6="82.40152"></scales>
<clustering>
<clus scale="   33.556">  1  5  2 -1</clus>
<clus scale="   64.369">  2  4  1 -1</clus>
<clus scale="   82.402">  2  6  1 -1</clus>
<clus scale="   33.556">  1  3  2 -1</clus>
</clustering>
</event>
<event>
 6    0  0.5510638E+002  0.1297168E+03  0.7546771E-02  0.1227877E+00
         21   -1    0    0  506  501  0.00000000000E+00  0.00000000000E+00  0.18584672832E+03  0.18584672832E+03  0.00000000000E+00 0. -1.
         21   -1    0    0  504  502 -0.00000000000E+00 -0.00000000000E+00 -0.55512497665E+03  0.55512497665E+03  0.00000000000E+00 0. -1.
         21    1    1    2  503  501 -0.21454957474E+02  0.33121186969E+02  0.53828250303E+02  0.66744353747E+02  0.00000000000E+00 0. -1.
         21    1    1    2  504  505 -0.94747713904E+02  0.20602852347E+02 -0.11819746352E+03  0.15287984562E+03  0.00000000000E+00 0. -1.
         21    1    1    2  505  503 -0.10058550356E+03  0.80728039799E+01  0.40627535476E+02  0.10878056043E+03  0.00000000000E+00 0. -1.
         21    1    1    2  506  502  0.21678817493E+03 -0.61796843296E+02 -0.34553657059E+03  0.41256694517E+03  0.00000000000E+00 0. -1.
<scales pt_clust_3="39.46300" pt_clust_4="100.90246" pt_clust_5="14000.00000" pt_clust_6="129.71683"></scales>
<clustering>
<clus scale="   39.463">  1  3  2 -1</clus>
<clus scale="  100.902">  2  4  1 -1</clus>
<clus scale="  129.717">  2  6  1 -1</clus>
<clus scale="   39.463">  1  3  2 -1</clus>
</clustering>
</event>
<event>
 6    0  0.5510638E+002  0.1271136E+03  0.7546771E-02  0.1231803E+00
         21   -1    0    0  503  501  0.00000000000E+00  0.00000000000E+00  0.59949593943E+02  0.59949593943E+02  0.00000000000E+00 0.  1.
         21   -1    0    0  506  502 -0.00000000000E+00 -0.00000000000E+00 -0.45225807821E+03  0.45225807821E+03  0.00000000000E+00 0.  1.
         21    1    1    2  503  502 -0.84391043536E+02 -0.11636459968E+03 -0.21711971450E+03  0.26039112641E+03  0.00000000000E+00 0.  1.
         21    1    1    2  504  505  0.42869186291E+02  0.33397058213E+02 -0.23936151278E+02  0.59380720512E+02  0.00000000000E+00 0.  1.
         21    1    1    2  505  501  0.20083480207E+02  0.60953489802E+02 -0.36905002844E+02  0.74031434750E+02  0.00000000000E+00 0.  1.
         21    1    1    2  506  504  0.21438377038E+02  0.22014051670E+02 -0.11434761565E+03  0.11840439048E+03  0.00000000000E+00 0. -1.
<scales pt_clust_3="122.17109" pt_clust_4="32.26826" pt_clust_5="32.26826" pt_clust_6="30.72820"></scales>
<clustering>
<clus scale="   30.728">  2  6  1 -1</clus>
<clus scale="   32.268">  4  5 -1 -1</clus>
<clus scale="  122.171">  2  3  1 -1</clus>
<clus scale="  127.114">  1  3  2 -1</clus>
</clustering>
</event>
<event>
 6    0  0.5510638E+002  0.1268845E+03  0.7546771E-02  0.1232153E+00
         21   -1    0    0  503  501  0.00000000000E+00  0.00000000000E+00  0.44152217050E+03  0.44152217050E+03  0.00000000000E+00 0.  1.
         21   -1    0    0  504  502 -0.00000000000E+00 -0.00000000000E+00 -0.73171721029E+03  0.73171721029E+03  0.00000000000E+00 0.  1.
         21    1    1    2  503  505  0.15987324737E+02  0.53208072386E+02  0.43101584995E+01  0.55724958372E+02  0.00000000000E+00 0.  1.
         21    1    1    2  504  506  0.86125485209E+02 -0.41695585083E+02  0.69746794049E+02  0.11840919009E+03  0.00000000000E+00 0.  1.
         21    1    1    2  505  502  0.71095542098E+02 -0.53244245300E+00 -0.65588971807E+03  0.65973190151E+03  0.00000000000E+00 0.  1.
         21    1    1    2  506  501 -0.17320835204E+03 -0.10980044851E+02  0.29163772573E+03  0.33937333082E+03  0.00000000000E+00 0.  1.
<scales pt_clust_3="55.55802" pt_clust_4="126.88445" pt_clust_5="71.17075" pt_clust_6="14000.00000"></scales>
<clustering>
<clus scale="   55.558">  1  3  2 -1</clus>
<clus scale="   71.171">  2  5  1 -1</clus>
<clus scale="  126.884">  2  4  1 -1</clus>
<clus scale="   55.558">  1  3  2 -1</clus>
</clustering>
</event>
<event>
 6    0  0.5510638E+002  0.1796726E+03  0.7546771E-02  0.1168120E+00
         21   -1    0    0  504  501  0.00000000000E+00  0.00000000000E+00  0.12713756050E+04  0.12713756050E+04  0.00000000000E+00 0. -1.
         21   -1    0    0  505  502 -0.00000000000E+00 -0.00000000000E+00 -0.80446677670E+02  0.80446677670E+02  0.00000000000E+00 0. -1.
         21    1    1    2  503  506  0.45052715309E+02  0.54456840525E+02  0.25954964954E+03  0.26900058589E+03  0.00000000000E+00 0. -1.
         21    1    1    2  504  502 -0.46543732940E+02 -0.18015565883E+03  0.44863540743E+03  0.48569137246E+03  0.00000000000E+00 0. -1.
         21    1    1    2  505  503 -0.37515749763E+02  0.29685532474E+02 -0.41138733509E+02  0.63095623566E+02  0.00000000000E+00 0. -1.
         21    1    1    2  506  501  0.39006767394E+02  0.96013285835E+02  0.52388260383E+03  0.53403470071E+03  0.00000000000E+00 0. -1.
<scales pt_clust_3="30.81470" pt_clust_4="175.75531" pt_clust_5="47.83997" pt_clust_6="30.81470"></scales>
<clustering>
<clus scale="   30.815">  3  6 -1 -1</clus>
<clus scale="   47.840">  2  5  1 -1</clus>
<clus scale="  175.755">  2  4  1 -1</clus>
<clus scale="  179.673">  1  3  2 -1</clus>
</clustering>
</event>
<event>
 6    0  0.5510638E+002  0.5485233E+02  0.7546771E-02  0.1420799E+00
         21   -1    0    0  505  501  0.00000000000E+00  0.00000000000E+00  0.16364459764E+04  0.16364459764E+04  0.00000000000E+00 0. -1.
         21   -1    0    0  506  502 -0.00000000000E+00 -0.00000000000E+00 -0.75414477282E+03  0.75414477282E+03  0.00000000000E+00 0. -1.
         21    1    1    2  503  502 -0.28523052690E+02  0.73138941256E+02  0.12739103843E+02  0.79530836972E+02  0.00000000000E+00 0. -1.
         21    1    1    2  504  501  0.32397026428E+02  0.37098634064E+02  0.19650677671E+03  0.20258526418E+03  0.00000000000E+00 0. -1.
         21    1    1    2  505  503 -0.35594414452E+02 -0.88516537231E+02  0.13886121978E+04  0.13918857624E+04  0.00000000000E+00 0. -1.
         21    1    1    2  506  504  0.31720440714E+02 -0.21721038089E+02 -0.71555687483E+03  0.71658888560E+03  0.00000000000E+00 0. -1.
<scales pt_clust_3="14000.00000" pt_clust_4="49.70625" pt_clust_5="54.85233" pt_clust_6="38.44463"></scales>
<clustering>
<clus scale="   38.445">  2  6  1 -1</clus>
<clus scale="   49.706">  1  4  2 -1</clus>
<clus scale="   54.852">  1  5  2 -1</clus>
<clus scale="   49.706">  1  3  2 -1</clus>
</clustering>
</event>
<event>
 6    0  0.5510638E+002  0.1029197E+03  0.7546771E-02  0.1274273E+00
         21   -1    0    0  503  501  0.00000000000E+00  0.00000000000E+00  0.27061841130E+03  0.27061841130E+03  0.00000000000E+00 0.  1.
         21   -1    0    0  506  502 -0.00000000000E+00 -0.00000000000E+00 -0.90586762227E+03  0.90586762227E+03  0.00000000000E+00 0. -1.
         21    1    1    2  503  504 -0.79291379261E+02  0.38144486335E+02  0.19839314421E+02  0.90198243107E+02  0.00000000000E+00 0.  1.
         21    1    1    2  504  502 -0.89472813749E+02 -0.27591424090E+02 -0.69966059678E+03  0.70589774173E+03  0.00000000000E+00 0. -1.
         21    1    1    2  505  501  0.75239989406E+02  0.75973117158E+02  0.17049690594E+03  0.20125149806E+03  0.00000000000E+00 0.  1.
         21    1    1    2  506  505  0.93524203604E+02 -0.86526179403E+02 -0.12592483455E+03  0.17913855067E+03  0.00000000000E+00 0.  1.
<scales pt_clust_3="87.98934" pt_clust_4="94.56786" pt_clust_5="14000.00000" pt_clust_6="102.91973"></scales>
<clustering>
<clus scale="   87.989">  1  3  2 -1</clus>
<clus scale="   94.568">  2  4  1 -1</clus>
<clus scale="  102.920">  2  6  1 -1</clus>
<clus scale="   87.989">  1  3  2 -1</clus>
</clustering>
</event>
<event>
 6    0  0.5510638E+002  0.1161459E+03  0.7546771E-02  0.1249594E+00
         21   -1    0    0  505  501  0.00000000000E+00  0.00000000000E+00  0.11462640252E+04  0.11462640252E+04  0.00000000000E+00 0. -1.
         21   -1    0    0  506  502 -0.00000000000E+00 -0.00000000000E+00 -0.69210220624E+02  0.69210220624E+02  0.00000000000E+00 0. -1.
         21    1    1    2  503  502 -0.12625832901E+02 -0.33058488563E+02  0.42633466265E+02  0.55406567917E+02  0.00000000000E+00 0.  1.
         21    1    1    2  504  503  0.19438815801E+02 -0.12121164531E+03  0.58104651387E+03  0.59387303508E+03  0.00000000000E+00 0. -1.
         21    1    1    2  505  504 -0.44132508410E+02  0.10228071716E+03  0.48299516486E+03  0.49567464397E+03  0.00000000000E+00 0. -1.
         21    1    1    2  506  501  0.37319525509E+02  0.51989416714E+02 -0.29621340396E+02  0.70519998875E+02  0.00000000000E+00 0. -1.
<scales pt_clust_3="35.38750" pt_clust_4="116.14592" pt_clust_5="14000.00000" pt_clust_6="37.42224"></scales>
<clustering>
<clus scale="   35.388">  2  3  1 -1</clus>
<clus scale="   37.422">  2  6  1 -1</clus>
<clus scale="  116.146">  2  4  1 -1</clus>
<clus scale="  116.146">  1  3  2 -1</clus>
</clustering>
</event>
<event>
 6    0  0.5510638E+002  0.1011515E+03  0.7546771E-02  0.1277893E+00
         21   -1    0    0  506  501  0.00000000000E+00  0.00000000000E+00  0.21142953737E+03  0.21142953737E+03  0.00000000000E+00 0.  1.
         21   -1    0    0  505  502 -0.00000000000E+00 -0.00000000000E+00 -0.21447845864E+03  0.21447845864E+03  0.00000000000E+00 0.  1.
         21    1    1    2  503  501 -0.85640425016E+02 -0.65630262688E+02  0.14419661195E+03  0.18009518782E+03  0.00000000000E+00 0.  1.
         21    1    1    2  504  502  0.51415012076E+02  0.25590554070E+02 -0.10165255408E+03  0.11675453599E+03  0.00000000000E+00 0.  1.
         21    1    1    2  505  503 -0.22749773459E+02 -0.21059931272E+02 -0.31753215364E+02  0.44377241730E+02  0.00000000000E+00 0.  1.
         21    1    1    2  506  504  0.56975186398E+02  0.61099639891E+02 -0.13839763781E+02  0.84681030470E+02  0.00000000000E+00 0.  1.
<scales pt_clust_3="14000.00000" pt_clust_4="39.38671" pt_clust_5="31.00118" pt_clust_6="101.15152"></scales>
<clustering>
<clus scale="   31.001">  2  5  1 -1</clus>
<clus scale="   39.387">  2  4  1 -1</clus>
<clus scale="  101.152">  2  6  1 -1</clus>
<clus scale="  101.152">  1  3  2 -1</clus>
</clustering>
</event>
<event>
 6    0  0.5510638E+002  0.7162116E+02  0.7546771E-02  0.1354665E+00
         21   -1    0    0  506  501  0.00000000000E+00  0.00000000000E+00  0.12255018060E+04  0.12255018060E+04  0.00000000000E+00 0.  1.
         21   -1    0    0  504  502 -0.00000000000E+00 -0.00000000000E+00 -0.32435054539E+02  0.32435054539E+02  0.00000000000E+00 0.  1.
         21    1    1    2  503  502 -0.56000697456E+02  0.72246543448E+02  0.33049333736E+03  0.34290157071E+03  0.00000000000E+00 0.  1.
         21    1    1    2  504  501  0.67123931763E+02 -0.21896155967E+02  0.28827185592E+02  0.76263166015E+02  0.00000000000E+00 0.  1.
         21    1    1    2  505  503 -0.43613408420E+02 -0.29630273732E+02  0.52082819202E+03  0.52349029419E+03  0.00000000000E+00 0.  1.
         21    1    1    2  506  505  0.32490174114E+02 -0.20720113750E+02  0.31291803649E+03  0.31528182962E+03  0.00000000000E+00 0.  1.
<scales pt_clust_3="14000.00000" pt_clust_4="71.62116" pt_clust_5="48.44904" pt_clust_6="38.53485"></scales>
<clustering>
<clus scale="   38.535">  1  6  2 -1</clus>
<clus scale="   48.449">  1  5  2 -1</clus>
<clus scale="   71.621">  2  4  1 -1</clus>
<clus scale="   38.535">  1  3  2 -1</clus>
</clustering>
</event>
<event>
 6    0  0.5510638E+002  0.1365760E+03  0.7546771E-02  0.1218012E+00
         21   -1    0    0  506  501  0.00000000000E+00  0.00000000000E+00  0.32455296760E+03  0.32455296760E+03  0.00000000000E+00 0. -1.
         21   -1    0    0  505  502 -0.00000000000E+00 -0.00000000000E+00 -0.60345374480E+03  0.60345374480E+03  0.00000000000E+00 0.  1.
         21    1    1    2  503  502  0.57281498249E+02 -0.43256892037E+02 -0.42834386508E+03  0.43431646930E+03  0.00000000000E+00 0.  1.
         21    1    1    2  504  501 -0.29151898715E+02 -0.13529735640E+02  0.12434553887E+02  0.34460195524E+02  0.00000000000E+00 0. -1.
         21    1    1    2  505  504 -0.26905077794E+02 -0.98328413393E+02 -0.12097630664E+03  0.15820122269E+03  0.00000000000E+00 0.  1.
         21    1    1    2  506  503 -0.12245217407E+01  0.15511504107E+03  0.25798484063E+03  0.30102882489E+03  0.00000000000E+00 0. -1.
<scales pt_clust_3="71.63042" pt_clust_4="32.13856" pt_clust_5="14000.00000" pt_clust_6="136.57597"></scales>
<clustering>
<clus scale="   32.139">  1  4  2 -1</clus>
<clus scale="   71.630">  2  3  1 -1</clus>
<clus scale="  136.576">  1  6  2 -1</clus>
<clus scale="   32.139">  1  3  2 -1</clus>
</clustering>
</event>
<event>
 6    0  0.5510638E+002  0.1701185E+03  0.7546771E-02  0.1177724E+00
         21   -1    0    0  505  501  0.00000000000E+00  0.00000000000E+00  0.12887349742E+03  0.12887349742E+03  0.00000000000E+00 0.  1.
         21   -1    0    0  504  502 -0.00000000000E+00 -0.00000000000E+00 -0.86271984293E+03  0.86271984293E+03  0.00000000000E+00 0. -1.
         21    1    1    2  503  501  0.49969221931E+02  0.68712662634E+02  0.45293760558E+02  0.96280205090E+02  0.00000000000E+00 0.  1.
         21    1    1    2  504  506 -0.77989195956E+02 -0.50042698829E+02 -0.58355827242E+03  0.59086956573E+03  0.00000000000E+00 0. -1.
         21    1    1    2  505  502 -0.34304228036E+02 -0.81341519871E+02 -0.19718395187E+03  0.21604336091E+03  0.00000000000E+00 0.  1.
         21    1    1    2  506  503  0.62324202061E+02  0.62671556067E+02  0.16021182234E+01  0.88400208626E+02  0.00000000000E+00 0. -1.
<scales pt_clust_3="44.23928" pt_clust_4="164.02525" pt_clust_5="88.27923" pt_clust_6="44.23928"></scales>
<clustering>
<clus scale="   44.239">  3  6 -1 -1</clus>
<clus scale="   88.279">  2  5  1 -1</clus>
<clus scale="  164.025">  2  4  1 -1</clus>
<clus scale="  170.118">  1  3  2 -1</clus>
</clustering>
</event>
<event>
 6    0  0.5510638E+002  0.9618790E+02  0.7546771E-02  0.1288523E+00
         21   -1    0    0  505  501  0.00000000000E+00  0.00000000000E+00  0.80711311129E+03  0.80711311129E+03  0.00000000000E+00 0. -1.
         21   -1    0    0  504  502 -0.00000000000E+00 -0.00000000000E+00 -0.11103485797E+04  0.11103485797E+04  0.00000000000E+00 0. -1.
         21    1    1    2  503  506 -0.26090547453E+02  0.58641137580E+02 -0.26113861277E+03  0.26891053301E+03  0.00000000000E+00 0.  1.
         21    1    1    2  504  501  0.85626834693E+02 -0.95916096517E+02  0.71503868872E+03  0.72650683324E+03  0.00000000000E+00 0. -1.
         21    1    1    2  505  503 -0.44488571621E+02  0.77983447141E+01  0.75915689646E+02  0.88335944663E+02  0.00000000000E+00 0.  1.
         21    1    1    2  506  502 -0.15047715619E+02  0.29476614222E+02 -0.83305123397E+03  0.83370838004E+03  0.00000000000E+00 0. -1.
<scales pt_clust_3="96.18790" pt_clust_4="14000.00000" pt_clust_5="45.61717" pt_clust_6="33.09539"></scales>
<clustering>
<clus scale="   33.095">  2  6  1 -1</clus>
<clus scale="   45.617">  1  5  2 -1</clus>
<clus scale="   96.188">  2  3  1 -1</clus>
<clus scale="   45.617">  1  3  2 -1</clus>
</clustering>
</event>
<event>
 6    0  0.5510638E+002  0.1254767E+03  0.7546771E-02  0.1234326E+00
         21   -1    0    0  504  501  0.00000000000E+00  0.00000000000E+00  0.47615647408E+03  0.47615647408E+03  0.00000000000E+00 0.  1.
         21   -1    0    0  506  502 -0.00000000000E+00 -0.00000000000E+00 -0.61307857258E+02  0.61307857258E+02  0.00000000000E+00 0. -1.
         21    1    1    2  503  501 -0.47887002691E+02  0.50463021048E+02  0.14614215521E+03  0.16185552524E+03  0.00000000000E+00 0.  1.
         21    1    1    2  504  502  0.57205494663E+02  0.12987489532E+02  0.13305040357E+03  0.14540823015E+03  0.00000000000E+00 0.  1.
         21    1    1    2  505  503 -0.10000838384E+02  0.56671911450E+02  0.78066058524E+02  0.96984698840E+02  0.00000000000E+00 0.  1.
         21    1    1    2  506  505  0.68234641265E+00 -0.12012242203E+03  0.57589999514E+02  0.13321587711E+03  0.00000000000E+00 0. -1.
<scales pt_clust_3="39.64523" pt_clust_4="58.66126" pt_clust_5="39.64523" pt_clust_6="117.66211"></scales>
<clustering>
<clus scale="   39.645">  3  5 -1 -1</clus>
<clus scale="   58.661">  1  4  2 -1</clus>
<clus scale="  117.662">  2  6  1 -1</clus>
<clus scale="   58.661">  1  3  2 -1</clus>
</clustering>
</event>
<event>
 6    0  0.5510638E+002  0.1164380E+03  0.7546771E-02  0.1249092E+00
         21   -1    0    0  503  501  0.00000000000E+00  0.00000000000E+00  0.18937548034E+03  0.18937548034E+03  0.00000000000E+00 0. -1.
         21   -1    0    0  504  502 -0.00000000000E+00 -0.00000000000E+00 -0.10510951197E+03  0.10510951197E+03  0.00000000000E+00 0. -1.
         21    1    1    2  503  505  0.37799169732E+01  0.79917114371E+02  0.29489461112E+02  0.85268172599E+02  0.00000000000E+00 0. -1.
         21    1    1    2  504  506 -0.59594768479E+02 -0.89153033377E+02 -0.14022934515E+02  0.10815009238E+03  0.00000000000E+00 0. -1.
         21    1    1    2  505  502  0.25225072898E+02  0.28359308240E+02  0.34716368819E+02  0.51437155156E+02  0.00000000000E+00 0.  1.
         21    1    1    2  506  501  0.30589778607E+02 -0.19123389234E+02  0.34083072960E+02  0.49629572166E+02  0.00000000000E+00 0. -1.
<scales pt_clust_3="30.80924" pt_clust_4="107.50311" pt_clust_5="30.80924" pt_clust_6="36.07546"></scales>
<clustering>
<clus scale="   30.809">  3  5 -1 -1</clus>
<clus scale="   36.075">  1  6  2 -1</clus>
<clus scale="  107.503">  2  4  1 -1</clus>
<clus scale="   36.075">  1  3  2 -1</clus>
</clustering>
</event>
<event>
 6    0  0.5510638E+002  0.7939229E+02  0.7546771E-02  0.1330785E+00
         21   -1    0    0  503  501  0.00000000000E+00  0.00000000000E+00  0.59053023705E+03  0.59053023705E+03  0.00000000000E+00 0.  1.
         21   -1    0    0  504  502 -0.00000000000E+00 -0.00000000000E+00 -0.18507139205E+03  0.18507139205E+03  0.00000000000E+00 0.  1.
         21    1    1    2  503  502  0.44756070814E+01  0.54104236864E+02  0.41761700166E+03  0.42113092926E+03  0.00000000000E+00 0.  1.
         21    1    1    2  504  505 -0.73521301107E+02 -0.10983639633E+02 -0.12136235753E+03  0.14231951335E+03  0.00000000000E+00 0.  1.
         21    1    1    2  505  506  0.92205628541E+02 -0.70071740043E+02  0.21859810411E+02  0.11785490231E+03  0.00000000000E+00 0.  1.
         21    1    1    2  506  501 -0.23159934515E+02  0.26951142813E+02  0.87344390461E+02  0.94296284182E+02  0.00000000000E+00 0. -1.
<scales pt_clust_3="79.39229" pt_clust_4="74.73669" pt_clust_5="14000.00000" pt_clust_6="35.53515"></scales>
<clustering>
<clus scale="   35.535">  1  6  2 -1</clus>
<clus scale="   74.737">  2  4  1 -1</clus>
<clus scale="   79.392">  1  3  2 -1</clus>
<clus scale="   35.535">  1  3  2 -1</clus>
</clustering>
</event>
<event>
 6    0  0.5518290E+002  0.9989011E+02  0.7546771E-02  0.1280527E+00
         21   -1    0    0  504  501  0.00000000000E+00  0.00000000000E+00  0.39478708976E+03  0.39478708976E+03  0.00000000000E+00 0.  1.
         21   -1    0    0  503  502 -0.00000000000E+00 -0.00000000000E+00 -0.45005281227E+03  0.45005281227E+03  0.00000000000E+00 0.  1.
         21    1    1    2  503  505 -0.93577984542E+01 -0.30626871051E+02 -0.13859954543E+02  0.34895156716E+02  0.00000000000E+00 0. -1.
         21    1    1    2  504  506  0.82632014693E+02  0.57701667191E+02  0.34603041022E+03  0.36040890256E+03  0.00000000000E+00 0.  1.
         21    1    1    2  505  501 -0.51481072993E+02  0.32055339364E+02 -0.38064375540E+01  0.60764583641E+02  0.00000000000E+00 0. -1.
         21    1    1    2  506  502 -0.21793143245E+02 -0.59130135503E+02 -0.38362974063E+03  0.38877125912E+03  0.00000000000E+00 0.  1.
<scales pt_clust_3="32.02458" pt_clust_4="14000.00000" pt_clust_5="60.06579" pt_clust_6="99.89011"></scales>
<clustering>
<clus scale="   32.025">  2  3  1 -1</clus>
<clus scale="   60.066">  2  5  1 -1</clus>
<clus scale="   99.890">  2  6  1 -1</clus>
<clus scale="   99.890">  1  3  2 -1</clus>
</clustering>
</event>
<event>
 6    0  0.5510638E+002  0.2327826E+03  0.7546771E-02  0.1124696E+00
         21   -1    0    0  505  501  0.00000000000E+00  0.00000000000E+00  0.62450927364E+03  0.62450927364E+03  0.00000000000E+00 0.  1.
         21   -1    0    0  504  502 -0.00000000000E+00 -0.00000000000E+00 -0.52501183583E+03  0.52501183583E+03  0.00000000000E+00 0.  1.
         21    1    1    2  503  502  0.68459417536E+02  0.20889183947E+01 -0.40506089533E+03  0.41081064294E+03  0.00000000000E+00 0.  1.
         21    1    1    2  504  501  0.17692070154E+03  0.82542051477E+02  0.19050773175E+03  0.27277705320E+03  0.00000000000E+00 0.  1.
         21    1    1    2  505  506  0.11122983115E+02  0.35105190182E+02  0.11267269148E+03  0.11853788650E+03  0.00000000000E+00 0.  1.
         21    1    1    2  506  503 -0.25650310220E+03 -0.11973616005E+03  0.20137790990E+03  0.34739552682E+03  0.00000000000E+00 0.  1.
<scales pt_clust_3="68.56042" pt_clust_4="14000.00000" pt_clust_5="36.82520" pt_clust_6="232.78264"></scales>
<clustering>
<clus scale="   36.825">  1  5  2 -1</clus>
<clus scale="   68.560">  2  3  1 -1</clus>
<clus scale="  232.783">  2  6  1 -1</clus>
<clus scale="   36.825">  1  3  2 -1</clus>
</clustering>
</event>
<event>
 6    0  0.5510638E+002  0.2067041E+03  0.7546771E-02  0.1144203E+00
         21   -1    0    0  505  501  0.00000000000E+00  0.00000000000E+00  0.35225483912E+03  0.35225483912E+03  0.00000000000E+00 0. -1.
         21   -1    0    0  504  502 -0.00000000000E+00 -0.00000000000E+00 -0.19425194922E+03  0.19425194922E+03  0.00000000000E+00 0.  1.
         21    1    1    2  503  501 -0.28686578090E+02 -0.25423990747E+02  0.17512087488E+02  0.42142286082E+02  0.00000000000E+00 0. -1.
         21    1    1    2  504  506  0.41707204377E+02 -0.86210058242E+02  0.71348653051E+02  0.11942485223E+03  0.00000000000E+00 0. -1.
         21    1    1    2  505  502  0.10093743935E+02  0.19102100098E+03 -0.85542390557E+02  0.20954332980E+03  0.00000000000E+00 0.  1.
         21    1    1    2  506  503 -0.23114370221E+02 -0.79386951988E+02  0.15468453992E+03  0.17539632022E+03  0.00000000000E+00 0. -1.
<scales pt_clust_3="38.33144" pt_clust_4="89.60526" pt_clust_5="186.18843" pt_clust_6="89.60526"></scales>
<clustering>
<clus scale="   38.331">  1  3  2 -1</clus>
<clus scale="   89.605">  4  6 -1 -1</clus>
<clus scale="  186.188">  2  5  1 -1</clus>
<clus scale="   38.331">  1  3  2 -1</clus>
</clustering>
</event>
<event>
 6    0  0.5510638E+002  0.6311423E+02  0.7546771E-02  0.1385209E+00
         21   -1    0    0  503  501  0.00000000000E+00  0.00000000000E+00  0.16268442702E+04  0.16268442702E+04  0.00000000000E+00 0. -1.
         21   -1    0    0  505  502 -0.00000000000E+00 -0.00000000000E+00 -0.11041907464E+03  0.11041907464E+03  0.00000000000E+00 0.  1.
         21    1    1    2  503  504  0.21511992541E+02  0.85251234287E+02  0.10374982424E+04  0.10412171444E+04  0.00000000000E+00 0. -1.
         21    1    1    2  504  502  0.35289196300E+02  0.36630547126E+02 -0.89353551672E+02  0.10281625141E+03  0.00000000000E+00 0.  1.
         21    1    1    2  505  506 -0.60277957327E+02 -0.79247310438E+02  0.21003670667E+03  0.23244136142E+03  0.00000000000E+00 0.  1.
         21    1    1    2  506  501  0.34767684859E+01 -0.42634470975E+02  0.35824379815E+03  0.36078858761E+03  0.00000000000E+00 0.  1.
<scales pt_clust_3="63.11423" pt_clust_4="50.71380" pt_clust_5="14000.00000" pt_clust_6="42.77600"></scales>
<clustering>
<clus scale="   42.776">  1  6  2 -1</clus>
<clus scale="   50.714">  2  4  1 -1</clus>
<clus scale="   63.114">  1  3  2 -1</clus>
<clus scale="   42.776">  1  3  2 -1</clus>
</clustering>
</event>
<event>
 6    0  0.5510638E+002  0.2481951E+03  0.7546771E-02  0.1114451E+00
         21   -1    0    0  504  501  0.00000000000E+00  0.00000000000E+00  0.64716219665E+03  0.64716219665E+03  0.00000000000E+00 0. -1.
         21   -1    0    0  506  502 -0.00000000000E+00 -0.00000000000E+00 -0.94029357184E+03  0.94029357184E+03  0.00000000000E+00 0. -1.
         21    1    1    2  503  505  0.47495667300E+02  0.21030620085E+02  0.89058849020E+02  0.10309997082E+03  0.00000000000E+00 0. -1.
         21    1    1    2  504  502  0.43015081587E+02  0.66324027603E+02 -0.47636279081E+03  0.48287750243E+03  0.00000000000E+00 0. -1.
         21    1    1    2  505  501  0.18558183005E+03 -0.48805655332E+02  0.48490526031E+03  0.52149373833E+03  0.00000000000E+00 0. -1.
         21    1    1    2  506  503 -0.27609257894E+03 -0.38548992356E+02 -0.39073269370E+03  0.47998455692E+03  0.00000000000E+00 0. -1.
<scales pt_clust_3="38.88523" pt_clust_4="79.05172" pt_clust_5="38.88523" pt_clust_6="236.67459"></scales>
<clustering>
<clus scale="   38.885">  3  5 -1 -1</clus>
<clus scale="   79.052">  2  4  1 -1</clus>
<clus scale="  236.675">  2  6  1 -1</clus>
<clus scale="  248.195">  1  3  2 -1</clus>
</clustering>
</event>
<event>
 6    0  0.5510638E+002  0.1780986E+03  0.7546771E-02  0.1169656E+00
         21   -1    0    0  503  501  0.00000000000E+00  0.00000000000E+00  0.15135156607E+03  0.15135156607E+03  0.00000000000E+00 0.  1.
         21   -1    0    0  505  502 -0.00000000000E+00 -0.00000000000E+00 -0.41176324695E+03  0.41176324695E+03  0.00000000000E+00 0.  1.
         21    1    1    2  503  502 -0.12504913301E+03 -0.13522551095E+03 -0.18212803160E+03  0.25902479489E+03  0.00000000000E+00 0.  1.
         21    1    1    2  504  506  0.66143194134E+02  0.41834894106E+02 -0.12433993010E+02  0.79244461493E+02  0.00000000000E+00 0.  1.
         21    1    1    2  505  504  0.11086419007E+02  0.28400691466E+02 -0.12251314968E+03  0.12624967250E+03  0.00000000000E+00 0.  1.
         21    1    1    2  506  501  0.47819519867E+02  0.64989925375E+02  0.56663493415E+02  0.98595884126E+02  0.00000000000E+00 0.  1.
<scales pt_clust_3="162.62598" pt_clust_4="72.34097" pt_clust_5="30.48783" pt_clust_6="72.34097"></scales>
<clustering>
<clus scale="   30.488">  2  5  1 -1</clus>
<clus scale="   72.341">  4  6 -1 -1</clus>
<clus scale="  162.626">  2  3  1 -1</clus>
<clus scale="  178.099">  1  3  2 -1</clus>
</clustering>
</event>
<event>
 6    0  0.5510638E+002  0.8158623E+02  0.7546771E-02  0.1324609E+00
         21   -1    0    0  503  501  0.00000000000E+00  0.00000000000E+00  0.67822205296E+02  0.67822205296E+02  0.00000000000E+00 0. -1.
         21   -1    0    0  506  502 -0.00000000000E+00 -0.00000000000E+00 -0.14522497444E+04  0.14522497444E+04  0.00000000000E+00 0.  1.
         21    1    1    2  503  504 -0.30331639825E+02  0.58036992846E+01 -0.34814642035E+02  0.46537625636E+02  0.00000000000E+00 0.  1.
         21    1    1    2  504  505  0.44852743490E+02  0.39831202817E+02  0.37782724960E+02  0.70893071748E+02  0.00000000000E+00 0. -1.
         21    1    1    2  505  502  0.78538512824E+02 -0.82260599826E+01 -0.97626048398E+03  0.97944907915E+03  0.00000000000E+00 0.  1.
         21    1    1    2  506  501 -0.93059616489E+02 -0.37408842119E+02 -0.41113513801E+03  0.42319217312E+03  0.00000000000E+00 0.  1.
<scales pt_clust_3="30.88189" pt_clust_4="48.48760" pt_clust_5="81.58623" pt_clust_6="14000.00000"></scales>
<clustering>
<clus scale="   30.882">  1  3  2 -1</clus>
<clus scale="   48.488">  1  4  2 -1</clus>
<clus scale="   81.586">  2  5  1 -1</clus>
<clus scale="   30.882">  1  3  2 -1</clus>
</clustering>
</event>
<event>
 6    0  0.5510638E+002  0.1096504E+03  0.7546771E-02  0.1261219E+00
         21   -1    0    0  503  501  0.00000000000E+00  0.00000000000E+00  0.11169902441E+04  0.11169902441E+04  0.00000000000E+00 0.  1.
         21   -1    0    0  506  502 -0.00000000000E+00 -0.00000000000E+00 -0.54494573707E+02  0.54494573707E+02  0.00000000000E+00 0.  1.
         21    1    1    2  503  502 -0.14365465223E+02 -0.13813340449E+03  0.85505918045E+03  0.86626405102E+03  0.00000000000E+00 0.  1.
         21    1    1    2  504  501  0.18990185716E+02  0.27405125273E+02  0.13507052556E+03  0.13912481777E+03  0.00000000000E+00 0.  1.
         21    1    1    2  505  504 -0.49317291556E+02  0.82247284400E+02  0.53682900539E+02  0.10990297925E+03  0.00000000000E+00 0.  1.
         21    1    1    2  506  505  0.44692571062E+02  0.28480994812E+02  0.18683063811E+02  0.56192969729E+02  0.00000000000E+00 0.  1.
<scales pt_clust_3="109.65041" pt_clust_4="33.34169" pt_clust_5="14000.00000" pt_clust_6="54.17297"></scales>
<clustering>
<clus scale="   33.342">  1  4  2 -1</clus>
<clus scale="   54.173">  2  6  1 -1</clus>
<clus scale="  109.650">  1  3  2 -1</clus>
<clus scale="   33.342">  1  3  2 -1</clus>
</clustering>
</event>
<event>
 6    0  0.5510638E+002  0.4800111E+03  0.7546771E-02  0.1019132E+00
         21   -1    0    0  506  501  0.00000000000E+00  0.00000000000E+00  0.33772259670E+03  0.33772259670E+03  0.00000000000E+00 0. -1.
         21   -1    0    0  505  502 -0.00000000000E+00 -0.00000000000E+00 -0.15831748086E+04  0.15831748086E+04  0.00000000000E+00 0. -1.
         21    1    1    2  503  501  0.43788243526E+03 -0.49676483905E+02 -0.10642852453E+04  0.11519166044E+04  0.00000000000E+00 0. -1.
         21    1    1    2  504  502 -0.12357435741E+03  0.42988289467E+00 -0.51843803125E+02  0.13400965089E+03  0.00000000000E+00 0. -1.
         21    1    1    2  505  503  0.11162269299E+02  0.45077434835E+02 -0.27461877830E+03  0.27851758433E+03  0.00000000000E+00 0. -1.
         21    1    1    2  506  504 -0.32547034715E+03  0.41691661754E+01  0.14529561480E+03  0.35645356570E+03  0.00000000000E+00 0. -1.
<scales pt_clust_3="447.49532" pt_clust_4="106.81928" pt_clust_5="46.43890" pt_clust_6="106.81928"></scales>
<clustering>
<clus scale="   46.439">  2  5  1 -1</clus>
<clus scale="  106.819">  4  6 -1 -1</clus>
<clus scale="  447.495">  2  3  1 -1</clus>
<clus scale="  480.011">  1  3  2 -1</clus>
</clustering>
</event>
<event>
 6    0  0.5510638E+002  0.9033254E+02  0.7546771E-02  0.1302048E+00
         21   -1    0    0  505  501  0.00000000000E+00  0.00000000000E+00  0.11534589928E+03  0.11534589928E+03  0.00000000000E+00 0. -1.
         21   -1    0    0  506  502 -0.00000000000E+00 -0.00000000000E+00 -0.34649836811E+03  0.34649836811E+03  0.00000000000E+00 0. -1.
         21    1    1    2  503  504 -0.11955337042E+02  0.65632935868E+02  0.78633462671E+01  0.67174731625E+02  0.00000000000E+00 0. -1.
         21    1    1    2  504  501 -0.24902889275E+02  0.28743922246E+02  0.47367856247E+02  0.60746034980E+02  0.00000000000E+00 0. -1.
         21    1    1    2  505  502  0.82670533351E+02 -0.84198898601E+02 -0.24244308433E+03  0.26963404969E+03  0.00000000000E+00 0. -1.
         21    1    1    2  506  503 -0.45812307035E+02 -0.10177959513E+02 -0.43940587011E+02  0.64289451098E+02  0.00000000000E+00 0. -1.
<scales pt_clust_3="90.33254" pt_clust_4="38.03113" pt_clust_5="14000.00000" pt_clust_6="50.23811"></scales>
<clustering>
<clus scale="   38.031">  1  4  2 -1</clus>
<clus scale="   50.238">  2  6  1 -1</clus>
<clus scale="   90.333">  1  3  2 -1</clus>
<clus scale="   38.031">  1  3  2 -1</clus>
</clustering>
</event>
<event>
 6    0  0.5510638E+002  0.7303780E+02  0.7546771E-02  0.1350057E+00
         21   -1    0    0  506  501  0.00000000000E+00  0.00000000000E+00  0.22536577174E+03  0.22536577174E+03  0.00000000000E+00 0.  1.
         21   -1    0    0  505  502 -0.00000000000E+00 -0.00000000000E+00 -0.10608620367E+03  0.10608620367E+03  0.00000000000E+00 0.  1.
         21    1    1    2  503  504 -0.10744195355E+02  0.10023576540E+03  0.10094844594E+02  0.10131412679E+03  0.00000000000E+00 0.  1.
         21    1    1    2  504  501 -0.52804147299E+02 -0.62637812330E+02  0.81160206337E+02  0.11532021765E+03  0.00000000000E+00 0.  1.
         21    1    1    2  505  503  0.15563368161E+02 -0.46972686393E+02 -0.12811041423E+02  0.51115305710E+02  0.00000000000E+00 0.  1.
         21    1    1    2  506  502  0.47984974493E+02  0.93747333191E+01  0.40835558559E+02  0.63702325269E+02  0.00000000000E+00 0. -1.
<scales pt_clust_3="73.03780" pt_clust_4="14000.00000" pt_clust_5="50.45523" pt_clust_6="48.89216"></scales>
<clustering>
<clus scale="   48.892">  1  6  2 -1</clus>
<clus scale="   50.455">  2  5  1 -1</clus>
<clus scale="   73.038">  2  3  1 -1</clus>
<clus scale="   48.892">  1  3  2 -1</clus>
</clustering>
</event>
<event>
 6    0  0.5510638E+002  0.8656386E+02  0.7546771E-02  0.1311393E+00
         21   -1    0    0  506  501  0.00000000000E+00  0.00000000000E+00  0.13480980676E+04  0.13480980676E+04  0.00000000000E+00 0.  1.
         21   -1    0    0  504  502 -0.00000000000E+00 -0.00000000000E+00 -0.97670438401E+02  0.97670438401E+02  0.00000000000E+00 0.  1.
         21    1    1    2  503  501 -0.62580943509E+02  0.17246415708E+02  0.61729039176E+03  0.62069416068E+03  0.00000000000E+00 0.  1.
         21    1    1    2  504  503 -0.39174856887E+01 -0.98753928401E+02  0.28995091152E+03  0.30633187258E+03  0.00000000000E+00 0.  1.
         21    1    1    2  505  502  0.72478146700E+02  0.50596271807E+02 -0.64764349601E+02  0.10957867242E+03  0.00000000000E+00 0.  1.
         21    1    1    2  506  505 -0.59797175018E+01  0.30911240887E+02  0.40795067547E+03  0.40916380027E+03  0.00000000000E+00 0.  1.
<scales pt_clust_3="76.41731" pt_clust_4="86.56386" pt_clust_5="14000.00000" pt_clust_6="31.48431"></scales>
<clustering>
<clus scale="   31.484">  1  6  2 -1</clus>
<clus scale="   76.417">  1  3  2 -1</clus>
<clus scale="   86.564">  1  4  2 -1</clus>
<clus scale="   31.484">  1  3  2 -1</clus>
</clustering>
</event>
<event>
 6    0  0.5510638E+002  0.3227752E+03  0.7546771E-02  0.1074379E+00
         21   -1    0    0  505  501  0.00000000000E+00  0.00000000000E+00  0.39980450620E+03  0.39980450620E+03  0.00000000000E+00 0.  1.
         21   -1    0    0  506  502 -0.00000000000E+00 -0.00000000000E+00 -0.27837526090E+03  0.27837526090E+03  0.00000000000E+00 0. -1.
         21    1    1    2  503  501  0.84983488773E+02  0.97342278061E+02  0.15223610286E+03  0.19968360843E+03  0.00000000000E+00 0.  1.
         21    1    1    2  504  503  0.61951152368E+02  0.84726736615E+02  0.59218548454E+02  0.12051307671E+03  0.00000000000E+00 0.  1.
         21    1    1    2  505  502 -0.19338330385E+03 -0.21525664532E+03 -0.76812863063E+02  0.29938727677E+03  0.00000000000E+00 0. -1.
         21    1    1    2  506  504  0.46448662703E+02  0.33187630646E+02 -0.13212542943E+02  0.58595805190E+02  0.00000000000E+00 0.  1.
<scales pt_clust_3="96.84923" pt_clust_4="96.84923" pt_clust_5="289.36573" pt_clust_6="48.41171"></scales>
<clustering>
<clus scale="   48.412">  4  6 -1 -1</clus>
<clus scale="   96.849">  3  4 -1 -1</clus>
<clus scale="  289.366">  2  5  1 -1</clus>
<clus scale="  322.775">  1  3  2 -1</clus>
</clustering>
</event>
<event>
 6    0  0.5510638E+002  0.8813672E+02  0.7546771E-02  0.1307428E+00
         21   -1    0    0  505  501  0.00000000000E+00  0.00000000000E+00  0.75113164479E+03  0.75113164479E+03  0.00000000000E+00 0.  1.
         21   -1    0    0  506  502 -0.00000000000E+00 -0.00000000000E+00 -0.70598609117E+03  0.70598609117E+03  0.00000000000E+00 0.  1.
         21    1    1    2  503  501 -0.37853830283E+02 -0.11097778763E+01  0.51509285670E+03  0.51648310243E+03  0.00000000000E+00 0.  1.
         21    1    1    2  504  503  0.44542910102E+02 -0.44835139384E+02  0.13448622109E+03  0.14859611108E+03  0.00000000000E+00 0.  1.
         21    1    1    2  505  502 -0.88019910203E+02 -0.61232570185E+01 -0.66969634016E+03  0.67548366886E+03  0.00000000000E+00 0.  1.
         21    1    1    2  506  504  0.81330830384E+02  0.52068174279E+02  0.65262815994E+02  0.11655485359E+03  0.00000000000E+00 0.  1.
<scales pt_clust_3="37.87009" pt_clust_4="50.44513" pt_clust_5="14000.00000" pt_clust_6="88.13672"></scales>
<clustering>
<clus scale="   37.870">  1  3  2 -1</clus>
<clus scale="   50.445">  1  4  2 -1</clus>
<clus scale="   88.137">  1  6  2 -1</clus>
<clus scale="   37.870">  1  3  2 -1</clus>
</clustering>
</event>
<event>
 6    0  0.5510638E+002  0.1242807E+03  0.7546771E-02  0.1236198E+00
         21   -1    0    0  506  501  0.00000000000E+00  0.00000000000E+00  0.47407259058E+03  0.47407259058E+03  0.00000000000E+00 0. -1.
         21   -1    0    0  504  502 -0.00000000000E+00 -0.00000000000E+00 -0.11688975673E+03  0.11688975673E+03  0.00000000000E+00 0. -1.
         21    1    1    2  503  502 -0.31335443983E+02  0.10714194030E+03  0.16726930862E+03  0.20109780463E+03  0.00000000000E+00 0. -1.
         21    1    1    2  504  505 -0.19916952142E+02 -0.36648944734E+02 -0.41865245875E+02  0.59097622160E+02  0.00000000000E+00 0. -1.
         21    1    1    2  505  501  0.87270815084E+02 -0.91405634666E+02  0.37139472156E+02  0.13172139388E+03  0.00000000000E+00 0. -1.
         21    1    1    2  506  503 -0.36018418959E+02  0.20912639101E+02  0.19463929895E+03  0.19904552663E+03  0.00000000000E+00 0. -1.
<scales pt_clust_3="14000.00000" pt_clust_4="41.69481" pt_clust_5="124.28067" pt_clust_6="41.64931"></scales>
<clustering>
<clus scale="   41.649">  1  6  2 -1</clus>
<clus scale="   41.695">  2  4  1 -1</clus>
<clus scale="  124.281">  2  5  1 -1</clus>
<clus scale="   41.649">  1  3  2 -1</clus>
</clustering>
</event>
<event>
 6    0  0.5510638E+002  0.1131142E+03  0.7546771E-02  0.1254909E+00
         21   -1    0    0  503  501  0.00000000000E+00  0.00000000000E+00  0.12545518915E+03  0.12545518915E+03  0.00000000000E+00 0. -1.
         21   -1    0    0  506  502 -0.00000000000E+00 -0.00000000000E+00 -0.43458617323E+03  0.43458617323E+03  0.00000000000E+00 0. -1.
         21    1    1    2  503  504 -0.21291437425E+02 -0.52224444833E+02 -0.15920733666E+02  0.58601942854E+02  0.00000000000E+00 0. -1.
         21    1    1    2  504  502  0.87076015694E+02  0.54535109201E+02 -0.23752154167E+03  0.25879102265E+03  0.00000000000E+00 0. -1.
         21    1    1    2  505  501 -0.64712096553E+02 -0.39300642892E+02  0.75150839816E+02  0.10667635491E+03  0.00000000000E+00 0. -1.
         21    1    1    2  506  505 -0.10724817156E+01  0.36989978524E+02 -0.13083954856E+03  0.13597204196E+03  0.00000000000E+00 0. -1.
<scales pt_clust_3="52.24306" pt_clust_4="113.11420" pt_clust_5="14000.00000" pt_clust_6="37.00552"></scales>
<clustering>
<clus scale="   37.006">  2  6  1 -1</clus>
<clus scale="   52.243">  1  3  2 -1</clus>
<clus scale="  113.114">  2  4  1 -1</clus>
<clus scale="   52.243">  1  3  2 -1</clus>
</clustering>
</event>
<event>
 6    0  0.5510638E+002  0.1592723E+03  0.7546771E-02  0.1189521E+00
         21   -1    0    0  503  501  0.00000000000E+00  0.00000000000E+00  0.24269578733E+03  0.24269578733E+03  0.00000000000E+00 0.  1.
         21   -1    0    0  501  502 -0.00000000000E+00 -0.00000000000E+00 -0.40982337004E+03  0.40982337004E+03  0.00000000000E+00 0.  1.
         21    1    1    2  503  506 -0.65890576094E+02  0.77853801467E+02  0.98029715269E+02  0.14146592345E+03  0.00000000000E+00 0.  1.
         21    1    1    2  504  502  0.31154898777E+02  0.39243730917E+02 -0.26242189401E+03  0.26716277545E+03  0.00000000000E+00 0.  1.
         21    1    1    2  505  504  0.36287037042E+02 -0.16902860467E+03 -0.43015120270E+02  0.17815083168E+03  0.00000000000E+00 0.  1.
         21    1    1    2  506  505 -0.15513597248E+01  0.51931072288E+02  0.40279716295E+02  0.65739626792E+02  0.00000000000E+00 0.  1.
<scales pt_clust_3="35.05274" pt_clust_4="50.10687" pt_clust_5="151.51089" pt_clust_6="35.05274"></scales>
<clustering>
<clus scale="   35.053">  3  6 -1 -1</clus>
<clus scale="   50.107">  2  4  1 -1</clus>
<clus scale="  151.511">  2  5  1 -1</clus>
<clus scale="  159.272">  1  3  2 -1</clus>
</clustering>
</event>
<event>
 6    0  0.5510638E+002  0.1612741E+03  0.7546771E-02  0.1187266E+00
         21   -1    0    0  504  501  0.00000000000E+00  0.00000000000E+00  0.10905603489E+03  0.10905603489E+03  0.00000000000E+00 0. -1.
         21   -1    0    0  506  502 -0.00000000000E+00 -0.00000000000E+00 -0.30641441278E+03  0.30641441278E+03  0.00000000000E+00 0. -1.
         21    1    1    2  503  505 -0.74130039742E+02 -0.54758395966E+02 -0.40036330821E+02  0.10048210043E+03  0.00000000000E+00 0. -1.
         21    1    1    2  504  503 -0.71918966968E+02 -0.38332947719E+00  0.38521203007E+01  0.72023076733E+02  0.00000000000E+00 0. -1.
         21    1    1    2  505  502  0.27099838622E+02 -0.17730306705E+02 -0.67698979713E+02  0.75046098388E+02  0.00000000000E+00 0.  1.
         21    1    1    2  506  501  0.11894916809E+03  0.72872032148E+02 -0.93475187651E+02  0.16791917212E+03  0.00000000000E+00 0. -1.
<scales pt_clust_3="55.75912" pt_clust_4="55.75912" pt_clust_5="32.38464" pt_clust_6="148.09298"></scales>
<clustering>
<clus scale="   32.385">  2  5  1 -1</clus>
<clus scale="   55.759">  3  4 -1 -1</clus>
<clus scale="  148.093">  2  6  1 -1</clus>
<clus scale="  161.274">  1  3  2 -1</clus>
</clustering>
</event>
<event>
 6    0  0.5510638E+002  0.1457787E+03  0.7546771E-02  0.1205758E+00
         21   -1    0    0  503  501  0.00000000000E+00  0.00000000000E+00  0.80910573124E+02  0.80910573124E+02  0.00000000000E+00 0. -1.
         21   -1    0    0  506  502 -0.00000000000E+00 -0.00000000000E+00 -0.44107989275E+03  0.44107989275E+03  0.00000000000E+00 0. -1.
         21    1    1    2  503  505 -0.10190612227E+03  0.72527918805E+02 -0.25442196466E+03  0.28350607200E+03  0.00000000000E+00 0. -1.
         21    1    1    2  504  501  0.81676641336E+02 -0.27022221510E+02 -0.37967580350E+02  0.94036223621E+02  0.00000000000E+00 0. -1.
         21    1    1    2  505  502 -0.31106679316E+02 -0.16638524455E+02 -0.77130239433E+02  0.84814738278E+02  0.00000000000E+00 0. -1.
         21    1    1    2  506  504  0.51336160248E+02 -0.28867172840E+02  0.93504648141E+01  0.59633431974E+02  0.00000000000E+00 0. -1.
<scales pt_clust_3="138.82372" pt_clust_4="37.35730" pt_clust_5="35.27699" pt_clust_6="37.35730"></scales>
<clustering>
<clus scale="   35.277">  2  5  1 -1</clus>
<clus scale="   37.357">  4  6 -1 -1</clus>
<clus scale="  138.824">  2  3  1 -1</clus>
<clus scale="  145.779">  1  3  2 -1</clus>
</clustering>
</event>
<event>
 6    0  0.5510638E+002  0.2117263E+03  0.7546771E-02  0.1140206E+00
         21   -1    0    0  504  501  0.00000000000E+00  0.00000000000E+00  0.40917355507E+02  0.40917355507E+02  0.00000000000E+00 0.  1.
         21   -1    0    0  501  502 -0.00000000000E+00 -0.00000000000E+00 -0.29068831184E+04  0.29068831184E+04  0.00000000000E+00 0. -1.
         21    1    1    2  503  502 -0.23040178090E+02 -0.19719105571E+02 -0.18081685696E+04  0.18084228679E+04  0.00000000000E+00 0. -1.
         21    1    1    2  504  505  0.21801249576E+03  0.74885684645E+01 -0.45804033638E+03  0.50733270811E+03  0.00000000000E+00 0.  1.
         21    1    1    2  505  506 -0.10763454554E+03 -0.12760774087E+02 -0.31217504627E+03  0.33045618812E+03  0.00000000000E+00 0. -1.
         21    1    1    2  506  503 -0.87337772136E+02  0.24991311193E+02 -0.28758181062E+03  0.30158870980E+03  0.00000000000E+00 0. -1.
<scales pt_clust_3="30.32644" pt_clust_4="207.89265" pt_clust_5="36.42656" pt_clust_6="36.42656"></scales>
<clustering>
<clus scale="   30.326">  2  3  1 -1</clus>
<clus scale="   36.427">  5  6 -1 -1</clus>
<clus scale="  207.893">  1  4  2 -1</clus>
<clus scale="  207.893">  1  3  2 -1</clus>
</clustering>
</event>
<event>
 6    0  0.5510638E+002  0.7416377E+02  0.7546771E-02  0.1346480E+00
         21   -1    0    0  503  501  0.00000000000E+00  0.00000000000E+00  0.97163006446E+02  0.97163006446E+02  0.00000000000E+00 0. -1.
         21   -1    0    0  505  502 -0.00000000000E+00 -0.00000000000E+00 -0.52205604956E+03  0.52205604956E+03  0.00000000000E+00 0. -1.
         21    1    1    2  503  502 -0.37758191637E+02 -0.16299025973E+01 -0.11406166221E+02  0.39477059744E+02  0.00000000000E+00 0. -1.
         21    1    1    2  504  506  0.11011171653E+02 -0.91786899711E+02 -0.85805931525E+01  0.92842379540E+02  0.00000000000E+00 0. -1.
         21    1    1    2  505  504  0.64200506071E+02  0.41847772712E+02 -0.41530989562E+03  0.42232126451E+03  0.00000000000E+00 0. -1.
         21    1    1    2  506  501 -0.37453486087E+02  0.51569029597E+02  0.10403611880E+02  0.64578352207E+02  0.00000000000E+00 0. -1.
<scales pt_clust_3="37.79335" pt_clust_4="14000.00000" pt_clust_5="74.16377" pt_clust_6="74.51474"></scales>
<clustering>
<clus scale="   37.793">  1  3  2 -1</clus>
<clus scale="   74.515">  1  6  2 -1</clus>
<clus scale="   74.164">  2  5  1 -1</clus>
<clus scale="   37.793">  1  3  2 -1</clus>
</clustering>
</event>
<event>
 6    0  0.5510638E+002  0.1596346E+03  0.7546771E-02  0.1189110E+00
         21   -1    0    0  503  501  0.00000000000E+00  0.00000000000E+00  0.14457287398E+04  0.14457287398E+04  0.00000000000E+00 0. -1.
         21   -1    0    0  505  502 -0.00000000000E+00 -0.00000000000E+00 -0.18089311851E+03  0.18089311851E+03  0.00000000000E+00 0. -1.
         21    1    1    2  503  504  0.46458958778E+02  0.82308623866E+02  0.90130695893E+03  0.90624907097E+03  0.00000000000E+00 0. -1.
         21    1    1    2  504  506 -0.16300942053E+02  0.61337677357E+02  0.46353068936E+03  0.46785545990E+03  0.00000000000E+00 0. -1.
         21    1    1    2  505  501  0.62913264831E+01 -0.16401126528E+03 -0.12276319200E+03  0.20496359979E+03  0.00000000000E+00 0. -1.
         21    1    1    2  506  502 -0.36449343208E+02  0.20364964057E+02  0.22761164994E+02  0.47553727648E+02  0.00000000000E+00 0. -1.
<scales pt_clust_3="50.91363" pt_clust_4="50.91363" pt_clust_5="147.12415" pt_clust_6="41.75268"></scales>
<clustering>
<clus scale="   41.753">  2  6  1 -1</clus>
<clus scale="   50.914">  3  4 -1 -1</clus>
<clus scale="  147.124">  2  5  1 -1</clus>
<clus scale="  159.635">  1  3  2 -1</clus>
</clustering>
</event>
<event>
 6    0  0.5510638E+002  0.1150192E+03  0.7546771E-02  0.1251548E+00
         21   -1    0    0  505  501  0.00000000000E+00  0.00000000000E+00  0.97754958280E+03  0.97754958280E+03  0.00000000000E+00 0.  1.
         21   -1    0    0  506  502 -0.00000000000E+00 -0.00000000000E+00 -0.32769099022E+03  0.32769099022E+03  0.00000000000E+00 0. -1.
         21    1    1    2  503  504 -0.12016888604E+02 -0.55465043848E+02  0.33450298154E+03  0.33928309914E+03  0.00000000000E+00 0.  1.
         21    1    1    2  504  501 -0.96832230781E+01 -0.51231417908E+02  0.58737422909E+03  0.58968373557E+03  0.00000000000E+00 0.  1.
         21    1    1    2  505  502  0.61544627453E+02 -0.50533072919E+02 -0.30350642534E+02  0.85220268300E+02  0.00000000000E+00 0. -1.
         21    1    1    2  506  503 -0.39844515771E+02  0.15722953467E+03 -0.24166797552E+03  0.29105347001E+03  0.00000000000E+00 0. -1.
<scales pt_clust_3="34.11427" pt_clust_4="34.11427" pt_clust_5="79.63248" pt_clust_6="109.37398"></scales>
<clustering>
<clus scale="   34.114">  3  4 -1 -1</clus>
<clus scale="   79.632">  2  5  1 -1</clus>
<clus scale="  109.374">  2  6  1 -1</clus>
<clus scale="  115.019">  1  3  2 -1</clus>
</clustering>
</event>
<event>
 6    0  0.5510638E+002  0.2113284E+03  0.7546771E-02  0.1140518E+00
         21   -1    0    0  506  501  0.00000000000E+00  0.00000000000E+00  0.96082968237E+03  0.96082968237E+03  0.00000000000E+00 0.  1.
         21   -1    0    0  505  502 -0.00000000000E+00 -0.00000000000E+00 -0.20991987971E+03  0.20991987971E+03  0.00000000000E+00 0.  1.
         21    1    1    2  503  504 -0.17209420751E+03  0.40879354675E+02  0.76937251007E+03  0.78944385307E+03  0.00000000000E+00 0.  1.
         21    1    1    2  504  502  0.87988650615E+02  0.32954726433E+02  0.28332859487E+02  0.98136474148E+02  0.00000000000E+00 0.  1.
         21    1    1    2  505  501  0.14160877759E+03 -0.47046563412E+02 -0.11621121643E+03  0.18913347626E+03  0.00000000000E+00 0.  1.
         21    1    1    2  506  503 -0.57503220692E+02 -0.26787517697E+02  0.69415649541E+02  0.94035758600E+02  0.00000000000E+00 0.  1.
<scales pt_clust_3="14000.00000" pt_clust_4="89.40891" pt_clust_5="211.32837" pt_clust_6="63.43652"></scales>
<clustering>
<clus scale="   63.437">  1  6  2 -1</clus>
<clus scale="   89.409">  2  4  1 -1</clus>
<clus scale="  211.328">  2  5  1 -1</clus>
<clus scale="   63.437">  1  3  2 -1</clus>
</clustering>
</event>
<event>
 6    0  0.5510638E+002  0.5339450E+02  0.7546771E-02  0.1427848E+00
         21   -1    0    0  505  501  0.00000000000E+00  0.00000000000E+00  0.28437990694E+03  0.28437990694E+03  0.00000000000E+00 0. -1.
         21   -1    0    0  504  502 -0.00000000000E+00 -0.00000000000E+00 -0.71574559075E+03  0.71574559075E+03  0.00000000000E+00 0.  1.
         21    1    1    2  503  501  0.32918267796E+02  0.32963751180E+02  0.15617307211E+03  0.16297315638E+03  0.00000000000E+00 0. -1.
         21    1    1    2  504  503 -0.23453875474E+02  0.83619367852E+02 -0.79774999966E+02  0.11792511850E+03  0.00000000000E+00 0.  1.
         21    1    1    2  505  506 -0.23636696150E+02 -0.67109220573E+02  0.92535022540E+02  0.11672648066E+03  0.00000000000E+00 0.  1.
         21    1    1    2  506  502  0.14172303828E+02 -0.49473898460E+02 -0.60029877850E+03  0.60250074215E+03  0.00000000000E+00 0.  1.
<scales pt_clust_3="46.58563" pt_clust_4="14000.00000" pt_clust_5="39.67247" pt_clust_6="53.39450"></scales>
<clustering>
<clus scale="   46.586">  1  3  2 -1</clus>
<clus scale="   39.672">  1  5  2 -1</clus>
<clus scale="   53.394">  2  6  1 -1</clus>
<clus scale="   46.586">  1  3  2 -1</clus>
</clustering>
</event>
<event>
 6    0  0.5510638E+002  0.1117917E+03  0.7546771E-02  0.1257287E+00
         21   -1    0    0  503  501  0.00000000000E+00  0.00000000000E+00  0.23527472165E+04  0.23527472165E+04  0.00000000000E+00 0. -1.
         21   -1    0    0  504  502 -0.00000000000E+00 -0.00000000000E+00 -0.20829067105E+02  0.20829067105E+02  0.00000000000E+00 0. -1.
         21    1    1    2  503  506 -0.30681993690E+02  0.22798654323E+02  0.80311242651E+03  0.80402159983E+03  0.00000000000E+00 0. -1.
         21    1    1    2  504  505  0.11077290489E+03 -0.23695264283E+02  0.20675515519E+03  0.23575367697E+03  0.00000000000E+00 0. -1.
         21    1    1    2  505  501  0.30943929639E+02  0.96848658967E+01  0.76700870289E+03  0.76769373693E+03  0.00000000000E+00 0.  1.
         21    1    1    2  506  502 -0.11103484084E+03 -0.87882559373E+01  0.55504186484E+03  0.56610726992E+03  0.00000000000E+00 0. -1.
<scales pt_clust_3="31.50621" pt_clust_4="111.79172" pt_clust_5="32.42412" pt_clust_6="14000.00000"></scales>
<clustering>
<clus scale="   32.424">  1  5  2 -1</clus>
<clus scale="   31.506">  1  3  2 -1</clus>
<clus scale="  111.792">  2  4  1 -1</clus>
<clus scale="   32.424">  1  3  2 -1</clus>
</clustering>
</event>
<event>
 6    0  0.5510638E+002  0.1228401E+03  0.7546771E-02  0.1238484E+00
         21   -1    0    0  504  501  0.00000000000E+00  0.00000000000E+00  0.13990903207E+03  0.13990903207E+03  0.00000000000E+00 0. -1.
         21   -1    0    0  503  502 -0.00000000000E+00 -0.00000000000E+00 -0.23490155569E+03  0.23490155569E+03  0.00000000000E+00 0. -1.
         21    1    1    2  503  506 -0.72685879599E+01 -0.64346728565E+02  0.41323999825E+02  0.76818010970E+02  0.00000000000E+00 0. -1.
         21    1    1    2  504  505 -0.97336854547E+01  0.92825593404E+02 -0.15022353454E+03  0.17685713373E+03  0.00000000000E+00 0. -1.
         21    1    1    2  505  502 -0.28713532776E+02  0.11908085688E+02 -0.32135184560E+02  0.44709501853E+02  0.00000000000E+00 0. -1.
         21    1    1    2  506  501  0.45715806191E+02 -0.40386950528E+02  0.46042195651E+02  0.76425941205E+02  0.00000000000E+00 0. -1.
<scales pt_clust_3="55.87183" pt_clust_4="108.10261" pt_clust_5="31.08488" pt_clust_6="55.87183"></scales>
<clustering>
<clus scale="   31.085">  2  5  1 -1</clus>
<clus scale="   55.872">  3  6 -1 -1</clus>
<clus scale="  108.103">  2  4  1 -1</clus>
<clus scale="  122.840">  1  3  2 -1</clus>
</clustering>
</event>
<event>
 6    0  0.5510638E+002  0.8847368E+02  0.7546771E-02  0.1306591E+00
         21   -1    0    0  505  501  0.00000000000E+00  0.00000000000E+00  0.14774801398E+03  0.14774801398E+03  0.00000000000E+00 0.  1.
         21   -1    0    0  504  502 -0.00000000000E+00 -0.00000000000E+00 -0.12559027015E+04  0.12559027015E+04  0.00000000000E+00 0.  1.
         21    1    1    2  503  502 -0.89499289028E+02  0.67655316195E+02 -0.54187157369E+03  0.55336440699E+03  0.00000000000E+00 0.  1.
         21    1    1    2  504  506  0.49899316602E+02 -0.61943637106E+02 -0.66299041181E+03  0.66774489300E+03  0.00000000000E+00 0.  1.
         21    1    1    2  505  503 -0.22289821643E+02  0.24175945850E+02 -0.25984748205E+02  0.41910853557E+02  0.00000000000E+00 0. -1.
         21    1    1    2  506  501  0.61889794069E+02 -0.29887624940E+02  0.12269204622E+03  0.14063056190E+03  0.00000000000E+00 0.  1.
<scales pt_clust_3="14000.00000" pt_clust_4="88.47368" pt_clust_5="32.88332" pt_clust_6="41.50996"></scales>
<clustering>
<clus scale="   32.883">  1  5  2 -1</clus>
<clus scale="   41.510">  1  6  2 -1</clus>
<clus scale="   88.474">  2  4  1 -1</clus>
<clus scale="   32.883">  1  3  2 -1</clus>
</clustering>
</event>
<event>
 6    0  0.5510638E+002  0.1066710E+03  0.7546771E-02  0.1266862E+00
         21   -1    0    0  505  501  0.00000000000E+00  0.00000000000E+00  0.51577810680E+03  0.51577810680E+03  0.00000000000E+00 0.  1.
         21   -1    0    0  506  502 -0.00000000000E+00 -0.00000000000E+00 -0.11377234483E+03  0.11377234483E+03  0.00000000000E+00 0.  1.
         21    1    1    2  503  501 -0.36661670312E+02  0.64781357864E+02  0.39538818717E+03  0.40233384266E+03  0.00000000000E+00 0.  1.
         21    1    1    2  504  502  0.28611809658E+02  0.22956033313E+02  0.50545012230E+01  0.37029219543E+02  0.00000000000E+00 0.  1.
         21    1    1    2  505  504 -0.21997746726E+02  0.29037065631E+02  0.48619042963E+02  0.60752476329E+02  0.00000000000E+00 0.  1.
         21    1    1    2  506  503  0.30047607380E+02 -0.11677445681E+03 -0.47055969382E+02  0.12943491309E+03  0.00000000000E+00 0.  1.
<scales pt_clust_3="14000.00000" pt_clust_4="36.76645" pt_clust_5="36.42873" pt_clust_6="106.67103"></scales>
<clustering>
<clus scale="   36.429">  1  5  2 -1</clus>
<clus scale="   36.766">  2  4  1 -1</clus>
<clus scale="  106.671">  2  6  1 -1</clus>
<clus scale="   36.429">  1  3  2 -1</clus>
</clustering>
</event>
<event>
 6    0  0.5510638E+002  0.9591239E+02  0.7546771E-02  0.1289134E+00
         21   -1    0    0  503  501  0.00000000000E+00  0.00000000000E+00  0.56583603203E+03  0.56583603203E+03  0.00000000000E+00 0.  1.
         21   -1    0    0  506  502 -0.00000000000E+00 -0.00000000000E+00 -0.40043739986E+03  0.40043739986E+03  0.00000000000E+00 0. -1.
         21    1    1    2  503  502  0.26298405990E+02  0.15548520931E+02 -0.90950404287E+02  0.95944456331E+02  0.00000000000E+00 0. -1.
         21    1    1    2  504  501  0.57754630309E+02  0.76544359398E+02  0.49896145481E+03  0.50809169415E+03  0.00000000000E+00 0.  1.
         21    1    1    2  505  504 -0.13550649076E+03 -0.18472722377E+02 -0.23525486549E+03  0.27211780950E+03  0.00000000000E+00 0. -1.
         21    1    1    2  506  505  0.51453454459E+02 -0.73620157952E+02 -0.73575528522E+01  0.90119471906E+02  0.00000000000E+00 0. -1.
<scales pt_clust_3="30.55098" pt_clust_4="14000.00000" pt_clust_5="95.91239" pt_clust_6="90.31668"></scales>
<clustering>
<clus scale="   30.551">  2  3  1 -1</clus>
<clus scale="   90.317">  2  6  1 -1</clus>
<clus scale="   95.912">  2  5  1 -1</clus>
<clus scale="   95.912">  1  3  2 -1</clus>
</clustering>
</event>
<event>
 6    0  0.5510638E+002  0.1365631E+03  0.7546771E-02  0.1218030E+00
         21   -1    0    0  503  501  0.00000000000E+00  0.00000000000E+00  0.98521526605E+03  0.98521526605E+03  0.00000000000E+00 0.  1.
         21   -1    0    0  506  502 -0.00000000000E+00 -0.00000000000E+00 -0.24332592099E+02  0.24332592099E+02  0.00000000000E+00 0.  1.
         21    1    1    2  503  505  0.41278467571E+02 -0.17445215292E+02  0.23114351618E+03  0.23544760032E+03  0.00000000000E+00 0.  1.
         21    1    1    2  504  501  0.17316527776E+01  0.42076085562E+02  0.18502618206E+03  0.18975796069E+03  0.00000000000E+00 0.  1.
         21    1    1    2  505  502  0.79384210877E+02  0.18874839336E+02  0.20513591517E+03  0.22076878446E+03  0.00000000000E+00 0.  1.
         21    1    1    2  506  504 -0.12239433123E+03 -0.43505709607E+02  0.33957706054E+03  0.36357351269E+03  0.00000000000E+00 0.  1.
<scales pt_clust_3="39.93237" pt_clust_4="42.11170" pt_clust_5="39.93237" pt_clust_6="124.16669"></scales>
<clustering>
<clus scale="   42.112">  1  4  2 -1</clus>
<clus scale="   39.932">  3  5 -1 -1</clus>
<clus scale="  124.167">  2  6  1 -1</clus>
<clus scale="   42.112">  1  3  2 -1</clus>
</clustering>
</event>
<event>
 6    0  0.5510638E+002  0.8889968E+02  0.7546771E-02  0.1305538E+00
         21   -1    0    0  506  501  0.00000000000E+00  0.00000000000E+00  0.29761866427E+03  0.29761866427E+03  0.00000000000E+00 0.  1.
         21   -1    0    0  504  502 -0.00000000000E+00 -0.00000000000E+00 -0.27634127009E+03  0.27634127009E+03  0.00000000000E+00 0. -1.
         21    1    1    2  503  502 -0.31484920777E+02 -0.28370953533E+02 -0.19601978849E+03  0.20054916784E+03  0.00000000000E+00 0. -1.
         21    1    1    2  504  505  0.59496438854E+02 -0.19199734888E+02  0.83567057121E+02  0.10436430947E+03  0.00000000000E+00 0.  1.
         21    1    1    2  505  501  0.27501748043E+02 -0.44185963800E+02  0.15163602617E+03  0.16031915037E+03  0.00000000000E+00 0.  1.
         21    1    1    2  506  503 -0.55513266120E+02  0.91756652221E+02 -0.17905900625E+02  0.10872730669E+03  0.00000000000E+00 0.  1.
<scales pt_clust_3="42.38173" pt_clust_4="14000.00000" pt_clust_5="52.51125" pt_clust_6="88.89968"></scales>
<clustering>
<clus scale="   42.382">  2  3  1 -1</clus>
<clus scale="   52.511">  1  5  2 -1</clus>
<clus scale="   88.900">  2  6  1 -1</clus>
<clus scale="   52.511">  1  3  2 -1</clus>
</clustering>
</event>
<event>
 6    0  0.5510638E+002  0.9957426E+02  0.7546771E-02  0.1281194E+00
         21   -1    0    0  504  501  0.00000000000E+00  0.00000000000E+00  0.53767036205E+03  0.53767036205E+03  0.00000000000E+00 0. -1.
         21   -1    0    0  505  502 -0.00000000000E+00 -0.00000000000E+00 -0.14763383377E+03  0.14763383377E+03  0.00000000000E+00 0.  1.
         21    1    1    2  503  501 -0.22177321931E+02 -0.12793654266E+03  0.20319598355E+03  0.24113937937E+03  0.00000000000E+00 0. -1.
         21    1    1    2  504  506  0.45161825018E+02  0.77805151933E+02  0.27059027091E+03  0.28515316379E+03  0.00000000000E+00 0. -1.
         21    1    1    2  505  503 -0.57513327125E+01  0.79411016284E+02 -0.94318740971E+02  0.12343100191E+03  0.00000000000E+00 0.  1.
         21    1    1    2  506  502 -0.17233170375E+02 -0.29279625558E+02  0.10569014789E+02  0.35580650747E+02  0.00000000000E+00 0.  1.
<scales pt_clust_3="14000.00000" pt_clust_4="99.57426" pt_clust_5="59.17308" pt_clust_6="33.97468"></scales>
<clustering>
<clus scale="   33.975">  2  6  1 -1</clus>
<clus scale="   59.173">  2  5  1 -1</clus>
<clus scale="   99.574">  1  4  2 -1</clus>
<clus scale="   99.574">  1  3  2 -1</clus>
</clustering>
</event>
<event>
 6    0  0.5510638E+002  0.1036551E+03  0.7546771E-02  0.1272792E+00
         21   -1    0    0  502  501  0.00000000000E+00  0.00000000000E+00  0.22111599682E+03  0.22111599682E+03  0.00000000000E+00 0. -1.
         21   -1    0    0  506  502 -0.00000000000E+00 -0.00000000000E+00 -0.22921770639E+03  0.22921770639E+03  0.00000000000E+00 0. -1.
         21    1    1    2  503  504  0.18813961839E+02  0.58551585856E+02  0.76666323790E+02  0.98285189982E+02  0.00000000000E+00 0. -1.
         21    1    1    2  504  501  0.36943057605E+02  0.19239508761E+02  0.74948048747E+02  0.85744727030E+02  0.00000000000E+00 0. -1.
         21    1    1    2  505  503 -0.89839946771E+02 -0.46417751290E+02 -0.11708790558E+01  0.10112959324E+03  0.00000000000E+00 0. -1.
         21    1    1    2  506  505  0.34082927328E+02 -0.31373343327E+02 -0.15854520305E+03  0.16517419295E+03  0.00000000000E+00 0. -1.
<scales pt_clust_3="34.12888" pt_clust_4="34.12888" pt_clust_5="94.99777" pt_clust_6="46.32421"></scales>
<clustering>
<clus scale="   34.129">  3  4 -1 -1</clus>
<clus scale="   46.324">  2  6  1 -1</clus>
<clus scale="   94.998">  2  5  1 -1</clus>
<clus scale="  103.655">  1  3  2 -1</clus>
</clustering>
</event>
<event>
 6    0  0.5510638E+002  0.7987717E+02  0.7546771E-02  0.1329400E+00
         21   -1    0    0  505  501  0.00000000000E+00  0.00000000000E+00  0.12505945235E+04  0.12505945235E+04  0.00000000000E+00 0. -1.
         21   -1    0    0  503  502 -0.00000000000E+00 -0.00000000000E+00 -0.12865663739E+03  0.12865663739E+03  0.00000000000E+00 0. -1.
         21    1    1    2  503  504  0.53951646937E+02  0.25166633633E+02  0.90437955302E+01  0.60215694741E+02  0.00000000000E+00 0. -1.
         21    1    1    2  504  501  0.53827196881E+02  0.96356676273E+02  0.42936550896E+03  0.44332461749E+03  0.00000000000E+00 0. -1.
         21    1    1    2  505  506 -0.44332038748E+02 -0.57389569501E+02  0.75632192738E+03  0.75979059627E+03  0.00000000000E+00 0. -1.
         21    1    1    2  506  502 -0.63446805070E+02 -0.64133740405E+02 -0.72793345747E+02  0.11592025240E+03  0.00000000000E+00 0. -1.
<scales pt_clust_3="59.53268" pt_clust_4="14000.00000" pt_clust_5="79.87717" pt_clust_6="43.43227"></scales>
<clustering>
<clus scale="   59.533">  2  3  1 -1</clus>
<clus scale="   43.432">  2  6  1 -1</clus>
<clus scale="   79.877">  1  5  2 -1</clus>
<clus scale="   79.877">  1  3  2 -1</clus>
</clustering>
</event>
<event>
 6    0  0.5510638E+002  0.1186673E+03  0.7546771E-02  0.1245312E+00
         21   -1    0    0  503  501  0.00000000000E+00  0.00000000000E+00  0.68051530373E+03  0.68051530373E+03  0.00000000000E+00 0.  1.
         21   -1    0    0  504  502 -0.00000000000E+00 -0.00000000000E+00 -0.57735553446E+03  0.57735553446E+03  0.00000000000E+00 0.  1.
         21    1    1    2  503  502 -0.80978645078E+02 -0.13691879988E+03  0.45315286398E+03  0.48026223759E+03  0.00000000000E+00 0.  1.
         21    1    1    2  504  505  0.40699007828E+02  0.10977355430E+02 -0.49690422070E+03  0.49868899740E+03  0.00000000000E+00 0.  1.
         21    1    1    2  505  506 -0.56058603444E+01  0.49377071522E+02 -0.45142092042E+02  0.67136646746E+02  0.00000000000E+00 0.  1.
         21    1    1    2  506  501  0.45885497594E+02  0.76564372927E+02  0.19205321803E+03  0.21178295646E+03  0.00000000000E+00 0.  1.
<scales pt_clust_3="118.66725" pt_clust_4="42.15343" pt_clust_5="61.62174" pt_clust_6="14000.00000"></scales>
<clustering>
<clus scale="   42.153">  2  4  1 -1</clus>
<clus scale="   61.622">  2  5  1 -1</clus>
<clus scale="  118.667">  2  3  1 -1</clus>
<clus scale="  118.667">  1  3  2 -1</clus>
</clustering>
</event>
<event>
 6    0  0.5510638E+002  0.1552038E+03  0.7546771E-02  0.1194221E+00
         21   -1    0    0  503  501  0.00000000000E+00  0.00000000000E+00  0.45238218341E+03  0.45238218341E+03  0.00000000000E+00 0.  1.
         21   -1    0    0  506  502 -0.00000000000E+00 -0.00000000000E+00 -0.11704050219E+03  0.11704050219E+03  0.00000000000E+00 0.  1.
         21    1    1    2  503  505 -0.55351190946E+02 -0.33104210820E+02  0.14484629753E+02  0.66101797345E+02  0.00000000000E+00 0.  1.
         21    1    1    2  504  501  0.13277471013E+03  0.64241716931E+02  0.35283772535E+03  0.38242722481E+03  0.00000000000E+00 0.  1.
         21    1    1    2  505  502 -0.76810294886E+02  0.81606545896E+01 -0.19668908120E+02  0.79707487919E+02  0.00000000000E+00 0.  1.
         21    1    1    2  506  504 -0.61322430196E+00 -0.39298160701E+02 -0.12311765758E+02  0.41186175528E+02  0.00000000000E+00 0.  1.
<scales pt_clust_3="53.41528" pt_clust_4="144.71897" pt_clust_5="53.41528" pt_clust_6="39.30294"></scales>
<clustering>
<clus scale="   39.303">  2  6  1 -1</clus>
<clus scale="   53.415">  3  5 -1 -1</clus>
<clus scale="  144.719">  1  4  2 -1</clus>
<clus scale="  144.719">  1  3  2 -1</clus>
</clustering>
</event>
<event>
 6    0  0.5510638E+002  0.8978339E+02  0.7546771E-02  0.1303377E+00
         21   -1    0    0  505  501  0.00000000000E+00  0.00000000000E+00  0.42608483246E+03  0.42608483246E+03  0.00000000000E+00 0. -1.
         21   -1    0    0  506  502 -0.00000000000E+00 -0.00000000000E+00 -0.42625695271E+03  0.42625695271E+03  0.00000000000E+00 0. -1.
         21    1    1    2  503  502 -0.21839284821E+02 -0.43208117761E+02  0.76372751570E+02  0.90425068340E+02  0.00000000000E+00 0. -1.
         21    1    1    2  504  501 -0.86188668517E+02  0.56580222464E+02 -0.59870906865E+02  0.11922388034E+03  0.00000000000E+00 0. -1.
         21    1    1    2  505  503  0.17989169934E+02 -0.36846610009E+02  0.30504485875E+03  0.30778831810E+03  0.00000000000E+00 0. -1.
         21    1    1    2  506  504  0.90038783404E+02  0.23474505307E+02 -0.32171882371E+03  0.33490451840E+03  0.00000000000E+00 0. -1.
<scales pt_clust_3="69.51241" pt_clust_4="89.78339" pt_clust_5="41.00345" pt_clust_6="14000.00000"></scales>
<clustering>
<clus scale="   41.003">  1  5  2 -1</clus>
<clus scale="   69.512">  1  3  2 -1</clus>
<clus scale="   89.783">  1  4  2 -1</clus>
<clus scale="   41.003">  1  3  2 -1</clus>
</clustering>
</event>
<event>
 6    0  0.5510638E+002  0.9821147E+02  0.7546771E-02  0.1284103E+00
         21   -1    0    0  506  501  0.00000000000E+00  0.00000000000E+00  0.32487075067E+03  0.32487075067E+03  0.00000000000E+00 0. -1.
         21   -1    0    0  503  502 -0.00000000000E+00 -0.00000000000E+00 -0.26160867313E+03  0.26160867313E+03  0.00000000000E+00 0. -1.
         21    1    1    2  503  505  0.42815177086E+02  0.14077503686E+02 -0.18397067811E+03  0.18941099732E+03  0.00000000000E+00 0. -1.
         21    1    1    2  504  501 -0.40579450683E+02 -0.11119908267E+03  0.20757229664E+03  0.23895226749E+03  0.00000000000E+00 0. -1.
         21    1    1    2  505  504  0.32923668930E+02  0.63994180929E+02 -0.26070212685E+02  0.76543315567E+02  0.00000000000E+00 0. -1.
         21    1    1    2  506  502 -0.35159395333E+02  0.33127398053E+02  0.65730671703E+02  0.81572843425E+02  0.00000000000E+00 0. -1.
<scales pt_clust_3="45.07012" pt_clust_4="98.21147" pt_clust_5="14000.00000" pt_clust_6="46.22345"></scales>
<clustering>
<clus scale="   45.070">  2  3  1 -1</clus>
<clus scale="   46.223">  1  6  2 -1</clus>
<clus scale="   98.211">  1  4  2 -1</clus>
<clus scale="   46.223">  1  3  2 -1</clus>
</clustering>
</event>
<event>
 6    0  0.5510638E+002  0.1271664E+03  0.7546771E-02  0.1231722E+00
         21   -1    0    0  504  501  0.00000000000E+00  0.00000000000E+00  0.43411376608E+03  0.43411376608E+03  0.00000000000E+00 0. -1.
         21   -1    0    0  506  502 -0.00000000000E+00 -0.00000000000E+00 -0.92061168947E+02  0.92061168947E+02  0.00000000000E+00 0. -1.
         21    1    1    2  503  505  0.56419898172E+02  0.10026486657E+03  0.16852531090E+03  0.20405153464E+03  0.00000000000E+00 0. -1.
         21    1    1    2  504  503 -0.31145978705E+02  0.65389716092E+02  0.74466781780E+02  0.10388064569E+03  0.00000000000E+00 0. -1.
         21    1    1    2  505  502 -0.58301357957E+02 -0.11993559663E+03  0.46733756886E+02  0.14130689902E+03  0.00000000000E+00 0. -1.
         21    1    1    2  506  501  0.33027438490E+02 -0.45718986033E+02  0.52326747565E+02  0.76935855671E+02  0.00000000000E+00 0. -1.
<scales pt_clust_3="127.16641" pt_clust_4="59.08977" pt_clust_5="14000.00000" pt_clust_6="56.40069"></scales>
<clustering>
<clus scale="   56.401">  1  6  2 -1</clus>
<clus scale="   59.090">  1  4  2 -1</clus>
<clus scale="  127.166">  1  3  2 -1</clus>
<clus scale="   56.401">  1  3  2 -1</clus>
</clustering>
</event>
<event>
 6    0  0.5510638E+002  0.6891453E+02  0.7546771E-02  0.1363824E+00
         21   -1    0    0  505  501  0.00000000000E+00  0.00000000000E+00  0.89227056309E+02  0.89227056309E+02  0.00000000000E+00 0.  1.
         21   -1    0    0  506  502 -0.00000000000E+00 -0.00000000000E+00 -0.30559617210E+03  0.30559617210E+03  0.00000000000E+00 0.  1.
         21    1    1    2  503  501 -0.40777753879E+02  0.23046545243E+02  0.26149756414E+02  0.53644927249E+02  0.00000000000E+00 0.  1.
         21    1    1    2  504  502  0.82776811246E+02 -0.24078262572E+02 -0.14782504215E+03  0.17112570319E+03  0.00000000000E+00 0.  1.
         21    1    1    2  505  504 -0.79138708181E+01  0.56710821948E+02 -0.27986971926E+01  0.57328695984E+02  0.00000000000E+00 0.  1.
         21    1    1    2  506  503 -0.34085186549E+02 -0.55679104619E+02 -0.91895132869E+02  0.11272390198E+03  0.00000000000E+00 0.  1.
<scales pt_clust_3="46.83982" pt_clust_4="68.91453" pt_clust_5="14000.00000" pt_clust_6="66.36870"></scales>
<clustering>
<clus scale="   46.840">  1  3  2 -1</clus>
<clus scale="   66.369">  2  6  1 -1</clus>
<clus scale="   68.915">  2  4  1 -1</clus>
<clus scale="   46.840">  1  3  2 -1</clus>
</clustering>
</event>
<event>
 6    0  0.5510638E+002  0.1326419E+03  0.7546771E-02  0.1223588E+00
         21   -1    0    0  502  501  0.00000000000E+00  0.00000000000E+00  0.91807604513E+03  0.91807604513E+03  0.00000000000E+00 0.  1.
         21   -1    0    0  505  502 -0.00000000000E+00 -0.00000000000E+00 -0.23784145678E+03  0.23784145678E+03  0.00000000000E+00 0.  1.
         21    1    1    2  503  501 -0.33102363682E+02  0.80655806104E+02  0.51977873237E+03  0.52703989997E+03  0.00000000000E+00 0.  1.
         21    1    1    2  504  503 -0.10143181770E+03 -0.74274409476E+02  0.34264969963E+03  0.36498481914E+03  0.00000000000E+00 0.  1.
         21    1    1    2  505  506 -0.13599928982E+02  0.34371612135E+02 -0.41394489407E+02  0.55496572348E+02  0.00000000000E+00 0.  1.
         21    1    1    2  506  504  0.14813411036E+03 -0.40753008762E+02 -0.14079935424E+03  0.20839621045E+03  0.00000000000E+00 0.  1.
<scales pt_clust_3="87.89296" pt_clust_4="132.64187" pt_clust_5="36.96439" pt_clust_6="14000.00000"></scales>
<clustering>
<clus scale="   36.964">  2  5  1 -1</clus>
<clus scale="   87.893">  1  3  2 -1</clus>
<clus scale="  132.642">  1  4  2 -1</clus>
<clus scale="   87.893">  1  3  2 -1</clus>
</clustering>
</event>
<event>
 6    0  0.5510638E+002  0.1152893E+03  0.7546771E-02  0.1251077E+00
         21   -1    0    0  503  501  0.00000000000E+00  0.00000000000E+00  0.17060722995E+03  0.17060722995E+03  0.00000000000E+00 0.  1.
         21   -1    0    0  501  502 -0.00000000000E+00 -0.00000000000E+00 -0.10633654811E+04  0.10633654811E+04  0.00000000000E+00 0. -1.
         21    1    1    2  503  505  0.30004405380E+02  0.65586214697E+01  0.58710815303E+02  0.66258883867E+02  0.00000000000E+00 0.  1.
         21    1    1    2  504  502  0.18565071491E+02  0.76632799335E+02 -0.35012896747E+03  0.35889767578E+03  0.00000000000E+00 0. -1.
         21    1    1    2  505  506  0.63683196084E+02 -0.79449052736E+02  0.72936398455E+02  0.12524942979E+03  0.00000000000E+00 0.  1.
         21    1    1    2  506  504 -0.11225267295E+03 -0.37423680696E+01 -0.67427649740E+03  0.68356672158E+03  0.00000000000E+00 0. -1.
<scales pt_clust_3="30.71286" pt_clust_4="79.40236" pt_clust_5="14000.00000" pt_clust_6="115.28933"></scales>
<clustering>
<clus scale="   30.713">  1  3  2 -1</clus>
<clus scale="   79.402">  2  4  1 -1</clus>
<clus scale="  115.289">  2  6  1 -1</clus>
<clus scale="   30.713">  1  3  2 -1</clus>
</clustering>
</event>
<event>
 6    0  0.5510638E+002  0.1929450E+03  0.7546771E-02  0.1155832E+00
         21   -1    0    0  505  501  0.00000000000E+00  0.00000000000E+00  0.43992903292E+03  0.43992903292E+03  0.00000000000E+00 0.  1.
         21   -1    0    0  504  502 -0.00000000000E+00 -0.00000000000E+00 -0.33741657594E+03  0.33741657594E+03  0.00000000000E+00 0. -1.
         21    1    1    2  503  501 -0.36462728212E+02 -0.49767184930E+02  0.12080423351E+03  0.13564647463E+03  0.00000000000E+00 0.  1.
         21    1    1    2  504  506 -0.76007645355E+02 -0.16185128263E+02  0.12043020056E+03  0.14332673768E+03  0.00000000000E+00 0.  1.
         21    1    1    2  505  502  0.15642109046E+03  0.82377395101E+02 -0.29019225293E+03  0.33980161333E+03  0.00000000000E+00 0. -1.
         21    1    1    2  506  503 -0.43950716889E+02 -0.16425081908E+02  0.15147027584E+03  0.15857078323E+03  0.00000000000E+00 0.  1.
<scales pt_clust_3="41.19271" pt_clust_4="41.19271" pt_clust_5="176.78686" pt_clust_6="32.58691"></scales>
<clustering>
<clus scale="   32.587">  4  6 -1 -1</clus>
<clus scale="   41.193">  3  4 -1 -1</clus>
<clus scale="  176.787">  2  5  1 -1</clus>
<clus scale="  192.945">  1  3  2 -1</clus>
</clustering>
</event>
<event>
 6    0  0.5510638E+002  0.6456690E+02  0.7546771E-02  0.1379608E+00
         21   -1    0    0  504  501  0.00000000000E+00  0.00000000000E+00  0.14228660217E+04  0.14228660217E+04  0.00000000000E+00 0.  1.
         21   -1    0    0  505  502 -0.00000000000E+00 -0.00000000000E+00 -0.48419534473E+02  0.48419534473E+02  0.00000000000E+00 0.  1.
         21    1    1    2  503  501  0.47570061524E+02 -0.20959487066E+02  0.56060871090E+03  0.56301362114E+03  0.00000000000E+00 0.  1.
         21    1    1    2  504  506 -0.88806104962E+02  0.77432306401E+01  0.61007014438E+03  0.61654850820E+03  0.00000000000E+00 0.  1.
         21    1    1    2  505  503  0.84004800056E+02  0.31520579683E+02  0.22376738062E+03  0.24108544960E+03  0.00000000000E+00 0.  1.
         21    1    1    2  506  502 -0.42768756617E+02 -0.18304323257E+02 -0.19999748670E+02  0.50637977244E+02  0.00000000000E+00 0.  1.
<scales pt_clust_3="49.16698" pt_clust_4="64.56690" pt_clust_5="14000.00000" pt_clust_6="46.52112"></scales>
<clustering>
<clus scale="   46.521">  2  6  1 -1</clus>
<clus scale="   49.167">  1  3  2 -1</clus>
<clus scale="   64.567">  1  4  2 -1</clus>
<clus scale="   49.167">  1  3  2 -1</clus>
</clustering>
</event>
<event>
 6    0  0.5510638E+002  0.1618476E+03  0.7546771E-02  0.1186626E+00
         21   -1    0    0  505  501  0.00000000000E+00  0.00000000000E+00  0.12173364615E+03  0.12173364615E+03  0.00000000000E+00 0. -1.
         21   -1    0    0  506  502 -0.00000000000E+00 -0.00000000000E+00 -0.12143413175E+04  0.12143413175E+04  0.00000000000E+00 0. -1.
         21    1    1    2  503  504 -0.91190767902E+02  0.31070026223E+02  0.49143619262E+02  0.10814896206E+03  0.00000000000E+00 0. -1.
         21    1    1    2  504  502  0.20150192514E+02  0.32941236551E+02 -0.60524299361E+03  0.60647360753E+03  0.00000000000E+00 0. -1.
         21    1    1    2  505  503 -0.54491391483E+02  0.29081277848E+02  0.90861780489E+00  0.61772631912E+02  0.00000000000E+00 0.  1.
         21    1    1    2  506  501  0.12553196687E+03 -0.93092540622E+02 -0.53741691480E+03  0.55967976213E+03  0.00000000000E+00 0. -1.
<scales pt_clust_3="31.28560" pt_clust_4="38.61548" pt_clust_5="31.28560" pt_clust_6="157.06047"></scales>
<clustering>
<clus scale="   31.286">  3  5 -1 -1</clus>
<clus scale="   38.615">  2  4  1 -1</clus>
<clus scale="  157.060">  2  6  1 -1</clus>
<clus scale="  161.848">  1  3  2 -1</clus>
</clustering>
</event>
<event>
 6    0  0.5510638E+002  0.1436893E+03  0.7546771E-02  0.1208449E+00
         21   -1    0    0  504  501  0.00000000000E+00  0.00000000000E+00  0.58766263867E+03  0.58766263867E+03  0.00000000000E+00 0.  1.
         21   -1    0    0  506  502 -0.00000000000E+00 -0.00000000000E+00 -0.64458296779E+03  0.64458296779E+03  0.00000000000E+00 0. -1.
         21    1    1    2  503  505 -0.11004588164E+03 -0.37614484991E+02 -0.55346475093E+03  0.56555121436E+03  0.00000000000E+00 0. -1.
         21    1    1    2  504  502  0.28253225428E+02  0.15678243124E+02  0.44217876379E+02  0.54765615545E+02  0.00000000000E+00 0. -1.
         21    1    1    2  505  501  0.11464200107E+03  0.94178320330E+01  0.52166053161E+03  0.53419209485E+03  0.00000000000E+00 0.  1.
         21    1    1    2  506  503 -0.32849344857E+02  0.12518409835E+02 -0.69333986181E+02  0.77736681702E+02  0.00000000000E+00 0.  1.
<scales pt_clust_3="143.68930" pt_clust_4="32.31179" pt_clust_5="14000.00000" pt_clust_6="34.99182"></scales>
<clustering>
<clus scale="   32.312">  1  4  2 -1</clus>
<clus scale="   34.992">  2  6  1 -1</clus>
<clus scale="  143.689">  2  3  1 -1</clus>
<clus scale="   32.312">  1  3  2 -1</clus>
</clustering>
</event>
<event>
 6    0  0.5510638E+002  0.1061159E+03  0.7546771E-02  0.1267937E+00
         21   -1    0    0  505  501  0.00000000000E+00  0.00000000000E+00  0.31066386380E+03  0.31066386380E+03  0.00000000000E+00 0. -1.
         21   -1    0    0  503  502 -0.00000000000E+00 -0.00000000000E+00 -0.13060434957E+04  0.13060434957E+04  0.00000000000E+00 0.  1.
         21    1    1    2  503  501  0.81107651223E+02 -0.57757129212E+02  0.20404390838E+03  0.22704240487E+03  0.00000000000E+00 0. -1.
         21    1    1    2  504  506  0.43514081514E+02 -0.52021427561E+02 -0.61600482502E+03  0.61972707595E+03  0.00000000000E+00 0.  1.
         21    1    1    2  505  504 -0.99672252914E+02  0.90424366714E+02  0.44104765270E+02  0.14162045903E+03  0.00000000000E+00 0.  1.
         21    1    1    2  506  502 -0.24949479823E+02  0.19354190058E+02 -0.62752348053E+03  0.62831741965E+03  0.00000000000E+00 0.  1.
<scales pt_clust_3="106.11586" pt_clust_4="40.17887" pt_clust_5="14000.00000" pt_clust_6="31.57628"></scales>
<clustering>
<clus scale="   31.576">  2  6  1 -1</clus>
<clus scale="   40.179">  2  4  1 -1</clus>
<clus scale="  106.116">  1  3  2 -1</clus>
<clus scale="  106.116">  1  3  2 -1</clus>
</clustering>
</event>
<event>
 6    0  0.5510638E+002  0.8281754E+02  0.7546771E-02  0.1321241E+00
         21   -1    0    0  505  501  0.00000000000E+00  0.00000000000E+00  0.17860782919E+04  0.17860782919E+04  0.00000000000E+00 0. -1.
         21   -1    0    0  504  502 -0.00000000000E+00 -0.00000000000E+00 -0.86986842643E+03  0.86986842643E+03  0.00000000000E+00 0.  1.
         21    1    1    2  503  501 -0.74351603593E+02  0.67001844770E+02  0.13390448104E+04  0.13427801057E+04  0.00000000000E+00 0. -1.
         21    1    1    2  504  506  0.25725715700E+01  0.35847983083E+02 -0.81197163700E+03  0.81276665490E+03  0.00000000000E+00 0.  1.
         21    1    1    2  505  502  0.62433601875E+02 -0.15907727502E+02  0.40622536959E+03  0.41130288272E+03  0.00000000000E+00 0. -1.
         21    1    1    2  506  503  0.93454301481E+01 -0.86942100352E+02 -0.17088677458E+02  0.89097075011E+02  0.00000000000E+00 0. -1.
<scales pt_clust_3="82.81754" pt_clust_4="35.94017" pt_clust_5="14000.00000" pt_clust_6="55.10230"></scales>
<clustering>
<clus scale="   35.940">  2  4  1 -1</clus>
<clus scale="   55.102">  2  6  1 -1</clus>
<clus scale="   82.818">  1  3  2 -1</clus>
<clus scale="   82.818">  1  3  2 -1</clus>
</clustering>
</event>
<event>
 6    0  0.5510638E+002  0.2315508E+03  0.7546771E-02  0.1125553E+00
         21   -1    0    0  503  501  0.00000000000E+00  0.00000000000E+00  0.40163300959E+03  0.40163300959E+03  0.00000000000E+00 0. -1.
         21   -1    0    0  505  502 -0.00000000000E+00 -0.00000000000E+00 -0.61067161754E+03  0.61067161754E+03  0.00000000000E+00 0.  1.
         21    1    1    2  503  506  0.21502517209E+03 -0.57384256051E+02  0.23600160674E+03  0.32438485763E+03  0.00000000000E+00 0. -1.
         21    1    1    2  504  501  0.93359584851E+01  0.12502309426E+03  0.30407459171E+02  0.12900599905E+03  0.00000000000E+00 0.  1.
         21    1    1    2  505  504 -0.24405961330E+03 -0.41809557938E+02 -0.46114804943E+03  0.52342206437E+03  0.00000000000E+00 0.  1.
         21    1    1    2  506  502  0.19698482722E+02 -0.25829280268E+02 -0.14299624432E+02  0.35491706068E+02  0.00000000000E+00 0.  1.
<scales pt_clust_3="231.55075" pt_clust_4="123.34022" pt_clust_5="14000.00000" pt_clust_6="32.48356"></scales>
<clustering>
<clus scale="   32.484">  2  6  1 -1</clus>
<clus scale="  123.340">  1  4  2 -1</clus>
<clus scale="  231.551">  1  3  2 -1</clus>
<clus scale="  123.340">  1  3  2 -1</clus>
</clustering>
</event>
<event>
 6    0  0.5510638E+002  0.1455208E+03  0.7546771E-02  0.1206088E+00
         21   -1    0    0  503  501  0.00000000000E+00  0.00000000000E+00  0.27510190305E+03  0.27510190305E+03  0.00000000000E+00 0. -1.
         21   -1    0    0  505  502 -0.00000000000E+00 -0.00000000000E+00 -0.84923144698E+03  0.84923144698E+03  0.00000000000E+00 0. -1.
         21    1    1    2  503  502  0.54999292317E+02  0.14043937857E+03  0.18134196106E+02  0.15191112624E+03  0.00000000000E+00 0. -1.
         21    1    1    2  504  506  0.47056576365E-01 -0.47093275510E+02 -0.13962033779E+03  0.14734862584E+03  0.00000000000E+00 0. -1.
         21    1    1    2  505  504  0.19002950397E+02  0.30063114182E+02 -0.61045534090E+03  0.61149049559E+03  0.00000000000E+00 0. -1.
         21    1    1    2  506  501 -0.74049299290E+02 -0.12340921724E+03  0.15781193867E+03  0.21358310235E+03  0.00000000000E+00 0. -1.
<scales pt_clust_3="14000.00000" pt_clust_4="31.18307" pt_clust_5="35.56547" pt_clust_6="145.52083"></scales>
<clustering>
<clus scale="   35.565">  2  5  1 -1</clus>
<clus scale="   31.183">  2  4  1 -1</clus>
<clus scale="  145.521">  1  6  2 -1</clus>
<clus scale="  145.521">  1  3  2 -1</clus>
</clustering>
</event>
<event>
 6    0  0.5510638E+002  0.1172305E+03  0.7546771E-02  0.1247737E+00
         21   -1    0    0  503  501  0.00000000000E+00  0.00000000000E+00  0.49324931891E+02  0.49324931891E+02  0.00000000000E+00 0.  1.
         21   -1    0    0  505  502 -0.00000000000E+00 -0.00000000000E+00 -0.13282042988E+04  0.13282042988E+04  0.00000000000E+00 0. -1.
         21    1    1    2  503  504  0.32774923378E+02 -0.59784892056E+02 -0.86578712258E+02  0.11020119027E+03  0.00000000000E+00 0.  1.
         21    1    1    2  504  502 -0.11125358330E+02  0.12180993609E+03 -0.91184578804E+03  0.92001313866E+03  0.00000000000E+00 0. -1.
         21    1    1    2  505  506  0.29994311451E+02  0.22881835904E+01 -0.26079252924E+03  0.26252169017E+03  0.00000000000E+00 0. -1.
         21    1    1    2  506  501 -0.51643876499E+02 -0.64313227625E+02 -0.19662337412E+02  0.84793211638E+02  0.00000000000E+00 0.  1.
<scales pt_clust_3="69.37050" pt_clust_4="14000.00000" pt_clust_5="30.08146" pt_clust_6="117.23045"></scales>
<clustering>
<clus scale="   30.081">  2  5  1 -1</clus>
<clus scale="   69.371">  1  3  2 -1</clus>
<clus scale="  117.230">  1  6  2 -1</clus>
<clus scale="   69.371">  1  3  2 -1</clus>
</clustering>
</event>
<event>
 6    0  0.5510638E+002  0.1708283E+03  0.7546771E-02  0.1176987E+00
         21   -1    0    0  503  501  0.00000000000E+00  0.00000000000E+00  0.24712484863E+03  0.24712484863E+03  0.00000000000E+00 0.  1.
         21   -1    0    0  505  502 -0.00000000000E+00 -0.00000000000E+00 -0.42407144590E+03  0.42407144590E+03  0.00000000000E+00 0.  1.
         21    1    1    2  503  506  0.19145707406E+02 -0.13151196997E+03  0.61993823626E+01  0.13304280777E+03  0.00000000000E+00 0.  1.
         21    1    1    2  504  502  0.17389641788E+02 -0.58682286486E+02 -0.68325046725E+02  0.91729615712E+02  0.00000000000E+00 0.  1.
         21    1    1    2  505  501 -0.18610510346E+03  0.10911305580E+03 -0.16209659566E+03  0.26984453822E+03  0.00000000000E+00 0.  1.
         21    1    1    2  506  504  0.14956975427E+03  0.81081200654E+02  0.47275662763E+02  0.17657933283E+03  0.00000000000E+00 0.  1.
<scales pt_clust_3="144.07390" pt_clust_4="61.20466" pt_clust_5="170.82832" pt_clust_6="14000.00000"></scales>
<clustering>
<clus scale="   61.205">  2  4  1 -1</clus>
<clus scale="  144.074">  1  3  2 -1</clus>
<clus scale="  170.828">  2  5  1 -1</clus>
<clus scale="  144.074">  1  3  2 -1</clus>
</clustering>
</event>
<event>
 6    0  0.5510638E+002  0.1254923E+03  0.7546771E-02  0.1234302E+00
         21   -1    0    0  506  501  0.00000000000E+00  0.00000000000E+00  0.21048403545E+03  0.21048403545E+03  0.00000000000E+00 0.  1.
         21   -1    0    0  503  502 -0.00000000000E+00 -0.00000000000E+00 -0.65212820457E+03  0.65212820457E+03  0.00000000000E+00 0.  1.
         21    1    1    2  503  501 -0.61184590262E+02  0.47627621124E+02 -0.54296197995E+02  0.94657390077E+02  0.00000000000E+00 0.  1.
         21    1    1    2  504  505  0.14412571185E+03 -0.16167312177E+03 -0.23686492295E+03  0.32096013903E+03  0.00000000000E+00 0.  1.
         21    1    1    2  505  502  0.29458407689E+01  0.33345456824E+02 -0.27413800076E+03  0.27617429448E+03  0.00000000000E+00 0.  1.
         21    1    1    2  506  504 -0.85886962361E+02  0.80700043821E+02  0.12365495258E+03  0.17082041645E+03  0.00000000000E+00 0.  1.
<scales pt_clust_3="81.31420" pt_clust_4="14000.00000" pt_clust_5="33.47533" pt_clust_6="125.49229"></scales>
<clustering>
<clus scale="   33.475">  2  5  1 -1</clus>
<clus scale="   81.314">  2  3  1 -1</clus>
<clus scale="  125.492">  1  6  2 -1</clus>
<clus scale="  125.492">  1  3  2 -1</clus>
</clustering>
</event>
<event>
 6    0  0.5510638E+002  0.1152812E+03  0.7546771E-02  0.1251091E+00
         21   -1    0    0  505  501  0.00000000000E+00  0.00000000000E+00  0.17074019749E+03  0.17074019749E+03  0.00000000000E+00 0. -1.
         21   -1    0    0  504  502 -0.00000000000E+00 -0.00000000000E+00 -0.30776840827E+03  0.30776840827E+03  0.00000000000E+00 0. -1.
         21    1    1    2  503  501 -0.98155352848E+02 -0.15324496991E+02 -0.21027505376E+02  0.10154540602E+03  0.00000000000E+00 0. -1.
         21    1    1    2  504  503  0.24255060399E+02 -0.11196283962E+03 -0.16765618066E+03  0.20305807131E+03  0.00000000000E+00 0. -1.
         21    1    1    2  505  506  0.31462051259E+02 -0.37199120637E+00  0.79166846189E+01  0.32444921671E+02  0.00000000000E+00 0. -1.
         21    1    1    2  506  502  0.42438241190E+02  0.12765932782E+03  0.43738790637E+02  0.14146020677E+03  0.00000000000E+00 0. -1.
<scales pt_clust_3="91.05834" pt_clust_4="14000.00000" pt_clust_5="31.46425" pt_clust_6="115.28115"></scales>
<clustering>
<clus scale="   31.464">  1  5  2 -1</clus>
<clus scale="   91.058">  1  3  2 -1</clus>
<clus scale="  115.281">  1  6  2 -1</clus>
<clus scale="   31.464">  1  3  2 -1</clus>
</clustering>
</event>
<event>
 6    0  0.5510638E+002  0.7927974E+02  0.7546771E-02  0.1331108E+00
         21   -1    0    0  506  501  0.00000000000E+00  0.00000000000E+00  0.16153453746E+03  0.16153453746E+03  0.00000000000E+00 0.  1.
         21   -1    0    0  504  502 -0.00000000000E+00 -0.00000000000E+00 -0.17545278229E+03  0.17545278229E+03  0.00000000000E+00 0.  1.
         21    1    1    2  503  501  0.27131069454E+02  0.10641604193E+03  0.19386937679E+02  0.11151825977E+03  0.00000000000E+00 0.  1.
         21    1    1    2  504  503  0.15019735573E+02 -0.51146209470E+02 -0.85288948893E+02  0.10057699540E+03  0.00000000000E+00 0.  1.
         21    1    1    2  505  502 -0.69332079612E+02 -0.28079613639E+02  0.38661761766E+02  0.84202932183E+02  0.00000000000E+00 0.  1.
         21    1    1    2  506  505  0.27181274585E+02 -0.27190218823E+02  0.13322004617E+02  0.40689132391E+02  0.00000000000E+00 0.  1.
<scales pt_clust_3="14000.00000" pt_clust_4="55.23344" pt_clust_5="79.27974" pt_clust_6="38.44645"></scales>
<clustering>
<clus scale="   38.446">  1  6  2 -1</clus>
<clus scale="   55.233">  2  4  1 -1</clus>
<clus scale="   79.280">  1  5  2 -1</clus>
<clus scale="   38.446">  1  3  2 -1</clus>
</clustering>
</event>
<event>
 6    0  0.5510638E+002  0.1341493E+03  0.7546771E-02  0.1221426E+00
         21   -1    0    0  504  501  0.00000000000E+00  0.00000000000E+00  0.13409406685E+03  0.13409406685E+03  0.00000000000E+00 0.  1.
         21   -1    0    0  506  502 -0.00000000000E+00 -0.00000000000E+00 -0.92403365244E+03  0.92403365244E+03  0.00000000000E+00 0.  1.
         21    1    1    2  503  505 -0.45463888572E+02 -0.30373506314E+02  0.10664029480E+02  0.55706701345E+02  0.00000000000E+00 0.  1.
         21    1    1    2  504  502  0.49550285843E+02 -0.89213949333E+00 -0.87021332641E+02  0.10014359228E+03  0.00000000000E+00 0.  1.
         21    1    1    2  505  501 -0.43678484359E+02 -0.57813708425E+02  0.76986051435E+02  0.10572174324E+03  0.00000000000E+00 0.  1.
         21    1    1    2  506  503  0.39592087089E+02  0.89079354233E+02 -0.79056833386E+03  0.79655568243E+03  0.00000000000E+00 0.  1.
<scales pt_clust_3="44.74508" pt_clust_4="49.55832" pt_clust_5="44.74508" pt_clust_6="123.86593"></scales>
<clustering>
<clus scale="   44.745">  3  5 -1 -1</clus>
<clus scale="   49.558">  2  4  1 -1</clus>
<clus scale="  123.866">  2  6  1 -1</clus>
<clus scale="  134.149">  1  3  2 -1</clus>
</clustering>
</event>
<event>
 6    0  0.5510638E+002  0.9268527E+02  0.7546771E-02  0.1296476E+00
         21   -1    0    0  506  501  0.00000000000E+00  0.00000000000E+00  0.12292696709E+04  0.12292696709E+04  0.00000000000E+00 0. -1.
         21   -1    0    0  503  502 -0.00000000000E+00 -0.00000000000E+00 -0.14245129380E+03  0.14245129380E+03  0.00000000000E+00 0.  1.
         21    1    1    2  503  501 -0.35890820300E+02 -0.81484299279E+02  0.10387461041E+04  0.10425551836E+04  0.00000000000E+00 0. -1.
         21    1    1    2  504  502  0.65175105827E+02  0.66114088973E+02 -0.11025838355E+03  0.14413805300E+03  0.00000000000E+00 0.  1.
         21    1    1    2  505  504 -0.60517087214E+02  0.68383508912E+01  0.82240967028E+02  0.10233600317E+03  0.00000000000E+00 0.  1.
         21    1    1    2  506  505  0.31232801688E+02  0.85318594148E+01  0.76089689576E+02  0.82691725016E+02  0.00000000000E+00 0. -1.
<scales pt_clust_3="14000.00000" pt_clust_4="92.68527" pt_clust_5="58.49615" pt_clust_6="32.37716"></scales>
<clustering>
<clus scale="   32.377">  1  6  2 -1</clus>
<clus scale="   58.496">  1  5  2 -1</clus>
<clus scale="   92.685">  2  4  1 -1</clus>
<clus scale="   32.377">  1  3  2 -1</clus>
</clustering>
</event>
<event>
 6    0  0.5510638E+002  0.1931590E+03  0.7546771E-02  0.1155643E+00
         21   -1    0    0  505  501  0.00000000000E+00  0.00000000000E+00  0.20624382674E+04  0.20624382674E+04  0.00000000000E+00 0.  1.
         21   -1    0    0  504  502 -0.00000000000E+00 -0.00000000000E+00 -0.75004234126E+02  0.75004234126E+02  0.00000000000E+00 0.  1.
         21    1    1    2  503  501  0.10570724218E+02 -0.44196064226E+02  0.15916037360E+03  0.16552056316E+03  0.00000000000E+00 0.  1.
         21    1    1    2  504  503  0.11793381765E+03 -0.20891271942E+02  0.68470279570E+03  0.69509909295E+03  0.00000000000E+00 0.  1.
         21    1    1    2  505  506  0.18501141494E+02  0.19995546150E+03  0.10255556087E+04  0.10450305189E+04  0.00000000000E+00 0.  1.
         21    1    1    2  506  502 -0.14700568336E+03 -0.13486812533E+03  0.11801525528E+03  0.23179232656E+03  0.00000000000E+00 0.  1.
<scales pt_clust_3="45.44263" pt_clust_4="127.25107" pt_clust_5="193.15905" pt_clust_6="14000.00000"></scales>
<clustering>
<clus scale="   45.443">  1  3  2 -1</clus>
<clus scale="  127.251">  1  4  2 -1</clus>
<clus scale="  193.159">  1  5  2 -1</clus>
<clus scale="   45.443">  1  3  2 -1</clus>
</clustering>
</event>
<event>
 6    0  0.5510638E+002  0.1624837E+03  0.7546771E-02  0.1185921E+00
         21   -1    0    0  506  501  0.00000000000E+00  0.00000000000E+00  0.22974676943E+03  0.22974676943E+03  0.00000000000E+00 0.  1.
         21   -1    0    0  501  502 -0.00000000000E+00 -0.00000000000E+00 -0.43822506478E+03  0.43822506478E+03  0.00000000000E+00 0.  1.
         21    1    1    2  503  502 -0.10205614051E+02  0.10379201899E+03 -0.28270980677E+03  0.30133332475E+03  0.00000000000E+00 0.  1.
         21    1    1    2  504  505 -0.20254275990E+02 -0.13234443602E+03  0.98283663971E+02  0.16608721818E+03  0.00000000000E+00 0.  1.
         21    1    1    2  505  503 -0.43370848407E+02  0.36580194161E+02 -0.86548671304E+02  0.10348822929E+03  0.00000000000E+00 0.  1.
         21    1    1    2  506  504  0.73830738449E+02 -0.80277771320E+01  0.62496518756E+02  0.97063061986E+02  0.00000000000E+00 0.  1.
<scales pt_clust_3="51.91355" pt_clust_4="146.44823" pt_clust_5="51.91355" pt_clust_6="74.26589"></scales>
<clustering>
<clus scale="   51.914">  3  5 -1 -1</clus>
<clus scale="   74.266">  1  6  2 -1</clus>
<clus scale="  146.448">  1  4  2 -1</clus>
<clus scale="   74.266">  1  3  2 -1</clus>
</clustering>
</event>
<event>
 6    0  0.5510638E+002  0.1033331E+03  0.7546771E-02  0.1273439E+00
         21   -1    0    0  504  501  0.00000000000E+00  0.00000000000E+00  0.32739880421E+03  0.32739880421E+03  0.00000000000E+00 0.  1.
         21   -1    0    0  505  502 -0.00000000000E+00 -0.00000000000E+00 -0.33763574882E+03  0.33763574882E+03  0.00000000000E+00 0.  1.
         21    1    1    2  503  501 -0.68519113346E+02  0.93652225539E+02  0.27305951001E+03  0.29669362017E+03  0.00000000000E+00 0.  1.
         21    1    1    2  504  506  0.44784879530E+02 -0.40801645052E+02 -0.18200406021E+02  0.63259105691E+02  0.00000000000E+00 0.  1.
         21    1    1    2  505  503 -0.13603982578E+02 -0.67206985804E+02 -0.25467366182E+03  0.26374328676E+03  0.00000000000E+00 0.  1.
         21    1    1    2  506  502  0.37338216395E+02  0.14356405318E+02 -0.10422386783E+02  0.41338540413E+02  0.00000000000E+00 0. -1.
<scales pt_clust_3="103.33313" pt_clust_4="14000.00000" pt_clust_5="57.95685" pt_clust_6="40.00311"></scales>
<clustering>
<clus scale="   40.003">  2  6  1 -1</clus>
<clus scale="   57.957">  2  5  1 -1</clus>
<clus scale="  103.333">  1  3  2 -1</clus>
<clus scale="  103.333">  1  3  2 -1</clus>
</clustering>
</event>
<event>
 6    0  0.5510638E+002  0.1180561E+03  0.7546771E-02  0.1246339E+00
         21   -1    0    0  502  501  0.00000000000E+00  0.00000000000E+00  0.14230351224E+04  0.14230351224E+04  0.00000000000E+00 0.  1.
         21   -1    0    0  503  502 -0.00000000000E+00 -0.00000000000E+00 -0.51732273841E+02  0.51732273841E+02  0.00000000000E+00 0.  1.
         21    1    1    2  503  504 -0.62049995087E+02 -0.43205420921E+02 -0.45603182306E+01  0.75747652040E+02  0.00000000000E+00 0.  1.
         21    1    1    2  504  506 -0.61479762787E+02  0.47240170993E+02  0.18608310546E+03  0.20158947672E+03  0.00000000000E+00 0.  1.
         21    1    1    2  505  501  0.33611915889E+02 -0.25952049854E+02  0.39842947425E+03  0.40068605632E+03  0.00000000000E+00 0.  1.
         21    1    1    2  506  505  0.89917841985E+02  0.21917299782E+02  0.79135058713E+03  0.79674421120E+03  0.00000000000E+00 0.  1.
<scales pt_clust_3="75.61025" pt_clust_4="104.64445" pt_clust_5="37.01919" pt_clust_6="37.01919"></scales>
<clustering>
<clus scale="   37.019">  5  6 -1 -1</clus>
<clus scale="   75.610">  2  3  1 -1</clus>
<clus scale="  104.644">  2  4  1 -1</clus>
<clus scale="  118.056">  1  3  2 -1</clus>
</clustering>
</event>
<event>
 6    0  0.5510638E+002  0.9559177E+02  0.7546771E-02  0.1289849E+00
         21   -1    0    0  504  501  0.00000000000E+00  0.00000000000E+00  0.14327101743E+03  0.14327101743E+03  0.00000000000E+00 0.  1.
         21   -1    0    0  505  502 -0.00000000000E+00 -0.00000000000E+00 -0.99012629476E+03  0.99012629476E+03  0.00000000000E+00 0. -1.
         21    1    1    2  503  501  0.69677697618E+02  0.10865563064E+02  0.97639273766E+02  0.12044280712E+03  0.00000000000E+00 0.  1.
         21    1    1    2  504  506  0.11727609627E+02  0.50157890373E+02 -0.12593534864E+02  0.53027803222E+02  0.00000000000E+00 0.  1.
         21    1    1    2  505  503 -0.62483794262E+02  0.33884298236E+02 -0.10154711784E+03  0.12395235921E+03  0.00000000000E+00 0.  1.
         21    1    1    2  506  502 -0.18921512983E+02 -0.94907751672E+02 -0.83035389839E+03  0.83597434264E+03  0.00000000000E+00 0. -1.
<scales pt_clust_3="95.59177" pt_clust_4="51.51069" pt_clust_5="72.45957" pt_clust_6="14000.00000"></scales>
<clustering>
<clus scale="   51.511">  1  4  2 -1</clus>
<clus scale="   72.460">  2  5  1 -1</clus>
<clus scale="   95.592">  1  3  2 -1</clus>
<clus scale="   51.511">  1  3  2 -1</clus>
</clustering>
</event>
<event>
 6    0  0.5510638E+002  0.1128598E+03  0.7546771E-02  0.1255364E+00
         21   -1    0    0  506  501  0.00000000000E+00  0.00000000000E+00  0.14497623998E+03  0.14497623998E+03  0.00000000000E+00 0.  1.
         21   -1    0    0  503  502 -0.00000000000E+00 -0.00000000000E+00 -0.13628958069E+04  0.13628958069E+04  0.00000000000E+00 0. -1.
         21    1    1    2  503  501 -0.81116034390E+02 -0.97843810032E+02 -0.83484255599E+03  0.84446155359E+03  0.00000000000E+00 0. -1.
         21    1    1    2  504  505 -0.51380945329E+01  0.45171116528E+02  0.91624975382E+02  0.10228375187E+03  0.00000000000E+00 0.  1.
         21    1    1    2  505  502  0.11073827036E+03  0.16630934874E+02 -0.49888217775E+03  0.51129539387E+03  0.00000000000E+00 0. -1.
         21    1    1    2  506  504 -0.24484141439E+02  0.36041758630E+02  0.24180191388E+02  0.49831347591E+02  0.00000000000E+00 0.  1.
<scales pt_clust_3="14000.00000" pt_clust_4="82.14307" pt_clust_5="112.85980" pt_clust_6="43.57157"></scales>
<clustering>
<clus scale="   43.572">  1  6  2 -1</clus>
<clus scale="   82.143">  1  4  2 -1</clus>
<clus scale="  112.860">  1  5  2 -1</clus>
<clus scale="   43.572">  1  3  2 -1</clus>
</clustering>
</event>
<event>
 6    0  0.5510638E+002  0.7879470E+02  0.7546771E-02  0.1332507E+00
         21   -1    0    0  506  501  0.00000000000E+00  0.00000000000E+00  0.81312385979E+02  0.81312385979E+02  0.00000000000E+00 0.  1.
         21   -1    0    0  503  502 -0.00000000000E+00 -0.00000000000E+00 -0.32357936418E+03  0.32357936418E+03  0.00000000000E+00 0.  1.
         21    1    1    2  503  504 -0.14623755103E+02  0.12624390443E+03 -0.16316542167E+03  0.20681956495E+03  0.00000000000E+00 0.  1.
         21    1    1    2  504  501  0.86283149143E+01 -0.34952931346E+02 -0.91579935022E+01  0.37148675251E+02  0.00000000000E+00 0.  1.
         21    1    1    2  505  502  0.27153625222E+02 -0.54292248743E+02 -0.94063592236E+02  0.11195055614E+03  0.00000000000E+00 0.  1.
         21    1    1    2  506  505 -0.21158185034E+02 -0.36998724339E+02  0.24120029204E+02  0.48972953816E+02  0.00000000000E+00 0. -1.
<scales pt_clust_3="14000.00000" pt_clust_4="36.00216" pt_clust_5="78.79470" pt_clust_6="58.34857"></scales>
<clustering>
<clus scale="   36.002">  1  4  2 -1</clus>
<clus scale="   58.349">  1  6  2 -1</clus>
<clus scale="   78.795">  2  5  1 -1</clus>
<clus scale="   36.002">  1  3  2 -1</clus>
</clustering>
</event>
<event>
 6    0  0.5510638E+002  0.7582043E+02  0.7546771E-02  0.1341349E+00
         21   -1    0    0  506  501  0.00000000000E+00  0.00000000000E+00  0.17502450502E+03  0.17502450502E+03  0.00000000000E+00 0. -1.
         21   -1    0    0  504  502 -0.00000000000E+00 -0.00000000000E+00 -0.18009535925E+03  0.18009535925E+03  0.00000000000E+00 0. -1.
         21    1    1    2  503  505 -0.16752817610E+02 -0.10544534531E+03  0.12186389964E+02  0.10746108992E+03  0.00000000000E+00 0. -1.
         21    1    1    2  504  501 -0.24774430379E+02  0.53624396522E+02  0.82738590657E+00  0.59076500153E+02  0.00000000000E+00 0. -1.
         21    1    1    2  505  502 -0.11886436104E+02  0.68908063006E+02 -0.79189562864E+02  0.10564371906E+03  0.00000000000E+00 0. -1.
         21    1    1    2  506  503  0.53413684093E+02 -0.17087114218E+02  0.61104932759E+02  0.82938555137E+02  0.00000000000E+00 0. -1.
<scales pt_clust_3="75.82043" pt_clust_4="49.52571" pt_clust_5="14000.00000" pt_clust_6="56.08022"></scales>
<clustering>
<clus scale="   56.080">  1  6  2 -1</clus>
<clus scale="   49.526">  1  4  2 -1</clus>
<clus scale="   75.820">  1  3  2 -1</clus>
<clus scale="   56.080">  1  3  2 -1</clus>
</clustering>
</event>
<event>
 6    0  0.5510638E+002  0.1246451E+03  0.7546771E-02  0.1235625E+00
         21   -1    0    0  505  501  0.00000000000E+00  0.00000000000E+00  0.28334902150E+03  0.28334902150E+03  0.00000000000E+00 0. -1.
         21   -1    0    0  504  502 -0.00000000000E+00 -0.00000000000E+00 -0.14023413675E+04  0.14023413675E+04  0.00000000000E+00 0. -1.
         21    1    1    2  503  502 -0.94471018410E+02 -0.65111623300E+02 -0.91164088986E+03  0.91883263377E+03  0.00000000000E+00 0. -1.
         21    1    1    2  504  506  0.15260555014E+03  0.66496225047E+02 -0.46823233496E+03  0.49694237230E+03  0.00000000000E+00 0. -1.
         21    1    1    2  505  503 -0.29460328544E+02  0.95497547639E+01  0.69475349241E+02  0.76065320128E+02  0.00000000000E+00 0. -1.
         21    1    1    2  506  501 -0.28674203188E+02 -0.10934356511E+02  0.19140552960E+03  0.19385006279E+03  0.00000000000E+00 0. -1.
<scales pt_clust_3="124.64510" pt_clust_4="14000.00000" pt_clust_5="52.46659" pt_clust_6="30.68827"></scales>
<clustering>
<clus scale="   30.688">  1  6  2 -1</clus>
<clus scale="   52.467">  1  5  2 -1</clus>
<clus scale="  124.645">  2  3  1 -1</clus>
<clus scale="   30.688">  1  3  2 -1</clus>
</clustering>
</event>
<event>
 6    0  0.5510638E+002  0.6771716E+02  0.7546771E-02  0.1368033E+00
         21   -1    0    0  503  501  0.00000000000E+00  0.00000000000E+00  0.25962854633E+03  0.25962854633E+03  0.00000000000E+00 0.  1.
         21   -1    0    0  504  502 -0.00000000000E+00 -0.00000000000E+00 -0.14535233171E+03  0.14535233171E+03  0.00000000000E+00 0.  1.
         21    1    1    2  503  505  0.45236247502E+02 -0.18032753663E+02  0.29961928148E+02  0.57177053361E+02  0.00000000000E+00 0.  1.
         21    1    1    2  504  506 -0.29480422271E+02  0.87507567369E+02 -0.27065591669E+02  0.96224819546E+02  0.00000000000E+00 0.  1.
         21    1    1    2  505  502  0.52887612718E+02 -0.32944951291E+02 -0.45049646375E+02  0.76889141191E+02  0.00000000000E+00 0.  1.
         21    1    1    2  506  501 -0.68643437949E+02 -0.36529862416E+02  0.15642952452E+03  0.17468986394E+03  0.00000000000E+00 0.  1.
<scales pt_clust_3="48.69803" pt_clust_4="14000.00000" pt_clust_5="67.71716" pt_clust_6="60.74175"></scales>
<clustering>
<clus scale="   48.698">  1  3  2 -1</clus>
<clus scale="   60.742">  1  6  2 -1</clus>
<clus scale="   67.717">  2  5  1 -1</clus>
<clus scale="   48.698">  1  3  2 -1</clus>
</clustering>
</event>
<event>
 6    0  0.5510638E+002  0.1111250E+03  0.7546771E-02  0.1258501E+00
         21   -1    0    0  506  501  0.00000000000E+00  0.00000000000E+00  0.14161650891E+03  0.14161650891E+03  0.00000000000E+00 0. -1.
         21   -1    0    0  503  502 -0.00000000000E+00 -0.00000000000E+00 -0.33759754189E+03  0.33759754189E+03  0.00000000000E+00 0. -1.
         21    1    1    2  503  505 -0.10713384101E+03 -0.81348350428E+02 -0.16169026522E+03  0.21033058711E+03  0.00000000000E+00 0. -1.
         21    1    1    2  504  502  0.52468472781E+01  0.50174999400E+02 -0.89082342157E+02  0.10237540552E+03  0.00000000000E+00 0. -1.
         21    1    1    2  505  501  0.11304290763E+03  0.67397046036E+00  0.67466278264E+02  0.13164669348E+03  0.00000000000E+00 0. -1.
         21    1    1    2  506  504 -0.11155913896E+02  0.30499380567E+02 -0.12674703870E+02  0.34861364690E+02  0.00000000000E+00 0.  1.
<scales pt_clust_3="111.12502" pt_clust_4="51.93926" pt_clust_5="14000.00000" pt_clust_6="32.47563"></scales>
<clustering>
<clus scale="   32.476">  1  6  2 -1</clus>
<clus scale="   51.939">  2  4  1 -1</clus>
<clus scale="  111.125">  2  3  1 -1</clus>
<clus scale="   32.476">  1  3  2 -1</clus>
</clustering>
</event>
<event>
 6    0  0.5510638E+002  0.1477595E+03  0.7546771E-02  0.1203254E+00
         21   -1    0    0  506  501  0.00000000000E+00  0.00000000000E+00  0.34891531852E+03  0.34891531852E+03  0.00000000000E+00 0. -1.
         21   -1    0    0  505  502 -0.00000000000E+00 -0.00000000000E+00 -0.24393932260E+03  0.24393932260E+03  0.00000000000E+00 0. -1.
         21    1    1    2  503  502  0.96593947650E+01 -0.52559469252E+02 -0.13526035595E+03  0.14543440311E+03  0.00000000000E+00 0. -1.
         21    1    1    2  504  501 -0.99972202102E+02  0.10554802413E+03  0.28335207767E+03  0.31847013441E+03  0.00000000000E+00 0. -1.
         21    1    1    2  505  504  0.62142068787E+02 -0.18398851593E+02  0.28829369864E+01  0.64872689005E+02  0.00000000000E+00 0. -1.
         21    1    1    2  506  503  0.28170738550E+02 -0.34589703283E+02 -0.45998662784E+02  0.64077414597E+02  0.00000000000E+00 0. -1.
<scales pt_clust_3="41.00553" pt_clust_4="140.77849" pt_clust_5="64.80860" pt_clust_6="41.00553"></scales>
<clustering>
<clus scale="   41.006">  3  6 -1 -1</clus>
<clus scale="   64.809">  2  5  1 -1</clus>
<clus scale="  140.778">  1  4  2 -1</clus>
<clus scale="  140.778">  1  3  2 -1</clus>
</clustering>
</event>
<event>
 6    0  0.5510638E+002  0.1005905E+03  0.7546771E-02  0.1279059E+00
         21   -1    0    0  506  501  0.00000000000E+00  0.00000000000E+00  0.53878786446E+02  0.53878786446E+02  0.00000000000E+00 0.  1.
         21   -1    0    0  503  502 -0.00000000000E+00 -0.00000000000E+00 -0.17826818861E+04  0.17826818861E+04  0.00000000000E+00 0.  1.
         21    1    1    2  503  504  0.17235198300E+02  0.58748032076E+02 -0.10129986228E+04  0.10148470787E+04  0.00000000000E+00 0.  1.
         21    1    1    2  504  501 -0.15753508695E+02  0.28552379666E+02 -0.53694531132E+02  0.62821286952E+02  0.00000000000E+00 0.  1.
         21    1    1    2  505  502 -0.36760064280E+02 -0.15337991713E+03 -0.66547415834E+03  0.68390975773E+03  0.00000000000E+00 0.  1.
         21    1    1    2  506  505  0.35278374675E+02  0.66079505383E+02  0.33642126317E+01  0.74982549157E+02  0.00000000000E+00 0.  1.
<scales pt_clust_3="61.65592" pt_clust_4="32.60999" pt_clust_5="100.59046" pt_clust_6="14000.00000"></scales>
<clustering>
<clus scale="   32.610">  1  4  2 -1</clus>
<clus scale="   61.656">  2  3  1 -1</clus>
<clus scale="  100.590">  2  5  1 -1</clus>
<clus scale="   32.610">  1  3  2 -1</clus>
</clustering>
</event>
<event>
 6    0  0.5510638E+002  0.2063771E+03  0.7546771E-02  0.1144467E+00
         21   -1    0    0  504  501  0.00000000000E+00  0.00000000000E+00  0.61004795463E+03  0.61004795463E+03  0.00000000000E+00 0.  1.
         21   -1    0    0  505  502 -0.00000000000E+00 -0.00000000000E+00 -0.19079388189E+03  0.19079388189E+03  0.00000000000E+00 0. -1.
         21    1    1    2  503  501  0.28346348451E+02  0.12105880507E+03  0.26298968780E+03  0.29089916749E+03  0.00000000000E+00 0.  1.
         21    1    1    2  504  506  0.39405123603E+01 -0.62070488783E+02 -0.26115693027E+02  0.67455931078E+02  0.00000000000E+00 0. -1.
         21    1    1    2  505  503  0.44434992359E+02  0.62568790434E+02  0.26554935963E+03  0.27641596279E+03  0.00000000000E+00 0.  1.
         21    1    1    2  506  502 -0.76721853171E+02 -0.12155710672E+03 -0.83169281675E+02  0.16607077516E+03  0.00000000000E+00 0. -1.
<scales pt_clust_3="206.13814" pt_clust_4="39.33149" pt_clust_5="46.32413" pt_clust_6="39.33149"></scales>
<clustering>
<clus scale="   39.331">  4  6 -1 -1</clus>
<clus scale="   46.324">  3  5 -1 -1</clus>
<clus scale="  206.138">  1  3  2 -1</clus>
<clus scale="  206.138">  1  3  2 -1</clus>
</clustering>
</event>
<event>
 6    0  0.5510638E+002  0.3676782E+03  0.7546771E-02  0.1055584E+00
         21   -1    0    0  505  501  0.00000000000E+00  0.00000000000E+00  0.11556871072E+04  0.11556871072E+04  0.00000000000E+00 0.  1.
         21   -1    0    0  503  502 -0.00000000000E+00 -0.00000000000E+00 -0.31450303598E+03  0.31450303598E+03  0.00000000000E+00 0.  1.
         21    1    1    2  503  506  0.98513599405E+02 -0.22330744029E+03  0.35915183589E+03  0.43423632204E+03  0.00000000000E+00 0.  1.
         21    1    1    2  504  502  0.11331177748E+03  0.10542142122E+03 -0.16798866333E+03  0.22841503010E+03  0.00000000000E+00 0.  1.
         21    1    1    2  505  504 -0.16146879941E+03  0.27177894683E+03  0.40337538558E+03  0.51249163000E+03  0.00000000000E+00 0.  1.
         21    1    1    2  506  501 -0.50356577473E+02 -0.15389292776E+03  0.24664551303E+03  0.29504716099E+03  0.00000000000E+00 0.  1.
<scales pt_clust_3="115.94846" pt_clust_4="154.76833" pt_clust_5="339.00224" pt_clust_6="115.94846"></scales>
<clustering>
<clus scale="  115.948">  3  6 -1 -1</clus>
<clus scale="  154.768">  2  4  1 -1</clus>
<clus scale="  339.002">  1  5  2 -1</clus>
<clus scale="  339.002">  1  3  2 -1</clus>
</clustering>
</event>
<event>
 6    0  0.5510638E+002  0.1968832E+03  0.7546771E-02  0.1152396E+00
         21   -1    0    0  503  501  0.00000000000E+00  0.00000000000E+00  0.41364605774E+03  0.41364605774E+03  0.00000000000E+00 0.  1.
         21   -1    0    0  504  502 -0.00000000000E+00 -0.00000000000E+00 -0.16145193135E+04  0.16145193135E+04  0.00000000000E+00 0. -1.
         21    1    1    2  503  505 -0.10959729773E+03 -0.10920365640E+03  0.10077865678E+03  0.18464382985E+03  0.00000000000E+00 0.  1.
         21    1    1    2  504  506  0.83912923515E+02  0.10155376526E+03 -0.15083691690E+04  0.15141109919E+04  0.00000000000E+00 0. -1.
         21    1    1    2  505  502 -0.37124115445E+02 -0.11206410634E+03  0.12254448242E+03  0.17015790916E+03  0.00000000000E+00 0.  1.
         21    1    1    2  506  501  0.62808489658E+02  0.11971399748E+03  0.84172773999E+02  0.15925264032E+03  0.00000000000E+00 0.  1.
<scales pt_clust_3="64.92562" pt_clust_4="131.73665" pt_clust_5="64.92562" pt_clust_6="182.31440"></scales>
<clustering>
<clus scale="   64.926">  3  5 -1 -1</clus>
<clus scale="  131.737">  2  4  1 -1</clus>
<clus scale="  182.314">  1  6  2 -1</clus>
<clus scale="  182.314">  1  3  2 -1</clus>
</clustering>
</event>
<event>
 6    0  0.5510638E+002  0.7434246E+02  0.7546771E-02  0.1345919E+00
         21   -1    0    0  504  501  0.00000000000E+00  0.00000000000E+00  0.10533394697E+03  0.10533394697E+03  0.00000000000E+00 0.  1.
         21   -1    0    0  506  502 -0.00000000000E+00 -0.00000000000E+00 -0.44761284193E+03  0.44761284193E+03  0.00000000000E+00 0. -1.
         21    1    1    2  503  502 -0.18282984381E+02 -0.32190308980E+02 -0.66427851240E+02  0.76046978444E+02  0.00000000000E+00 0. -1.
         21    1    1    2  504  503 -0.38749053629E+02  0.75919940344E+01  0.22057165964E+02  0.45228819362E+02  0.00000000000E+00 0.  1.
         21    1    1    2  505  501  0.25942532782E+02 -0.77042681885E+02  0.30242000416E+02  0.86736200219E+02  0.00000000000E+00 0.  1.
         21    1    1    2  506  505  0.31089505228E+02  0.10164099683E+03 -0.32815021009E+03  0.34493479087E+03  0.00000000000E+00 0. -1.
<scales pt_clust_3="37.02004" pt_clust_4="39.86221" pt_clust_5="74.34246" pt_clust_6="14000.00000"></scales>
<clustering>
<clus scale="   37.020">  2  3  1 -1</clus>
<clus scale="   39.862">  1  4  2 -1</clus>
<clus scale="   74.342">  1  5  2 -1</clus>
<clus scale="   39.862">  1  3  2 -1</clus>
</clustering>
</event>
<event>
 6    0  0.5510638E+002  0.9899562E+02  0.7546771E-02  0.1282422E+00
         21   -1    0    0  506  501  0.00000000000E+00  0.00000000000E+00  0.15014224244E+04  0.15014224244E+04  0.00000000000E+00 0.  1.
         21   -1    0    0  503  502 -0.00000000000E+00 -0.00000000000E+00 -0.22211560462E+02  0.22211560462E+02  0.00000000000E+00 0.  1.
         21    1    1    2  503  504  0.26531783288E+02  0.25158434412E+02  0.10701262960E+03  0.11308662715E+03  0.00000000000E+00 0.  1.
         21    1    1    2  504  501  0.12652878935E+02  0.64314827761E+02  0.80560328348E+03  0.80826551502E+03  0.00000000000E+00 0.  1.
         21    1    1    2  505  502  0.34711796079E+00 -0.12886324596E+03  0.25480644332E+03  0.28553840409E+03  0.00000000000E+00 0.  1.
         21    1    1    2  506  505 -0.39531780185E+02  0.39389983787E+02  0.31178850752E+03  0.31674343859E+03  0.00000000000E+00 0.  1.
<scales pt_clust_3="36.56340" pt_clust_4="14000.00000" pt_clust_5="98.99562" pt_clust_6="55.87217"></scales>
<clustering>
<clus scale="   36.563">  2  3  1 -1</clus>
<clus scale="   55.872">  1  6  2 -1</clus>
<clus scale="   98.996">  2  5  1 -1</clus>
<clus scale="   55.872">  1  3  2 -1</clus>
</clustering>
</event>
<event>
 6    0  0.5510638E+002  0.1175121E+03  0.7546771E-02  0.1247259E+00
         21   -1    0    0  505  501  0.00000000000E+00  0.00000000000E+00  0.13201695389E+04  0.13201695389E+04  0.00000000000E+00 0.  1.
         21   -1    0    0  503  502 -0.00000000000E+00 -0.00000000000E+00 -0.14571112604E+04  0.14571112604E+04  0.00000000000E+00 0. -1.
         21    1    1    2  503  506  0.49521818726E+02  0.90527655356E+02  0.11686813007E+03  0.15590326084E+03  0.00000000000E+00 0.  1.
         21    1    1    2  504  502  0.60824581219E+02 -0.10070611187E+03 -0.14301135143E+04  0.14349446033E+04  0.00000000000E+00 0. -1.
         21    1    1    2  505  504 -0.54361833800E+02  0.46763821023E+02  0.86809572724E+03  0.87105238395E+03  0.00000000000E+00 0.  1.
         21    1    1    2  506  501 -0.55984566145E+02 -0.36585364509E+02  0.30820793557E+03  0.31538055122E+03  0.00000000000E+00 0.  1.
<scales pt_clust_3="95.30798" pt_clust_4="14000.00000" pt_clust_5="117.51212" pt_clust_6="66.87870"></scales>
<clustering>
<clus scale="   66.879">  1  6  2 -1</clus>
<clus scale="   95.308">  1  3  2 -1</clus>
<clus scale="  117.512">  1  5  2 -1</clus>
<clus scale="   66.879">  1  3  2 -1</clus>
</clustering>
</event>
<event>
 6    0  0.5510638E+002  0.1106435E+03  0.7546771E-02  0.1259383E+00
         21   -1    0    0  504  501  0.00000000000E+00  0.00000000000E+00  0.25013308395E+03  0.25013308395E+03  0.00000000000E+00 0.  1.
         21   -1    0    0  506  502 -0.00000000000E+00 -0.00000000000E+00 -0.46229902557E+03  0.46229902557E+03  0.00000000000E+00 0.  1.
         21    1    1    2  503  505 -0.65449739906E+02  0.80372984711E+02 -0.73799847951E+02  0.12723954842E+03  0.00000000000E+00 0.  1.
         21    1    1    2  504  503  0.32768390414E+02  0.24197314179E+02 -0.52394851209E+01  0.41069814075E+02  0.00000000000E+00 0. -1.
         21    1    1    2  505  502 -0.39443750949E+02 -0.26666011596E+02 -0.32305045821E+03  0.32654017244E+03  0.00000000000E+00 0.  1.
         21    1    1    2  506  501  0.72125100441E+02 -0.77904287294E+02  0.18992384967E+03  0.21758257459E+03  0.00000000000E+00 0.  1.
<scales pt_clust_3="110.64351" pt_clust_4="40.73423" pt_clust_5="47.30602" pt_clust_6="14000.00000"></scales>
<clustering>
<clus scale="   40.734">  1  4  2 -1</clus>
<clus scale="   47.306">  2  5  1 -1</clus>
<clus scale="  110.644">  2  3  1 -1</clus>
<clus scale="   40.734">  1  3  2 -1</clus>
</clustering>
</event>
<event>
 6    0  0.5510638E+002  0.2041722E+03  0.7546771E-02  0.1146266E+00
         21   -1    0    0  505  501  0.00000000000E+00  0.00000000000E+00  0.15181726031E+04  0.15181726031E+04  0.00000000000E+00 0. -1.
         21   -1    0    0  504  502 -0.00000000000E+00 -0.00000000000E+00 -0.67600915115E+02  0.67600915115E+02  0.00000000000E+00 0. -1.
         21    1    1    2  503  502 -0.15786609515E+03  0.14401372113E+03  0.15324843647E+03  0.26295767559E+03  0.00000000000E+00 0. -1.
         21    1    1    2  504  506  0.30024492396E+02 -0.43450145600E+02  0.40868700772E+03  0.41208549547E+03  0.00000000000E+00 0. -1.
         21    1    1    2  505  503  0.48609904773E+02 -0.75314313569E+02  0.22975625761E+03  0.24662341045E+03  0.00000000000E+00 0. -1.
         21    1    1    2  506  501  0.79231697977E+02 -0.25249261957E+02  0.65887998613E+03  0.66410693666E+03  0.00000000000E+00 0. -1.
<scales pt_clust_3="199.62950" pt_clust_4="34.13235" pt_clust_5="89.63910" pt_clust_6="34.13235"></scales>
<clustering>
<clus scale="   34.132">  4  6 -1 -1</clus>
<clus scale="   89.639">  1  5  2 -1</clus>
<clus scale="  199.630">  2  3  1 -1</clus>
<clus scale="   89.639">  1  3  2 -1</clus>
</clustering>
</event>
<event>
 6    0  0.5510638E+002  0.1056546E+03  0.7546771E-02  0.1268835E+00
         21   -1    0    0  506  501  0.00000000000E+00  0.00000000000E+00  0.38417933110E+03  0.38417933110E+03  0.00000000000E+00 0. -1.
         21   -1    0    0  505  502 -0.00000000000E+00 -0.00000000000E+00 -0.97770794703E+02  0.97770794703E+02  0.00000000000E+00 0.  1.
         21    1    1    2  503  504 -0.17072744141E+02 -0.30732528432E+02  0.68031926493E+02  0.76578782431E+02  0.00000000000E+00 0. -1.
         21    1    1    2  504  501  0.83726107146E+01 -0.65269536544E+02  0.23702683053E+03  0.24599173035E+03  0.00000000000E+00 0. -1.
         21    1    1    2  505  503  0.38889409264E+02 -0.11188354563E+02  0.14824263158E+02  0.43096684430E+02  0.00000000000E+00 0.  1.
         21    1    1    2  506  502 -0.30189275837E+02  0.10719041954E+03 -0.33474483784E+02  0.11628292859E+03  0.00000000000E+00 0.  1.
<scales pt_clust_3="30.12630" pt_clust_4="30.12630" pt_clust_5="40.46684" pt_clust_6="97.28358"></scales>
<clustering>
<clus scale="   30.126">  3  4 -1 -1</clus>
<clus scale="   40.467">  2  5  1 -1</clus>
<clus scale="   97.284">  2  6  1 -1</clus>
<clus scale="  105.655">  1  3  2 -1</clus>
</clustering>
</event>
<event>
 6    0  0.5510638E+002  0.2181155E+03  0.7546771E-02  0.1135296E+00
         21   -1    0    0  503  501  0.00000000000E+00  0.00000000000E+00  0.86770401669E+03  0.86770401669E+03  0.00000000000E+00 0.  1.
         21   -1    0    0  505  502 -0.00000000000E+00 -0.00000000000E+00 -0.96486927026E+02  0.96486927026E+02  0.00000000000E+00 0.  1.
         21    1    1    2  503  502  0.32978414945E+02 -0.28573765109E+02 -0.85761812036E+01  0.44470066211E+02  0.00000000000E+00 0.  1.
         21    1    1    2  504  501  0.60670278200E+02  0.13160893763E+03  0.45450672054E+03  0.47705152147E+03  0.00000000000E+00 0.  1.
         21    1    1    2  505  506 -0.14466830194E+03 -0.15382009562E+03  0.16851721223E+03  0.27016215542E+03  0.00000000000E+00 0.  1.
         21    1    1    2  506  504  0.51019608798E+02  0.50784923098E+02  0.15676933810E+03  0.17250720061E+03  0.00000000000E+00 0.  1.
<scales pt_clust_3="43.63526" pt_clust_4="35.42224" pt_clust_5="212.24609" pt_clust_6="35.42224"></scales>
<clustering>
<clus scale="   35.422">  4  6 -1 -1</clus>
<clus scale="   43.635">  2  3  1 -1</clus>
<clus scale="  212.246">  2  5  1 -1</clus>
<clus scale="  218.115">  1  3  2 -1</clus>
</clustering>
</event>
<event>
 6    0  0.5510638E+002  0.1287101E+03  0.7546771E-02  0.1229382E+00
         21   -1    0    0  505  501  0.00000000000E+00  0.00000000000E+00  0.23652359816E+04  0.23652359816E+04  0.00000000000E+00 0. -1.
         21   -1    0    0  506  502 -0.00000000000E+00 -0.00000000000E+00 -0.18029146417E+02  0.18029146417E+02  0.00000000000E+00 0.  1.
         21    1    1    2  503  502  0.18528416479E+02  0.29273880725E+02  0.48995967904E+02  0.60007226072E+02  0.00000000000E+00 0.  1.
         21    1    1    2  504  503 -0.25028470270E+02 -0.28229779887E+02  0.19111483200E+03  0.19480303849E+03  0.00000000000E+00 0.  1.
         21    1    1    2  505  504  0.12957811374E+03 -0.13678309480E+02  0.16427139725E+04  0.16478734111E+04  0.00000000000E+00 0. -1.
         21    1    1    2  506  501 -0.12307805995E+03  0.12634208641E+02  0.46438206278E+03  0.48058145231E+03  0.00000000000E+00 0.  1.
<scales pt_clust_3="34.64480" pt_clust_4="32.70203" pt_clust_5="14000.00000" pt_clust_6="128.71013"></scales>
<clustering>
<clus scale="   34.645">  2  3  1 -1</clus>
<clus scale="   32.702">  2  4  1 -1</clus>
<clus scale="  128.710">  2  6  1 -1</clus>
<clus scale="  128.710">  1  3  2 -1</clus>
</clustering>
</event>
<event>
 6    0  0.5510638E+002  0.8784805E+02  0.7546771E-02  0.1308148E+00
         21   -1    0    0  504  501  0.00000000000E+00  0.00000000000E+00  0.10913408229E+04  0.10913408229E+04  0.00000000000E+00 0. -1.
         21   -1    0    0  506  502 -0.00000000000E+00 -0.00000000000E+00 -0.36649187813E+02  0.36649187813E+02  0.00000000000E+00 0. -1.
         21    1    1    2  503  501  0.22269418707E+02 -0.20877390157E+02  0.55406397012E+03  0.55490420382E+03  0.00000000000E+00 0. -1.
         21    1    1    2  504  502 -0.99786363209E+02  0.63116782726E+02  0.21568087425E+03  0.24588470074E+03  0.00000000000E+00 0. -1.
         21    1    1    2  505  503 -0.24684683357E+01 -0.35388719719E+02  0.22299170613E+03  0.22579582773E+03  0.00000000000E+00 0. -1.
         21    1    1    2  506  505  0.79985412838E+02 -0.68506728495E+01  0.61955084603E+02  0.10140527843E+03  0.00000000000E+00 0. -1.
<scales pt_clust_3="30.52528" pt_clust_4="14000.00000" pt_clust_5="44.64205" pt_clust_6="87.84805"></scales>
<clustering>
<clus scale="   30.525">  1  3  2 -1</clus>
<clus scale="   44.642">  1  5  2 -1</clus>
<clus scale="   87.848">  2  6  1 -1</clus>
<clus scale="   30.525">  1  3  2 -1</clus>
</clustering>
</event>
<event>
 6    0  0.5510638E+002  0.1394717E+03  0.7546771E-02  0.1214042E+00
         21   -1    0    0  503  501  0.00000000000E+00  0.00000000000E+00  0.69351327446E+03  0.69351327446E+03  0.00000000000E+00 0.  1.
         21   -1    0    0  506  502 -0.00000000000E+00 -0.00000000000E+00 -0.24728985626E+03  0.24728985626E+03  0.00000000000E+00 0. -1.
         21    1    1    2  503  504  0.15860353104E+02 -0.36351636086E+02  0.53834449530E+02  0.66866585099E+02  0.00000000000E+00 0.  1.
         21    1    1    2  504  505  0.12114821589E+03  0.41890455772E+02  0.35067177142E+03  0.37336629705E+03  0.00000000000E+00 0.  1.
         21    1    1    2  505  502 -0.13019805436E+03  0.57136070725E+02 -0.20301233130E+03  0.24785090396E+03  0.00000000000E+00 0. -1.
         21    1    1    2  506  501 -0.68105146337E+01 -0.62674890412E+02  0.24472952854E+03  0.25271934461E+03  0.00000000000E+00 0. -1.
<scales pt_clust_3="39.66097" pt_clust_4="14000.00000" pt_clust_5="139.47169" pt_clust_6="76.95704"></scales>
<clustering>
<clus scale="   39.661">  1  3  2 -1</clus>
<clus scale="   76.957">  1  6  2 -1</clus>
<clus scale="  139.472">  2  5  1 -1</clus>
<clus scale="   39.661">  1  3  2 -1</clus>
</clustering>
</event>
<event>
 6    0  0.5510638E+002  0.1691069E+03  0.7546771E-02  0.1178782E+00
         21   -1    0    0  506  501  0.00000000000E+00  0.00000000000E+00  0.17559409494E+03  0.17559409494E+03  0.00000000000E+00 0.  1.
         21   -1    0    0  505  502 -0.00000000000E+00 -0.00000000000E+00 -0.87374880106E+03  0.87374880106E+03  0.00000000000E+00 0.  1.
         21    1    1    2  503  501  0.19062631948E+01 -0.30905550466E+02  0.20908760930E+02  0.37362590550E+02  0.00000000000E+00 0.  1.
         21    1    1    2  504  502 -0.22512971844E+02  0.18002437412E+03 -0.74919294001E+03  0.77084737175E+03  0.00000000000E+00 0.  1.
         21    1    1    2  505  503  0.45414950359E+02 -0.11859362031E+03 -0.61734088814E+02  0.14120220330E+03  0.00000000000E+00 0.  1.
         21    1    1    2  506  504 -0.24808241709E+02 -0.30525203349E+02  0.91863561776E+02  0.99930730401E+02  0.00000000000E+00 0.  1.
<scales pt_clust_3="30.96428" pt_clust_4="14000.00000" pt_clust_5="169.10693" pt_clust_6="55.96241"></scales>
<clustering>
<clus scale="   30.964">  1  3  2 -1</clus>
<clus scale="   55.962">  1  6  2 -1</clus>
<clus scale="  169.107">  1  5  2 -1</clus>
<clus scale="   30.964">  1  3  2 -1</clus>
</clustering>
</event>
<event>
 6    0  0.5510638E+002  0.1403602E+03  0.7546771E-02  0.1212845E+00
         21   -1    0    0  505  501  0.00000000000E+00  0.00000000000E+00  0.14214786064E+04  0.14214786064E+04  0.00000000000E+00 0. -1.
         21   -1    0    0  504  502 -0.00000000000E+00 -0.00000000000E+00 -0.75346808862E+02  0.75346808862E+02  0.00000000000E+00 0. -1.
         21    1    1    2  503  502  0.18662297633E+01  0.60399420982E+02  0.22205588829E+03  0.23013124601E+03  0.00000000000E+00 0. -1.
         21    1    1    2  504  506  0.34740998598E+02  0.10234842667E+03  0.98264098839E+02  0.14607522222E+03  0.00000000000E+00 0. -1.
         21    1    1    2  505  503 -0.19374515126E+02  0.35182477391E+02  0.86249799769E+03  0.86343266939E+03  0.00000000000E+00 0. -1.
         21    1    1    2  506  501 -0.17232713235E+02 -0.19793032504E+03  0.16331381269E+03  0.25718627761E+03  0.00000000000E+00 0. -1.
<scales pt_clust_3="74.88066" pt_clust_4="140.36023" pt_clust_5="40.16439" pt_clust_6="14000.00000"></scales>
<clustering>
<clus scale="   40.164">  1  5  2 -1</clus>
<clus scale="   74.881">  1  3  2 -1</clus>
<clus scale="  140.360">  2  4  1 -1</clus>
<clus scale="   40.164">  1  3  2 -1</clus>
</clustering>
</event>
<event>
 6    0  0.5510638E+002  0.8053719E+02  0.7546771E-02  0.1327534E+00
         21   -1    0    0  503  501  0.00000000000E+00  0.00000000000E+00  0.10644269044E+04  0.10644269044E+04  0.00000000000E+00 0.  1.
         21   -1    0    0  504  502 -0.00000000000E+00 -0.00000000000E+00 -0.53245933335E+02  0.53245933335E+02  0.00000000000E+00 0.  1.
         21    1    1    2  503  505  0.17534161915E+02  0.25354050080E+02  0.13824401449E+03  0.14163926798E+03  0.00000000000E+00 0.  1.
         21    1    1    2  504  501 -0.29471196595E+02 -0.10226432952E+03  0.79563517985E+03  0.80272154820E+03  0.00000000000E+00 0.  1.
         21    1    1    2  505  506 -0.27083532171E+02  0.76760701167E+02  0.99393926348E+02  0.12847130245E+03  0.00000000000E+00 0.  1.
         21    1    1    2  506  502  0.39020566851E+02  0.14957827475E+00 -0.22092149659E+02  0.44840719080E+02  0.00000000000E+00 0.  1.
<scales pt_clust_3="30.82653" pt_clust_4="80.53719" pt_clust_5="14000.00000" pt_clust_6="39.23901"></scales>
<clustering>
<clus scale="   30.827">  1  3  2 -1</clus>
<clus scale="   39.239">  2  6  1 -1</clus>
<clus scale="   80.537">  1  4  2 -1</clus>
<clus scale="   30.827">  1  3  2 -1</clus>
</clustering>
</event>
<event>
 6    0  0.5510638E+002  0.9839614E+02  0.7546771E-02  0.1283705E+00
         21   -1    0    0  504  501  0.00000000000E+00  0.00000000000E+00  0.14267847431E+04  0.14267847431E+04  0.00000000000E+00 0.  1.
         21   -1    0    0  505  502 -0.00000000000E+00 -0.00000000000E+00 -0.28681303815E+02  0.28681303815E+02  0.00000000000E+00 0.  1.
         21    1    1    2  503  502  0.67584642921E+02  0.33709476159E+02  0.16929250827E+03  0.18537520357E+03  0.00000000000E+00 0. -1.
         21    1    1    2  504  503 -0.27200518575E+01  0.34998391738E+02  0.18482702290E+03  0.18813110987E+03  0.00000000000E+00 0. -1.
         21    1    1    2  505  506 -0.20582291272E+02  0.64116752361E+02  0.66994089514E+02  0.94988402856E+02  0.00000000000E+00 0.  1.
         21    1    1    2  506  501 -0.44282299792E+02 -0.13282462026E+03  0.97698981860E+03  0.98697133062E+03  0.00000000000E+00 0.  1.
<scales pt_clust_3="14000.00000" pt_clust_4="35.10393" pt_clust_5="69.57166" pt_clust_6="98.39614"></scales>
<clustering>
<clus scale="   35.104">  1  4  2 -1</clus>
<clus scale="   69.572">  2  5  1 -1</clus>
<clus scale="   98.396">  1  6  2 -1</clus>
<clus scale="   35.104">  1  3  2 -1</clus>
</clustering>
</event>
<event>
 6    0  0.5510638E+002  0.1615466E+03  0.7546771E-02  0.1186962E+00
         21   -1    0    0  504  501  0.00000000000E+00  0.00000000000E+00  0.67091344646E+03  0.67091344646E+03  0.00000000000E+00 0.  1.
         21   -1    0    0  506  502 -0.00000000000E+00 -0.00000000000E+00 -0.10106088303E+03  0.10106088303E+03  0.00000000000E+00 0.  1.
         21    1    1    2  503  505 -0.54624729627E+02 -0.36621005874E+02  0.36749100514E+03  0.37332907470E+03  0.00000000000E+00 0.  1.
         21    1    1    2  504  502 -0.33715318250E+02 -0.73411088758E+01  0.36136419142E+01  0.34693990432E+02  0.00000000000E+00 0. -1.
         21    1    1    2  505  501 -0.73185245913E+02 -0.24731173615E+02  0.16913972405E+03  0.18594611429E+03  0.00000000000E+00 0. -1.
         21    1    1    2  506  503  0.16152529379E+03  0.68693288365E+02  0.29608192324E+02  0.17800515007E+03  0.00000000000E+00 0.  1.
<scales pt_clust_3="62.54351" pt_clust_4="34.50528" pt_clust_5="62.54351" pt_clust_6="146.22106"></scales>
<clustering>
<clus scale="   34.505">  2  4  1 -1</clus>
<clus scale="   62.544">  3  5 -1 -1</clus>
<clus scale="  146.221">  2  6  1 -1</clus>
<clus scale="  161.547">  1  3  2 -1</clus>
</clustering>
</event>
