<event>
 5    0  0.5851292E-005  0.3565339E+03  0.7546771E-02  0.1059965E+00
         21   -1    0    0  502  501  0.00000000000E+00  0.00000000000E+00  0.12104689703E+04  0.12104689703E+04  0.00000000000E+00 0. -1.
         21   -1    0    0  501  502 -0.00000000000E+00 -0.00000000000E+00 -0.10501418116E+03  0.10501418116E+03  0.00000000000E+00 0. -1.
         25    1    1    2    0    0 -0.93398548972E+02  0.64039147827E+02  0.30838434215E+03  0.35149708944E+03  0.12500000000E+03 0.  0.
         25    1    1    2    0    0  0.11086628240E+03 -0.25645461920E+03  0.52439792749E+03  0.60718900734E+03  0.12500000000E+03 0.  0.
         25    1    1    2    0    0 -0.17467733424E+02  0.19241547137E+03  0.27267251946E+03  0.35679705464E+03  0.12500000000E+03 0.  0.
</event>
<event>
 5    0  0.5851292E-005  0.2695737E+03  0.7546771E-02  0.1101524E+00
         21   -1    0    0  502  501  0.00000000000E+00  0.00000000000E+00  0.73131352321E+02  0.73131352321E+02  0.00000000000E+00 0. -1.
         21   -1    0    0  501  502 -0.00000000000E+00 -0.00000000000E+00 -0.99369115167E+03  0.99369115167E+03  0.00000000000E+00 0. -1.
         25    1    1    2    0    0  0.55968974247E+02 -0.34893651827E+02 -0.99799543717E+02  0.17301746138E+03  0.12500000000E+03 0.  0.
         25    1    1    2    0    0  0.38824371950E+02  0.11107684895E+03 -0.31382832862E+03  0.35771303873E+03  0.12500000000E+03 0.  0.
         25    1    1    2    0    0 -0.94793346197E+02 -0.76183197122E+02 -0.50693192701E+03  0.53609200388E+03  0.12500000000E+03 0.  0.
</event>
<event>
 5    0  0.5851292E-005  0.3683446E+03  0.7546771E-02  0.1055328E+00
         21   -1    0    0  502  501  0.00000000000E+00  0.00000000000E+00  0.18248307880E+03  0.18248307880E+03  0.00000000000E+00 0.  1.
         21   -1    0    0  501  502 -0.00000000000E+00 -0.00000000000E+00 -0.74350860513E+03  0.74350860513E+03  0.00000000000E+00 0.  1.
         25    1    1    2    0    0 -0.13880163359E+03  0.10540351397E+03 -0.20689015990E+02  0.21547350099E+03  0.12500000000E+03 0.  0.
         25    1    1    2    0    0  0.94418361688E+02 -0.20736770451E+03 -0.45183734956E+03  0.52124675764E+03  0.12500000000E+03 0.  0.
         25    1    1    2    0    0  0.44383271905E+02  0.10196419054E+03 -0.88499160779E+02  0.18927142530E+03  0.12500000000E+03 0.  0.
</event>
<event>
 5    0  0.5851292E-005  0.2618536E+03  0.7546771E-02  0.1106035E+00
         21   -1    0    0  502  501  0.00000000000E+00  0.00000000000E+00  0.13332330150E+03  0.13332330150E+03  0.00000000000E+00 0.  1.
         21   -1    0    0  501  502 -0.00000000000E+00 -0.00000000000E+00 -0.51429331291E+03  0.51429331291E+03  0.00000000000E+00 0.  1.
         25    1    1    2    0    0 -0.33739422646E+02  0.10445057673E+03 -0.17386550380E+03  0.24062935197E+03  0.12500000000E+03 0.  0.
         25    1    1    2    0    0 -0.77165888563E+02 -0.90752304497E+02 -0.15328352628E+03  0.23089260395E+03  0.12500000000E+03 0.  0.
         25    1    1    2    0    0  0.11090531121E+03 -0.13698272230E+02 -0.53820981336E+02  0.17609465849E+03  0.12500000000E+03 0.  0.
</event>
<event>
 5    0  0.7096038E-005  0.3308917E+03  0.7546771E-02  0.1070743E+00
         21   -1    0    0  502  501  0.00000000000E+00  0.00000000000E+00  0.19515950579E+03  0.19515950579E+03  0.00000000000E+00 0. -1.
         21   -1    0    0  501  502 -0.00000000000E+00 -0.00000000000E+00 -0.56102479148E+03  0.56102479148E+03  0.00000000000E+00 0. -1.
         25    1    1    2    0    0  0.30299473873E+02 -0.15040730468E+03  0.16566898128E+02  0.19859475706E+03  0.12500000000E+03 0.  0.
         25    1    1    2    0    0 -0.16154228772E+02  0.11604736135E+03 -0.20096746575E+02  0.17250167653E+03  0.12500000000E+03 0.  0.
         25    1    1    2    0    0 -0.14145245101E+02  0.34359943337E+02 -0.36233543725E+03  0.38508786368E+03  0.12500000000E+03 0.  0.
</event>
<event>
 5    0  0.5851292E-005  0.3332438E+03  0.7546771E-02  0.1069711E+00
         21   -1    0    0  502  501  0.00000000000E+00  0.00000000000E+00  0.82520503400E+02  0.82520503400E+02  0.00000000000E+00 0. -1.
         21   -1    0    0  501  502 -0.00000000000E+00 -0.00000000000E+00 -0.13457437768E+04  0.13457437768E+04  0.00000000000E+00 0. -1.
         25    1    1    2    0    0  0.19532258680E+03 -0.69111626022E+02 -0.38434401903E+03  0.45417249447E+03  0.12500000000E+03 0.  0.
         25    1    1    2    0    0 -0.70560622593E+02  0.16406269984E+03 -0.41623659727E+03  0.46986516772E+03  0.12500000000E+03 0.  0.
         25    1    1    2    0    0 -0.12476196421E+03 -0.94951073813E+02 -0.46264265709E+03  0.50422661799E+03  0.12500000000E+03 0.  0.
</event>
<event>
 5    0  0.5857805E-005  0.2844873E+03  0.7546771E-02  0.1093263E+00
         21   -1    0    0  502  501  0.00000000000E+00  0.00000000000E+00  0.76739866751E+03  0.76739866751E+03  0.00000000000E+00 0.  1.
         21   -1    0    0  501  502 -0.00000000000E+00 -0.00000000000E+00 -0.10546410103E+03  0.10546410103E+03  0.00000000000E+00 0.  1.
         25    1    1    2    0    0 -0.35442224200E+02 -0.11056170379E+03  0.17309574924E+03  0.24303740454E+03  0.12500000000E+03 0.  0.
         25    1    1    2    0    0  0.46055941368E+02 -0.25098553108E+02  0.35281057513E+02  0.14007440924E+03  0.12500000000E+03 0.  0.
         25    1    1    2    0    0 -0.10613717168E+02  0.13566025689E+03  0.45355775972E+03  0.48975095477E+03  0.12500000000E+03 0.  0.
</event>
<event>
 5    0  0.5851292E-005  0.3464031E+03  0.7546771E-02  0.1064101E+00
         21   -1    0    0  502  501  0.00000000000E+00  0.00000000000E+00  0.41495097440E+03  0.41495097440E+03  0.00000000000E+00 0. -1.
         21   -1    0    0  501  502 -0.00000000000E+00 -0.00000000000E+00 -0.28917895749E+03  0.28917895749E+03  0.00000000000E+00 0. -1.
         25    1    1    2    0    0  0.74888036672E+02  0.99536846063E+02  0.15445338105E+03  0.23451364284E+03  0.12500000000E+03 0.  0.
         25    1    1    2    0    0 -0.18935489279E+03  0.32504626929E+02 -0.89901806393E+02  0.24620958752E+03  0.12500000000E+03 0.  0.
         25    1    1    2    0    0  0.11446685612E+03 -0.13204147299E+03  0.61220442247E+02  0.22340670153E+03  0.12500000000E+03 0.  0.
</event>
<event>
 5    0  0.5851292E-005  0.2662972E+03  0.7546771E-02  0.1103418E+00
         21   -1    0    0  502  501  0.00000000000E+00  0.00000000000E+00  0.34863874555E+03  0.34863874555E+03  0.00000000000E+00 0.  1.
         21   -1    0    0  501  502 -0.00000000000E+00 -0.00000000000E+00 -0.20340308855E+03  0.20340308855E+03  0.00000000000E+00 0.  1.
         25    1    1    2    0    0  0.14445414791E+02  0.86803875622E+01  0.12932902271E+03  0.18065164060E+03  0.12500000000E+03 0.  0.
         25    1    1    2    0    0  0.19750135531E+02 -0.36139592582E+01 -0.12636662270E+03  0.17887607970E+03  0.12500000000E+03 0.  0.
         25    1    1    2    0    0 -0.34195550322E+02 -0.50664283040E+01  0.14227325700E+03  0.19251411381E+03  0.12500000000E+03 0.  0.
</event>
<event>
 5    0  0.5851292E-005  0.3670666E+03  0.7546771E-02  0.1055820E+00
         21   -1    0    0  502  501  0.00000000000E+00  0.00000000000E+00  0.19387019588E+03  0.19387019588E+03  0.00000000000E+00 0. -1.
         21   -1    0    0  501  502 -0.00000000000E+00 -0.00000000000E+00 -0.69499036843E+03  0.69499036843E+03  0.00000000000E+00 0. -1.
         25    1    1    2    0    0  0.12057559072E+03 -0.10637927061E+03 -0.39600038464E+03  0.44530475736E+03  0.12500000000E+03 0.  0.
         25    1    1    2    0    0 -0.36980676704E+02  0.14119463360E+03 -0.18759212008E+03  0.26855036497E+03  0.12500000000E+03 0.  0.
         25    1    1    2    0    0 -0.83594914018E+02 -0.34815362989E+02  0.82472332165E+02  0.17500544198E+03  0.12500000000E+03 0.  0.
</event>
<event>
 5    0  0.5938090E-005  0.3355132E+03  0.7546771E-02  0.1068723E+00
         21   -1    0    0  502  501  0.00000000000E+00  0.00000000000E+00  0.64836414095E+03  0.64836414095E+03  0.00000000000E+00 0.  1.
         21   -1    0    0  501  502 -0.00000000000E+00 -0.00000000000E+00 -0.17362018098E+03  0.17362018098E+03  0.00000000000E+00 0.  1.
         25    1    1    2    0    0  0.11196543468E+03  0.55476043408E+02  0.18302520539E+03  0.25443481634E+03  0.12500000000E+03 0.  0.
         25    1    1    2    0    0 -0.14548990880E+03  0.30445488180E+02 -0.42663462701E+02  0.19884519698E+03  0.12500000000E+03 0.  0.
         25    1    1    2    0    0  0.33524474117E+02 -0.85921531588E+02  0.33438221728E+03  0.36870430861E+03  0.12500000000E+03 0.  0.
</event>
<event>
 5    0  0.5851292E-005  0.2490989E+03  0.7546771E-02  0.1113876E+00
         21   -1    0    0  502  501  0.00000000000E+00  0.00000000000E+00  0.20698570482E+03  0.20698570482E+03  0.00000000000E+00 0. -1.
         21   -1    0    0  501  502 -0.00000000000E+00 -0.00000000000E+00 -0.29978036899E+03  0.29978036899E+03  0.00000000000E+00 0. -1.
         25    1    1    2    0    0  0.88236378834E+02 -0.29433246526E+02 -0.34480692069E+02  0.15958036432E+03  0.12500000000E+03 0.  0.
         25    1    1    2    0    0  0.22675355336E+02  0.76587172034E+01 -0.11280851951E+03  0.17006936750E+03  0.12500000000E+03 0.  0.
         25    1    1    2    0    0 -0.11091173417E+03  0.21774529323E+02  0.54494547411E+02  0.17711634199E+03  0.12500000000E+03 0.  0.
</event>
<event>
 5    0  0.5851292E-005  0.3521178E+03  0.7546771E-02  0.1061749E+00
         21   -1    0    0  502  501  0.00000000000E+00  0.00000000000E+00  0.31182517152E+03  0.31182517152E+03  0.00000000000E+00 0.  1.
         21   -1    0    0  501  502 -0.00000000000E+00 -0.00000000000E+00 -0.39761691418E+03  0.39761691418E+03  0.00000000000E+00 0.  1.
         25    1    1    2    0    0 -0.75262537809E+02 -0.17691381762E+03 -0.63412602393E+02  0.23792668326E+03  0.12500000000E+03 0.  0.
         25    1    1    2    0    0 -0.11084934461E+03  0.17561945992E+03 -0.43719450101E+02  0.24630501866E+03  0.12500000000E+03 0.  0.
         25    1    1    2    0    0  0.18611188242E+03  0.12943577058E+01  0.21340309837E+02  0.22521038378E+03  0.12500000000E+03 0.  0.
</event>
<event>
 5    0  0.5851292E-005  0.3356494E+03  0.7546771E-02  0.1068664E+00
         21   -1    0    0  502  501  0.00000000000E+00  0.00000000000E+00  0.61602858823E+03  0.61602858823E+03  0.00000000000E+00 0.  1.
         21   -1    0    0  501  502 -0.00000000000E+00 -0.00000000000E+00 -0.18288197956E+03  0.18288197956E+03  0.00000000000E+00 0.  1.
         25    1    1    2    0    0  0.17379784360E+03  0.18152277752E+03  0.16715001470E+03  0.32668078703E+03  0.12500000000E+03 0.  0.
         25    1    1    2    0    0 -0.90561532925E+02 -0.91682057722E+02  0.35800464893E+02  0.18306737623E+03  0.12500000000E+03 0.  0.
         25    1    1    2    0    0 -0.83236310677E+02 -0.89840719793E+02  0.23019612908E+03  0.28916240453E+03  0.12500000000E+03 0.  0.
</event>
<event>
 5    0  0.6877574E-005  0.5874120E+03  0.7546771E-02  0.9931872E-01
         21   -1    0    0  502  501  0.00000000000E+00  0.00000000000E+00  0.92038921194E+03  0.92038921194E+03  0.00000000000E+00 0.  1.
         21   -1    0    0  501  502 -0.00000000000E+00 -0.00000000000E+00 -0.37489880801E+03  0.37489880801E+03  0.00000000000E+00 0.  1.
         25    1    1    2    0    0  0.36008862488E+02 -0.35662832509E+02 -0.14129193002E+03  0.19533787469E+03  0.12500000000E+03 0.  0.
         25    1    1    2    0    0  0.35965682310E+03  0.15483656089E+03  0.44233653397E+03  0.60383275853E+03  0.12500000000E+03 0.  0.
         25    1    1    2    0    0 -0.39566568559E+03 -0.11917372838E+03  0.24444579997E+03  0.49611738673E+03  0.12500000000E+03 0.  0.
</event>
<event>
 5    0  0.5851292E-005  0.4003921E+03  0.7546771E-02  0.1043644E+00
         21   -1    0    0  502  501  0.00000000000E+00  0.00000000000E+00  0.14286281024E+03  0.14286281024E+03  0.00000000000E+00 0.  1.
         21   -1    0    0  501  502 -0.00000000000E+00 -0.00000000000E+00 -0.11221523811E+04  0.11221523811E+04  0.00000000000E+00 0.  1.
         25    1    1    2    0    0 -0.14804816438E+03  0.49544630564E+01 -0.54669685055E+02  0.20138664341E+03  0.12500000000E+03 0.  0.
         25    1    1    2    0    0  0.15345784043E+03  0.11794982493E+03 -0.16339631545E+03  0.28246207868E+03  0.12500000000E+03 0.  0.
         25    1    1    2    0    0 -0.54096760518E+01 -0.12290428799E+03 -0.76122357038E+03  0.78116646926E+03  0.12500000000E+03 0.  0.
</event>
<event>
 5    0  0.5851292E-005  0.2454727E+03  0.7546771E-02  0.1116200E+00
         21   -1    0    0  502  501  0.00000000000E+00  0.00000000000E+00  0.36149944903E+03  0.36149944903E+03  0.00000000000E+00 0.  1.
         21   -1    0    0  501  502 -0.00000000000E+00 -0.00000000000E+00 -0.16668591168E+03  0.16668591168E+03  0.00000000000E+00 0.  1.
         25    1    1    2    0    0 -0.11320557103E+03  0.29425976357E+02  0.43631813237E+02  0.17666387441E+03  0.12500000000E+03 0.  0.
         25    1    1    2    0    0  0.12314392484E+03 -0.64760339276E+02  0.86555150673E+02  0.20609493413E+03  0.12500000000E+03 0.  0.
         25    1    1    2    0    0 -0.99383538112E+01  0.35334362919E+02  0.64626573437E+02  0.14542655216E+03  0.12500000000E+03 0.  0.
</event>
<event>
 5    0  0.5851292E-005  0.2361455E+03  0.7546771E-02  0.1122388E+00
         21   -1    0    0  502  501  0.00000000000E+00  0.00000000000E+00  0.57656761660E+03  0.57656761660E+03  0.00000000000E+00 0. -1.
         21   -1    0    0  501  502 -0.00000000000E+00 -0.00000000000E+00 -0.96718370710E+02  0.96718370710E+02  0.00000000000E+00 0. -1.
         25    1    1    2    0    0  0.58930882433E+02  0.51632064226E+02  0.32625694851E+03  0.35806049127E+03  0.12500000000E+03 0.  0.
         25    1    1    2    0    0 -0.51108334532E+02 -0.53189867486E+02  0.52780120361E+02  0.15444081380E+03  0.12500000000E+03 0.  0.
         25    1    1    2    0    0 -0.78225479010E+01  0.15578032593E+01  0.10081217702E+03  0.16078468224E+03  0.12500000000E+03 0.  0.
</event>
<event>
 5    0  0.5851292E-005  0.2631526E+03  0.7546771E-02  0.1105264E+00
         21   -1    0    0  502  501  0.00000000000E+00  0.00000000000E+00  0.14150855045E+03  0.14150855045E+03  0.00000000000E+00 0. -1.
         21   -1    0    0  501  502 -0.00000000000E+00 -0.00000000000E+00 -0.48936479281E+03  0.48936479281E+03  0.00000000000E+00 0. -1.
         25    1    1    2    0    0 -0.15338825176E+02 -0.77308511512E+00 -0.39784218486E+02  0.13207445347E+03  0.12500000000E+03 0.  0.
         25    1    1    2    0    0  0.89040096194E+01  0.78353071988E+02  0.10162940440E+02  0.14814442492E+03  0.12500000000E+03 0.  0.
         25    1    1    2    0    0  0.64348155561E+01 -0.77579986873E+02 -0.31823496432E+03  0.35065446487E+03  0.12500000000E+03 0.  0.
</event>
<event>
 5    0  0.5851292E-005  0.3685558E+03  0.7546771E-02  0.1055247E+00
         21   -1    0    0  502  501  0.00000000000E+00  0.00000000000E+00  0.39099099087E+03  0.39099099087E+03  0.00000000000E+00 0.  1.
         21   -1    0    0  501  502 -0.00000000000E+00 -0.00000000000E+00 -0.34740801745E+03  0.34740801745E+03  0.00000000000E+00 0.  1.
         25    1    1    2    0    0  0.17767585972E+03 -0.12507287588E+03  0.23623781816E+03  0.34444918658E+03  0.12500000000E+03 0.  0.
         25    1    1    2    0    0 -0.99607801382E+02  0.38744614654E+02 -0.13779066903E+03  0.21455565183E+03  0.12500000000E+03 0.  0.
         25    1    1    2    0    0 -0.78068058337E+02  0.86328261225E+02 -0.54864175706E+02  0.17939416990E+03  0.12500000000E+03 0.  0.
</event>
<event>
 5    0  0.5851292E-005  0.3837262E+03  0.7546771E-02  0.1049565E+00
         21   -1    0    0  502  501  0.00000000000E+00  0.00000000000E+00  0.12028257580E+04  0.12028257580E+04  0.00000000000E+00 0. -1.
         21   -1    0    0  501  502 -0.00000000000E+00 -0.00000000000E+00 -0.12241653692E+03  0.12241653692E+03  0.00000000000E+00 0. -1.
         25    1    1    2    0    0 -0.10944117974E+03 -0.54805720024E+02  0.51335898279E+02  0.18232227846E+03  0.12500000000E+03 0.  0.
         25    1    1    2    0    0  0.26352929914E+03  0.20066634800E+02  0.54168367369E+03  0.61554574459E+03  0.12500000000E+03 0.  0.
         25    1    1    2    0    0 -0.15408811941E+03  0.34739085224E+02  0.48738964915E+03  0.52737427192E+03  0.12500000000E+03 0.  0.
</event>
<event>
 5    0  0.5851292E-005  0.2877437E+03  0.7546771E-02  0.1091533E+00
         21   -1    0    0  502  501  0.00000000000E+00  0.00000000000E+00  0.50641256642E+02  0.50641256642E+02  0.00000000000E+00 0.  1.
         21   -1    0    0  501  502 -0.00000000000E+00 -0.00000000000E+00 -0.16349601902E+04  0.16349601902E+04  0.00000000000E+00 0.  1.
         25    1    1    2    0    0  0.97440769777E+02  0.47843483665E+02 -0.35394690417E+03  0.39075198466E+03  0.12500000000E+03 0.  0.
         25    1    1    2    0    0 -0.18103295782E+03 -0.56074584692E+02 -0.50023576274E+03  0.54934334363E+03  0.12500000000E+03 0.  0.
         25    1    1    2    0    0  0.83592188047E+02  0.82311010278E+01 -0.73013626669E+03  0.74550611860E+03  0.12500000000E+03 0.  0.
</event>
<event>
 5    0  0.5851292E-005  0.2694573E+03  0.7546771E-02  0.1101591E+00
         21   -1    0    0  502  501  0.00000000000E+00  0.00000000000E+00  0.15107023448E+03  0.15107023448E+03  0.00000000000E+00 0. -1.
         21   -1    0    0  501  502 -0.00000000000E+00 -0.00000000000E+00 -0.48061913884E+03  0.48061913884E+03  0.00000000000E+00 0. -1.
         25    1    1    2    0    0  0.18110925946E+03  0.17519585101E+02 -0.18099410835E+03  0.28546692800E+03  0.12500000000E+03 0.  0.
         25    1    1    2    0    0 -0.84842478267E+02  0.13480043958E+02 -0.79287899065E+02  0.17114768080E+03  0.12500000000E+03 0.  0.
         25    1    1    2    0    0 -0.96266781190E+02 -0.30999629058E+02 -0.69266896943E+02  0.17507476453E+03  0.12500000000E+03 0.  0.
</event>
<event>
 5    0  0.5851292E-005  0.9362194E+03  0.7546771E-02  0.9381405E-01
         21   -1    0    0  502  501  0.00000000000E+00  0.00000000000E+00  0.72206198975E+03  0.72206198975E+03  0.00000000000E+00 0.  1.
         21   -1    0    0  501  502 -0.00000000000E+00 -0.00000000000E+00 -0.12138940190E+04  0.12138940190E+04  0.00000000000E+00 0.  1.
         25    1    1    2    0    0 -0.13269271784E+03 -0.24571821771E+03  0.50577316032E+03  0.59111444711E+03  0.12500000000E+03 0.  0.
         25    1    1    2    0    0  0.43414442245E-01 -0.24420504076E+03 -0.74937721411E+02  0.28438840678E+03  0.12500000000E+03 0.  0.
         25    1    1    2    0    0  0.13264930340E+03  0.48992325848E+03 -0.92266746820E+03  0.10604531549E+04  0.12500000000E+03 0.  0.
</event>
<event>
 5    0  0.5851292E-005  0.4275001E+03  0.7546771E-02  0.1034653E+00
         21   -1    0    0  502  501  0.00000000000E+00  0.00000000000E+00  0.69921630781E+03  0.69921630781E+03  0.00000000000E+00 0. -1.
         21   -1    0    0  501  502 -0.00000000000E+00 -0.00000000000E+00 -0.26137312116E+03  0.26137312116E+03  0.00000000000E+00 0. -1.
         25    1    1    2    0    0  0.10730321993E+03 -0.16109993192E+03  0.39902766831E+01  0.23045192857E+03  0.12500000000E+03 0.  0.
         25    1    1    2    0    0 -0.19082590232E+03  0.63261450023E+02  0.48832335058E+03  0.54267967604E+03  0.12500000000E+03 0.  0.
         25    1    1    2    0    0  0.83522682387E+02  0.97838481900E+02 -0.54470440617E+02  0.18745782436E+03  0.12500000000E+03 0.  0.
</event>
<event>
 5    0  0.5851292E-005  0.2758665E+03  0.7546771E-02  0.1097968E+00
         21   -1    0    0  502  501  0.00000000000E+00  0.00000000000E+00  0.25734399634E+03  0.25734399634E+03  0.00000000000E+00 0. -1.
         21   -1    0    0  501  502 -0.00000000000E+00 -0.00000000000E+00 -0.29572227737E+03  0.29572227737E+03  0.00000000000E+00 0. -1.
         25    1    1    2    0    0 -0.38094595189E+02 -0.77246050075E+02 -0.16942990255E+03  0.22748547715E+03  0.12500000000E+03 0.  0.
         25    1    1    2    0    0 -0.49558682404E+02  0.46032401403E+02  0.66417916722E+02  0.15688016013E+03  0.12500000000E+03 0.  0.
         25    1    1    2    0    0  0.87653277593E+02  0.31213648671E+02  0.64633704806E+02  0.16870063643E+03  0.12500000000E+03 0.  0.
</event>
<event>
 5    0  0.5851292E-005  0.2780078E+03  0.7546771E-02  0.1096782E+00
         21   -1    0    0  502  501  0.00000000000E+00  0.00000000000E+00  0.65270136612E+03  0.65270136612E+03  0.00000000000E+00 0.  1.
         21   -1    0    0  501  502 -0.00000000000E+00 -0.00000000000E+00 -0.11841298841E+03  0.11841298841E+03  0.00000000000E+00 0.  1.
         25    1    1    2    0    0  0.97827278159E+01  0.90691655902E+02  0.31464928252E+03  0.35064205282E+03  0.12500000000E+03 0.  0.
         25    1    1    2    0    0 -0.11444810069E+02 -0.33658487378E+02  0.24816736767E+03  0.28013553832E+03  0.12500000000E+03 0.  0.
         25    1    1    2    0    0  0.16620822529E+01 -0.57033168524E+02 -0.28528272491E+02  0.14033676340E+03  0.12500000000E+03 0.  0.
</event>
<event>
 5    0  0.5851292E-005  0.2812062E+03  0.7546771E-02  0.1095032E+00
         21   -1    0    0  502  501  0.00000000000E+00  0.00000000000E+00  0.54109440735E+03  0.54109440735E+03  0.00000000000E+00 0. -1.
         21   -1    0    0  501  502 -0.00000000000E+00 -0.00000000000E+00 -0.14614254414E+03  0.14614254414E+03  0.00000000000E+00 0. -1.
         25    1    1    2    0    0 -0.10233486372E+03 -0.14290460672E+03  0.15151103203E+03  0.26358062102E+03  0.12500000000E+03 0.  0.
         25    1    1    2    0    0  0.11706007680E+03  0.25547511275E+02  0.14171582766E+03  0.22375011223E+03  0.12500000000E+03 0.  0.
         25    1    1    2    0    0 -0.14725213082E+02  0.11735709544E+03  0.10172500352E+03  0.19990621824E+03  0.12500000000E+03 0.  0.
</event>
<event>
 5    0  0.5851292E-005  0.3056326E+03  0.7546771E-02  0.1082458E+00
         21   -1    0    0  502  501  0.00000000000E+00  0.00000000000E+00  0.39368964286E+02  0.39368964286E+02  0.00000000000E+00 0.  1.
         21   -1    0    0  501  502 -0.00000000000E+00 -0.00000000000E+00 -0.23727142335E+04  0.23727142335E+04  0.00000000000E+00 0.  1.
         25    1    1    2    0    0  0.91046328395E+00 -0.29821554723E+02 -0.61570121948E+03  0.62896990845E+03  0.12500000000E+03 0.  0.
         25    1    1    2    0    0 -0.15627070709E+03  0.14450885674E+03 -0.96754000458E+03  0.99852992145E+03  0.12500000000E+03 0.  0.
         25    1    1    2    0    0  0.15536024381E+03 -0.11468730201E+03 -0.75010404514E+03  0.78458336787E+03  0.12500000000E+03 0.  0.
</event>
<event>
 5    0  0.5851292E-005  0.3421615E+03  0.7546771E-02  0.1065879E+00
         21   -1    0    0  502  501  0.00000000000E+00  0.00000000000E+00  0.41939835220E+03  0.41939835220E+03  0.00000000000E+00 0.  1.
         21   -1    0    0  501  502 -0.00000000000E+00 -0.00000000000E+00 -0.27914875105E+03  0.27914875105E+03  0.00000000000E+00 0.  1.
         25    1    1    2    0    0 -0.28173343772E+02  0.25811685913E+03 -0.80210096779E+01  0.28828351819E+03  0.12500000000E+03 0.  0.
         25    1    1    2    0    0 -0.18977580700E+02 -0.14559500037E+03  0.13439760191E+03  0.23504418330E+03  0.12500000000E+03 0.  0.
         25    1    1    2    0    0  0.47150924472E+02 -0.11252185875E+03  0.13873008915E+02  0.17521940176E+03  0.12500000000E+03 0.  0.
</event>
<event>
 5    0  0.5851292E-005  0.4181038E+03  0.7546771E-02  0.1037685E+00
         21   -1    0    0  502  501  0.00000000000E+00  0.00000000000E+00  0.32598765869E+03  0.32598765869E+03  0.00000000000E+00 0.  1.
         21   -1    0    0  501  502 -0.00000000000E+00 -0.00000000000E+00 -0.53624967426E+03  0.53624967426E+03  0.00000000000E+00 0.  1.
         25    1    1    2    0    0  0.15265405471E+03  0.27428774440E+03 -0.14060550191E+03  0.36596712190E+03  0.12500000000E+03 0.  0.
         25    1    1    2    0    0 -0.15584425846E+03 -0.21061206042E+02 -0.73264680757E+02  0.21383105654E+03  0.12500000000E+03 0.  0.
         25    1    1    2    0    0  0.31902037466E+01 -0.25322653836E+03  0.36081670947E+01  0.28243915451E+03  0.12500000000E+03 0.  0.
</event>
<event>
 5    0  0.5851292E-005  0.6099264E+03  0.7546771E-02  0.9885023E-01
         21   -1    0    0  502  501  0.00000000000E+00  0.00000000000E+00  0.91379111593E+03  0.91379111593E+03  0.00000000000E+00 0.  1.
         21   -1    0    0  501  502 -0.00000000000E+00 -0.00000000000E+00 -0.40710638756E+03  0.40710638756E+03  0.00000000000E+00 0.  1.
         25    1    1    2    0    0  0.40683286863E+03  0.27360346488E+03  0.32149677160E+03  0.59946393815E+03  0.12500000000E+03 0.  0.
         25    1    1    2    0    0 -0.20583950687E+02 -0.26136080480E+03  0.92703313728E+02  0.30488042523E+03  0.12500000000E+03 0.  0.
         25    1    1    2    0    0 -0.38624891794E+03 -0.12242660082E+02  0.92484643044E+02  0.41655314011E+03  0.12500000000E+03 0.  0.
</event>
<event>
 5    0  0.5851292E-005  0.3180665E+03  0.7546771E-02  0.1076543E+00
         21   -1    0    0  502  501  0.00000000000E+00  0.00000000000E+00  0.35534339734E+03  0.35534339734E+03  0.00000000000E+00 0.  1.
         21   -1    0    0  501  502 -0.00000000000E+00 -0.00000000000E+00 -0.28470008100E+03  0.28470008100E+03  0.00000000000E+00 0.  1.
         25    1    1    2    0    0  0.35116976271E+02  0.50086617226E+01 -0.12354150818E+03  0.17929247881E+03  0.12500000000E+03 0.  0.
         25    1    1    2    0    0  0.96705328393E+02 -0.11308318827E+03  0.38208988916E+02  0.19805215183E+03  0.12500000000E+03 0.  0.
         25    1    1    2    0    0 -0.13182230466E+03  0.10807452655E+03  0.15597583560E+03  0.26269884771E+03  0.12500000000E+03 0.  0.
</event>
<event>
 5    0  0.5851292E-005  0.3674029E+03  0.7546771E-02  0.1055690E+00
         21   -1    0    0  502  501  0.00000000000E+00  0.00000000000E+00  0.23644566068E+03  0.23644566068E+03  0.00000000000E+00 0. -1.
         21   -1    0    0  501  502 -0.00000000000E+00 -0.00000000000E+00 -0.57089189628E+03  0.57089189628E+03  0.00000000000E+00 0. -1.
         25    1    1    2    0    0  0.14132607127E+03 -0.11990602673E+01  0.72768578831E+02  0.20222453420E+03  0.12500000000E+03 0.  0.
         25    1    1    2    0    0 -0.11321330112E+03 -0.57120869329E+02 -0.42730102178E+03  0.46291598426E+03  0.12500000000E+03 0.  0.
         25    1    1    2    0    0 -0.28112770149E+02  0.58319929597E+02  0.20086207353E+02  0.14219703850E+03  0.12500000000E+03 0.  0.
</event>
<event>
 5    0  0.5851292E-005  0.2957737E+03  0.7546771E-02  0.1087373E+00
         21   -1    0    0  502  501  0.00000000000E+00  0.00000000000E+00  0.43454288449E+02  0.43454288449E+02  0.00000000000E+00 0. -1.
         21   -1    0    0  501  502 -0.00000000000E+00 -0.00000000000E+00 -0.20131976772E+04  0.20131976772E+04  0.00000000000E+00 0. -1.
         25    1    1    2    0    0  0.11361417274E+02  0.12610203370E+03 -0.31300814262E+03  0.36004152823E+03  0.12500000000E+03 0.  0.
         25    1    1    2    0    0  0.10574936726E+03 -0.88529970557E+02 -0.72469716418E+03  0.74821886112E+03  0.12500000000E+03 0.  0.
         25    1    1    2    0    0 -0.11711078453E+03 -0.37572063147E+02 -0.93203808193E+03  0.94839157627E+03  0.12500000000E+03 0.  0.
</event>
<event>
 5    0  0.5851292E-005  0.2300347E+03  0.7546771E-02  0.1126615E+00
         21   -1    0    0  502  501  0.00000000000E+00  0.00000000000E+00  0.95285947945E+03  0.95285947945E+03  0.00000000000E+00 0. -1.
         21   -1    0    0  501  502 -0.00000000000E+00 -0.00000000000E+00 -0.55533835235E+02  0.55533835235E+02  0.00000000000E+00 0. -1.
         25    1    1    2    0    0  0.35081921108E+02 -0.35962960987E+02  0.99201773010E+02  0.16730232371E+03  0.12500000000E+03 0.  0.
         25    1    1    2    0    0 -0.19138127153E+02 -0.14177424960E+02  0.44438268102E+03  0.46224261431E+03  0.12500000000E+03 0.  0.
         25    1    1    2    0    0 -0.15943793955E+02  0.50140385947E+02  0.35374119018E+03  0.37884837666E+03  0.12500000000E+03 0.  0.
</event>
<event>
 5    0  0.5851292E-005  0.2359964E+03  0.7546771E-02  0.1122489E+00
         21   -1    0    0  502  501  0.00000000000E+00  0.00000000000E+00  0.41414096554E+02  0.41414096554E+02  0.00000000000E+00 0.  1.
         21   -1    0    0  501  502 -0.00000000000E+00 -0.00000000000E+00 -0.13448145704E+04  0.13448145704E+04  0.00000000000E+00 0.  1.
         25    1    1    2    0    0 -0.30519395178E+02  0.10913097656E+03 -0.41397186109E+03  0.44703322617E+03  0.12500000000E+03 0.  0.
         25    1    1    2    0    0  0.21528429245E+01 -0.39267078972E+02 -0.61017289663E+03  0.62408533231E+03  0.12500000000E+03 0.  0.
         25    1    1    2    0    0  0.28366552253E+02 -0.69863897586E+02 -0.27925571613E+03  0.31511010848E+03  0.12500000000E+03 0.  0.
</event>
<event>
 5    0  0.5851292E-005  0.2690708E+03  0.7546771E-02  0.1101813E+00
         21   -1    0    0  502  501  0.00000000000E+00  0.00000000000E+00  0.39701867090E+03  0.39701867090E+03  0.00000000000E+00 0.  1.
         21   -1    0    0  501  502 -0.00000000000E+00 -0.00000000000E+00 -0.18235690250E+03  0.18235690250E+03  0.00000000000E+00 0.  1.
         25    1    1    2    0    0 -0.11415426398E+03 -0.13897691762E+03  0.11915762339E+03  0.24933776054E+03  0.12500000000E+03 0.  0.
         25    1    1    2    0    0  0.27730938775E+02  0.85227442018E+02  0.59182982266E+02  0.16480396606E+03  0.12500000000E+03 0.  0.
         25    1    1    2    0    0  0.86423325210E+02  0.53749475602E+02  0.36321162745E+02  0.16523384681E+03  0.12500000000E+03 0.  0.
</event>
<event>
 5    0  0.5851292E-005  0.4308877E+03  0.7546771E-02  0.1033580E+00
         21   -1    0    0  502  501  0.00000000000E+00  0.00000000000E+00  0.67083782307E+03  0.67083782307E+03  0.00000000000E+00 0. -1.
         21   -1    0    0  501  502 -0.00000000000E+00 -0.00000000000E+00 -0.27676469132E+03  0.27676469132E+03  0.00000000000E+00 0. -1.
         25    1    1    2    0    0 -0.13889099326E+03 -0.17503198710E+03 -0.38540911644E+02  0.25891563565E+03  0.12500000000E+03 0.  0.
         25    1    1    2    0    0  0.21650652788E+03  0.23929209886E+03  0.18187219638E+03  0.39094536832E+03  0.12500000000E+03 0.  0.
         25    1    1    2    0    0 -0.77615534627E+02 -0.64260111767E+02  0.25074184701E+03  0.29774151041E+03  0.12500000000E+03 0.  0.
</event>
<event>
 5    0  0.5851292E-005  0.2925843E+03  0.7546771E-02  0.1089008E+00
         21   -1    0    0  502  501  0.00000000000E+00  0.00000000000E+00  0.12139563161E+03  0.12139563161E+03  0.00000000000E+00 0. -1.
         21   -1    0    0  501  502 -0.00000000000E+00 -0.00000000000E+00 -0.70517856467E+03  0.70517856467E+03  0.00000000000E+00 0. -1.
         25    1    1    2    0    0 -0.12599570410E+03 -0.63793880658E+01 -0.90582679124E+02  0.19936357692E+03  0.12500000000E+03 0.  0.
         25    1    1    2    0    0  0.65883281656E+02  0.26617975522E+02 -0.46166185357E+03  0.48353468383E+03  0.12500000000E+03 0.  0.
         25    1    1    2    0    0  0.60112422445E+02 -0.20238587456E+02 -0.31538400367E+02  0.14367593554E+03  0.12500000000E+03 0.  0.
</event>
<event>
 5    0  0.5851292E-005  0.6145516E+03  0.7546771E-02  0.9875668E-01
         21   -1    0    0  502  501  0.00000000000E+00  0.00000000000E+00  0.25383874047E+03  0.25383874047E+03  0.00000000000E+00 0. -1.
         21   -1    0    0  501  502 -0.00000000000E+00 -0.00000000000E+00 -0.14878486487E+04  0.14878486487E+04  0.00000000000E+00 0. -1.
         25    1    1    2    0    0 -0.49086642729E+02 -0.39187989763E+03 -0.96640510180E+03  0.10514481316E+04  0.12500000000E+03 0.  0.
         25    1    1    2    0    0  0.14564608776E+03  0.34034463881E+03 -0.33132072718E+03  0.51229452497E+03  0.12500000000E+03 0.  0.
         25    1    1    2    0    0 -0.96559445031E+02  0.51535258817E+02  0.63715920706E+02  0.17794473265E+03  0.12500000000E+03 0.  0.
</event>
<event>
 5    0  0.6761549E-005  0.5259524E+03  0.7546771E-02  0.1007218E+00
         21   -1    0    0  502  501  0.00000000000E+00  0.00000000000E+00  0.16014683105E+03  0.16014683105E+03  0.00000000000E+00 0. -1.
         21   -1    0    0  501  502 -0.00000000000E+00 -0.00000000000E+00 -0.17273271028E+04  0.17273271028E+04  0.00000000000E+00 0. -1.
         25    1    1    2    0    0  0.72296606924E+01 -0.33031617309E+03 -0.58956341916E+03  0.68729256318E+03  0.12500000000E+03 0.  0.
         25    1    1    2    0    0 -0.24721527194E+03  0.15790808112E+03 -0.72431928818E+03  0.79139988880E+03  0.12500000000E+03 0.  0.
         25    1    1    2    0    0  0.23998561125E+03  0.17240809197E+03 -0.25329756442E+03  0.40878148188E+03  0.12500000000E+03 0.  0.
</event>
<event>
 5    0  0.5851292E-005  0.2567851E+03  0.7546771E-02  0.1109090E+00
         21   -1    0    0  502  501  0.00000000000E+00  0.00000000000E+00  0.99319320191E+02  0.99319320191E+02  0.00000000000E+00 0.  1.
         21   -1    0    0  501  502 -0.00000000000E+00 -0.00000000000E+00 -0.66390486240E+03  0.66390486240E+03  0.00000000000E+00 0.  1.
         25    1    1    2    0    0  0.12150462130E+03  0.77812350881E+02 -0.19572901173E+03  0.27340991383E+03  0.12500000000E+03 0.  0.
         25    1    1    2    0    0 -0.32751237408E+02 -0.86962310749E+02 -0.11691489563E+03  0.19475415236E+03  0.12500000000E+03 0.  0.
         25    1    1    2    0    0 -0.88753383893E+02  0.91499598681E+01 -0.25194163485E+03  0.29506011640E+03  0.12500000000E+03 0.  0.
</event>
<event>
 5    0  0.5851292E-005  0.2730336E+03  0.7546771E-02  0.1099556E+00
         21   -1    0    0  502  501  0.00000000000E+00  0.00000000000E+00  0.19071645223E+03  0.19071645223E+03  0.00000000000E+00 0. -1.
         21   -1    0    0  501  502 -0.00000000000E+00 -0.00000000000E+00 -0.39088065253E+03  0.39088065253E+03  0.00000000000E+00 0. -1.
         25    1    1    2    0    0 -0.72873105056E+02 -0.55974597364E+01 -0.11890396601E+03  0.18736321445E+03  0.12500000000E+03 0.  0.
         25    1    1    2    0    0  0.90792221369E+02  0.62483663389E+02 -0.16324826589E+03  0.23328615897E+03  0.12500000000E+03 0.  0.
         25    1    1    2    0    0 -0.17919116313E+02 -0.56886203652E+02  0.81988031601E+02  0.16094773133E+03  0.12500000000E+03 0.  0.
</event>
<event>
 5    0  0.5851292E-005  0.2669124E+03  0.7546771E-02  0.1103060E+00
         21   -1    0    0  502  501  0.00000000000E+00  0.00000000000E+00  0.85578302484E+02  0.85578302484E+02  0.00000000000E+00 0.  1.
         21   -1    0    0  501  502 -0.00000000000E+00 -0.00000000000E+00 -0.83247979125E+03  0.83247979125E+03  0.00000000000E+00 0.  1.
         25    1    1    2    0    0  0.73143734224E+01  0.10434909589E+03 -0.21320086362E+03  0.26836885460E+03  0.12500000000E+03 0.  0.
         25    1    1    2    0    0  0.12004195202E+03 -0.30433939584E+02 -0.22658448433E+03  0.28688294383E+03  0.12500000000E+03 0.  0.
         25    1    1    2    0    0 -0.12735632544E+03 -0.73915156305E+02 -0.30711614082E+03  0.36280629530E+03  0.12500000000E+03 0.  0.
</event>
<event>
 5    0  0.5851292E-005  0.3845227E+03  0.7546771E-02  0.1049275E+00
         21   -1    0    0  502  501  0.00000000000E+00  0.00000000000E+00  0.79606173135E+03  0.79606173135E+03  0.00000000000E+00 0.  1.
         21   -1    0    0  501  502 -0.00000000000E+00 -0.00000000000E+00 -0.18573650018E+03  0.18573650018E+03  0.00000000000E+00 0.  1.
         25    1    1    2    0    0  0.13888476564E+03  0.20790346777E+03  0.27864240706E+03  0.39468901815E+03  0.12500000000E+03 0.  0.
         25    1    1    2    0    0 -0.21841588511E+03 -0.19174329638E+03  0.14442999153E+03  0.34778731004E+03  0.12500000000E+03 0.  0.
         25    1    1    2    0    0  0.79531119470E+02 -0.16160171389E+02  0.18725283258E+03  0.23932190333E+03  0.12500000000E+03 0.  0.
</event>
<event>
 5    0  0.5851292E-005  0.3816895E+03  0.7546771E-02  0.1050311E+00
         21   -1    0    0  502  501  0.00000000000E+00  0.00000000000E+00  0.12540602623E+04  0.12540602623E+04  0.00000000000E+00 0. -1.
         21   -1    0    0  501  502 -0.00000000000E+00 -0.00000000000E+00 -0.11617217728E+03  0.11617217728E+03  0.00000000000E+00 0. -1.
         25    1    1    2    0    0  0.11610787599E+02  0.20368072552E+02  0.43887628043E+02  0.13453918635E+03  0.12500000000E+03 0.  0.
         25    1    1    2    0    0  0.20714709601E+03 -0.15618819926E+03  0.52741712812E+03  0.60091471942E+03  0.12500000000E+03 0.  0.
         25    1    1    2    0    0 -0.21875788361E+03  0.13582012671E+03  0.56658332887E+03  0.63477853384E+03  0.12500000000E+03 0.  0.
</event>
<event>
 5    0  0.5851292E-005  0.2151552E+03  0.7546771E-02  0.1137547E+00
         21   -1    0    0  502  501  0.00000000000E+00  0.00000000000E+00  0.89851117377E+02  0.89851117377E+02  0.00000000000E+00 0. -1.
         21   -1    0    0  501  502 -0.00000000000E+00 -0.00000000000E+00 -0.51520535535E+03  0.51520535535E+03  0.00000000000E+00 0. -1.
         25    1    1    2    0    0 -0.85274949381E+01 -0.29329181467E+02 -0.95366758916E+02  0.16016472071E+03  0.12500000000E+03 0.  0.
         25    1    1    2    0    0  0.74275572779E+01 -0.43906158409E+02 -0.77164435605E+02  0.15350006344E+03  0.12500000000E+03 0.  0.
         25    1    1    2    0    0  0.10999376602E+01  0.73235339876E+02 -0.25282304346E+03  0.29139168858E+03  0.12500000000E+03 0.  0.
</event>
<event>
 5    0  0.5851292E-005  0.4230683E+03  0.7546771E-02  0.1036072E+00
         21   -1    0    0  502  501  0.00000000000E+00  0.00000000000E+00  0.46837516080E+03  0.46837516080E+03  0.00000000000E+00 0.  1.
         21   -1    0    0  501  502 -0.00000000000E+00 -0.00000000000E+00 -0.38214414868E+03  0.38214414868E+03  0.00000000000E+00 0.  1.
         25    1    1    2    0    0  0.83024757225E+02 -0.48689710656E+02  0.45852479048E+02  0.16429013382E+03  0.12500000000E+03 0.  0.
         25    1    1    2    0    0  0.85968588477E+02 -0.87449332614E+02  0.28606365474E+03  0.33540333710E+03  0.12500000000E+03 0.  0.
         25    1    1    2    0    0 -0.16899334570E+03  0.13613904327E+03 -0.24568512166E+03  0.35082583856E+03  0.12500000000E+03 0.  0.
</event>
<event>
 5    0  0.5851292E-005  0.3853482E+03  0.7546771E-02  0.1048975E+00
         21   -1    0    0  502  501  0.00000000000E+00  0.00000000000E+00  0.37178041660E+03  0.37178041660E+03  0.00000000000E+00 0. -1.
         21   -1    0    0  501  502 -0.00000000000E+00 -0.00000000000E+00 -0.39941115436E+03  0.39941115436E+03  0.00000000000E+00 0. -1.
         25    1    1    2    0    0  0.90494794661E+02  0.10035244085E+03  0.25446638773E+03  0.31406697173E+03  0.12500000000E+03 0.  0.
         25    1    1    2    0    0 -0.11213960579E+03 -0.11374012432E+03 -0.25652829812E+03  0.32702274356E+03  0.12500000000E+03 0.  0.
         25    1    1    2    0    0  0.21644811129E+02  0.13387683470E+02 -0.25568827368E+02  0.13010185568E+03  0.12500000000E+03 0.  0.
</event>
<event>
 5    0  0.5851292E-005  0.3217192E+03  0.7546771E-02  0.1074861E+00
         21   -1    0    0  502  501  0.00000000000E+00  0.00000000000E+00  0.46242348291E+03  0.46242348291E+03  0.00000000000E+00 0.  1.
         21   -1    0    0  501  502 -0.00000000000E+00 -0.00000000000E+00 -0.22382782999E+03  0.22382782999E+03  0.00000000000E+00 0.  1.
         25    1    1    2    0    0  0.38568793488E+02  0.94229090869E+02  0.28939285274E+03  0.33127012636E+03  0.12500000000E+03 0.  0.
         25    1    1    2    0    0 -0.13147822185E+03 -0.39420978490E+02 -0.16795513478E+02  0.18640715018E+03  0.12500000000E+03 0.  0.
         25    1    1    2    0    0  0.92909428358E+02 -0.54808112379E+02 -0.34001686352E+02  0.16857403636E+03  0.12500000000E+03 0.  0.
</event>
<event>
 5    0  0.5851292E-005  0.3117617E+03  0.7546771E-02  0.1079505E+00
         21   -1    0    0  502  501  0.00000000000E+00  0.00000000000E+00  0.12766490464E+03  0.12766490464E+03  0.00000000000E+00 0. -1.
         21   -1    0    0  501  502 -0.00000000000E+00 -0.00000000000E+00 -0.76133198905E+03  0.76133198905E+03  0.00000000000E+00 0. -1.
         25    1    1    2    0    0  0.23201005004E+02 -0.19084009796E+03 -0.14134392006E+03  0.26937210947E+03  0.12500000000E+03 0.  0.
         25    1    1    2    0    0 -0.64712770112E+02  0.17248010413E+03 -0.39984708278E+03  0.45764595327E+03  0.12500000000E+03 0.  0.
         25    1    1    2    0    0  0.41511765108E+02  0.18359993831E+02 -0.92476081561E+02  0.16197883095E+03  0.12500000000E+03 0.  0.
</event>
<event>
 5    0  0.5851292E-005  0.3178755E+03  0.7546771E-02  0.1076631E+00
         21   -1    0    0  502  501  0.00000000000E+00  0.00000000000E+00  0.86648379145E+02  0.86648379145E+02  0.00000000000E+00 0.  1.
         21   -1    0    0  501  502 -0.00000000000E+00 -0.00000000000E+00 -0.11661480874E+04  0.11661480874E+04  0.00000000000E+00 0.  1.
         25    1    1    2    0    0  0.18949395975E+03  0.69113109456E+02 -0.58523341787E+03  0.63151226122E+03  0.12500000000E+03 0.  0.
         25    1    1    2    0    0 -0.10294650861E+03 -0.13450440378E+03 -0.29104312628E+03  0.35919426447E+03  0.12500000000E+03 0.  0.
         25    1    1    2    0    0 -0.86547451138E+02  0.65391294321E+02 -0.20322316412E+03  0.26208994087E+03  0.12500000000E+03 0.  0.
</event>
<event>
 5    0  0.5851292E-005  0.2351463E+03  0.7546771E-02  0.1123069E+00
         21   -1    0    0  502  501  0.00000000000E+00  0.00000000000E+00  0.82003852421E+03  0.82003852421E+03  0.00000000000E+00 0.  1.
         21   -1    0    0  501  502 -0.00000000000E+00 -0.00000000000E+00 -0.67428276727E+02  0.67428276727E+02  0.00000000000E+00 0.  1.
         25    1    1    2    0    0 -0.20775027554E+02  0.17684724206E+02  0.34207979299E+03  0.36522313182E+03  0.12500000000E+03 0.  0.
         25    1    1    2    0    0  0.58008116664E+02 -0.97988162181E+02  0.20018046820E+03  0.26203786249E+03  0.12500000000E+03 0.  0.
         25    1    1    2    0    0 -0.37233089110E+02  0.80303437975E+02  0.21034998629E+03  0.26020580664E+03  0.12500000000E+03 0.  0.
</event>
<event>
 5    0  0.5851292E-005  0.4683820E+03  0.7546771E-02  0.1022378E+00
         21   -1    0    0  502  501  0.00000000000E+00  0.00000000000E+00  0.82345030846E+03  0.82345030846E+03  0.00000000000E+00 0. -1.
         21   -1    0    0  501  502 -0.00000000000E+00 -0.00000000000E+00 -0.26641761525E+03  0.26641761525E+03  0.00000000000E+00 0. -1.
         25    1    1    2    0    0  0.14540705623E+03 -0.57809570152E+02  0.22867028729E+03  0.30397410859E+03  0.12500000000E+03 0.  0.
         25    1    1    2    0    0 -0.87643803535E+02  0.15299481636E+03 -0.16047097572E+03  0.26919283828E+03  0.12500000000E+03 0.  0.
         25    1    1    2    0    0 -0.57763252692E+02 -0.95185246205E+02  0.48883338165E+03  0.51670097684E+03  0.12500000000E+03 0.  0.
</event>
<event>
 5    0  0.5851292E-005  0.3993328E+03  0.7546771E-02  0.1044011E+00
         21   -1    0    0  502  501  0.00000000000E+00  0.00000000000E+00  0.84579139880E+03  0.84579139880E+03  0.00000000000E+00 0. -1.
         21   -1    0    0  501  502 -0.00000000000E+00 -0.00000000000E+00 -0.18854140305E+03  0.18854140305E+03  0.00000000000E+00 0. -1.
         25    1    1    2    0    0 -0.46361200097E+02 -0.17516158959E+03  0.49192219325E+03  0.53892799849E+03  0.12500000000E+03 0.  0.
         25    1    1    2    0    0 -0.12347999934E+03  0.33262788494E+02  0.16186542644E+03  0.24120352322E+03  0.12500000000E+03 0.  0.
         25    1    1    2    0    0  0.16984119944E+03  0.14189880110E+03  0.34623760525E+01  0.25420128015E+03  0.12500000000E+03 0.  0.
</event>
<event>
 5    0  0.5851292E-005  0.2605467E+03  0.7546771E-02  0.1106815E+00
         21   -1    0    0  502  501  0.00000000000E+00  0.00000000000E+00  0.55444228761E+02  0.55444228761E+02  0.00000000000E+00 0. -1.
         21   -1    0    0  501  502 -0.00000000000E+00 -0.00000000000E+00 -0.12243760589E+04  0.12243760589E+04  0.00000000000E+00 0. -1.
         25    1    1    2    0    0  0.13394280954E+02 -0.89498582871E+01 -0.69998381710E+03  0.71123965787E+03  0.12500000000E+03 0.  0.
         25    1    1    2    0    0 -0.73635181845E+02 -0.58884810558E+02 -0.16394006032E+03  0.22669562037E+03  0.12500000000E+03 0.  0.
         25    1    1    2    0    0  0.60240900890E+02  0.67834668845E+02 -0.30500795268E+03  0.34188500937E+03  0.12500000000E+03 0.  0.
</event>
<event>
 5    0  0.5851292E-005  0.4824713E+03  0.7546771E-02  0.1018458E+00
         21   -1    0    0  502  501  0.00000000000E+00  0.00000000000E+00  0.58883362666E+03  0.58883362666E+03  0.00000000000E+00 0. -1.
         21   -1    0    0  501  502 -0.00000000000E+00 -0.00000000000E+00 -0.39532146733E+03  0.39532146733E+03  0.00000000000E+00 0. -1.
         25    1    1    2    0    0  0.16622787039E+03  0.29178738057E+03  0.22529207676E+03  0.42326481098E+03  0.12500000000E+03 0.  0.
         25    1    1    2    0    0 -0.87632269518E+02 -0.55416502720E+02  0.15571275389E+03  0.22499303358E+03  0.12500000000E+03 0.  0.
         25    1    1    2    0    0 -0.78595600875E+02 -0.23637087785E+03 -0.18749267133E+03  0.33589724944E+03  0.12500000000E+03 0.  0.
</event>
<event>
 5    0  0.5851292E-005  0.2953979E+03  0.7546771E-02  0.1087564E+00
         21   -1    0    0  502  501  0.00000000000E+00  0.00000000000E+00  0.26312681264E+02  0.26312681264E+02  0.00000000000E+00 0. -1.
         21   -1    0    0  501  502 -0.00000000000E+00 -0.00000000000E+00 -0.33162676231E+04  0.33162676231E+04  0.00000000000E+00 0. -1.
         25    1    1    2    0    0  0.20055679334E+03 -0.51591677309E+02 -0.15607922786E+04  0.15794246628E+04  0.12500000000E+03 0.  0.
         25    1    1    2    0    0 -0.14649612745E+03 -0.88431941666E+01 -0.86285771629E+03  0.88413107399E+03  0.12500000000E+03 0.  0.
         25    1    1    2    0    0 -0.54060665887E+02  0.60434871476E+02 -0.86630494696E+03  0.87902456758E+03  0.12500000000E+03 0.  0.
</event>
<event>
 5    0  0.5851292E-005  0.2559228E+03  0.7546771E-02  0.1109618E+00
         21   -1    0    0  502  501  0.00000000000E+00  0.00000000000E+00  0.41981317197E+02  0.41981317197E+02  0.00000000000E+00 0.  1.
         21   -1    0    0  501  502 -0.00000000000E+00 -0.00000000000E+00 -0.15601337686E+04  0.15601337686E+04  0.00000000000E+00 0.  1.
         25    1    1    2    0    0  0.67703032289E+02 -0.26926833882E+02 -0.19591288552E+03  0.24354796997E+03  0.12500000000E+03 0.  0.
         25    1    1    2    0    0 -0.63440312835E+02  0.56670528563E+02 -0.40391109294E+03  0.43128342549E+03  0.12500000000E+03 0.  0.
         25    1    1    2    0    0 -0.42627194541E+01 -0.29743694680E+02 -0.91832847295E+03  0.92728369035E+03  0.12500000000E+03 0.  0.
</event>
<event>
 5    0  0.5851292E-005  0.2946891E+03  0.7546771E-02  0.1087926E+00
         21   -1    0    0  502  501  0.00000000000E+00  0.00000000000E+00  0.65349959390E+02  0.65349959390E+02  0.00000000000E+00 0. -1.
         21   -1    0    0  501  502 -0.00000000000E+00 -0.00000000000E+00 -0.13288707001E+04  0.13288707001E+04  0.00000000000E+00 0. -1.
         25    1    1    2    0    0 -0.79764030176E+02  0.10178891031E+03 -0.17215931459E+03  0.24897211164E+03  0.12500000000E+03 0.  0.
         25    1    1    2    0    0 -0.35410728747E+02  0.24481195235E+02 -0.49756192639E+03  0.51482630005E+03  0.12500000000E+03 0.  0.
         25    1    1    2    0    0  0.11517475892E+03 -0.12627010554E+03 -0.59379949967E+03  0.63042224775E+03  0.12500000000E+03 0.  0.
</event>
<event>
 5    0  0.6835591E-005  0.4271224E+03  0.7546771E-02  0.1034773E+00
         21   -1    0    0  502  501  0.00000000000E+00  0.00000000000E+00  0.66761236739E+03  0.66761236739E+03  0.00000000000E+00 0. -1.
         21   -1    0    0  501  502 -0.00000000000E+00 -0.00000000000E+00 -0.27326265800E+03  0.27326265800E+03  0.00000000000E+00 0. -1.
         25    1    1    2    0    0  0.22671190643E+02 -0.11769645967E+02  0.38669193461E+03  0.40719548099E+03  0.12500000000E+03 0.  0.
         25    1    1    2    0    0 -0.24453647253E+03 -0.27286612655E+02  0.53325727467E+01  0.27603637797E+03  0.12500000000E+03 0.  0.
         25    1    1    2    0    0  0.22186528189E+03  0.39056258622E+02  0.23252020378E+01  0.25764316643E+03  0.12500000000E+03 0.  0.
</event>
<event>
 5    0  0.5851292E-005  0.4000986E+03  0.7546771E-02  0.1043746E+00
         21   -1    0    0  502  501  0.00000000000E+00  0.00000000000E+00  0.35410196658E+03  0.35410196658E+03  0.00000000000E+00 0. -1.
         21   -1    0    0  501  502 -0.00000000000E+00 -0.00000000000E+00 -0.45207007390E+03  0.45207007390E+03  0.00000000000E+00 0. -1.
         25    1    1    2    0    0  0.21464711244E+03  0.91994455991E+02  0.84385035366E+02  0.27799675718E+03  0.12500000000E+03 0.  0.
         25    1    1    2    0    0 -0.13124472274E+03 -0.21044037507E+03 -0.22131398880E+02  0.27861286317E+03  0.12500000000E+03 0.  0.
         25    1    1    2    0    0 -0.83402389697E+02  0.11844591908E+03 -0.16022174380E+03  0.24956242013E+03  0.12500000000E+03 0.  0.
</event>
<event>
 5    0  0.5851292E-005  0.2584502E+03  0.7546771E-02  0.1108078E+00
         21   -1    0    0  502  501  0.00000000000E+00  0.00000000000E+00  0.11489295279E+03  0.11489295279E+03  0.00000000000E+00 0.  1.
         21   -1    0    0  501  502 -0.00000000000E+00 -0.00000000000E+00 -0.58138014106E+03  0.58138014106E+03  0.00000000000E+00 0.  1.
         25    1    1    2    0    0 -0.74526509835E+02  0.14558237181E+03 -0.21451308988E+03  0.29730336927E+03  0.12500000000E+03 0.  0.
         25    1    1    2    0    0  0.49720318264E+02 -0.11766713271E+03 -0.15171058723E+03  0.23443286127E+03  0.12500000000E+03 0.  0.
         25    1    1    2    0    0  0.24806191571E+02 -0.27915239106E+02 -0.10026351116E+03  0.16453686330E+03  0.12500000000E+03 0.  0.
</event>
<event>
 5    0  0.5851292E-005  0.2625596E+03  0.7546771E-02  0.1105615E+00
         21   -1    0    0  502  501  0.00000000000E+00  0.00000000000E+00  0.16151956493E+04  0.16151956493E+04  0.00000000000E+00 0.  1.
         21   -1    0    0  501  502 -0.00000000000E+00 -0.00000000000E+00 -0.42680602997E+02  0.42680602997E+02  0.00000000000E+00 0.  1.
         25    1    1    2    0    0 -0.10258546168E+03  0.80775990989E+02  0.50030154147E+03  0.53195410522E+03  0.12500000000E+03 0.  0.
         25    1    1    2    0    0  0.14031483007E+03 -0.97920749101E+02  0.65802518746E+03  0.69130230144E+03  0.12500000000E+03 0.  0.
         25    1    1    2    0    0 -0.37729368381E+02  0.17144758112E+02  0.41418831735E+03  0.43461984561E+03  0.12500000000E+03 0.  0.
</event>
<event>
 5    0  0.5851292E-005  0.3307654E+03  0.7546771E-02  0.1070799E+00
         21   -1    0    0  502  501  0.00000000000E+00  0.00000000000E+00  0.18204141360E+04  0.18204141360E+04  0.00000000000E+00 0. -1.
         21   -1    0    0  501  502 -0.00000000000E+00 -0.00000000000E+00 -0.60099358789E+02  0.60099358789E+02  0.00000000000E+00 0. -1.
         25    1    1    2    0    0 -0.85349838194E+02  0.98563362375E+02  0.29717825831E+03  0.34776320750E+03  0.12500000000E+03 0.  0.
         25    1    1    2    0    0 -0.56974782051E+02  0.10569835420E+03  0.67227211429E+03  0.69425720272E+03  0.12500000000E+03 0.  0.
         25    1    1    2    0    0  0.14232462024E+03 -0.20426171658E+03  0.79086440461E+03  0.83849308457E+03  0.12500000000E+03 0.  0.
</event>
<event>
 5    0  0.7326895E-005  0.3449200E+03  0.7546771E-02  0.1064720E+00
         21   -1    0    0  502  501  0.00000000000E+00  0.00000000000E+00  0.27317446306E+03  0.27317446306E+03  0.00000000000E+00 0.  1.
         21   -1    0    0  501  502 -0.00000000000E+00 -0.00000000000E+00 -0.43550853487E+03  0.43550853487E+03  0.00000000000E+00 0.  1.
         25    1    1    2    0    0 -0.68886253243E+02  0.81494765376E+02  0.49140015217E+01  0.16442584979E+03  0.12500000000E+03 0.  0.
         25    1    1    2    0    0 -0.10808738961E+03  0.11192154228E+03 -0.15648791764E+03  0.25361936793E+03  0.12500000000E+03 0.  0.
         25    1    1    2    0    0  0.17697364285E+03 -0.19341630766E+03 -0.10760155694E+02  0.29063778021E+03  0.12500000000E+03 0.  0.
</event>
<event>
 5    0  0.5851292E-005  0.3510093E+03  0.7546771E-02  0.1062202E+00
         21   -1    0    0  502  501  0.00000000000E+00  0.00000000000E+00  0.16355877980E+04  0.16355877980E+04  0.00000000000E+00 0. -1.
         21   -1    0    0  501  502 -0.00000000000E+00 -0.00000000000E+00 -0.75329215029E+02  0.75329215029E+02  0.00000000000E+00 0.  1.
         25    1    1    2    0    0  0.12432936276E+03  0.32947025192E+02  0.78164626455E+03  0.80195958738E+03  0.12500000000E+03 0.  0.
         25    1    1    2    0    0 -0.25626755961E+03 -0.28720992520E+02  0.49923155127E+03  0.57563451886E+03  0.12500000000E+03 0.  0.
         25    1    1    2    0    0  0.13193819685E+03 -0.42260326721E+01  0.27938076719E+03  0.33332290683E+03  0.12500000000E+03 0.  0.
</event>
<event>
 5    0  0.5851292E-005  0.4181798E+03  0.7546771E-02  0.1037660E+00
         21   -1    0    0  502  501  0.00000000000E+00  0.00000000000E+00  0.49918992380E+03  0.49918992380E+03  0.00000000000E+00 0.  1.
         21   -1    0    0  501  502 -0.00000000000E+00 -0.00000000000E+00 -0.35031633273E+03  0.35031633273E+03  0.00000000000E+00 0.  1.
         25    1    1    2    0    0  0.13831349255E+03 -0.26066985234E+03  0.55119423610E+02  0.32518078818E+03  0.12500000000E+03 0.  0.
         25    1    1    2    0    0 -0.60136095475E+02 -0.67793848435E+02  0.10247806927E+02  0.15473323305E+03  0.12500000000E+03 0.  0.
         25    1    1    2    0    0 -0.78177397077E+02  0.32846370077E+03  0.83506360532E+02  0.36959223529E+03  0.12500000000E+03 0.  0.
</event>
<event>
 5    0  0.5851292E-005  0.2281777E+03  0.7546771E-02  0.1127929E+00
         21   -1    0    0  502  501  0.00000000000E+00  0.00000000000E+00  0.12506375860E+03  0.12506375860E+03  0.00000000000E+00 0. -1.
         21   -1    0    0  501  502 -0.00000000000E+00 -0.00000000000E+00 -0.41630825891E+03  0.41630825891E+03  0.00000000000E+00 0. -1.
         25    1    1    2    0    0 -0.85859446129E+02  0.51163688049E+02 -0.13115090402E+03  0.20691816520E+03  0.12500000000E+03 0.  0.
         25    1    1    2    0    0  0.97232724292E+02 -0.88530451755E+00 -0.82719733269E+02  0.17866880172E+03  0.12500000000E+03 0.  0.
         25    1    1    2    0    0 -0.11373278163E+02 -0.50278383532E+02 -0.77373863018E+02  0.15578505058E+03  0.12500000000E+03 0.  0.
</event>
<event>
 5    0  0.5851292E-005  0.3767444E+03  0.7546771E-02  0.1052144E+00
         21   -1    0    0  502  501  0.00000000000E+00  0.00000000000E+00  0.91480064727E+03  0.91480064727E+03  0.00000000000E+00 0. -1.
         21   -1    0    0  501  502 -0.00000000000E+00 -0.00000000000E+00 -0.15515550596E+03  0.15515550596E+03  0.00000000000E+00 0.  1.
         25    1    1    2    0    0  0.11613097092E+03 -0.95138812621E+02  0.65984610032E+03  0.68815672066E+03  0.12500000000E+03 0.  0.
         25    1    1    2    0    0  0.45495943894E+02 -0.99761759657E+01  0.57484245979E+01  0.13351947192E+03  0.12500000000E+03 0.  0.
         25    1    1    2    0    0 -0.16162691481E+03  0.10511498859E+03  0.94050616380E+02  0.24827996065E+03  0.12500000000E+03 0.  0.
</event>
<event>
 5    0  0.5851292E-005  0.2631281E+03  0.7546771E-02  0.1105278E+00
         21   -1    0    0  502  501  0.00000000000E+00  0.00000000000E+00  0.18958699255E+03  0.18958699255E+03  0.00000000000E+00 0.  1.
         21   -1    0    0  501  502 -0.00000000000E+00 -0.00000000000E+00 -0.36519584204E+03  0.36519584204E+03  0.00000000000E+00 0.  1.
         25    1    1    2    0    0  0.14044518376E+02 -0.10533660220E+03  0.36754077927E+02  0.16813360908E+03  0.12500000000E+03 0.  0.
         25    1    1    2    0    0  0.22845551025E+02  0.69835509283E+02 -0.12653337069E+02  0.14554732735E+03  0.12500000000E+03 0.  0.
         25    1    1    2    0    0 -0.36890069401E+02  0.35501092917E+02 -0.19970959035E+03  0.24110189816E+03  0.12500000000E+03 0.  0.
</event>
<event>
 5    0  0.5851292E-005  0.3119823E+03  0.7546771E-02  0.1079400E+00
         21   -1    0    0  502  501  0.00000000000E+00  0.00000000000E+00  0.16741670791E+04  0.16741670791E+04  0.00000000000E+00 0. -1.
         21   -1    0    0  501  502 -0.00000000000E+00 -0.00000000000E+00 -0.58138138845E+02  0.58138138845E+02  0.00000000000E+00 0. -1.
         25    1    1    2    0    0  0.61273782626E+02  0.60804271986E+02  0.46689748450E+03  0.49098869332E+03  0.12500000000E+03 0.  0.
         25    1    1    2    0    0 -0.10550375823E+03  0.13866460826E+03  0.38707382535E+03  0.44250430829E+03  0.12500000000E+03 0.  0.
         25    1    1    2    0    0  0.44229975600E+02 -0.19946888024E+03  0.76205763045E+03  0.79881221639E+03  0.12500000000E+03 0.  0.
</event>
<event>
 5    0  0.5851292E-005  0.3047724E+03  0.7546771E-02  0.1082879E+00
         21   -1    0    0  502  501  0.00000000000E+00  0.00000000000E+00  0.32871492513E+03  0.32871492513E+03  0.00000000000E+00 0. -1.
         21   -1    0    0  501  502 -0.00000000000E+00 -0.00000000000E+00 -0.28257374459E+03  0.28257374459E+03  0.00000000000E+00 0. -1.
         25    1    1    2    0    0 -0.13003691734E+03  0.13867159735E+03  0.12538533806E+02  0.22786317520E+03  0.12500000000E+03 0.  0.
         25    1    1    2    0    0  0.38326757395E+02 -0.17877261742E+03  0.27394965117E+02  0.22316826204E+03  0.12500000000E+03 0.  0.
         25    1    1    2    0    0  0.91710159945E+02  0.40101020062E+02  0.62076816171E+01  0.16025723247E+03  0.12500000000E+03 0.  0.
</event>
<event>
 5    0  0.6050944E-005  0.2902925E+03  0.7546771E-02  0.1090197E+00
         21   -1    0    0  502  501  0.00000000000E+00  0.00000000000E+00  0.31862684817E+03  0.31862684817E+03  0.00000000000E+00 0.  1.
         21   -1    0    0  501  502 -0.00000000000E+00 -0.00000000000E+00 -0.26447789610E+03  0.26447789610E+03  0.00000000000E+00 0.  1.
         25    1    1    2    0    0  0.83369418457E+02  0.17661260424E+03  0.40520265495E+02  0.23539193662E+03  0.12500000000E+03 0.  0.
         25    1    1    2    0    0 -0.23350025810E+02 -0.85276804238E+02 -0.62093068667E+02  0.16522078024E+03  0.12500000000E+03 0.  0.
         25    1    1    2    0    0 -0.60019392647E+02 -0.91335799998E+02  0.75721755240E+02  0.18249202742E+03  0.12500000000E+03 0.  0.
</event>
<event>
 5    0  0.5851292E-005  0.2407933E+03  0.7546771E-02  0.1119265E+00
         21   -1    0    0  502  501  0.00000000000E+00  0.00000000000E+00  0.56909497657E+03  0.56909497657E+03  0.00000000000E+00 0. -1.
         21   -1    0    0  501  502 -0.00000000000E+00 -0.00000000000E+00 -0.10188351800E+03  0.10188351800E+03  0.00000000000E+00 0. -1.
         25    1    1    2    0    0 -0.48396871336E+02  0.10592463449E+03  0.17362637616E+03  0.24358449015E+03  0.12500000000E+03 0.  0.
         25    1    1    2    0    0 -0.23106979357E+02 -0.82459361895E+01  0.17647475159E+03  0.21764711325E+03  0.12500000000E+03 0.  0.
         25    1    1    2    0    0  0.71503850693E+02 -0.97678698299E+02  0.11711033083E+03  0.20974689116E+03  0.12500000000E+03 0.  0.
</event>
<event>
 5    0  0.5851292E-005  0.4001348E+03  0.7546771E-02  0.1043733E+00
         21   -1    0    0  502  501  0.00000000000E+00  0.00000000000E+00  0.23293637528E+03  0.23293637528E+03  0.00000000000E+00 0.  1.
         21   -1    0    0  501  502 -0.00000000000E+00 -0.00000000000E+00 -0.68734586523E+03  0.68734586523E+03  0.00000000000E+00 0.  1.
         25    1    1    2    0    0  0.27437677254E+02  0.18970217163E+03  0.21366641077E+02  0.22982879150E+03  0.12500000000E+03 0.  0.
         25    1    1    2    0    0 -0.16498094557E+03 -0.39762583720E+02 -0.74601036404E+02  0.22358463744E+03  0.12500000000E+03 0.  0.
         25    1    1    2    0    0  0.13754326831E+03 -0.14993958791E+03 -0.40117509462E+03  0.46686881158E+03  0.12500000000E+03 0.  0.
</event>
<event>
 5    0  0.5851292E-005  0.3463505E+03  0.7546771E-02  0.1064123E+00
         21   -1    0    0  502  501  0.00000000000E+00  0.00000000000E+00  0.13768816165E+04  0.13768816165E+04  0.00000000000E+00 0.  1.
         21   -1    0    0  501  502 -0.00000000000E+00 -0.00000000000E+00 -0.87123439625E+02  0.87123439625E+02  0.00000000000E+00 0.  1.
         25    1    1    2    0    0  0.85472106893E+02 -0.17490911076E+03  0.74456412645E+03  0.77967904709E+03  0.12500000000E+03 0.  0.
         25    1    1    2    0    0 -0.88885095353E+02  0.13579718380E+03  0.50857598253E+03  0.54828456600E+03  0.12500000000E+03 0.  0.
         25    1    1    2    0    0  0.34129884601E+01  0.39111926957E+02  0.36618067868E+02  0.13604144301E+03  0.12500000000E+03 0.  0.
</event>
<event>
 5    0  0.5851292E-005  0.3200301E+03  0.7546771E-02  0.1075635E+00
         21   -1    0    0  502  501  0.00000000000E+00  0.00000000000E+00  0.13925132099E+03  0.13925132099E+03  0.00000000000E+00 0. -1.
         21   -1    0    0  501  502 -0.00000000000E+00 -0.00000000000E+00 -0.73549940850E+03  0.73549940850E+03  0.00000000000E+00 0. -1.
         25    1    1    2    0    0  0.17710172981E+03 -0.74573606759E+02 -0.32777323220E+03  0.39998317124E+03  0.12500000000E+03 0.  0.
         25    1    1    2    0    0 -0.96410829392E+02 -0.75052245927E+02 -0.81587617780E+02  0.19289745208E+03  0.12500000000E+03 0.  0.
         25    1    1    2    0    0 -0.80690900417E+02  0.14962585269E+03 -0.18688723754E+03  0.28187010618E+03  0.12500000000E+03 0.  0.
</event>
<event>
 5    0  0.5851292E-005  0.3272313E+03  0.7546771E-02  0.1072369E+00
         21   -1    0    0  502  501  0.00000000000E+00  0.00000000000E+00  0.13013609188E+03  0.13013609188E+03  0.00000000000E+00 0.  1.
         21   -1    0    0  501  502 -0.00000000000E+00 -0.00000000000E+00 -0.82283342280E+03  0.82283342280E+03  0.00000000000E+00 0.  1.
         25    1    1    2    0    0 -0.82718540068E+02  0.95896053387E+02 -0.57925709024E+03  0.60597210044E+03  0.12500000000E+03 0.  0.
         25    1    1    2    0    0  0.58668529653E+02  0.23730545209E+02 -0.99330801209E+02  0.17174615925E+03  0.12500000000E+03 0.  0.
         25    1    1    2    0    0  0.24050010415E+02 -0.11962659860E+03 -0.14109439473E+02  0.17525125499E+03  0.12500000000E+03 0.  0.
</event>
<event>
 5    0  0.5851292E-005  0.2697651E+03  0.7546771E-02  0.1101414E+00
         21   -1    0    0  502  501  0.00000000000E+00  0.00000000000E+00  0.23900880104E+04  0.23900880104E+04  0.00000000000E+00 0.  1.
         21   -1    0    0  501  502 -0.00000000000E+00 -0.00000000000E+00 -0.30447928911E+02  0.30447928911E+02  0.00000000000E+00 0.  1.
         25    1    1    2    0    0  0.77511989641E+01 -0.88653174447E+02  0.24859347949E+03  0.29213555838E+03  0.12500000000E+03 0.  0.
         25    1    1    2    0    0  0.19074299533E+02  0.29233893059E+02  0.10750399255E+04  0.10828454603E+04  0.12500000000E+03 0.  0.
         25    1    1    2    0    0 -0.26825498497E+02  0.59419281388E+02  0.10360066764E+04  0.10455549206E+04  0.12500000000E+03 0.  0.
</event>
<event>
 5    0  0.5851292E-005  0.3477553E+03  0.7546771E-02  0.1063540E+00
         21   -1    0    0  502  501  0.00000000000E+00  0.00000000000E+00  0.10391379022E+03  0.10391379022E+03  0.00000000000E+00 0. -1.
         21   -1    0    0  501  502 -0.00000000000E+00 -0.00000000000E+00 -0.11637894207E+04  0.11637894207E+04  0.00000000000E+00 0. -1.
         25    1    1    2    0    0  0.13956187120E+03  0.84240416641E+02 -0.61505413452E+03  0.64845242854E+03  0.12500000000E+03 0.  0.
         25    1    1    2    0    0 -0.13550565065E+03 -0.12552268811E+03 -0.43294234684E+03  0.48701314385E+03  0.12500000000E+03 0.  0.
         25    1    1    2    0    0 -0.40562205523E+01  0.41282271469E+02 -0.11879149119E+02  0.13223763854E+03  0.12500000000E+03 0.  0.
</event>
<event>
 5    0  0.5851292E-005  0.3751539E+03  0.7546771E-02  0.1052740E+00
         21   -1    0    0  502  501  0.00000000000E+00  0.00000000000E+00  0.37153590270E+03  0.37153590270E+03  0.00000000000E+00 0.  1.
         21   -1    0    0  501  502 -0.00000000000E+00 -0.00000000000E+00 -0.37880707397E+03  0.37880707397E+03  0.00000000000E+00 0.  1.
         25    1    1    2    0    0 -0.17564092749E+03  0.12897797364E+01  0.21226464643E+03  0.30254368125E+03  0.12500000000E+03 0.  0.
         25    1    1    2    0    0  0.32852020894E+02  0.10400279382E+03 -0.52718708031E+02  0.17406923500E+03  0.12500000000E+03 0.  0.
         25    1    1    2    0    0  0.14278890660E+03 -0.10529257355E+03 -0.16681710967E+03  0.27373006041E+03  0.12500000000E+03 0.  0.
</event>
<event>
 5    0  0.5851292E-005  0.3026562E+03  0.7546771E-02  0.1083920E+00
         21   -1    0    0  502  501  0.00000000000E+00  0.00000000000E+00  0.67543219703E+02  0.67543219703E+02  0.00000000000E+00 0. -1.
         21   -1    0    0  501  502 -0.00000000000E+00 -0.00000000000E+00 -0.13561799392E+04  0.13561799392E+04  0.00000000000E+00 0. -1.
         25    1    1    2    0    0 -0.77787350167E+02  0.10408771080E+03 -0.59785568453E+03  0.62445299496E+03  0.12500000000E+03 0.  0.
         25    1    1    2    0    0 -0.69057050505E+02  0.11947625442E+02 -0.12424238180E+03  0.18966494514E+03  0.12500000000E+03 0.  0.
         25    1    1    2    0    0  0.14684440067E+03 -0.11603533624E+03 -0.56653865314E+03  0.60960521878E+03  0.12500000000E+03 0.  0.
</event>
<event>
 5    0  0.7736596E-005  0.4542468E+03  0.7546771E-02  0.1026463E+00
         21   -1    0    0  502  501  0.00000000000E+00  0.00000000000E+00  0.99980117830E+03  0.99980117830E+03  0.00000000000E+00 0.  1.
         21   -1    0    0  501  502 -0.00000000000E+00 -0.00000000000E+00 -0.20638123056E+03  0.20638123056E+03  0.00000000000E+00 0.  1.
         25    1    1    2    0    0 -0.20944558773E+03  0.20140605145E+02  0.37195981938E+02  0.24755128613E+03  0.12500000000E+03 0.  0.
         25    1    1    2    0    0 -0.60087227602E+01 -0.50894342444E+02  0.68435622442E+03  0.69756346001E+03  0.12500000000E+03 0.  0.
         25    1    1    2    0    0  0.21545431049E+03  0.30753737299E+02  0.71867741380E+02  0.26106766272E+03  0.12500000000E+03 0.  0.
</event>
<event>
 5    0  0.5851292E-005  0.2545832E+03  0.7546771E-02  0.1110442E+00
         21   -1    0    0  502  501  0.00000000000E+00  0.00000000000E+00  0.11489207527E+03  0.11489207527E+03  0.00000000000E+00 0.  1.
         21   -1    0    0  501  502 -0.00000000000E+00 -0.00000000000E+00 -0.56411750317E+03  0.56411750317E+03  0.00000000000E+00 0.  1.
         25    1    1    2    0    0 -0.74121557294E+02  0.96762140746E+02 -0.15531254730E+03  0.23367478359E+03  0.12500000000E+03 0.  0.
         25    1    1    2    0    0  0.69401723267E+02  0.32807888902E+02 -0.85114154229E+02  0.16959474053E+03  0.12500000000E+03 0.  0.
         25    1    1    2    0    0  0.47198340261E+01 -0.12957002965E+03 -0.20879872637E+03  0.27574005431E+03  0.12500000000E+03 0.  0.
</event>
<event>
 5    0  0.5851292E-005  0.3004988E+03  0.7546771E-02  0.1084992E+00
         21   -1    0    0  502  501  0.00000000000E+00  0.00000000000E+00  0.40297838245E+03  0.40297838245E+03  0.00000000000E+00 0.  1.
         21   -1    0    0  501  502 -0.00000000000E+00 -0.00000000000E+00 -0.22408039534E+03  0.22408039534E+03  0.00000000000E+00 0.  1.
         25    1    1    2    0    0 -0.22460017008E+01  0.55063342425E+02  0.10910682856E+03  0.17483225172E+03  0.12500000000E+03 0.  0.
         25    1    1    2    0    0 -0.71771978116E+02 -0.15337383079E+03 -0.76370827907E+02  0.22390232730E+03  0.12500000000E+03 0.  0.
         25    1    1    2    0    0  0.74017979817E+02  0.98310488369E+02  0.14616198645E+03  0.22832419877E+03  0.12500000000E+03 0.  0.
</event>
<event>
 5    0  0.5851292E-005  0.2999698E+03  0.7546771E-02  0.1085256E+00
         21   -1    0    0  502  501  0.00000000000E+00  0.00000000000E+00  0.76945671954E+02  0.76945671954E+02  0.00000000000E+00 0. -1.
         21   -1    0    0  501  502 -0.00000000000E+00 -0.00000000000E+00 -0.11694211332E+04  0.11694211332E+04  0.00000000000E+00 0. -1.
         25    1    1    2    0    0  0.10344599475E+03  0.15586441228E+03 -0.51702019850E+03  0.56385252904E+03  0.12500000000E+03 0.  0.
         25    1    1    2    0    0  0.54157994014E+01  0.14159759349E+02 -0.15562359635E+03  0.20018374911E+03  0.12500000000E+03 0.  0.
         25    1    1    2    0    0 -0.10886179415E+03 -0.17002417163E+03 -0.41983166637E+03  0.48233052698E+03  0.12500000000E+03 0.  0.
</event>
<event>
 5    0  0.5851292E-005  0.3009188E+03  0.7546771E-02  0.1084782E+00
         21   -1    0    0  502  501  0.00000000000E+00  0.00000000000E+00  0.52357983463E+03  0.52357983463E+03  0.00000000000E+00 0. -1.
         21   -1    0    0  501  502 -0.00000000000E+00 -0.00000000000E+00 -0.17294805011E+03  0.17294805011E+03  0.00000000000E+00 0. -1.
         25    1    1    2    0    0 -0.11585552747E+03 -0.62011385858E+02  0.14084074915E+02  0.18191007775E+03  0.12500000000E+03 0.  0.
         25    1    1    2    0    0  0.84402214622E+01 -0.52144095026E+02  0.27204252662E+03  0.30401049369E+03  0.12500000000E+03 0.  0.
         25    1    1    2    0    0  0.10741530601E+03  0.11415548088E+03  0.64505182990E+02  0.21060731330E+03  0.12500000000E+03 0.  0.
</event>
<event>
 5    0  0.5851292E-005  0.2503011E+03  0.7546771E-02  0.1113115E+00
         21   -1    0    0  502  501  0.00000000000E+00  0.00000000000E+00  0.21642164645E+03  0.21642164645E+03  0.00000000000E+00 0. -1.
         21   -1    0    0  501  502 -0.00000000000E+00 -0.00000000000E+00 -0.28948428349E+03  0.28948428349E+03  0.00000000000E+00 0. -1.
         25    1    1    2    0    0 -0.75022876021E+02 -0.17664745553E+02 -0.58751336460E+02  0.15816824807E+03  0.12500000000E+03 0.  0.
         25    1    1    2    0    0 -0.66724710763E+02 -0.44441857451E+02 -0.73777805106E+01  0.14868321144E+03  0.12500000000E+03 0.  0.
         25    1    1    2    0    0  0.14174758678E+03  0.62106603005E+02 -0.69335200748E+01  0.19905447043E+03  0.12500000000E+03 0.  0.
</event>
<event>
 5    0  0.5851292E-005  0.3060211E+03  0.7546771E-02  0.1082269E+00
         21   -1    0    0  502  501  0.00000000000E+00  0.00000000000E+00  0.82636280672E+02  0.82636280672E+02  0.00000000000E+00 0.  1.
         21   -1    0    0  501  502 -0.00000000000E+00 -0.00000000000E+00 -0.11332665110E+04  0.11332665110E+04  0.00000000000E+00 0.  1.
         25    1    1    2    0    0  0.24438423381E+02  0.50567568827E+01 -0.71191047523E+03  0.72323186605E+03  0.12500000000E+03 0.  0.
         25    1    1    2    0    0 -0.86388635750E+02  0.87063143062E+02 -0.24457163519E+03  0.30080437498E+03  0.12500000000E+03 0.  0.
         25    1    1    2    0    0  0.61950212369E+02 -0.92119899944E+02 -0.94148119930E+02  0.19186655067E+03  0.12500000000E+03 0.  0.
</event>
<event>
 5    0  0.5851292E-005  0.3107921E+03  0.7546771E-02  0.1079967E+00
         21   -1    0    0  502  501  0.00000000000E+00  0.00000000000E+00  0.12340947720E+04  0.12340947720E+04  0.00000000000E+00 0.  1.
         21   -1    0    0  501  502 -0.00000000000E+00 -0.00000000000E+00 -0.78269273440E+02  0.78269273440E+02  0.00000000000E+00 0.  1.
         25    1    1    2    0    0  0.14614447959E+03 -0.43897029156E+02  0.51653037142E+03  0.55291390169E+03  0.12500000000E+03 0.  0.
         25    1    1    2    0    0 -0.10847089167E+03  0.90782680738E+01  0.59438772906E+03  0.61706573535E+03  0.12500000000E+03 0.  0.
         25    1    1    2    0    0 -0.37673587916E+02  0.34818761082E+02  0.44907398070E+02  0.14238440839E+03  0.12500000000E+03 0.  0.
</event>
<event>
 5    0  0.5851292E-005  0.3629684E+03  0.7546771E-02  0.1057415E+00
         21   -1    0    0  502  501  0.00000000000E+00  0.00000000000E+00  0.74987224998E+03  0.74987224998E+03  0.00000000000E+00 0.  1.
         21   -1    0    0  501  502 -0.00000000000E+00 -0.00000000000E+00 -0.17569132959E+03  0.17569132959E+03  0.00000000000E+00 0.  1.
         25    1    1    2    0    0 -0.12722128382E+03  0.61095711564E+02 -0.28512486184E+02  0.19067223945E+03  0.12500000000E+03 0.  0.
         25    1    1    2    0    0 -0.57735426680E+02  0.67544086214E+01  0.72780884695E+02  0.15588796845E+03  0.12500000000E+03 0.  0.
         25    1    1    2    0    0  0.18495671050E+03 -0.67850120185E+02  0.52991252188E+03  0.57900337168E+03  0.12500000000E+03 0.  0.
</event>
<event>
 5    0  0.5851292E-005  0.2550637E+03  0.7546771E-02  0.1110146E+00
         21   -1    0    0  502  501  0.00000000000E+00  0.00000000000E+00  0.28159205939E+03  0.28159205939E+03  0.00000000000E+00 0.  1.
         21   -1    0    0  501  502 -0.00000000000E+00 -0.00000000000E+00 -0.23103461416E+03  0.23103461416E+03  0.00000000000E+00 0.  1.
         25    1    1    2    0    0  0.27861596400E+02  0.14860635346E+02  0.12568384001E+03  0.18005147785E+03  0.12500000000E+03 0.  0.
         25    1    1    2    0    0 -0.11125331039E+03 -0.38155071962E+02 -0.32850419663E+02  0.17474913065E+03  0.12500000000E+03 0.  0.
         25    1    1    2    0    0  0.83391713990E+02  0.23294436616E+02 -0.42275975122E+02  0.15782606506E+03  0.12500000000E+03 0.  0.
</event>
<event>
 5    0  0.5851292E-005  0.2573960E+03  0.7546771E-02  0.1108718E+00
         21   -1    0    0  502  501  0.00000000000E+00  0.00000000000E+00  0.40176465021E+03  0.40176465021E+03  0.00000000000E+00 0.  1.
         21   -1    0    0  501  502 -0.00000000000E+00 -0.00000000000E+00 -0.16490426048E+03  0.16490426048E+03  0.00000000000E+00 0. -1.
         25    1    1    2    0    0  0.90946191155E+01  0.26023010344E+02  0.48658967464E-01  0.12800356062E+03  0.12500000000E+03 0.  0.
         25    1    1    2    0    0  0.44557593793E+02  0.95866522096E+02  0.36779795637E+02  0.16779011470E+03  0.12500000000E+03 0.  0.
         25    1    1    2    0    0 -0.53652212908E+02 -0.12188953244E+03  0.20003193512E+03  0.27087523537E+03  0.12500000000E+03 0.  0.
</event>
<event>
 5    0  0.5851292E-005  0.5855039E+03  0.7546771E-02  0.9935946E-01
         21   -1    0    0  502  501  0.00000000000E+00  0.00000000000E+00  0.78218564645E+03  0.78218564645E+03  0.00000000000E+00 0. -1.
         21   -1    0    0  501  502 -0.00000000000E+00 -0.00000000000E+00 -0.43827814516E+03  0.43827814516E+03  0.00000000000E+00 0. -1.
         25    1    1    2    0    0 -0.46942245936E+03  0.10099783599E+03  0.53787256250E+02  0.49907522195E+03  0.12500000000E+03 0.  0.
         25    1    1    2    0    0  0.27820648437E+03 -0.18073798002E+03  0.14776978441E+02  0.35483577111E+03  0.12500000000E+03 0.  0.
         25    1    1    2    0    0  0.19121597499E+03  0.79740144031E+02  0.27534326660E+03  0.36655279855E+03  0.12500000000E+03 0.  0.
</event>
<event>
 5    0  0.5851292E-005  0.3132550E+03  0.7546771E-02  0.1078796E+00
         21   -1    0    0  502  501  0.00000000000E+00  0.00000000000E+00  0.10740477498E+03  0.10740477498E+03  0.00000000000E+00 0. -1.
         21   -1    0    0  501  502 -0.00000000000E+00 -0.00000000000E+00 -0.91363417434E+03  0.91363417434E+03  0.00000000000E+00 0. -1.
         25    1    1    2    0    0  0.74913715901E+02  0.22961013448E+00 -0.32372561880E+03  0.35501463888E+03  0.12500000000E+03 0.  0.
         25    1    1    2    0    0 -0.14025193600E+03  0.10267545553E+03 -0.82260295534E+02  0.22935695094E+03  0.12500000000E+03 0.  0.
         25    1    1    2    0    0  0.65338220102E+02 -0.10290506567E+03 -0.40024348503E+03  0.43666735950E+03  0.12500000000E+03 0.  0.
</event>
<event>
 5    0  0.5851292E-005  0.2115113E+03  0.7546771E-02  0.1140375E+00
         21   -1    0    0  502  501  0.00000000000E+00  0.00000000000E+00  0.53332449063E+03  0.53332449063E+03  0.00000000000E+00 0.  1.
         21   -1    0    0  501  502 -0.00000000000E+00 -0.00000000000E+00 -0.83883343058E+02  0.83883343058E+02  0.00000000000E+00 0.  1.
         25    1    1    2    0    0  0.44266459233E+02 -0.19417195954E+02  0.27706567685E+03  0.30777741340E+03  0.12500000000E+03 0.  0.
         25    1    1    2    0    0 -0.91422134945E+01  0.20626402622E+02  0.80837804283E+02  0.15056154607E+03  0.12500000000E+03 0.  0.
         25    1    1    2    0    0 -0.35124245738E+02 -0.12092066680E+01  0.91537666446E+02  0.15886887423E+03  0.12500000000E+03 0.  0.
</event>
<event>
 5    0  0.5851292E-005  0.2361575E+03  0.7546771E-02  0.1122379E+00
         21   -1    0    0  502  501  0.00000000000E+00  0.00000000000E+00  0.49535495120E+03  0.49535495120E+03  0.00000000000E+00 0.  1.
         21   -1    0    0  501  502 -0.00000000000E+00 -0.00000000000E+00 -0.11258670598E+03  0.11258670598E+03  0.00000000000E+00 0.  1.
         25    1    1    2    0    0 -0.85630886553E+01 -0.60872218463E+02  0.97380779642E+02  0.16996108293E+03  0.12500000000E+03 0.  0.
         25    1    1    2    0    0  0.53950663590E+02  0.16645332171E+02  0.21017215987E+02  0.13876045745E+03  0.12500000000E+03 0.  0.
         25    1    1    2    0    0 -0.45387574935E+02  0.44226886292E+02  0.26437024959E+03  0.29922011680E+03  0.12500000000E+03 0.  0.
</event>
<event>
 5    0  0.5851292E-005  0.2803464E+03  0.7546771E-02  0.1095500E+00
         21   -1    0    0  502  501  0.00000000000E+00  0.00000000000E+00  0.69939414342E+03  0.69939414342E+03  0.00000000000E+00 0. -1.
         21   -1    0    0  501  502 -0.00000000000E+00 -0.00000000000E+00 -0.11237457050E+03  0.11237457050E+03  0.00000000000E+00 0. -1.
         25    1    1    2    0    0 -0.14510835621E+01  0.11280381070E+03  0.34352058909E+03  0.38256790310E+03  0.12500000000E+03 0.  0.
         25    1    1    2    0    0  0.90336494472E+02 -0.84476848895E+02  0.54386423013E+02  0.18406494300E+03  0.12500000000E+03 0.  0.
         25    1    1    2    0    0 -0.88885410910E+02 -0.28326961807E+02  0.18911256080E+03  0.24513586782E+03  0.12500000000E+03 0.  0.
</event>
<event>
 5    0  0.6017223E-005  0.3569003E+03  0.7546771E-02  0.1059818E+00
         21   -1    0    0  502  501  0.00000000000E+00  0.00000000000E+00  0.31654773744E+03  0.31654773744E+03  0.00000000000E+00 0. -1.
         21   -1    0    0  501  502 -0.00000000000E+00 -0.00000000000E+00 -0.40239686582E+03  0.40239686582E+03  0.00000000000E+00 0. -1.
         25    1    1    2    0    0  0.43051087470E+02  0.10579794116E+03  0.17894425226E+03  0.24635877476E+03  0.12500000000E+03 0.  0.
         25    1    1    2    0    0 -0.88698708470E+02  0.31103840548E+02 -0.23059115038E+03  0.27862553439E+03  0.12500000000E+03 0.  0.
         25    1    1    2    0    0  0.45647621000E+02 -0.13690178171E+03 -0.34202230258E+02  0.19396029411E+03  0.12500000000E+03 0.  0.
</event>
<event>
 5    0  0.5967640E-005  0.3527517E+03  0.7546771E-02  0.1061491E+00
         21   -1    0    0  502  501  0.00000000000E+00  0.00000000000E+00  0.25260342146E+03  0.25260342146E+03  0.00000000000E+00 0.  1.
         21   -1    0    0  501  502 -0.00000000000E+00 -0.00000000000E+00 -0.49260524491E+03  0.49260524491E+03  0.00000000000E+00 0.  1.
         25    1    1    2    0    0  0.12914495551E+03 -0.69058262064E+02 -0.13823504988E+03  0.23702614224E+03  0.12500000000E+03 0.  0.
         25    1    1    2    0    0  0.11359552012E+03  0.10778266112E+03  0.29920184937E+02  0.20258643019E+03  0.12500000000E+03 0.  0.
         25    1    1    2    0    0 -0.24274047562E+03 -0.38724399060E+02 -0.13168695850E+03  0.30559609394E+03  0.12500000000E+03 0.  0.
</event>
<event>
 5    0  0.6404093E-005  0.4821660E+03  0.7546771E-02  0.1018542E+00
         21   -1    0    0  502  501  0.00000000000E+00  0.00000000000E+00  0.76112041404E+03  0.76112041404E+03  0.00000000000E+00 0.  1.
         21   -1    0    0  501  502 -0.00000000000E+00 -0.00000000000E+00 -0.30544977260E+03  0.30544977260E+03  0.00000000000E+00 0.  1.
         25    1    1    2    0    0 -0.10633974149E+03  0.19192654681E+03 -0.65070017930E+02  0.26077393893E+03  0.12500000000E+03 0.  0.
         25    1    1    2    0    0  0.14787242213E+03  0.15174435345E+03  0.22984510198E+03  0.33666953075E+03  0.12500000000E+03 0.  0.
         25    1    1    2    0    0 -0.41532680646E+02 -0.34367090027E+03  0.29089555739E+03  0.46912671696E+03  0.12500000000E+03 0.  0.
</event>
<event>
 5    0  0.5851292E-005  0.2779368E+03  0.7546771E-02  0.1096821E+00
         21   -1    0    0  502  501  0.00000000000E+00  0.00000000000E+00  0.77413979975E+03  0.77413979975E+03  0.00000000000E+00 0. -1.
         21   -1    0    0  501  502 -0.00000000000E+00 -0.00000000000E+00 -0.99786725614E+02  0.99786725614E+02  0.00000000000E+00 0. -1.
         25    1    1    2    0    0  0.36723075675E+02 -0.35346777988E+01  0.34023656162E+01  0.13037505254E+03  0.12500000000E+03 0.  0.
         25    1    1    2    0    0  0.62633107965E+00 -0.65452690671E+01  0.10716478179E+03  0.16478022725E+03  0.12500000000E+03 0.  0.
         25    1    1    2    0    0 -0.37349406755E+02  0.10079946866E+02  0.56378592673E+03  0.57877124556E+03  0.12500000000E+03 0.  0.
</event>
<event>
 5    0  0.5851292E-005  0.2374951E+03  0.7546771E-02  0.1121473E+00
         21   -1    0    0  502  501  0.00000000000E+00  0.00000000000E+00  0.25698293572E+03  0.25698293572E+03  0.00000000000E+00 0.  1.
         21   -1    0    0  501  502 -0.00000000000E+00 -0.00000000000E+00 -0.21948508174E+03  0.21948508174E+03  0.00000000000E+00 0.  1.
         25    1    1    2    0    0  0.81722917547E+02 -0.19071633671E+02 -0.11180034647E+02  0.15097137357E+03  0.12500000000E+03 0.  0.
         25    1    1    2    0    0 -0.11865028334E+03 -0.38495874164E+02  0.57604439330E+01  0.17668617597E+03  0.12500000000E+03 0.  0.
         25    1    1    2    0    0  0.36927365798E+02  0.57567507835E+02  0.42917444688E+02  0.14881046792E+03  0.12500000000E+03 0.  0.
</event>
<event>
 5    0  0.5851292E-005  0.2710683E+03  0.7546771E-02  0.1100670E+00
         21   -1    0    0  502  501  0.00000000000E+00  0.00000000000E+00  0.60821502239E+03  0.60821502239E+03  0.00000000000E+00 0. -1.
         21   -1    0    0  501  502 -0.00000000000E+00 -0.00000000000E+00 -0.12080926841E+03  0.12080926841E+03  0.00000000000E+00 0. -1.
         25    1    1    2    0    0  0.13117038021E+03  0.67832334172E+02  0.14001068889E+03  0.23881977976E+03  0.12500000000E+03 0.  0.
         25    1    1    2    0    0 -0.10719811058E+03  0.42988143274E+02  0.12566763515E+03  0.21155795872E+03  0.12500000000E+03 0.  0.
         25    1    1    2    0    0 -0.23972269632E+02 -0.11082047745E+03  0.22172742994E+03  0.27864655232E+03  0.12500000000E+03 0.  0.
</event>
<event>
 5    0  0.5851292E-005  0.2791604E+03  0.7546771E-02  0.1096148E+00
         21   -1    0    0  502  501  0.00000000000E+00  0.00000000000E+00  0.26833184923E+04  0.26833184923E+04  0.00000000000E+00 0. -1.
         21   -1    0    0  501  502 -0.00000000000E+00 -0.00000000000E+00 -0.29042592401E+02  0.29042592401E+02  0.00000000000E+00 0. -1.
         25    1    1    2    0    0 -0.50532713678E+02 -0.10827652985E+03  0.10826997247E+04  0.10964219334E+04  0.12500000000E+03 0.  0.
         25    1    1    2    0    0 -0.15758285569E+02  0.42918719072E+02  0.23312986292E+03  0.26844901378E+03  0.12500000000E+03 0.  0.
         25    1    1    2    0    0  0.66290999247E+02  0.65357810783E+02  0.13384463123E+04  0.13474901376E+04  0.12500000000E+03 0.  0.
</event>
<event>
 5    0  0.5851292E-005  0.4132158E+03  0.7546771E-02  0.1039297E+00
         21   -1    0    0  502  501  0.00000000000E+00  0.00000000000E+00  0.46549834416E+03  0.46549834416E+03  0.00000000000E+00 0.  1.
         21   -1    0    0  501  502 -0.00000000000E+00 -0.00000000000E+00 -0.36680535360E+03  0.36680535360E+03  0.00000000000E+00 0.  1.
         25    1    1    2    0    0  0.24840966958E+01  0.91966728510E+02 -0.13773173635E+03  0.20750682178E+03  0.12500000000E+03 0.  0.
         25    1    1    2    0    0  0.34627023976E+02 -0.28989570718E+03  0.46303525361E+02  0.32094792146E+03  0.12500000000E+03 0.  0.
         25    1    1    2    0    0 -0.37111120672E+02  0.19792897867E+03  0.19012120155E+03  0.30384895451E+03  0.12500000000E+03 0.  0.
</event>
<event>
 5    0  0.5851292E-005  0.3995319E+03  0.7546771E-02  0.1043942E+00
         21   -1    0    0  502  501  0.00000000000E+00  0.00000000000E+00  0.95279204560E+03  0.95279204560E+03  0.00000000000E+00 0.  1.
         21   -1    0    0  501  502 -0.00000000000E+00 -0.00000000000E+00 -0.16753468120E+03  0.16753468120E+03  0.00000000000E+00 0.  1.
         25    1    1    2    0    0  0.48267630672E+02  0.25640765237E+03  0.22047064680E+03  0.36374022938E+03  0.12500000000E+03 0.  0.
         25    1    1    2    0    0 -0.46587746179E+02 -0.32752391338E+03  0.45143360969E+03  0.57346284613E+03  0.12500000000E+03 0.  0.
         25    1    1    2    0    0 -0.16798844930E+01  0.71116261004E+02  0.11335310791E+03  0.18312365129E+03  0.12500000000E+03 0.  0.
</event>
<event>
 5    0  0.5851292E-005  0.2787309E+03  0.7546771E-02  0.1096384E+00
         21   -1    0    0  502  501  0.00000000000E+00  0.00000000000E+00  0.15504190674E+03  0.15504190674E+03  0.00000000000E+00 0.  1.
         21   -1    0    0  501  502 -0.00000000000E+00 -0.00000000000E+00 -0.50109632348E+03  0.50109632348E+03  0.00000000000E+00 0.  1.
         25    1    1    2    0    0  0.89349881497E+02 -0.46284550900E+02 -0.23908551979E+03  0.28794538849E+03  0.12500000000E+03 0.  0.
         25    1    1    2    0    0 -0.14923704334E+03  0.64345672565E+01 -0.11048272740E+03  0.22392974750E+03  0.12500000000E+03 0.  0.
         25    1    1    2    0    0  0.59887161845E+02  0.39849983643E+02  0.35138304592E+01  0.14426309422E+03  0.12500000000E+03 0.  0.
</event>
<event>
 5    0  0.5851292E-005  0.3997129E+03  0.7546771E-02  0.1043879E+00
         21   -1    0    0  502  501  0.00000000000E+00  0.00000000000E+00  0.22315758347E+03  0.22315758347E+03  0.00000000000E+00 0. -1.
         21   -1    0    0  501  502 -0.00000000000E+00 -0.00000000000E+00 -0.71595340609E+03  0.71595340609E+03  0.00000000000E+00 0. -1.
         25    1    1    2    0    0  0.20886788376E+03 -0.11653063015E+03 -0.27291203656E+03  0.38381136034E+03  0.12500000000E+03 0.  0.
         25    1    1    2    0    0 -0.91415974023E+02 -0.16933216161E+01 -0.29554670166E+03  0.33366540202E+03  0.12500000000E+03 0.  0.
         25    1    1    2    0    0 -0.11745190973E+03  0.11822395177E+03  0.75662915591E+02  0.22163422720E+03  0.12500000000E+03 0.  0.
</event>
<event>
 5    0  0.5851292E-005  0.5732418E+03  0.7546771E-02  0.9962531E-01
         21   -1    0    0  502  501  0.00000000000E+00  0.00000000000E+00  0.95386171269E+03  0.95386171269E+03  0.00000000000E+00 0. -1.
         21   -1    0    0  501  502 -0.00000000000E+00 -0.00000000000E+00 -0.34450078715E+03  0.34450078715E+03  0.00000000000E+00 0. -1.
         25    1    1    2    0    0 -0.18469052630E+03 -0.21867438348E+02  0.34551049242E+03  0.41181461331E+03  0.12500000000E+03 0.  0.
         25    1    1    2    0    0  0.45146768622E+03  0.94756508648E+02 -0.95972143928E+01  0.47803658245E+03  0.12500000000E+03 0.  0.
         25    1    1    2    0    0 -0.26677715992E+03 -0.72889070300E+02  0.27344764752E+03  0.40851130408E+03  0.12500000000E+03 0.  0.
</event>
<event>
 5    0  0.5851292E-005  0.2509578E+03  0.7546771E-02  0.1112701E+00
         21   -1    0    0  502  501  0.00000000000E+00  0.00000000000E+00  0.16080172257E+04  0.16080172257E+04  0.00000000000E+00 0. -1.
         21   -1    0    0  501  502 -0.00000000000E+00 -0.00000000000E+00 -0.39166125092E+02  0.39166125092E+02  0.00000000000E+00 0. -1.
         25    1    1    2    0    0  0.24576874649E+02  0.95374859458E+02  0.50000533868E+03  0.52471966352E+03  0.12500000000E+03 0.  0.
         25    1    1    2    0    0 -0.79222472271E+00  0.37882114688E+02  0.23853142944E+03  0.27195206391E+03  0.12500000000E+03 0.  0.
         25    1    1    2    0    0 -0.23784649927E+02 -0.13325697415E+03  0.83031433253E+03  0.85051162340E+03  0.12500000000E+03 0.  0.
</event>
<event>
 5    0  0.5851292E-005  0.2797428E+03  0.7546771E-02  0.1095829E+00
         21   -1    0    0  502  501  0.00000000000E+00  0.00000000000E+00  0.35902063594E+03  0.35902063594E+03  0.00000000000E+00 0. -1.
         21   -1    0    0  501  502 -0.00000000000E+00 -0.00000000000E+00 -0.21797091430E+03  0.21797091430E+03  0.00000000000E+00 0. -1.
         25    1    1    2    0    0  0.55407090510E+02  0.17653092414E+03  0.10998515582E+03  0.24890730676E+03  0.12500000000E+03 0.  0.
         25    1    1    2    0    0 -0.11699475770E+01 -0.34278203002E+02  0.13354960691E+02  0.13030625063E+03  0.12500000000E+03 0.  0.
         25    1    1    2    0    0 -0.54237142933E+02 -0.14225272114E+03  0.17709605131E+02  0.19777799286E+03  0.12500000000E+03 0.  0.
</event>
<event>
 5    0  0.5851292E-005  0.2782177E+03  0.7546771E-02  0.1096666E+00
         21   -1    0    0  502  501  0.00000000000E+00  0.00000000000E+00  0.11142363838E+04  0.11142363838E+04  0.00000000000E+00 0.  1.
         21   -1    0    0  501  502 -0.00000000000E+00 -0.00000000000E+00 -0.69469189159E+02  0.69469189159E+02  0.00000000000E+00 0.  1.
         25    1    1    2    0    0 -0.10723131016E+03  0.49184512510E+02  0.37035117672E+03  0.40829237593E+03  0.12500000000E+03 0.  0.
         25    1    1    2    0    0 -0.34014557643E+02  0.61891940570E+02  0.15247336083E+03  0.20942953040E+03  0.12500000000E+03 0.  0.
         25    1    1    2    0    0  0.14124586780E+03 -0.11107645308E+03  0.52194265712E+03  0.56598366666E+03  0.12500000000E+03 0.  0.
</event>
<event>
 5    0  0.5851292E-005  0.2332613E+03  0.7546771E-02  0.1124365E+00
         21   -1    0    0  502  501  0.00000000000E+00  0.00000000000E+00  0.72378824486E+02  0.72378824486E+02  0.00000000000E+00 0.  1.
         21   -1    0    0  501  502 -0.00000000000E+00 -0.00000000000E+00 -0.75175074754E+03  0.75175074754E+03  0.00000000000E+00 0.  1.
         25    1    1    2    0    0 -0.79571661281E+02  0.23690727828E+02 -0.13574542773E+03  0.20234801955E+03  0.12500000000E+03 0.  0.
         25    1    1    2    0    0  0.36858843453E+02  0.14990361488E+02 -0.40790195689E+03  0.42847671081E+03  0.12500000000E+03 0.  0.
         25    1    1    2    0    0  0.42712817828E+02 -0.38681089317E+02 -0.13572453843E+03  0.19330484166E+03  0.12500000000E+03 0.  0.
</event>
<event>
 5    0  0.5851292E-005  0.3068572E+03  0.7546771E-02  0.1081862E+00
         21   -1    0    0  502  501  0.00000000000E+00  0.00000000000E+00  0.10087823174E+04  0.10087823174E+04  0.00000000000E+00 0. -1.
         21   -1    0    0  501  502 -0.00000000000E+00 -0.00000000000E+00 -0.93341579180E+02  0.93341579180E+02  0.00000000000E+00 0. -1.
         25    1    1    2    0    0 -0.67655583191E+02  0.45064282584E+02  0.20909219477E+03  0.25681240900E+03  0.12500000000E+03 0.  0.
         25    1    1    2    0    0  0.19530547080E+03 -0.12642784745E+03  0.45857934095E+03  0.52919584228E+03  0.12500000000E+03 0.  0.
         25    1    1    2    0    0 -0.12764988761E+03  0.81363564868E+02  0.24776920247E+03  0.31611564527E+03  0.12500000000E+03 0.  0.
</event>
<event>
 5    0  0.5851292E-005  0.3263343E+03  0.7546771E-02  0.1072770E+00
         21   -1    0    0  502  501  0.00000000000E+00  0.00000000000E+00  0.24148925057E+04  0.24148925057E+04  0.00000000000E+00 0. -1.
         21   -1    0    0  501  502 -0.00000000000E+00 -0.00000000000E+00 -0.44098876343E+02  0.44098876343E+02  0.00000000000E+00 0. -1.
         25    1    1    2    0    0 -0.13118013170E+03  0.65704158068E+02  0.28439946185E+03  0.34355977244E+03  0.12500000000E+03 0.  0.
         25    1    1    2    0    0  0.94510877199E+02  0.44364222153E+02  0.13366402678E+04  0.13465261586E+04  0.12500000000E+03 0.  0.
         25    1    1    2    0    0  0.36669254503E+02 -0.11006838022E+03  0.74975389972E+03  0.76890545107E+03  0.12500000000E+03 0.  0.
</event>
<event>
 5    0  0.5851292E-005  0.2545070E+03  0.7546771E-02  0.1110489E+00
         21   -1    0    0  502  501  0.00000000000E+00  0.00000000000E+00  0.23516569920E+03  0.23516569920E+03  0.00000000000E+00 0. -1.
         21   -1    0    0  501  502 -0.00000000000E+00 -0.00000000000E+00 -0.27543911577E+03  0.27543911577E+03  0.00000000000E+00 0. -1.
         25    1    1    2    0    0 -0.72111973344E+02 -0.32272817122E+02  0.86374757918E+02  0.17125206635E+03  0.12500000000E+03 0.  0.
         25    1    1    2    0    0 -0.16119088162E+01 -0.98029131036E+01 -0.13966331840E+03  0.18769533255E+03  0.12500000000E+03 0.  0.
         25    1    1    2    0    0  0.73723882160E+02  0.42075730225E+02  0.13015143909E+02  0.15165741606E+03  0.12500000000E+03 0.  0.
</event>
<event>
 5    0  0.5851292E-005  0.2779772E+03  0.7546771E-02  0.1096799E+00
         21   -1    0    0  502  501  0.00000000000E+00  0.00000000000E+00  0.81336691905E+02  0.81336691905E+02  0.00000000000E+00 0. -1.
         21   -1    0    0  501  502 -0.00000000000E+00 -0.00000000000E+00 -0.95001770959E+03  0.95001770959E+03  0.00000000000E+00 0. -1.
         25    1    1    2    0    0 -0.14450652452E+03 -0.11947580606E+03 -0.49353573166E+03  0.54254872803E+03  0.12500000000E+03 0.  0.
         25    1    1    2    0    0  0.73297655421E+02  0.52793029811E+02 -0.17014255679E+03  0.22963697419E+03  0.12500000000E+03 0.  0.
         25    1    1    2    0    0  0.71208869095E+02  0.66682776253E+02 -0.20500272924E+03  0.25916869927E+03  0.12500000000E+03 0.  0.
</event>
<event>
 5    0  0.5851292E-005  0.3805149E+03  0.7546771E-02  0.1050744E+00
         21   -1    0    0  502  501  0.00000000000E+00  0.00000000000E+00  0.16255906904E+04  0.16255906904E+04  0.00000000000E+00 0. -1.
         21   -1    0    0  501  502 -0.00000000000E+00 -0.00000000000E+00 -0.89070145788E+02  0.89070145788E+02  0.00000000000E+00 0. -1.
         25    1    1    2    0    0  0.17576121718E+03 -0.18497709839E+03  0.55087494380E+03  0.61983605582E+03  0.12500000000E+03 0.  0.
         25    1    1    2    0    0 -0.35577779913E+01 -0.16735849162E+02  0.97250520651E+02  0.15929661076E+03  0.12500000000E+03 0.  0.
         25    1    1    2    0    0 -0.17220343919E+03  0.20171294755E+03  0.88839508013E+03  0.93552816958E+03  0.12500000000E+03 0.  0.
</event>
<event>
 5    0  0.5851292E-005  0.3272683E+03  0.7546771E-02  0.1072352E+00
         21   -1    0    0  502  501  0.00000000000E+00  0.00000000000E+00  0.43474997081E+02  0.43474997081E+02  0.00000000000E+00 0.  1.
         21   -1    0    0  501  502 -0.00000000000E+00 -0.00000000000E+00 -0.24635896418E+04  0.24635896418E+04  0.00000000000E+00 0.  1.
         25    1    1    2    0    0 -0.85807427129E+02 -0.12388963860E+02 -0.13722444774E+04  0.13806506823E+04  0.12500000000E+03 0.  0.
         25    1    1    2    0    0  0.89564305711E+02  0.15625042656E+03 -0.63188645764E+03  0.66883589617E+03  0.12500000000E+03 0.  0.
         25    1    1    2    0    0 -0.37568785825E+01 -0.14386146270E+03 -0.41598370967E+03  0.45757806034E+03  0.12500000000E+03 0.  0.
</event>
<event>
 5    0  0.5851292E-005  0.3158157E+03  0.7546771E-02  0.1077591E+00
         21   -1    0    0  502  501  0.00000000000E+00  0.00000000000E+00  0.13304565698E+04  0.13304565698E+04  0.00000000000E+00 0.  1.
         21   -1    0    0  501  502 -0.00000000000E+00 -0.00000000000E+00 -0.74966408571E+02  0.74966408571E+02  0.00000000000E+00 0.  1.
         25    1    1    2    0    0  0.37444990954E+02 -0.67302897252E+02  0.85933153898E+03  0.87178409094E+03  0.12500000000E+03 0.  0.
         25    1    1    2    0    0 -0.74014117655E+02  0.12070581544E+03  0.32503848154E+03  0.37592951198E+03  0.12500000000E+03 0.  0.
         25    1    1    2    0    0  0.36569126701E+02 -0.53402918188E+02  0.71120140746E+02  0.15770937549E+03  0.12500000000E+03 0.  0.
</event>
<event>
 5    0  0.5851292E-005  0.2431809E+03  0.7546771E-02  0.1117692E+00
         21   -1    0    0  502  501  0.00000000000E+00  0.00000000000E+00  0.11064242899E+04  0.11064242899E+04  0.00000000000E+00 0.  1.
         21   -1    0    0  501  502 -0.00000000000E+00 -0.00000000000E+00 -0.53448692563E+02  0.53448692563E+02  0.00000000000E+00 0.  1.
         25    1    1    2    0    0  0.12925109363E+03 -0.35052375273E+02  0.42728251539E+03  0.46489769001E+03  0.12500000000E+03 0.  0.
         25    1    1    2    0    0 -0.79452478234E+02  0.75285879697E+01  0.20929834038E+03  0.25651544051E+03  0.12500000000E+03 0.  0.
         25    1    1    2    0    0 -0.49798615400E+02  0.27523787303E+02  0.41639474160E+03  0.43845985197E+03  0.12500000000E+03 0.  0.
</event>
<event>
 5    0  0.5851292E-005  0.2297698E+03  0.7546771E-02  0.1126802E+00
         21   -1    0    0  502  501  0.00000000000E+00  0.00000000000E+00  0.70624091802E+02  0.70624091802E+02  0.00000000000E+00 0. -1.
         21   -1    0    0  501  502 -0.00000000000E+00 -0.00000000000E+00 -0.74753781874E+03  0.74753781874E+03  0.00000000000E+00 0. -1.
         25    1    1    2    0    0  0.49298716204E+02  0.66511507462E+02 -0.16736306555E+03  0.22469877560E+03  0.12500000000E+03 0.  0.
         25    1    1    2    0    0  0.49473082676E+01 -0.20167266250E+02 -0.10663325218E+03  0.16561052188E+03  0.12500000000E+03 0.  0.
         25    1    1    2    0    0 -0.54246024471E+02 -0.46344241212E+02 -0.40291740920E+03  0.42785261306E+03  0.12500000000E+03 0.  0.
</event>
<event>
 5    0  0.5851292E-005  0.2248853E+03  0.7546771E-02  0.1130292E+00
         21   -1    0    0  502  501  0.00000000000E+00  0.00000000000E+00  0.79135824203E+03  0.79135824203E+03  0.00000000000E+00 0.  1.
         21   -1    0    0  501  502 -0.00000000000E+00 -0.00000000000E+00 -0.63907095853E+02  0.63907095853E+02  0.00000000000E+00 0.  1.
         25    1    1    2    0    0 -0.43234271910E+02  0.59184235413E+02  0.17872555924E+03  0.23008650876E+03  0.12500000000E+03 0.  0.
         25    1    1    2    0    0  0.68834502946E+02 -0.76744212701E+02  0.22934522148E+03  0.28080614950E+03  0.12500000000E+03 0.  0.
         25    1    1    2    0    0 -0.25600231037E+02  0.17559977288E+02  0.31938036546E+03  0.34437267962E+03  0.12500000000E+03 0.  0.
</event>
<event>
 5    0  0.5851292E-005  0.2740495E+03  0.7546771E-02  0.1098984E+00
         21   -1    0    0  502  501  0.00000000000E+00  0.00000000000E+00  0.18875968411E+03  0.18875968411E+03  0.00000000000E+00 0. -1.
         21   -1    0    0  501  502 -0.00000000000E+00 -0.00000000000E+00 -0.39787689054E+03  0.39787689054E+03  0.00000000000E+00 0. -1.
         25    1    1    2    0    0  0.13888634510E+03  0.15557978930E+02 -0.55794543354E+02  0.19562591503E+03  0.12500000000E+03 0.  0.
         25    1    1    2    0    0 -0.40841917312E+02 -0.60427399605E+01  0.42813278873E+02  0.13842887619E+03  0.12500000000E+03 0.  0.
         25    1    1    2    0    0 -0.98044427793E+02 -0.95152389699E+01 -0.19613594195E+03  0.25258178343E+03  0.12500000000E+03 0.  0.
</event>
<event>
 5    0  0.5851292E-005  0.4285974E+03  0.7546771E-02  0.1034304E+00
         21   -1    0    0  502  501  0.00000000000E+00  0.00000000000E+00  0.10237872455E+03  0.10237872455E+03  0.00000000000E+00 0.  1.
         21   -1    0    0  501  502 -0.00000000000E+00 -0.00000000000E+00 -0.17942765556E+04  0.17942765556E+04  0.00000000000E+00 0.  1.
         25    1    1    2    0    0 -0.11222952602E+03 -0.11237802332E+03 -0.42513346145E+02  0.20653491530E+03  0.12500000000E+03 0.  0.
         25    1    1    2    0    0  0.13610021257E+03  0.13139288738E+03 -0.12537325461E+04  0.12740712915E+04  0.12500000000E+03 0.  0.
         25    1    1    2    0    0 -0.23870686549E+02 -0.19014864056E+02 -0.39565193874E+03  0.41604907326E+03  0.12500000000E+03 0.  0.
</event>
<event>
 5    0  0.5851292E-005  0.5536878E+03  0.7546771E-02  0.1000644E+00
         21   -1    0    0  502  501  0.00000000000E+00  0.00000000000E+00  0.15371360372E+04  0.15371360372E+04  0.00000000000E+00 0.  1.
         21   -1    0    0  501  502 -0.00000000000E+00 -0.00000000000E+00 -0.19944245421E+03  0.19944245421E+03  0.00000000000E+00 0.  1.
         25    1    1    2    0    0 -0.56006689541E-01 -0.49676846586E+03  0.65846842822E+03  0.83425690454E+03  0.12500000000E+03 0.  0.
         25    1    1    2    0    0  0.63378209273E+02  0.10683670798E+03  0.24861029434E+03  0.30473424165E+03  0.12500000000E+03 0.  0.
         25    1    1    2    0    0 -0.63322202583E+02  0.38993175788E+03  0.43061486040E+03  0.59758734520E+03  0.12500000000E+03 0.  0.
</event>
<event>
 5    0  0.5851292E-005  0.2810176E+03  0.7546771E-02  0.1095134E+00
         21   -1    0    0  502  501  0.00000000000E+00  0.00000000000E+00  0.14929791672E+04  0.14929791672E+04  0.00000000000E+00 0. -1.
         21   -1    0    0  501  502 -0.00000000000E+00 -0.00000000000E+00 -0.52894842676E+02  0.52894842676E+02  0.00000000000E+00 0. -1.
         25    1    1    2    0    0  0.78555080004E+02 -0.84572276215E+02  0.16180106452E+03  0.23479343044E+03  0.12500000000E+03 0.  0.
         25    1    1    2    0    0 -0.47784368143E+02  0.10801565462E+02  0.44952431684E+03  0.46914510664E+03  0.12500000000E+03 0.  0.
         25    1    1    2    0    0 -0.30770711861E+02  0.73770710753E+02  0.82875894321E+03  0.84193547284E+03  0.12500000000E+03 0.  0.
</event>
<event>
 5    0  0.5851292E-005  0.2986797E+03  0.7546771E-02  0.1085902E+00
         21   -1    0    0  502  501  0.00000000000E+00  0.00000000000E+00  0.47031741080E+03  0.47031741080E+03  0.00000000000E+00 0.  1.
         21   -1    0    0  501  502 -0.00000000000E+00 -0.00000000000E+00 -0.18967944442E+03  0.18967944442E+03  0.00000000000E+00 0.  1.
         25    1    1    2    0    0  0.23292856170E+01 -0.13547314082E+03 -0.37662356736E+02  0.18815379499E+03  0.12500000000E+03 0.  0.
         25    1    1    2    0    0 -0.56086517228E+02  0.58749527829E+02  0.42724547599E+02  0.15507285837E+03  0.12500000000E+03 0.  0.
         25    1    1    2    0    0  0.53757231611E+02  0.76723612989E+02  0.27557577552E+03  0.31677020187E+03  0.12500000000E+03 0.  0.
</event>
<event>
 5    0  0.5851292E-005  0.3206335E+03  0.7546771E-02  0.1075358E+00
         21   -1    0    0  502  501  0.00000000000E+00  0.00000000000E+00  0.51975701044E+03  0.51975701044E+03  0.00000000000E+00 0.  1.
         21   -1    0    0  501  502 -0.00000000000E+00 -0.00000000000E+00 -0.19779593427E+03  0.19779593427E+03  0.00000000000E+00 0.  1.
         25    1    1    2    0    0 -0.15233400685E+03 -0.16501879765E+02  0.10062555534E+03  0.22187488381E+03  0.12500000000E+03 0.  0.
         25    1    1    2    0    0  0.21794086734E+03  0.67271175012E+02  0.44659626757E+02  0.26389981983E+03  0.12500000000E+03 0.  0.
         25    1    1    2    0    0 -0.65606860493E+02 -0.50769295248E+02  0.17667589408E+03  0.23177824107E+03  0.12500000000E+03 0.  0.
</event>
<event>
 5    0  0.5851292E-005  0.2444351E+03  0.7546771E-02  0.1116873E+00
         21   -1    0    0  502  501  0.00000000000E+00  0.00000000000E+00  0.95935811341E+02  0.95935811341E+02  0.00000000000E+00 0. -1.
         21   -1    0    0  501  502 -0.00000000000E+00 -0.00000000000E+00 -0.62279692618E+03  0.62279692618E+03  0.00000000000E+00 0. -1.
         25    1    1    2    0    0 -0.40644076205E+02 -0.26018188929E+02 -0.12018921289E+03  0.17999814994E+03  0.12500000000E+03 0.  0.
         25    1    1    2    0    0  0.48979385055E+02  0.11964431711E+03 -0.29880858200E+03  0.34874820638E+03  0.12500000000E+03 0.  0.
         25    1    1    2    0    0 -0.83353088494E+01 -0.93626128180E+02 -0.10786331994E+03  0.18998638120E+03  0.12500000000E+03 0.  0.
</event>
<event>
 5    0  0.5851292E-005  0.2672653E+03  0.7546771E-02  0.1102855E+00
         21   -1    0    0  502  501  0.00000000000E+00  0.00000000000E+00  0.43344425861E+03  0.43344425861E+03  0.00000000000E+00 0.  1.
         21   -1    0    0  501  502 -0.00000000000E+00 -0.00000000000E+00 -0.16479798018E+03  0.16479798018E+03  0.00000000000E+00 0.  1.
         25    1    1    2    0    0  0.61975645171E+02 -0.52017952170E+02  0.49662454974E+02  0.15696562482E+03  0.12500000000E+03 0.  0.
         25    1    1    2    0    0  0.65756824655E+02  0.22506890457E+02 -0.16733892293E+02  0.14399841408E+03  0.12500000000E+03 0.  0.
         25    1    1    2    0    0 -0.12773246983E+03  0.29511061712E+02  0.23571771575E+03  0.29727819989E+03  0.12500000000E+03 0.  0.
</event>
<event>
 5    0  0.5851292E-005  0.2444752E+03  0.7546771E-02  0.1116847E+00
         21   -1    0    0  502  501  0.00000000000E+00  0.00000000000E+00  0.96757830571E+02  0.96757830571E+02  0.00000000000E+00 0. -1.
         21   -1    0    0  501  502 -0.00000000000E+00 -0.00000000000E+00 -0.61770826496E+03  0.61770826496E+03  0.00000000000E+00 0. -1.
         25    1    1    2    0    0  0.30742600842E+02 -0.26537802311E+02 -0.40869807078E+03  0.42931162985E+03  0.12500000000E+03 0.  0.
         25    1    1    2    0    0 -0.30533344673E+02  0.36531896856E+02 -0.36501297744E+02  0.13865139510E+03  0.12500000000E+03 0.  0.
         25    1    1    2    0    0 -0.20925616908E+00 -0.99940945456E+01 -0.75751065863E+02  0.14650307059E+03  0.12500000000E+03 0.  0.
</event>
<event>
 5    0  0.5851292E-005  0.2885753E+03  0.7546771E-02  0.1091095E+00
         21   -1    0    0  502  501  0.00000000000E+00  0.00000000000E+00  0.73524360499E+03  0.73524360499E+03  0.00000000000E+00 0.  1.
         21   -1    0    0  501  502 -0.00000000000E+00 -0.00000000000E+00 -0.11326275352E+03  0.11326275352E+03  0.00000000000E+00 0.  1.
         25    1    1    2    0    0 -0.10670202258E+03  0.18205783475E+02  0.20518889068E+03  0.26352277517E+03  0.12500000000E+03 0.  0.
         25    1    1    2    0    0 -0.56377641257E+02  0.12305260405E+01  0.33677356333E+03  0.36362258674E+03  0.12500000000E+03 0.  0.
         25    1    1    2    0    0  0.16307966384E+03 -0.19436309516E+02  0.80018397459E+02  0.22136099660E+03  0.12500000000E+03 0.  0.
</event>
<event>
 5    0  0.5851292E-005  0.3419991E+03  0.7546771E-02  0.1065948E+00
         21   -1    0    0  502  501  0.00000000000E+00  0.00000000000E+00  0.20798976726E+04  0.20798976726E+04  0.00000000000E+00 0.  1.
         21   -1    0    0  501  502 -0.00000000000E+00 -0.00000000000E+00 -0.56235151271E+02  0.56235151271E+02  0.00000000000E+00 0.  1.
         25    1    1    2    0    0  0.10315437757E+03  0.17280595449E+02  0.41856390432E+03  0.44917723294E+03  0.12500000000E+03 0.  0.
         25    1    1    2    0    0 -0.19651177063E+03 -0.16656756489E+03  0.69669050066E+03  0.75323587499E+03  0.12500000000E+03 0.  0.
         25    1    1    2    0    0  0.93357393066E+02  0.14928696944E+03  0.90840811640E+03  0.93371971599E+03  0.12500000000E+03 0.  0.
</event>
<event>
 5    0  0.5851292E-005  0.2809018E+03  0.7546771E-02  0.1095197E+00
         21   -1    0    0  502  501  0.00000000000E+00  0.00000000000E+00  0.61389959221E+02  0.61389959221E+02  0.00000000000E+00 0. -1.
         21   -1    0    0  501  502 -0.00000000000E+00 -0.00000000000E+00 -0.12853211364E+04  0.12853211364E+04  0.00000000000E+00 0. -1.
         25    1    1    2    0    0 -0.25617577364E+02 -0.53814288740E+02 -0.34428342635E+03  0.37109071075E+03  0.12500000000E+03 0.  0.
         25    1    1    2    0    0  0.12010583930E+03 -0.10062958809E+03 -0.46069377145E+03  0.50240967117E+03  0.12500000000E+03 0.  0.
         25    1    1    2    0    0 -0.94488261933E+02  0.15444387683E+03 -0.41895397942E+03  0.47321071374E+03  0.12500000000E+03 0.  0.
</event>
<event>
 5    0  0.5851292E-005  0.2527513E+03  0.7546771E-02  0.1111578E+00
         21   -1    0    0  502  501  0.00000000000E+00  0.00000000000E+00  0.22418685592E+03  0.22418685592E+03  0.00000000000E+00 0.  1.
         21   -1    0    0  501  502 -0.00000000000E+00 -0.00000000000E+00 -0.28495532968E+03  0.28495532968E+03  0.00000000000E+00 0.  1.
         25    1    1    2    0    0 -0.98103081969E+02 -0.19777899323E+02 -0.38240142974E+02  0.16462894195E+03  0.12500000000E+03 0.  0.
         25    1    1    2    0    0  0.11912595242E+03 -0.50370055574E+02  0.43882612057E+02  0.18514539875E+03  0.12500000000E+03 0.  0.
         25    1    1    2    0    0 -0.21022870448E+02  0.70147954898E+02 -0.66410942845E+02  0.15936784490E+03  0.12500000000E+03 0.  0.
</event>
<event>
 5    0  0.5851292E-005  0.3208661E+03  0.7546771E-02  0.1075251E+00
         21   -1    0    0  502  501  0.00000000000E+00  0.00000000000E+00  0.38850796251E+03  0.38850796251E+03  0.00000000000E+00 0. -1.
         21   -1    0    0  501  502 -0.00000000000E+00 -0.00000000000E+00 -0.26500113594E+03  0.26500113594E+03  0.00000000000E+00 0. -1.
         25    1    1    2    0    0  0.97298975121E+01  0.56703829760E+02 -0.12758778256E+03  0.18765297086E+03  0.12500000000E+03 0.  0.
         25    1    1    2    0    0 -0.13839434814E+02  0.28771653226E+02 -0.42209339771E+02  0.13574227915E+03  0.12500000000E+03 0.  0.
         25    1    1    2    0    0  0.41095373021E+01 -0.85475482986E+02  0.29330394890E+03  0.33011384844E+03  0.12500000000E+03 0.  0.
</event>
<event>
 5    0  0.5851292E-005  0.4435812E+03  0.7546771E-02  0.1029654E+00
         21   -1    0    0  502  501  0.00000000000E+00  0.00000000000E+00  0.44891701871E+03  0.44891701871E+03  0.00000000000E+00 0. -1.
         21   -1    0    0  501  502 -0.00000000000E+00 -0.00000000000E+00 -0.43830885706E+03  0.43830885706E+03  0.00000000000E+00 0. -1.
         25    1    1    2    0    0 -0.11685446066E+03  0.32104124707E+03  0.15256582019E+03  0.39449179558E+03  0.12500000000E+03 0.  0.
         25    1    1    2    0    0 -0.41805264093E+02 -0.17571584924E+03 -0.95888093300E+02  0.23967324885E+03  0.12500000000E+03 0.  0.
         25    1    1    2    0    0  0.15865972475E+03 -0.14532539783E+03 -0.46069565245E+02  0.25306083133E+03  0.12500000000E+03 0.  0.
</event>
<event>
 5    0  0.5851292E-005  0.2528737E+03  0.7546771E-02  0.1111502E+00
         21   -1    0    0  502  501  0.00000000000E+00  0.00000000000E+00  0.62855715779E+02  0.62855715779E+02  0.00000000000E+00 0.  1.
         21   -1    0    0  501  502 -0.00000000000E+00 -0.00000000000E+00 -0.10173316555E+04  0.10173316555E+04  0.00000000000E+00 0.  1.
         25    1    1    2    0    0 -0.92636128841E+01  0.88543488468E+02 -0.22756409817E+03  0.27447437522E+03  0.12500000000E+03 0.  0.
         25    1    1    2    0    0 -0.55722338959E+02 -0.12374200760E+03 -0.27596606855E+03  0.33196285108E+03  0.12500000000E+03 0.  0.
         25    1    1    2    0    0  0.64985951843E+02  0.35198519137E+02 -0.45094577302E+03  0.47375014500E+03  0.12500000000E+03 0.  0.
</event>
<event>
 5    0  0.5851292E-005  0.3236128E+03  0.7546771E-02  0.1073999E+00
         21   -1    0    0  502  501  0.00000000000E+00  0.00000000000E+00  0.30808546056E+03  0.30808546056E+03  0.00000000000E+00 0.  1.
         21   -1    0    0  501  502 -0.00000000000E+00 -0.00000000000E+00 -0.33992267981E+03  0.33992267981E+03  0.00000000000E+00 0.  1.
         25    1    1    2    0    0 -0.36082565760E+02  0.33204781569E+02  0.99391385108E+02  0.16705734496E+03  0.12500000000E+03 0.  0.
         25    1    1    2    0    0  0.10300429534E+02  0.76458995500E+02  0.11232770519E+03  0.18491779307E+03  0.12500000000E+03 0.  0.
         25    1    1    2    0    0  0.25782136226E+02 -0.10966377707E+03 -0.24355630955E+03  0.29603300233E+03  0.12500000000E+03 0.  0.
</event>
<event>
 5    0  0.5851292E-005  0.3164315E+03  0.7546771E-02  0.1077303E+00
         21   -1    0    0  502  501  0.00000000000E+00  0.00000000000E+00  0.17555156699E+03  0.17555156699E+03  0.00000000000E+00 0. -1.
         21   -1    0    0  501  502 -0.00000000000E+00 -0.00000000000E+00 -0.57036759438E+03  0.57036759438E+03  0.00000000000E+00 0. -1.
         25    1    1    2    0    0  0.11757236882E+03  0.18741222660E+03 -0.19270432017E+03  0.31891465881E+03  0.12500000000E+03 0.  0.
         25    1    1    2    0    0 -0.11674552684E+03 -0.36849054376E+02 -0.13185209445E+03  0.21908296524E+03  0.12500000000E+03 0.  0.
         25    1    1    2    0    0 -0.82684198680E+00 -0.15056317223E+03 -0.70259612767E+02  0.20792153733E+03  0.12500000000E+03 0.  0.
</event>
<event>
 5    0  0.5851292E-005  0.4614312E+03  0.7546771E-02  0.1024367E+00
         21   -1    0    0  502  501  0.00000000000E+00  0.00000000000E+00  0.12518893611E+04  0.12518893611E+04  0.00000000000E+00 0. -1.
         21   -1    0    0  501  502 -0.00000000000E+00 -0.00000000000E+00 -0.17007791019E+03  0.17007791019E+03  0.00000000000E+00 0. -1.
         25    1    1    2    0    0  0.23326863546E+02  0.90786425793E+02  0.35466064907E+03  0.38755063368E+03  0.12500000000E+03 0.  0.
         25    1    1    2    0    0  0.18752951951E+03  0.64758225797E+02 -0.17533627343E+02  0.23514543709E+03  0.12500000000E+03 0.  0.
         25    1    1    2    0    0 -0.21085638305E+03 -0.15554465159E+03  0.74468442918E+03  0.79927120052E+03  0.12500000000E+03 0.  0.
</event>
<event>
 5    0  0.7614691E-005  0.3615160E+03  0.7546771E-02  0.1057985E+00
         21   -1    0    0  502  501  0.00000000000E+00  0.00000000000E+00  0.56692007410E+03  0.56692007410E+03  0.00000000000E+00 0. -1.
         21   -1    0    0  501  502 -0.00000000000E+00 -0.00000000000E+00 -0.23053300204E+03  0.23053300204E+03  0.00000000000E+00 0.  1.
         25    1    1    2    0    0 -0.11853255920E+03 -0.69383899019E+02  0.31809544924E+03  0.36833925648E+03  0.12500000000E+03 0.  0.
         25    1    1    2    0    0 -0.58844686647E+02 -0.45099639094E+02 -0.78722717278E+02  0.16528442397E+03  0.12500000000E+03 0.  0.
         25    1    1    2    0    0  0.17737724585E+03  0.11448353811E+03  0.97014340100E+02  0.26382939569E+03  0.12500000000E+03 0.  0.
</event>
<event>
 5    0  0.5851292E-005  0.4627416E+03  0.7546771E-02  0.1023989E+00
         21   -1    0    0  502  501  0.00000000000E+00  0.00000000000E+00  0.13088460944E+04  0.13088460944E+04  0.00000000000E+00 0. -1.
         21   -1    0    0  501  502 -0.00000000000E+00 -0.00000000000E+00 -0.16360197454E+03  0.16360197454E+03  0.00000000000E+00 0. -1.
         25    1    1    2    0    0 -0.22455642291E+03  0.23178880905E+02  0.23281194589E+03  0.34754747839E+03  0.12500000000E+03 0.  0.
         25    1    1    2    0    0  0.19981571425E+03 -0.92466457581E+02  0.59971277148E+02  0.26018823863E+03  0.12500000000E+03 0.  0.
         25    1    1    2    0    0  0.24740708658E+02  0.69287576676E+02  0.85246089683E+03  0.86471235192E+03  0.12500000000E+03 0.  0.
</event>
<event>
 5    0  0.5851292E-005  0.4084571E+03  0.7546771E-02  0.1040890E+00
         21   -1    0    0  502  501  0.00000000000E+00  0.00000000000E+00  0.49443626717E+03  0.49443626717E+03  0.00000000000E+00 0.  1.
         21   -1    0    0  501  502 -0.00000000000E+00 -0.00000000000E+00 -0.33742914816E+03  0.33742914816E+03  0.00000000000E+00 0.  1.
         25    1    1    2    0    0  0.84247557817E+02 -0.19789050327E+03 -0.15617978720E+03  0.29372679179E+03  0.12500000000E+03 0.  0.
         25    1    1    2    0    0  0.78822049240E+02  0.17775539252E+03  0.16660418811E+03  0.28494183707E+03  0.12500000000E+03 0.  0.
         25    1    1    2    0    0 -0.16306960706E+03  0.20135110749E+02  0.14658271810E+03  0.25319678647E+03  0.12500000000E+03 0.  0.
</event>
<event>
 5    0  0.5851292E-005  0.5112346E+03  0.7546771E-02  0.1010887E+00
         21   -1    0    0  502  501  0.00000000000E+00  0.00000000000E+00  0.22575030321E+03  0.22575030321E+03  0.00000000000E+00 0.  1.
         21   -1    0    0  501  502 -0.00000000000E+00 -0.00000000000E+00 -0.11577428260E+04  0.11577428260E+04  0.00000000000E+00 0.  1.
         25    1    1    2    0    0  0.65859965762E+02 -0.37686121137E+03 -0.60854596371E+03  0.72959927197E+03  0.12500000000E+03 0.  0.
         25    1    1    2    0    0 -0.20138728921E+03  0.23715533453E+03 -0.21588154617E+03  0.39878482285E+03  0.12500000000E+03 0.  0.
         25    1    1    2    0    0  0.13552732345E+03  0.13970587683E+03 -0.10756501290E+03  0.25510903438E+03  0.12500000000E+03 0.  0.
</event>
<event>
 5    0  0.5851292E-005  0.2241599E+03  0.7546771E-02  0.1130819E+00
         21   -1    0    0  502  501  0.00000000000E+00  0.00000000000E+00  0.42050533014E+03  0.42050533014E+03  0.00000000000E+00 0. -1.
         21   -1    0    0  501  502 -0.00000000000E+00 -0.00000000000E+00 -0.11949356626E+03  0.11949356626E+03  0.00000000000E+00 0. -1.
         25    1    1    2    0    0 -0.24757208218E+02 -0.84312733858E+02  0.15258476328E+03  0.21593671859E+03  0.12500000000E+03 0.  0.
         25    1    1    2    0    0  0.56957647510E+02  0.39880462951E+02  0.36736255806E+02  0.14767930602E+03  0.12500000000E+03 0.  0.
         25    1    1    2    0    0 -0.32200439292E+02  0.44432270907E+02  0.11169074480E+03  0.17638287180E+03  0.12500000000E+03 0.  0.
</event>
<event>
 5    0  0.5851292E-005  0.3122777E+03  0.7546771E-02  0.1079259E+00
         21   -1    0    0  502  501  0.00000000000E+00  0.00000000000E+00  0.21423756394E+03  0.21423756394E+03  0.00000000000E+00 0.  1.
         21   -1    0    0  501  502 -0.00000000000E+00 -0.00000000000E+00 -0.45518325959E+03  0.45518325959E+03  0.00000000000E+00 0.  1.
         25    1    1    2    0    0  0.13275559943E+02 -0.36336307818E+02 -0.10974130285E+03  0.17077681725E+03  0.12500000000E+03 0.  0.
         25    1    1    2    0    0  0.15986744792E+03 -0.20848673628E+02  0.53123583718E+02  0.21080650664E+03  0.12500000000E+03 0.  0.
         25    1    1    2    0    0 -0.17314300786E+03  0.57184981446E+02 -0.18432797651E+03  0.28783749964E+03  0.12500000000E+03 0.  0.
</event>
<event>
 5    0  0.6046573E-005  0.3188995E+03  0.7546771E-02  0.1076157E+00
         21   -1    0    0  502  501  0.00000000000E+00  0.00000000000E+00  0.21820504621E+03  0.21820504621E+03  0.00000000000E+00 0. -1.
         21   -1    0    0  501  502 -0.00000000000E+00 -0.00000000000E+00 -0.46606114801E+03  0.46606114801E+03  0.00000000000E+00 0. -1.
         25    1    1    2    0    0  0.55061628556E+02 -0.79354155894E+02  0.66918859266E+02  0.17155756679E+03  0.12500000000E+03 0.  0.
         25    1    1    2    0    0  0.52219940293E+02 -0.66315461671E+02 -0.23409777287E+03  0.27848057362E+03  0.12500000000E+03 0.  0.
         25    1    1    2    0    0 -0.10728156885E+03  0.14566961756E+03 -0.80677188190E+02  0.23422805381E+03  0.12500000000E+03 0.  0.
</event>
<event>
 5    0  0.5851292E-005  0.4036877E+03  0.7546771E-02  0.1042510E+00
         21   -1    0    0  502  501  0.00000000000E+00  0.00000000000E+00  0.23887913884E+03  0.23887913884E+03  0.00000000000E+00 0. -1.
         21   -1    0    0  501  502 -0.00000000000E+00 -0.00000000000E+00 -0.68220187288E+03  0.68220187288E+03  0.00000000000E+00 0. -1.
         25    1    1    2    0    0 -0.48943681791E+02  0.26268357413E+03 -0.12807597889E+03  0.32160006292E+03  0.12500000000E+03 0.  0.
         25    1    1    2    0    0 -0.61732717507E+02  0.36177767036E+01 -0.23794923975E+03  0.27580583282E+03  0.12500000000E+03 0.  0.
         25    1    1    2    0    0  0.11067639930E+03 -0.26630135083E+03 -0.77297515387E+02  0.32367511597E+03  0.12500000000E+03 0.  0.
</event>
<event>
 5    0  0.5851292E-005  0.2861235E+03  0.7546771E-02  0.1092391E+00
         21   -1    0    0  502  501  0.00000000000E+00  0.00000000000E+00  0.25816731304E+03  0.25816731304E+03  0.00000000000E+00 0.  1.
         21   -1    0    0  501  502 -0.00000000000E+00 -0.00000000000E+00 -0.31710697332E+03  0.31710697332E+03  0.00000000000E+00 0.  1.
         25    1    1    2    0    0  0.71563041570E+02  0.19364282574E+02 -0.80321257943E+02  0.16605044064E+03  0.12500000000E+03 0.  0.
         25    1    1    2    0    0 -0.98622253381E+01 -0.16352763938E+03  0.31356804489E+02  0.20843896353E+03  0.12500000000E+03 0.  0.
         25    1    1    2    0    0 -0.61700816232E+02  0.14416335680E+03 -0.99752068280E+01  0.20078488220E+03  0.12500000000E+03 0.  0.
</event>
<event>
 5    0  0.5927072E-005  0.3576136E+03  0.7546771E-02  0.1059533E+00
         21   -1    0    0  502  501  0.00000000000E+00  0.00000000000E+00  0.32626377243E+03  0.32626377243E+03  0.00000000000E+00 0.  1.
         21   -1    0    0  501  502 -0.00000000000E+00 -0.00000000000E+00 -0.39197566636E+03  0.39197566636E+03  0.00000000000E+00 0.  1.
         25    1    1    2    0    0 -0.25377219159E+02  0.11029580674E+03  0.75331943982E+02  0.18468640995E+03  0.12500000000E+03 0.  0.
         25    1    1    2    0    0 -0.58224633976E+01 -0.11858113093E+03  0.14142295010E+03  0.22298169546E+03  0.12500000000E+03 0.  0.
         25    1    1    2    0    0  0.31199682556E+02  0.82853241945E+01 -0.28246678801E+03  0.31057133338E+03  0.12500000000E+03 0.  0.
</event>
<event>
 5    0  0.5851292E-005  0.4064731E+03  0.7546771E-02  0.1041561E+00
         21   -1    0    0  502  501  0.00000000000E+00  0.00000000000E+00  0.69097385632E+03  0.69097385632E+03  0.00000000000E+00 0.  1.
         21   -1    0    0  501  502 -0.00000000000E+00 -0.00000000000E+00 -0.23911230085E+03  0.23911230085E+03  0.00000000000E+00 0.  1.
         25    1    1    2    0    0  0.63492447743E+02 -0.26758206679E+03  0.11853129536E+03  0.32450904666E+03  0.12500000000E+03 0.  0.
         25    1    1    2    0    0 -0.13522902792E+03  0.10767472915E+03  0.32673297522E+03  0.39020529774E+03  0.12500000000E+03 0.  0.
         25    1    1    2    0    0  0.71736580179E+02  0.15990733764E+03  0.65972848942E+01  0.21537181277E+03  0.12500000000E+03 0.  0.
</event>
<event>
 5    0  0.5851292E-005  0.3099090E+03  0.7546771E-02  0.1080389E+00
         21   -1    0    0  502  501  0.00000000000E+00  0.00000000000E+00  0.26433348396E+03  0.26433348396E+03  0.00000000000E+00 0.  1.
         21   -1    0    0  501  502 -0.00000000000E+00 -0.00000000000E+00 -0.36334255025E+03  0.36334255025E+03  0.00000000000E+00 0.  1.
         25    1    1    2    0    0  0.11539965807E+03 -0.60768596123E+02  0.24256145359E+02  0.18227249915E+03  0.12500000000E+03 0.  0.
         25    1    1    2    0    0 -0.30140025424E+01  0.16773790568E+03 -0.12952340450E+03  0.24606178397E+03  0.12500000000E+03 0.  0.
         25    1    1    2    0    0 -0.11238565553E+03 -0.10696930956E+03  0.62581928537E+01  0.19934175111E+03  0.12500000000E+03 0.  0.
</event>
<event>
 5    0  0.5851292E-005  0.3200897E+03  0.7546771E-02  0.1075608E+00
         21   -1    0    0  502  501  0.00000000000E+00  0.00000000000E+00  0.15339391811E+03  0.15339391811E+03  0.00000000000E+00 0. -1.
         21   -1    0    0  501  502 -0.00000000000E+00 -0.00000000000E+00 -0.66793655288E+03  0.66793655288E+03  0.00000000000E+00 0. -1.
         25    1    1    2    0    0 -0.89271056311E+02  0.14558240041E+03 -0.94332770105E+02  0.23170504595E+03  0.12500000000E+03 0.  0.
         25    1    1    2    0    0 -0.82695937391E+02 -0.68159198928E+02 -0.85249919037E+02  0.18540993273E+03  0.12500000000E+03 0.  0.
         25    1    1    2    0    0  0.17196699370E+03 -0.77423201480E+02 -0.33495994563E+03  0.40421549231E+03  0.12500000000E+03 0.  0.
</event>
<event>
 5    0  0.5851292E-005  0.2666631E+03  0.7546771E-02  0.1103205E+00
         21   -1    0    0  502  501  0.00000000000E+00  0.00000000000E+00  0.17520830062E+03  0.17520830062E+03  0.00000000000E+00 0. -1.
         21   -1    0    0  501  502 -0.00000000000E+00 -0.00000000000E+00 -0.40585514703E+03  0.40585514703E+03  0.00000000000E+00 0. -1.
         25    1    1    2    0    0  0.11487720213E+03 -0.87422757837E+02 -0.11576239411E+03  0.22330571432E+03  0.12500000000E+03 0.  0.
         25    1    1    2    0    0 -0.10668549465E+03 -0.27865585747E+02 -0.75664979270E+02  0.18305320190E+03  0.12500000000E+03 0.  0.
         25    1    1    2    0    0 -0.81917074778E+01  0.11528834358E+03 -0.39219473021E+02  0.17470453143E+03  0.12500000000E+03 0.  0.
</event>
<event>
 5    0  0.5851292E-005  0.2497137E+03  0.7546771E-02  0.1113486E+00
         21   -1    0    0  502  501  0.00000000000E+00  0.00000000000E+00  0.52122834080E+03  0.52122834080E+03  0.00000000000E+00 0. -1.
         21   -1    0    0  501  502 -0.00000000000E+00 -0.00000000000E+00 -0.11963458392E+03  0.11963458392E+03  0.00000000000E+00 0. -1.
         25    1    1    2    0    0 -0.60416324174E+02  0.80199277319E+02  0.14015003446E+02  0.16094557040E+03  0.12500000000E+03 0.  0.
         25    1    1    2    0    0  0.17331119127E+01 -0.48646055478E+02  0.13489711594E+03  0.19024109514E+03  0.12500000000E+03 0.  0.
         25    1    1    2    0    0  0.58683212261E+02 -0.31553221841E+02  0.25268163749E+03  0.28967625919E+03  0.12500000000E+03 0.  0.
</event>
<event>
 5    0  0.5851292E-005  0.3149164E+03  0.7546771E-02  0.1078013E+00
         21   -1    0    0  502  501  0.00000000000E+00  0.00000000000E+00  0.31680781406E+03  0.31680781406E+03  0.00000000000E+00 0. -1.
         21   -1    0    0  501  502 -0.00000000000E+00 -0.00000000000E+00 -0.31303628926E+03  0.31303628926E+03  0.00000000000E+00 0. -1.
         25    1    1    2    0    0  0.20872529609E+03  0.48078207555E+02 -0.25805065937E+02  0.24933644879E+03  0.12500000000E+03 0.  0.
         25    1    1    2    0    0 -0.21032539405E+03 -0.62724693280E+02  0.72882606140E+01  0.25268414527E+03  0.12500000000E+03 0.  0.
         25    1    1    2    0    0  0.16000979649E+01  0.14646485724E+02  0.22288330125E+02  0.12782350925E+03  0.12500000000E+03 0.  0.
</event>
<event>
 5    0  0.5851292E-005  0.2304465E+03  0.7546771E-02  0.1126326E+00
         21   -1    0    0  502  501  0.00000000000E+00  0.00000000000E+00  0.29741733114E+03  0.29741733114E+03  0.00000000000E+00 0. -1.
         21   -1    0    0  501  502 -0.00000000000E+00 -0.00000000000E+00 -0.17855584733E+03  0.17855584733E+03  0.00000000000E+00 0. -1.
         25    1    1    2    0    0 -0.30205507737E+02  0.19233010487E+02 -0.29416868332E+02  0.13331404102E+03  0.12500000000E+03 0.  0.
         25    1    1    2    0    0  0.95715630709E+02  0.26071590713E+01  0.37341101544E+02  0.16182594695E+03  0.12500000000E+03 0.  0.
         25    1    1    2    0    0 -0.65510122973E+02 -0.21840169558E+02  0.11093725059E+03  0.18083319050E+03  0.12500000000E+03 0.  0.
</event>
<event>
 5    0  0.5851292E-005  0.2240489E+03  0.7546771E-02  0.1130900E+00
         21   -1    0    0  502  501  0.00000000000E+00  0.00000000000E+00  0.21564030675E+03  0.21564030675E+03  0.00000000000E+00 0.  1.
         21   -1    0    0  501  502 -0.00000000000E+00 -0.00000000000E+00 -0.23278541530E+03  0.23278541530E+03  0.00000000000E+00 0.  1.
         25    1    1    2    0    0  0.31929554385E+01  0.24007476877E+02  0.37731456052E+02  0.13279765317E+03  0.12500000000E+03 0.  0.
         25    1    1    2    0    0  0.70147077236E+02  0.40267557877E+02 -0.49843537928E+02  0.15700785629E+03  0.12500000000E+03 0.  0.
         25    1    1    2    0    0 -0.73340032675E+02 -0.64275034754E+02 -0.50330266771E+01  0.15862021259E+03  0.12500000000E+03 0.  0.
</event>
<event>
 5    0  0.5851292E-005  0.2657566E+03  0.7546771E-02  0.1103733E+00
         21   -1    0    0  502  501  0.00000000000E+00  0.00000000000E+00  0.25092248159E+03  0.25092248159E+03  0.00000000000E+00 0.  1.
         21   -1    0    0  501  502 -0.00000000000E+00 -0.00000000000E+00 -0.28146778360E+03  0.28146778360E+03  0.00000000000E+00 0.  1.
         25    1    1    2    0    0  0.56963915034E+02  0.73907855649E+02  0.30117549559E+02  0.15886889417E+03  0.12500000000E+03 0.  0.
         25    1    1    2    0    0 -0.34220369185E+02 -0.15439169223E+03  0.20507413317E+02  0.20261634262E+03  0.12500000000E+03 0.  0.
         25    1    1    2    0    0 -0.22743545849E+02  0.80483836579E+02 -0.81170264886E+02  0.17090502839E+03  0.12500000000E+03 0.  0.
</event>
<event>
 5    0  0.5851292E-005  0.2718274E+03  0.7546771E-02  0.1100238E+00
         21   -1    0    0  502  501  0.00000000000E+00  0.00000000000E+00  0.69110065826E+03  0.69110065826E+03  0.00000000000E+00 0.  1.
         21   -1    0    0  501  502 -0.00000000000E+00 -0.00000000000E+00 -0.10691660247E+03  0.10691660247E+03  0.00000000000E+00 0.  1.
         25    1    1    2    0    0  0.11623610973E+03 -0.45245929802E+02  0.16486318953E+03  0.24158414400E+03  0.12500000000E+03 0.  0.
         25    1    1    2    0    0 -0.17614531922E+03  0.44681673374E+02  0.20455060286E+03  0.30081485095E+03  0.12500000000E+03 0.  0.
         25    1    1    2    0    0  0.59909209485E+02  0.56425642768E+00  0.21477026340E+03  0.25561826579E+03  0.12500000000E+03 0.  0.
</event>
<event>
 5    0  0.5851292E-005  0.2209734E+03  0.7546771E-02  0.1133159E+00
         21   -1    0    0  502  501  0.00000000000E+00  0.00000000000E+00  0.25645324218E+03  0.25645324218E+03  0.00000000000E+00 0. -1.
         21   -1    0    0  501  502 -0.00000000000E+00 -0.00000000000E+00 -0.19040221457E+03  0.19040221457E+03  0.00000000000E+00 0. -1.
         25    1    1    2    0    0 -0.20608091674E+02  0.57227688601E+02  0.33372381273E+02  0.14296299387E+03  0.12500000000E+03 0.  0.
         25    1    1    2    0    0 -0.32444913600E+02 -0.79112118501E+02 -0.27214356817E+02  0.15387339253E+03  0.12500000000E+03 0.  0.
         25    1    1    2    0    0  0.53053005274E+02  0.21884429899E+02  0.59893003156E+02  0.15001907035E+03  0.12500000000E+03 0.  0.
</event>
<event>
 5    0  0.5851292E-005  0.2349727E+03  0.7546771E-02  0.1123188E+00
         21   -1    0    0  502  501  0.00000000000E+00  0.00000000000E+00  0.56996332075E+03  0.56996332075E+03  0.00000000000E+00 0. -1.
         21   -1    0    0  501  502 -0.00000000000E+00 -0.00000000000E+00 -0.96869715554E+02  0.96869715554E+02  0.00000000000E+00 0. -1.
         25    1    1    2    0    0 -0.43541896050E+00 -0.82972185630E+02  0.20655198997E+03  0.25529061428E+03  0.12500000000E+03 0.  0.
         25    1    1    2    0    0 -0.74828742008E+02  0.12574197945E+02  0.88940217174E+02  0.17115143387E+03  0.12500000000E+03 0.  0.
         25    1    1    2    0    0  0.75264160968E+02  0.70397987685E+02  0.17760139805E+03  0.24039098815E+03  0.12500000000E+03 0.  0.
</event>
<event>
 5    0  0.5851292E-005  0.3214426E+03  0.7546771E-02  0.1074987E+00
         21   -1    0    0  502  501  0.00000000000E+00  0.00000000000E+00  0.30554270308E+03  0.30554270308E+03  0.00000000000E+00 0. -1.
         21   -1    0    0  501  502 -0.00000000000E+00 -0.00000000000E+00 -0.33816988241E+03  0.33816988241E+03  0.00000000000E+00 0. -1.
         25    1    1    2    0    0 -0.89068836190E+01 -0.13530601937E+03  0.16570308348E+03  0.24793056151E+03  0.12500000000E+03 0.  0.
         25    1    1    2    0    0  0.17749378455E+01  0.14108337464E+03 -0.38030511351E+02  0.19229921684E+03  0.12500000000E+03 0.  0.
         25    1    1    2    0    0  0.71319457735E+01 -0.57773552720E+01 -0.16029975147E+03  0.20348280715E+03  0.12500000000E+03 0.  0.
</event>
<event>
 5    0  0.5851292E-005  0.2470635E+03  0.7546771E-02  0.1115175E+00
         21   -1    0    0  502  501  0.00000000000E+00  0.00000000000E+00  0.22129371603E+02  0.22129371603E+02  0.00000000000E+00 0. -1.
         21   -1    0    0  501  502 -0.00000000000E+00 -0.00000000000E+00 -0.27583421846E+04  0.27583421846E+04  0.00000000000E+00 0. -1.
         25    1    1    2    0    0 -0.58230776814E+02  0.62083493545E+01 -0.40518727101E+03  0.42805500997E+03  0.12500000000E+03 0.  0.
         25    1    1    2    0    0  0.42051081602E+02 -0.39300441728E+02 -0.18143195205E+04  0.18195310221E+04  0.12500000000E+03 0.  0.
         25    1    1    2    0    0  0.16179695212E+02  0.33092092373E+02 -0.51670602155E+03  0.53288552412E+03  0.12500000000E+03 0.  0.
</event>
<event>
 5    0  0.6763175E-005  0.2828201E+03  0.7546771E-02  0.1094159E+00
         21   -1    0    0  502  501  0.00000000000E+00  0.00000000000E+00  0.79695232541E+03  0.79695232541E+03  0.00000000000E+00 0.  1.
         21   -1    0    0  501  502 -0.00000000000E+00 -0.00000000000E+00 -0.10036634358E+03  0.10036634358E+03  0.00000000000E+00 0.  1.
         25    1    1    2    0    0 -0.83824792157E+02  0.14114673341E+03  0.42256345954E+03  0.47024873575E+03  0.12500000000E+03 0.  0.
         25    1    1    2    0    0  0.60410072931E+02 -0.42827625254E+02  0.54914456920E+02  0.15531960589E+03  0.12500000000E+03 0.  0.
         25    1    1    2    0    0  0.23414719226E+02 -0.98319108160E+02  0.21910806537E+03  0.27175032735E+03  0.12500000000E+03 0.  0.
</event>
<event>
 5    0  0.6267659E-005  0.2636387E+03  0.7546771E-02  0.1104977E+00
         21   -1    0    0  502  501  0.00000000000E+00  0.00000000000E+00  0.47720476363E+03  0.47720476363E+03  0.00000000000E+00 0. -1.
         21   -1    0    0  501  502 -0.00000000000E+00 -0.00000000000E+00 -0.14565102304E+03  0.14565102304E+03  0.00000000000E+00 0. -1.
         25    1    1    2    0    0  0.62811526874E+02  0.26826318851E+02  0.22274670011E+02  0.14417385413E+03  0.12500000000E+03 0.  0.
         25    1    1    2    0    0  0.13824803559E+02 -0.65263283464E+02  0.85893638407E+01  0.14194787259E+03  0.12500000000E+03 0.  0.
         25    1    1    2    0    0 -0.76636330434E+02  0.38436964614E+02  0.30068970674E+03  0.33673405995E+03  0.12500000000E+03 0.  0.
</event>
<event>
 5    0  0.5851292E-005  0.2915344E+03  0.7546771E-02  0.1089551E+00
         21   -1    0    0  502  501  0.00000000000E+00  0.00000000000E+00  0.22069561537E+03  0.22069561537E+03  0.00000000000E+00 0. -1.
         21   -1    0    0  501  502 -0.00000000000E+00 -0.00000000000E+00 -0.38511108227E+03  0.38511108227E+03  0.00000000000E+00 0. -1.
         25    1    1    2    0    0 -0.89459405569E+02  0.31959432563E+02 -0.55677807113E+02  0.16658153793E+03  0.12500000000E+03 0.  0.
         25    1    1    2    0    0  0.15121643444E+03 -0.38138079183E+02 -0.19164155388E+03  0.27689783008E+03  0.12500000000E+03 0.  0.
         25    1    1    2    0    0 -0.61757028867E+02  0.61786466202E+01  0.82903894102E+02  0.16232732963E+03  0.12500000000E+03 0.  0.
</event>
<event>
 5    0  0.5851292E-005  0.7021962E+03  0.7546771E-02  0.9713484E-01
         21   -1    0    0  502  501  0.00000000000E+00  0.00000000000E+00  0.99425479270E+03  0.99425479270E+03  0.00000000000E+00 0. -1.
         21   -1    0    0  501  502 -0.00000000000E+00 -0.00000000000E+00 -0.49592867768E+03  0.49592867768E+03  0.00000000000E+00 0. -1.
         25    1    1    2    0    0  0.12391265875E+03 -0.47281068793E+03 -0.47440350530E+02  0.50673452663E+03  0.12500000000E+03 0.  0.
         25    1    1    2    0    0 -0.30141556347E+03  0.33791698682E+02  0.20598033607E+03  0.38735787026E+03  0.12500000000E+03 0.  0.
         25    1    1    2    0    0  0.17750290472E+03  0.43901898925E+03  0.33978612947E+03  0.59609107349E+03  0.12500000000E+03 0.  0.
</event>
<event>
 5    0  0.5851292E-005  0.3463794E+03  0.7546771E-02  0.1064111E+00
         21   -1    0    0  502  501  0.00000000000E+00  0.00000000000E+00  0.90483593759E+03  0.90483593759E+03  0.00000000000E+00 0. -1.
         21   -1    0    0  501  502 -0.00000000000E+00 -0.00000000000E+00 -0.13259713874E+03  0.13259713874E+03  0.00000000000E+00 0. -1.
         25    1    1    2    0    0 -0.16601240611E+03  0.18375081367E+03  0.48856737920E+03  0.56182520817E+03  0.12500000000E+03 0.  0.
         25    1    1    2    0    0  0.16637138500E+03 -0.99841773465E+02  0.18212384343E+03  0.29401005395E+03  0.12500000000E+03 0.  0.
         25    1    1    2    0    0 -0.35897888253E+00 -0.83909040208E+02  0.10154757622E+03  0.18159781422E+03  0.12500000000E+03 0.  0.
</event>
<event>
 5    0  0.5851292E-005  0.3007195E+03  0.7546771E-02  0.1084881E+00
         21   -1    0    0  502  501  0.00000000000E+00  0.00000000000E+00  0.29851382753E+03  0.29851382753E+03  0.00000000000E+00 0.  1.
         21   -1    0    0  501  502 -0.00000000000E+00 -0.00000000000E+00 -0.30294156890E+03  0.30294156890E+03  0.00000000000E+00 0.  1.
         25    1    1    2    0    0  0.15938850222E+03 -0.10504799985E+03 -0.87706395568E+02  0.24445283540E+03  0.12500000000E+03 0.  0.
         25    1    1    2    0    0 -0.10960539983E+02  0.83102570056E+02  0.20623080331E+02  0.15190945339E+03  0.12500000000E+03 0.  0.
         25    1    1    2    0    0 -0.14842796224E+03  0.21945429799E+02  0.62655573870E+02  0.20509310764E+03  0.12500000000E+03 0.  0.
</event>
<event>
 5    0  0.5851292E-005  0.2980118E+03  0.7546771E-02  0.1086239E+00
         21   -1    0    0  502  501  0.00000000000E+00  0.00000000000E+00  0.21345066425E+03  0.21345066425E+03  0.00000000000E+00 0. -1.
         21   -1    0    0  501  502 -0.00000000000E+00 -0.00000000000E+00 -0.41607287863E+03  0.41607287863E+03  0.00000000000E+00 0. -1.
         25    1    1    2    0    0 -0.11187328370E+03 -0.10297946051E+03 -0.20926018364E+03  0.28728944524E+03  0.12500000000E+03 0.  0.
         25    1    1    2    0    0 -0.37541542753E+01  0.11528923097E+03  0.18536128619E+02  0.17109730716E+03  0.12500000000E+03 0.  0.
         25    1    1    2    0    0  0.11562743797E+03 -0.12309770461E+02 -0.11898159367E+02  0.17113679049E+03  0.12500000000E+03 0.  0.
</event>
<event>
 5    0  0.5851292E-005  0.4274542E+03  0.7546771E-02  0.1034667E+00
         21   -1    0    0  502  501  0.00000000000E+00  0.00000000000E+00  0.79160998350E+03  0.79160998350E+03  0.00000000000E+00 0. -1.
         21   -1    0    0  501  502 -0.00000000000E+00 -0.00000000000E+00 -0.23081708576E+03  0.23081708576E+03  0.00000000000E+00 0. -1.
         25    1    1    2    0    0 -0.22635650015E+02 -0.37285152814E+02  0.17062088279E+03  0.21596073930E+03  0.12500000000E+03 0.  0.
         25    1    1    2    0    0 -0.56590375616E+02  0.16528374092E+03 -0.12973900807E+03  0.25095496775E+03  0.12500000000E+03 0.  0.
         25    1    1    2    0    0  0.79226025631E+02 -0.12799858811E+03  0.51991102301E+03  0.55551136221E+03  0.12500000000E+03 0.  0.
</event>
<event>
 5    0  0.5851292E-005  0.3479124E+03  0.7546771E-02  0.1063475E+00
         21   -1    0    0  502  501  0.00000000000E+00  0.00000000000E+00  0.80398577422E+02  0.80398577422E+02  0.00000000000E+00 0. -1.
         21   -1    0    0  501  502 -0.00000000000E+00 -0.00000000000E+00 -0.15055367157E+04  0.15055367157E+04  0.00000000000E+00 0. -1.
         25    1    1    2    0    0  0.62007814519E+02 -0.58431949275E+02 -0.26247476303E+03  0.30294762416E+03  0.12500000000E+03 0.  0.
         25    1    1    2    0    0 -0.13456204413E+02  0.26299760637E+03 -0.53339315468E+03  0.60785036633E+03  0.12500000000E+03 0.  0.
         25    1    1    2    0    0 -0.48551610105E+02 -0.20456565709E+03 -0.62927022055E+03  0.67513730261E+03  0.12500000000E+03 0.  0.
</event>
<event>
 5    0  0.5851292E-005  0.2828394E+03  0.7546771E-02  0.1094148E+00
         21   -1    0    0  502  501  0.00000000000E+00  0.00000000000E+00  0.30722022205E+03  0.30722022205E+03  0.00000000000E+00 0.  1.
         21   -1    0    0  501  502 -0.00000000000E+00 -0.00000000000E+00 -0.26039344909E+03  0.26039344909E+03  0.00000000000E+00 0.  1.
         25    1    1    2    0    0  0.88576712077E+02  0.38531727798E+02 -0.40340519873E+02  0.16304258803E+03  0.12500000000E+03 0.  0.
         25    1    1    2    0    0 -0.41527402428E+02  0.12657142125E+03  0.37708968516E+02  0.18652564471E+03  0.12500000000E+03 0.  0.
         25    1    1    2    0    0 -0.47049309649E+02 -0.16510314904E+03  0.49458324317E+02  0.21804543840E+03  0.12500000000E+03 0.  0.
</event>
<event>
 5    0  0.5851292E-005  0.3240949E+03  0.7546771E-02  0.1073780E+00
         21   -1    0    0  502  501  0.00000000000E+00  0.00000000000E+00  0.47448755898E+03  0.47448755898E+03  0.00000000000E+00 0. -1.
         21   -1    0    0  501  502 -0.00000000000E+00 -0.00000000000E+00 -0.22137039961E+03  0.22137039961E+03  0.00000000000E+00 0. -1.
         25    1    1    2    0    0 -0.11725648296E+03 -0.84098651372E+02  0.80505575451E+02  0.20719028365E+03  0.12500000000E+03 0.  0.
         25    1    1    2    0    0 -0.86424308200E+02  0.13582280730E+03  0.12638750703E+03  0.23982451494E+03  0.12500000000E+03 0.  0.
         25    1    1    2    0    0  0.20368079116E+03 -0.51724155929E+02  0.46224076882E+02  0.24884316000E+03  0.12500000000E+03 0.  0.
</event>
<event>
 5    0  0.5851292E-005  0.3205985E+03  0.7546771E-02  0.1075374E+00
         21   -1    0    0  502  501  0.00000000000E+00  0.00000000000E+00  0.17441344093E+03  0.17441344093E+03  0.00000000000E+00 0. -1.
         21   -1    0    0  501  502 -0.00000000000E+00 -0.00000000000E+00 -0.58930880942E+03  0.58930880942E+03  0.00000000000E+00 0. -1.
         25    1    1    2    0    0  0.84608731521E+02  0.12612399242E+03 -0.14715574566E+03  0.24565364315E+03  0.12500000000E+03 0.  0.
         25    1    1    2    0    0 -0.16230852405E+03 -0.10437381516E+03 -0.22223344465E+02  0.23099096803E+03  0.12500000000E+03 0.  0.
         25    1    1    2    0    0  0.77699792529E+02 -0.21750177264E+02 -0.24551627836E+03  0.28707763917E+03  0.12500000000E+03 0.  0.
</event>
<event>
 5    0  0.5851292E-005  0.3392313E+03  0.7546771E-02  0.1067124E+00
         21   -1    0    0  502  501  0.00000000000E+00  0.00000000000E+00  0.28299170899E+03  0.28299170899E+03  0.00000000000E+00 0.  1.
         21   -1    0    0  501  502 -0.00000000000E+00 -0.00000000000E+00 -0.40664753399E+03  0.40664753399E+03  0.00000000000E+00 0.  1.
         25    1    1    2    0    0  0.76051915049E+02 -0.55041640998E+02 -0.27110824645E+02  0.15866150396E+03  0.12500000000E+03 0.  0.
         25    1    1    2    0    0  0.12434058144E+03  0.67107551614E+02 -0.19814349145E+03  0.27358700057E+03  0.12500000000E+03 0.  0.
         25    1    1    2    0    0 -0.20039249649E+03 -0.12065910616E+02  0.10159849109E+03  0.25739073845E+03  0.12500000000E+03 0.  0.
</event>
<event>
 5    0  0.6037381E-005  0.2935267E+03  0.7546771E-02  0.1088522E+00
         21   -1    0    0  502  501  0.00000000000E+00  0.00000000000E+00  0.38200531250E+03  0.38200531250E+03  0.00000000000E+00 0. -1.
         21   -1    0    0  501  502 -0.00000000000E+00 -0.00000000000E+00 -0.22554116308E+03  0.22554116308E+03  0.00000000000E+00 0. -1.
         25    1    1    2    0    0  0.11865664478E+03 -0.45160976203E+02  0.68077877680E+02  0.19073151431E+03  0.12500000000E+03 0.  0.
         25    1    1    2    0    0 -0.93407882726E+02  0.16866902895E+03  0.52173599608E+02  0.23562970606E+03  0.12500000000E+03 0.  0.
         25    1    1    2    0    0 -0.25248762057E+02 -0.12350805275E+03  0.36212672132E+02  0.18118525520E+03  0.12500000000E+03 0.  0.
</event>
<event>
 5    0  0.5851292E-005  0.2729265E+03  0.7546771E-02  0.1099616E+00
         21   -1    0    0  502  501  0.00000000000E+00  0.00000000000E+00  0.56758324616E+03  0.56758324616E+03  0.00000000000E+00 0.  1.
         21   -1    0    0  501  502 -0.00000000000E+00 -0.00000000000E+00 -0.13123867571E+03  0.13123867571E+03  0.00000000000E+00 0.  1.
         25    1    1    2    0    0  0.11346820284E+03  0.22519876794E+02  0.30253482786E+02  0.17298107159E+03  0.12500000000E+03 0.  0.
         25    1    1    2    0    0  0.13339206133E+02  0.30155495422E+02  0.25708933067E+03  0.28776242331E+03  0.12500000000E+03 0.  0.
         25    1    1    2    0    0 -0.12680740897E+03 -0.52675372216E+02  0.14900175699E+03  0.23807842698E+03  0.12500000000E+03 0.  0.
</event>
<event>
 5    0  0.5851292E-005  0.2912806E+03  0.7546771E-02  0.1089682E+00
         21   -1    0    0  502  501  0.00000000000E+00  0.00000000000E+00  0.29953880943E+03  0.29953880943E+03  0.00000000000E+00 0.  1.
         21   -1    0    0  501  502 -0.00000000000E+00 -0.00000000000E+00 -0.28324998116E+03  0.28324998116E+03  0.00000000000E+00 0.  1.
         25    1    1    2    0    0 -0.78417086126E+01  0.14322900090E+03 -0.87642195323E+01  0.19046745296E+03  0.12500000000E+03 0.  0.
         25    1    1    2    0    0  0.12218616162E+03 -0.62580466818E+02  0.71626880510E+02  0.19900045962E+03  0.12500000000E+03 0.  0.
         25    1    1    2    0    0 -0.11434445300E+03 -0.80648534083E+02 -0.46573832712E+02  0.19332087801E+03  0.12500000000E+03 0.  0.
</event>
<event>
 5    0  0.5851292E-005  0.2236097E+03  0.7546771E-02  0.1131220E+00
         21   -1    0    0  502  501  0.00000000000E+00  0.00000000000E+00  0.21199124788E+03  0.21199124788E+03  0.00000000000E+00 0.  1.
         21   -1    0    0  501  502 -0.00000000000E+00 -0.00000000000E+00 -0.23586481583E+03  0.23586481583E+03  0.00000000000E+00 0.  1.
         25    1    1    2    0    0  0.10716413372E+03  0.12104510039E+02 -0.34747910415E+02  0.16871007082E+03  0.12500000000E+03 0.  0.
         25    1    1    2    0    0 -0.44280213690E+02 -0.12257780939E+02 -0.23072970767E+02  0.13516046944E+03  0.12500000000E+03 0.  0.
         25    1    1    2    0    0 -0.62883920028E+02  0.15327089949E+00  0.33947313228E+02  0.14398552346E+03  0.12500000000E+03 0.  0.
</event>
<event>
 5    0  0.5851292E-005  0.3126092E+03  0.7546771E-02  0.1079102E+00
         21   -1    0    0  502  501  0.00000000000E+00  0.00000000000E+00  0.17551186272E+04  0.17551186272E+04  0.00000000000E+00 0. -1.
         21   -1    0    0  501  502 -0.00000000000E+00 -0.00000000000E+00 -0.55679736547E+02  0.55679736547E+02  0.00000000000E+00 0. -1.
         25    1    1    2    0    0 -0.76673249502E+02 -0.57361813970E+02  0.28776113885E+03  0.32802536171E+03  0.12500000000E+03 0.  0.
         25    1    1    2    0    0 -0.12033431422E+03  0.27224657579E+02  0.31036115489E+03  0.35660983669E+03  0.12500000000E+03 0.  0.
         25    1    1    2    0    0  0.19700756372E+03  0.30137156392E+02  0.11013165969E+04  0.11261631653E+04  0.12500000000E+03 0.  0.
</event>
<event>
 5    0  0.5851292E-005  0.2736002E+03  0.7546771E-02  0.1099237E+00
         21   -1    0    0  502  501  0.00000000000E+00  0.00000000000E+00  0.15844146694E+04  0.15844146694E+04  0.00000000000E+00 0. -1.
         21   -1    0    0  501  502 -0.00000000000E+00 -0.00000000000E+00 -0.47245898580E+02  0.47245898580E+02  0.00000000000E+00 0. -1.
         25    1    1    2    0    0  0.59281554224E+02  0.27570010377E+02  0.10298745426E+04  0.10394907319E+04  0.12500000000E+03 0.  0.
         25    1    1    2    0    0 -0.71535146180E+02  0.40027758874E+02  0.34567926014E+03  0.37661472291E+03  0.12500000000E+03 0.  0.
         25    1    1    2    0    0  0.12253591956E+02 -0.67597769251E+02  0.16161496810E+03  0.21555511322E+03  0.12500000000E+03 0.  0.
</event>
<event>
 5    0  0.5851292E-005  0.2273986E+03  0.7546771E-02  0.1128484E+00
         21   -1    0    0  502  501  0.00000000000E+00  0.00000000000E+00  0.24417715797E+03  0.24417715797E+03  0.00000000000E+00 0. -1.
         21   -1    0    0  501  502 -0.00000000000E+00 -0.00000000000E+00 -0.21177299697E+03  0.21177299697E+03  0.00000000000E+00 0. -1.
         25    1    1    2    0    0 -0.13107069880E+02  0.61865272141E+02  0.96381001614E+02  0.17003942087E+03  0.12500000000E+03 0.  0.
         25    1    1    2    0    0 -0.25301096046E+02 -0.67947030908E+02 -0.11800668836E+02  0.14498689684E+03  0.12500000000E+03 0.  0.
         25    1    1    2    0    0  0.38408165926E+02  0.60817587671E+01 -0.52176171780E+02  0.14092383723E+03  0.12500000000E+03 0.  0.
</event>
<event>
 5    0  0.5851292E-005  0.3391877E+03  0.7546771E-02  0.1067142E+00
         21   -1    0    0  502  501  0.00000000000E+00  0.00000000000E+00  0.15653958144E+03  0.15653958144E+03  0.00000000000E+00 0. -1.
         21   -1    0    0  501  502 -0.00000000000E+00 -0.00000000000E+00 -0.73494709329E+03  0.73494709329E+03  0.00000000000E+00 0. -1.
         25    1    1    2    0    0  0.20852516081E+03 -0.14058560044E+03 -0.34872442473E+03  0.44775079916E+03  0.12500000000E+03 0.  0.
         25    1    1    2    0    0 -0.73002329403E+02 -0.48426383342E+01 -0.86114767108E+02  0.16850384078E+03  0.12500000000E+03 0.  0.
         25    1    1    2    0    0 -0.13552283141E+03  0.14542823877E+03 -0.14356832001E+03  0.27523203479E+03  0.12500000000E+03 0.  0.
</event>
<event>
 5    0  0.5851292E-005  0.3104278E+03  0.7546771E-02  0.1080141E+00
         21   -1    0    0  502  501  0.00000000000E+00  0.00000000000E+00  0.10364949097E+03  0.10364949097E+03  0.00000000000E+00 0. -1.
         21   -1    0    0  501  502 -0.00000000000E+00 -0.00000000000E+00 -0.92972388267E+03  0.92972388267E+03  0.00000000000E+00 0. -1.
         25    1    1    2    0    0 -0.16286989610E+03  0.34271171521E+02 -0.60294174680E+03  0.63785959763E+03  0.12500000000E+03 0.  0.
         25    1    1    2    0    0  0.73214781361E+02 -0.59700818778E+02 -0.16902669447E+03  0.23047693034E+03  0.12500000000E+03 0.  0.
         25    1    1    2    0    0  0.89655114734E+02  0.25429647257E+02 -0.54105950420E+02  0.16503684567E+03  0.12500000000E+03 0.  0.
</event>
<event>
 5    0  0.5851292E-005  0.4495668E+03  0.7546771E-02  0.1027851E+00
         21   -1    0    0  502  501  0.00000000000E+00  0.00000000000E+00  0.31111096127E+03  0.31111096127E+03  0.00000000000E+00 0. -1.
         21   -1    0    0  501  502 -0.00000000000E+00 -0.00000000000E+00 -0.64964060084E+03  0.64964060084E+03  0.00000000000E+00 0. -1.
         25    1    1    2    0    0  0.76492718788E+02  0.15986339481E+01 -0.17198093725E+03  0.22595604536E+03  0.12500000000E+03 0.  0.
         25    1    1    2    0    0  0.13025814012E+03  0.15727170050E+03 -0.32608708810E+03  0.40454834059E+03  0.12500000000E+03 0.  0.
         25    1    1    2    0    0 -0.20675085891E+03 -0.15887033445E+03  0.15953838578E+03  0.33024717617E+03  0.12500000000E+03 0.  0.
</event>
<event>
 5    0  0.5851292E-005  0.2429134E+03  0.7546771E-02  0.1117867E+00
         21   -1    0    0  502  501  0.00000000000E+00  0.00000000000E+00  0.60477291231E+02  0.60477291231E+02  0.00000000000E+00 0. -1.
         21   -1    0    0  501  502 -0.00000000000E+00 -0.00000000000E+00 -0.97568716220E+03  0.97568716220E+03  0.00000000000E+00 0. -1.
         25    1    1    2    0    0 -0.11010097642E+02  0.11470352812E+03 -0.25336554939E+03  0.30511837577E+03  0.12500000000E+03 0.  0.
         25    1    1    2    0    0  0.58518226305E+02 -0.10400815644E+03 -0.31739893613E+03  0.36139889883E+03  0.12500000000E+03 0.  0.
         25    1    1    2    0    0 -0.47508128663E+02 -0.10695371684E+02 -0.34444538545E+03  0.36964717884E+03  0.12500000000E+03 0.  0.
</event>
<event>
 5    0  0.5851292E-005  0.3137078E+03  0.7546771E-02  0.1078582E+00
         21   -1    0    0  502  501  0.00000000000E+00  0.00000000000E+00  0.55610987238E+02  0.55610987238E+02  0.00000000000E+00 0. -1.
         21   -1    0    0  501  502 -0.00000000000E+00 -0.00000000000E+00 -0.17696604457E+04  0.17696604457E+04  0.00000000000E+00 0. -1.
         25    1    1    2    0    0  0.19771050614E+02  0.39580658014E+02 -0.45809078079E+03  0.47689588630E+03  0.12500000000E+03 0.  0.
         25    1    1    2    0    0  0.34466369693E+02 -0.55893051903E+02 -0.11859336387E+04  0.11943096580E+04  0.12500000000E+03 0.  0.
         25    1    1    2    0    0 -0.54237420307E+02  0.16312393889E+02 -0.70025039042E+02  0.15406588866E+03  0.12500000000E+03 0.  0.
</event>
<event>
 5    0  0.5851292E-005  0.2422404E+03  0.7546771E-02  0.1118309E+00
         21   -1    0    0  502  501  0.00000000000E+00  0.00000000000E+00  0.91746160524E+02  0.91746160524E+02  0.00000000000E+00 0. -1.
         21   -1    0    0  501  502 -0.00000000000E+00 -0.00000000000E+00 -0.63959523323E+03  0.63959523323E+03  0.00000000000E+00 0. -1.
         25    1    1    2    0    0  0.12072742285E+03  0.89879436468E+01 -0.24323038739E+03  0.29906841208E+03  0.12500000000E+03 0.  0.
         25    1    1    2    0    0 -0.95783402455E+00 -0.20621951628E+01 -0.17870517248E+03  0.21809564133E+03  0.12500000000E+03 0.  0.
         25    1    1    2    0    0 -0.11976958882E+03 -0.69257484840E+01 -0.12591351283E+03  0.21417734033E+03  0.12500000000E+03 0.  0.
</event>
<event>
 5    0  0.5851292E-005  0.3400342E+03  0.7546771E-02  0.1066781E+00
         21   -1    0    0  502  501  0.00000000000E+00  0.00000000000E+00  0.11370441746E+04  0.11370441746E+04  0.00000000000E+00 0.  1.
         21   -1    0    0  501  502 -0.00000000000E+00 -0.00000000000E+00 -0.10168758684E+03  0.10168758684E+03  0.00000000000E+00 0.  1.
         25    1    1    2    0    0  0.35541971475E+02  0.31527459651E+02  0.95308837848E+02  0.16421323643E+03  0.12500000000E+03 0.  0.
         25    1    1    2    0    0 -0.17301150999E+03 -0.17186070635E+03  0.62789647307E+03  0.68508982321E+03  0.12500000000E+03 0.  0.
         25    1    1    2    0    0  0.13746953851E+03  0.14033324670E+03  0.31215127683E+03  0.38942870179E+03  0.12500000000E+03 0.  0.
</event>
<event>
 5    0  0.5851292E-005  0.4302310E+03  0.7546771E-02  0.1033787E+00
         21   -1    0    0  502  501  0.00000000000E+00  0.00000000000E+00  0.56736967551E+03  0.56736967551E+03  0.00000000000E+00 0.  1.
         21   -1    0    0  501  502 -0.00000000000E+00 -0.00000000000E+00 -0.32624006741E+03  0.32624006741E+03  0.00000000000E+00 0.  1.
         25    1    1    2    0    0 -0.36556480244E+02 -0.83336941753E+02 -0.56615764697E+02  0.16465651193E+03  0.12500000000E+03 0.  0.
         25    1    1    2    0    0 -0.60132566537E+01  0.33294548172E+03  0.26730138955E+03  0.44493132718E+03  0.12500000000E+03 0.  0.
         25    1    1    2    0    0  0.42569736898E+02 -0.24960853996E+03  0.30443983249E+02  0.28402190380E+03  0.12500000000E+03 0.  0.
</event>
<event>
 5    0  0.5851292E-005  0.3062089E+03  0.7546771E-02  0.1082177E+00
         21   -1    0    0  502  501  0.00000000000E+00  0.00000000000E+00  0.14251344371E+03  0.14251344371E+03  0.00000000000E+00 0.  1.
         21   -1    0    0  501  502 -0.00000000000E+00 -0.00000000000E+00 -0.65793013855E+03  0.65793013855E+03  0.00000000000E+00 0.  1.
         25    1    1    2    0    0  0.16990933793E+03 -0.83214169418E+02 -0.17371423340E+03  0.28564911341E+03  0.12500000000E+03 0.  0.
         25    1    1    2    0    0 -0.18180929594E+03 -0.21200167004E+02 -0.19158315731E+03  0.29297299080E+03  0.12500000000E+03 0.  0.
         25    1    1    2    0    0  0.11899958010E+02  0.10441433642E+03 -0.15011930413E+03  0.22182147805E+03  0.12500000000E+03 0.  0.
</event>
<event>
 5    0  0.5851292E-005  0.3479874E+03  0.7546771E-02  0.1063444E+00
         21   -1    0    0  502  501  0.00000000000E+00  0.00000000000E+00  0.28863426555E+03  0.28863426555E+03  0.00000000000E+00 0.  1.
         21   -1    0    0  501  502 -0.00000000000E+00 -0.00000000000E+00 -0.41954568369E+03  0.41954568369E+03  0.00000000000E+00 0.  1.
         25    1    1    2    0    0  0.18830470015E+03 -0.11551040905E+03  0.73250096960E+02  0.26418155007E+03  0.12500000000E+03 0.  0.
         25    1    1    2    0    0 -0.10990229160E+03 -0.44080289649E+02 -0.56423102958E+02  0.18119092743E+03  0.12500000000E+03 0.  0.
         25    1    1    2    0    0 -0.78402408548E+02  0.15959069870E+03 -0.14773841214E+03  0.26280747173E+03  0.12500000000E+03 0.  0.
</event>
<event>
 5    0  0.5851292E-005  0.2493811E+03  0.7546771E-02  0.1113697E+00
         21   -1    0    0  502  501  0.00000000000E+00  0.00000000000E+00  0.66768199610E+02  0.66768199610E+02  0.00000000000E+00 0. -1.
         21   -1    0    0  501  502 -0.00000000000E+00 -0.00000000000E+00 -0.93144513428E+03  0.93144513428E+03  0.00000000000E+00 0. -1.
         25    1    1    2    0    0 -0.86920845970E+02 -0.84809835751E+02 -0.32850479955E+03  0.37187140927E+03  0.12500000000E+03 0.  0.
         25    1    1    2    0    0  0.37900778086E+01  0.40485186389E+02 -0.39231361728E+03  0.41374918648E+03  0.12500000000E+03 0.  0.
         25    1    1    2    0    0  0.83130768161E+02  0.44324649362E+02 -0.14385851784E+03  0.21259273814E+03  0.12500000000E+03 0.  0.
</event>
<event>
 5    0  0.5851292E-005  0.4390605E+03  0.7546771E-02  0.1031035E+00
         21   -1    0    0  502  501  0.00000000000E+00  0.00000000000E+00  0.39969507768E+02  0.39969507768E+02  0.00000000000E+00 0. -1.
         21   -1    0    0  501  502 -0.00000000000E+00 -0.00000000000E+00 -0.48230286940E+04  0.48230286940E+04  0.00000000000E+00 0. -1.
         25    1    1    2    0    0 -0.10960754970E+03 -0.21857692478E+03 -0.96973982689E+03  0.10078740094E+04  0.12500000000E+03 0.  0.
         25    1    1    2    0    0  0.22370075720E+03  0.21348183085E+03 -0.32456482624E+04  0.32627402845E+04  0.12500000000E+03 0.  0.
         25    1    1    2    0    0 -0.11409320751E+03  0.50950939354E+01 -0.56767109697E+03  0.59238390788E+03  0.12500000000E+03 0.  0.
</event>
<event>
 5    0  0.5851292E-005  0.3133210E+03  0.7546771E-02  0.1078765E+00
         21   -1    0    0  502  501  0.00000000000E+00  0.00000000000E+00  0.10527527411E+04  0.10527527411E+04  0.00000000000E+00 0. -1.
         21   -1    0    0  501  502 -0.00000000000E+00 -0.00000000000E+00 -0.93250801345E+02  0.93250801345E+02  0.00000000000E+00 0. -1.
         25    1    1    2    0    0  0.79241149156E+02 -0.12706511528E+03  0.14460448250E+03  0.24281713201E+03  0.12500000000E+03 0.  0.
         25    1    1    2    0    0  0.64518035410E+02  0.13068069527E+03  0.49376636318E+03  0.52978320322E+03  0.12500000000E+03 0.  0.
         25    1    1    2    0    0 -0.14375918457E+03 -0.36155799867E+01  0.32113109404E+03  0.37340320717E+03  0.12500000000E+03 0.  0.
</event>
<event>
 5    0  0.5851292E-005  0.2491938E+03  0.7546771E-02  0.1113815E+00
         21   -1    0    0  502  501  0.00000000000E+00  0.00000000000E+00  0.58391835622E+03  0.58391835622E+03  0.00000000000E+00 0.  1.
         21   -1    0    0  501  502 -0.00000000000E+00 -0.00000000000E+00 -0.10634631188E+03  0.10634631188E+03  0.00000000000E+00 0.  1.
         25    1    1    2    0    0  0.32558799134E+02  0.50980276880E+02  0.21645617978E+03  0.25717181376E+03  0.12500000000E+03 0.  0.
         25    1    1    2    0    0  0.17594721057E+02  0.72811719795E+02  0.50745554244E+02  0.15430888511E+03  0.12500000000E+03 0.  0.
         25    1    1    2    0    0 -0.50153520190E+02 -0.12379199667E+03  0.21037031033E+03  0.27878396922E+03  0.12500000000E+03 0.  0.
</event>
<event>
 5    0  0.5851292E-005  0.3658868E+03  0.7546771E-02  0.1056277E+00
         21   -1    0    0  502  501  0.00000000000E+00  0.00000000000E+00  0.47664515349E+03  0.47664515349E+03  0.00000000000E+00 0. -1.
         21   -1    0    0  501  502 -0.00000000000E+00 -0.00000000000E+00 -0.28086550808E+03  0.28086550808E+03  0.00000000000E+00 0. -1.
         25    1    1    2    0    0 -0.81629393484E+02 -0.24107792388E+02 -0.38539860062E+02  0.15606045094E+03  0.12500000000E+03 0.  0.
         25    1    1    2    0    0  0.20315070604E+03  0.72152901851E+02 -0.59717668225E+02  0.25625661066E+03  0.12500000000E+03 0.  0.
         25    1    1    2    0    0 -0.12152131255E+03 -0.48045109462E+02  0.29403717370E+03  0.34519359997E+03  0.12500000000E+03 0.  0.
</event>
<event>
 5    0  0.5851292E-005  0.5464843E+03  0.7546771E-02  0.1002311E+00
         21   -1    0    0  502  501  0.00000000000E+00  0.00000000000E+00  0.55655413423E+03  0.55655413423E+03  0.00000000000E+00 0.  1.
         21   -1    0    0  501  502 -0.00000000000E+00 -0.00000000000E+00 -0.53659667086E+03  0.53659667086E+03  0.00000000000E+00 0.  1.
         25    1    1    2    0    0  0.17682796279E+03 -0.18803757170E+03 -0.28088675662E+03  0.40143321592E+03  0.12500000000E+03 0.  0.
         25    1    1    2    0    0  0.10649004187E+02  0.99623065262E+02 -0.12411874052E+03  0.20265393697E+03  0.12500000000E+03 0.  0.
         25    1    1    2    0    0 -0.18747696698E+03  0.88414506438E+02  0.42496296051E+03  0.48906365220E+03  0.12500000000E+03 0.  0.
</event>
<event>
 5    0  0.5851292E-005  0.2931137E+03  0.7546771E-02  0.1088735E+00
         21   -1    0    0  502  501  0.00000000000E+00  0.00000000000E+00  0.56728255498E+03  0.56728255498E+03  0.00000000000E+00 0. -1.
         21   -1    0    0  501  502 -0.00000000000E+00 -0.00000000000E+00 -0.15145127814E+03  0.15145127814E+03  0.00000000000E+00 0. -1.
         25    1    1    2    0    0 -0.12277649937E+03  0.72318009938E+02  0.25388498259E+03  0.31683836217E+03  0.12500000000E+03 0.  0.
         25    1    1    2    0    0 -0.63216912512E+00 -0.20204287738E+02  0.17747490710E+03  0.21801595247E+03  0.12500000000E+03 0.  0.
         25    1    1    2    0    0  0.12340866850E+03 -0.52113722200E+02 -0.15528612836E+02  0.18387951848E+03  0.12500000000E+03 0.  0.
</event>
<event>
 5    0  0.5851292E-005  0.2557758E+03  0.7546771E-02  0.1109708E+00
         21   -1    0    0  502  501  0.00000000000E+00  0.00000000000E+00  0.12495388916E+03  0.12495388916E+03  0.00000000000E+00 0.  1.
         21   -1    0    0  501  502 -0.00000000000E+00 -0.00000000000E+00 -0.52356320827E+03  0.52356320827E+03  0.00000000000E+00 0.  1.
         25    1    1    2    0    0 -0.14520052818E+01  0.10677342543E+03  0.10228534959E+01  0.16440413293E+03  0.12500000000E+03 0.  0.
         25    1    1    2    0    0 -0.11889804402E+02 -0.52347217924E+02 -0.18955170305E+03  0.23331619490E+03  0.12500000000E+03 0.  0.
         25    1    1    2    0    0  0.13341809684E+02 -0.54426207502E+02 -0.21008046956E+03  0.25079676959E+03  0.12500000000E+03 0.  0.
</event>
<event>
 5    0  0.5851292E-005  0.2005134E+03  0.7546771E-02  0.1149307E+00
         21   -1    0    0  502  501  0.00000000000E+00  0.00000000000E+00  0.68414973477E+02  0.68414973477E+02  0.00000000000E+00 0. -1.
         21   -1    0    0  501  502 -0.00000000000E+00 -0.00000000000E+00 -0.58767287662E+03  0.58767287662E+03  0.00000000000E+00 0. -1.
         25    1    1    2    0    0 -0.17999416488E+02  0.30395911484E+02 -0.18637087986E+03  0.22717173083E+03  0.12500000000E+03 0.  0.
         25    1    1    2    0    0 -0.14512089066E+02 -0.47544909383E+02 -0.12536055181E+03  0.18387872930E+03  0.12500000000E+03 0.  0.
         25    1    1    2    0    0  0.32511505555E+02  0.17148997899E+02 -0.20752647147E+03  0.24503738997E+03  0.12500000000E+03 0.  0.
</event>
<event>
 5    0  0.5851292E-005  0.1983029E+03  0.7546771E-02  0.1151179E+00
         21   -1    0    0  502  501  0.00000000000E+00  0.00000000000E+00  0.25105280905E+03  0.25105280905E+03  0.00000000000E+00 0.  1.
         21   -1    0    0  501  502 -0.00000000000E+00 -0.00000000000E+00 -0.15663648095E+03  0.15663648095E+03  0.00000000000E+00 0.  1.
         25    1    1    2    0    0 -0.26456887435E+01 -0.41803665794E+02  0.16667204626E+02  0.13288093111E+03  0.12500000000E+03 0.  0.
         25    1    1    2    0    0  0.22517090659E+02  0.82376500090E+01  0.65903513492E+02  0.14332882243E+03  0.12500000000E+03 0.  0.
         25    1    1    2    0    0 -0.19871401916E+02  0.33566015785E+02  0.11845609987E+02  0.13147953645E+03  0.12500000000E+03 0.  0.
</event>
<event>
 5    0  0.5851292E-005  0.8267266E+03  0.7546771E-02  0.9522117E-01
         21   -1    0    0  502  501  0.00000000000E+00  0.00000000000E+00  0.18197514073E+03  0.18197514073E+03  0.00000000000E+00 0.  1.
         21   -1    0    0  501  502 -0.00000000000E+00 -0.00000000000E+00 -0.37558801062E+04  0.37558801062E+04  0.00000000000E+00 0.  1.
         25    1    1    2    0    0 -0.85428705410E+02 -0.19527200343E+02 -0.62018164209E+03  0.63869370158E+03  0.12500000000E+03 0.  0.
         25    1    1    2    0    0 -0.79895553135E+02  0.21385764564E+03 -0.30000284079E+04  0.30112977003E+04  0.12500000000E+03 0.  0.
         25    1    1    2    0    0  0.16532425854E+03 -0.19433044530E+03  0.46305084463E+02  0.28786384504E+03  0.12500000000E+03 0.  0.
</event>
<event>
 5    0  0.5851292E-005  0.2207292E+03  0.7546771E-02  0.1133341E+00
         21   -1    0    0  502  501  0.00000000000E+00  0.00000000000E+00  0.57081289207E+02  0.57081289207E+02  0.00000000000E+00 0. -1.
         21   -1    0    0  501  502 -0.00000000000E+00 -0.00000000000E+00 -0.85354364217E+03  0.85354364217E+03  0.00000000000E+00 0. -1.
         25    1    1    2    0    0 -0.13222293960E+02 -0.75246767771E+02 -0.42904002724E+03  0.45336216217E+03  0.12500000000E+03 0.  0.
         25    1    1    2    0    0  0.44407849439E+02  0.35686637879E+02 -0.19011088823E+03  0.23454795467E+03  0.12500000000E+03 0.  0.
         25    1    1    2    0    0 -0.31185555479E+02  0.39560129892E+02 -0.17731143748E+03  0.22271481453E+03  0.12500000000E+03 0.  0.
</event>
<event>
 5    0  0.5851292E-005  0.3702268E+03  0.7546771E-02  0.1054606E+00
         21   -1    0    0  502  501  0.00000000000E+00  0.00000000000E+00  0.11271373202E+03  0.11271373202E+03  0.00000000000E+00 0. -1.
         21   -1    0    0  501  502 -0.00000000000E+00 -0.00000000000E+00 -0.12160706938E+04  0.12160706938E+04  0.00000000000E+00 0. -1.
         25    1    1    2    0    0  0.39112989773E+02 -0.10346119448E+03 -0.52286331929E+03  0.54885799201E+03  0.12500000000E+03 0.  0.
         25    1    1    2    0    0 -0.24823833828E+02  0.21006697675E+03 -0.56277350355E+03  0.61407114714E+03  0.12500000000E+03 0.  0.
         25    1    1    2    0    0 -0.14289155945E+02 -0.10660578226E+03 -0.17720138917E+02  0.16585528666E+03  0.12500000000E+03 0.  0.
</event>
<event>
 5    0  0.5851292E-005  0.3352126E+03  0.7546771E-02  0.1068853E+00
         21   -1    0    0  502  501  0.00000000000E+00  0.00000000000E+00  0.32099042290E+03  0.32099042290E+03  0.00000000000E+00 0.  1.
         21   -1    0    0  501  502 -0.00000000000E+00 -0.00000000000E+00 -0.35006482939E+03  0.35006482939E+03  0.00000000000E+00 0.  1.
         25    1    1    2    0    0  0.16040896657E+03  0.41725963323E+02 -0.20572344701E+03  0.29226568260E+03  0.12500000000E+03 0.  0.
         25    1    1    2    0    0 -0.15990677855E+03 -0.37536752340E+02  0.13638702847E+03  0.24739767003E+03  0.12500000000E+03 0.  0.
         25    1    1    2    0    0 -0.50218802133E+00 -0.41892109827E+01  0.40262012049E+02  0.13139189966E+03  0.12500000000E+03 0.  0.
</event>
<event>
 5    0  0.5851292E-005  0.3930549E+03  0.7546771E-02  0.1046211E+00
         21   -1    0    0  502  501  0.00000000000E+00  0.00000000000E+00  0.12812651482E+03  0.12812651482E+03  0.00000000000E+00 0. -1.
         21   -1    0    0  501  502 -0.00000000000E+00 -0.00000000000E+00 -0.12057783126E+04  0.12057783126E+04  0.00000000000E+00 0. -1.
         25    1    1    2    0    0  0.68043134100E+02 -0.55588122036E+02 -0.15012651237E+03  0.21420288776E+03  0.12500000000E+03 0.  0.
         25    1    1    2    0    0 -0.20519131673E+03 -0.19114472141E+03 -0.56918543929E+03  0.64671233581E+03  0.12500000000E+03 0.  0.
         25    1    1    2    0    0  0.13714818263E+03  0.24673284344E+03 -0.35833984615E+03  0.47298960387E+03  0.12500000000E+03 0.  0.
</event>
<event>
 5    0  0.5851292E-005  0.3549766E+03  0.7546771E-02  0.1060591E+00
         21   -1    0    0  502  501  0.00000000000E+00  0.00000000000E+00  0.84380615322E+02  0.84380615322E+02  0.00000000000E+00 0. -1.
         21   -1    0    0  501  502 -0.00000000000E+00 -0.00000000000E+00 -0.14933336157E+04  0.14933336157E+04  0.00000000000E+00 0. -1.
         25    1    1    2    0    0  0.21409725662E+03  0.84625376682E+02 -0.10119809029E+04  0.10453369971E+04  0.12500000000E+03 0.  0.
         25    1    1    2    0    0 -0.61158532647E+02 -0.68452654303E+02 -0.19849443134E+03  0.25189515928E+03  0.12500000000E+03 0.  0.
         25    1    1    2    0    0 -0.15293872397E+03 -0.16172722379E+02 -0.19847766614E+03  0.28048207464E+03  0.12500000000E+03 0.  0.
</event>
<event>
 5    0  0.5851292E-005  0.2644431E+03  0.7546771E-02  0.1104503E+00
         21   -1    0    0  502  501  0.00000000000E+00  0.00000000000E+00  0.15193958180E+03  0.15193958180E+03  0.00000000000E+00 0.  1.
         21   -1    0    0  501  502 -0.00000000000E+00 -0.00000000000E+00 -0.46024981007E+03  0.46024981007E+03  0.00000000000E+00 0.  1.
         25    1    1    2    0    0  0.32722136362E+02 -0.40754343580E+02 -0.18140271967E+03  0.22641466700E+03  0.12500000000E+03 0.  0.
         25    1    1    2    0    0 -0.73931815501E+02  0.12581558173E+02 -0.18805531108E+03  0.23793698530E+03  0.12500000000E+03 0.  0.
         25    1    1    2    0    0  0.41209679138E+02  0.28172785407E+02  0.61147802478E+02  0.14783773957E+03  0.12500000000E+03 0.  0.
</event>
<event>
 5    0  0.5851292E-005  0.2736854E+03  0.7546771E-02  0.1099189E+00
         21   -1    0    0  502  501  0.00000000000E+00  0.00000000000E+00  0.14821026400E+04  0.14821026400E+04  0.00000000000E+00 0.  1.
         21   -1    0    0  501  502 -0.00000000000E+00 -0.00000000000E+00 -0.50538788527E+02  0.50538788527E+02  0.00000000000E+00 0.  1.
         25    1    1    2    0    0 -0.38151570591E+00 -0.47390015219E+02  0.35447214756E+03  0.37884226598E+03  0.12500000000E+03 0.  0.
         25    1    1    2    0    0  0.72607509098E+02  0.88718997095E+02  0.92368760184E+03  0.93913081975E+03  0.12500000000E+03 0.  0.
         25    1    1    2    0    0 -0.72225993392E+02 -0.41328981877E+02  0.15340410208E+03  0.21466834280E+03  0.12500000000E+03 0.  0.
</event>
<event>
 5    0  0.5851292E-005  0.3125494E+03  0.7546771E-02  0.1079130E+00
         21   -1    0    0  502  501  0.00000000000E+00  0.00000000000E+00  0.13116198725E+03  0.13116198725E+03  0.00000000000E+00 0.  1.
         21   -1    0    0  501  502 -0.00000000000E+00 -0.00000000000E+00 -0.74478214180E+03  0.74478214180E+03  0.00000000000E+00 0.  1.
         25    1    1    2    0    0 -0.17371891999E+03 -0.79890793099E+02 -0.12120126853E+03  0.25860307322E+03  0.12500000000E+03 0.  0.
         25    1    1    2    0    0  0.18391520084E+03  0.79528513462E+02 -0.24701571382E+03  0.34174749221E+03  0.12500000000E+03 0.  0.
         25    1    1    2    0    0 -0.10196280850E+02  0.36227963681E+00 -0.24540317219E+03  0.27559356363E+03  0.12500000000E+03 0.  0.
</event>
<event>
 5    0  0.5851292E-005  0.2681640E+03  0.7546771E-02  0.1102335E+00
         21   -1    0    0  502  501  0.00000000000E+00  0.00000000000E+00  0.74933340626E+03  0.74933340626E+03  0.00000000000E+00 0. -1.
         21   -1    0    0  501  502 -0.00000000000E+00 -0.00000000000E+00 -0.95967841165E+02  0.95967841165E+02  0.00000000000E+00 0. -1.
         25    1    1    2    0    0 -0.14922140767E+03 -0.17931579949E+02  0.18673121096E+03  0.27033704003E+03  0.12500000000E+03 0.  0.
         25    1    1    2    0    0  0.62726578212E+02  0.59076373659E+02  0.11757102617E+03  0.19202236259E+03  0.12500000000E+03 0.  0.
         25    1    1    2    0    0  0.86494829459E+02 -0.41144793710E+02  0.34906332797E+03  0.38294184481E+03  0.12500000000E+03 0.  0.
</event>
<event>
 5    0  0.5851292E-005  0.4708980E+03  0.7546771E-02  0.1021667E+00
         21   -1    0    0  502  501  0.00000000000E+00  0.00000000000E+00  0.25034330442E+03  0.25034330442E+03  0.00000000000E+00 0.  1.
         21   -1    0    0  501  502 -0.00000000000E+00 -0.00000000000E+00 -0.88576349312E+03  0.88576349312E+03  0.00000000000E+00 0.  1.
         25    1    1    2    0    0 -0.12027137234E+03 -0.27160804025E+03 -0.12775508373E+03  0.34667346589E+03  0.12500000000E+03 0.  0.
         25    1    1    2    0    0  0.20331314518E+03  0.34068304995E+02 -0.40761084809E+02  0.24450634029E+03  0.12500000000E+03 0.  0.
         25    1    1    2    0    0 -0.83041772839E+02  0.23753973526E+03 -0.46690402016E+03  0.54492699136E+03  0.12500000000E+03 0.  0.
</event>
<event>
 5    0  0.5851292E-005  0.2649456E+03  0.7546771E-02  0.1104208E+00
         21   -1    0    0  502  501  0.00000000000E+00  0.00000000000E+00  0.14254238891E+03  0.14254238891E+03  0.00000000000E+00 0.  1.
         21   -1    0    0  501  502 -0.00000000000E+00 -0.00000000000E+00 -0.49245827826E+03  0.49245827826E+03  0.00000000000E+00 0.  1.
         25    1    1    2    0    0  0.89793892443E+02  0.44045076459E+02 -0.78079486793E+02  0.17811321719E+03  0.12500000000E+03 0.  0.
         25    1    1    2    0    0  0.33521495017E+02  0.74518047143E+02 -0.15372347509E+03  0.21431877373E+03  0.12500000000E+03 0.  0.
         25    1    1    2    0    0 -0.12331538746E+03 -0.11856312360E+03 -0.11811292747E+03  0.24256867625E+03  0.12500000000E+03 0.  0.
</event>
<event>
 5    0  0.5851292E-005  0.2985348E+03  0.7546771E-02  0.1085975E+00
         21   -1    0    0  502  501  0.00000000000E+00  0.00000000000E+00  0.27997987630E+03  0.27997987630E+03  0.00000000000E+00 0.  1.
         21   -1    0    0  501  502 -0.00000000000E+00 -0.00000000000E+00 -0.31831939095E+03  0.31831939095E+03  0.00000000000E+00 0.  1.
         25    1    1    2    0    0 -0.12238310382E+03  0.87836240573E+02 -0.13927751567E+03  0.24024166089E+03  0.12500000000E+03 0.  0.
         25    1    1    2    0    0 -0.26903654361E+02 -0.60180691657E+02  0.74117169690E+02  0.15957404898E+03  0.12500000000E+03 0.  0.
         25    1    1    2    0    0  0.14928675818E+03 -0.27655548917E+02  0.26820831327E+02  0.19848355737E+03  0.12500000000E+03 0.  0.
</event>
<event>
 5    0  0.5851292E-005  0.3929596E+03  0.7546771E-02  0.1046245E+00
         21   -1    0    0  502  501  0.00000000000E+00  0.00000000000E+00  0.15951755023E+03  0.15951755023E+03  0.00000000000E+00 0.  1.
         21   -1    0    0  501  502 -0.00000000000E+00 -0.00000000000E+00 -0.96802687537E+03  0.96802687537E+03  0.00000000000E+00 0.  1.
         25    1    1    2    0    0  0.15187748575E+02 -0.26276580543E+03 -0.54159274337E+03  0.61499937876E+03  0.12500000000E+03 0.  0.
         25    1    1    2    0    0  0.38945961432E+01  0.23258715619E+03 -0.27630618183E+03  0.38220682780E+03  0.12500000000E+03 0.  0.
         25    1    1    2    0    0 -0.19082344718E+02  0.30178649239E+02  0.93896000544E+01  0.13033821903E+03  0.12500000000E+03 0.  0.
</event>
<event>
 5    0  0.5851292E-005  0.2766365E+03  0.7546771E-02  0.1097540E+00
         21   -1    0    0  502  501  0.00000000000E+00  0.00000000000E+00  0.28030925676E+03  0.28030925676E+03  0.00000000000E+00 0. -1.
         21   -1    0    0  501  502 -0.00000000000E+00 -0.00000000000E+00 -0.27301191249E+03  0.27301191249E+03  0.00000000000E+00 0. -1.
         25    1    1    2    0    0  0.57379778790E+02  0.93039210606E+02 -0.25020524149E+02  0.16792784270E+03  0.12500000000E+03 0.  0.
         25    1    1    2    0    0 -0.46136961960E+02 -0.16891166259E+03  0.82462332488E+02  0.23040140038E+03  0.12500000000E+03 0.  0.
         25    1    1    2    0    0 -0.11242816830E+02  0.75872451983E+02 -0.50144464070E+02  0.15499192617E+03  0.12500000000E+03 0.  0.
</event>
<event>
 5    0  0.5851292E-005  0.3256006E+03  0.7546771E-02  0.1073100E+00
         21   -1    0    0  502  501  0.00000000000E+00  0.00000000000E+00  0.42186812259E+02  0.42186812259E+02  0.00000000000E+00 0. -1.
         21   -1    0    0  501  502 -0.00000000000E+00 -0.00000000000E+00 -0.25130068140E+04  0.25130068140E+04  0.00000000000E+00 0. -1.
         25    1    1    2    0    0  0.90650259181E+02  0.15718758040E+03 -0.11490601322E+04  0.11699955522E+04  0.12500000000E+03 0.  0.
         25    1    1    2    0    0 -0.14854696005E+03  0.13377399747E+02 -0.58612900909E+03  0.61758996872E+03  0.12500000000E+03 0.  0.
         25    1    1    2    0    0  0.57896700870E+02 -0.17056498015E+03 -0.73563086043E+03  0.76760810525E+03  0.12500000000E+03 0.  0.
</event>
<event>
 5    0  0.5851292E-005  0.2513978E+03  0.7546771E-02  0.1112425E+00
         21   -1    0    0  502  501  0.00000000000E+00  0.00000000000E+00  0.57984452943E+03  0.57984452943E+03  0.00000000000E+00 0. -1.
         21   -1    0    0  501  502 -0.00000000000E+00 -0.00000000000E+00 -0.10899623568E+03  0.10899623568E+03  0.00000000000E+00 0. -1.
         25    1    1    2    0    0 -0.66543682650E+02  0.50103215770E+01  0.27793923651E+03  0.31197497370E+03  0.12500000000E+03 0.  0.
         25    1    1    2    0    0  0.94091783651E+02 -0.73352215124E+02  0.69024865592E+02  0.18607322022E+03  0.12500000000E+03 0.  0.
         25    1    1    2    0    0 -0.27548101001E+02  0.68341893547E+02  0.12388419164E+03  0.19079257119E+03  0.12500000000E+03 0.  0.
</event>
<event>
 5    0  0.5851292E-005  0.4032253E+03  0.7546771E-02  0.1042669E+00
         21   -1    0    0  502  501  0.00000000000E+00  0.00000000000E+00  0.15346417230E+03  0.15346417230E+03  0.00000000000E+00 0.  1.
         21   -1    0    0  501  502 -0.00000000000E+00 -0.00000000000E+00 -0.10594695615E+04  0.10594695615E+04  0.00000000000E+00 0.  1.
         25    1    1    2    0    0  0.18561059086E+03  0.14072098935E+03 -0.55840557207E+03  0.61781507849E+03  0.12500000000E+03 0.  0.
         25    1    1    2    0    0  0.90989062255E+02 -0.73257464501E+02 -0.14214775774E+03  0.22243347451E+03  0.12500000000E+03 0.  0.
         25    1    1    2    0    0 -0.27659965311E+03 -0.67463524847E+02 -0.20545205941E+03  0.37268518082E+03  0.12500000000E+03 0.  0.
</event>
<event>
 5    0  0.5851292E-005  0.2546942E+03  0.7546771E-02  0.1110374E+00
         21   -1    0    0  502  501  0.00000000000E+00  0.00000000000E+00  0.88527424455E+02  0.88527424455E+02  0.00000000000E+00 0. -1.
         21   -1    0    0  501  502 -0.00000000000E+00 -0.00000000000E+00 -0.73275743944E+03  0.73275743944E+03  0.00000000000E+00 0. -1.
         25    1    1    2    0    0 -0.17433820331E+02 -0.89137832132E+01 -0.10374015497E+03  0.16361666595E+03  0.12500000000E+03 0.  0.
         25    1    1    2    0    0 -0.23722502454E+02  0.11215562413E+02 -0.50562503261E+03  0.52150764094E+03  0.12500000000E+03 0.  0.
         25    1    1    2    0    0  0.41156322785E+02 -0.23017791996E+01 -0.34864827400E+02  0.13616055700E+03  0.12500000000E+03 0.  0.
</event>
<event>
 5    0  0.5851292E-005  0.2832824E+03  0.7546771E-02  0.1093910E+00
         21   -1    0    0  502  501  0.00000000000E+00  0.00000000000E+00  0.43600787172E+03  0.43600787172E+03  0.00000000000E+00 0. -1.
         21   -1    0    0  501  502 -0.00000000000E+00 -0.00000000000E+00 -0.18405386110E+03  0.18405386110E+03  0.00000000000E+00 0. -1.
         25    1    1    2    0    0 -0.22685761434E+02  0.11115185634E+03 -0.14218238342E+01  0.16880876909E+03  0.12500000000E+03 0.  0.
         25    1    1    2    0    0  0.85091910908E+01 -0.15451150105E+03  0.44897684457E+02  0.20392893949E+03  0.12500000000E+03 0.  0.
         25    1    1    2    0    0  0.14176570343E+02  0.43359644709E+02  0.20847815000E+03  0.24732402423E+03  0.12500000000E+03 0.  0.
</event>
<event>
 5    0  0.5851292E-005  0.2574032E+03  0.7546771E-02  0.1108714E+00
         21   -1    0    0  502  501  0.00000000000E+00  0.00000000000E+00  0.62476361251E+02  0.62476361251E+02  0.00000000000E+00 0. -1.
         21   -1    0    0  501  502 -0.00000000000E+00 -0.00000000000E+00 -0.10605036236E+04  0.10605036236E+04  0.00000000000E+00 0. -1.
         25    1    1    2    0    0 -0.68595843233E+02 -0.58353165389E+02 -0.24571680017E+03  0.29002108114E+03  0.12500000000E+03 0.  0.
         25    1    1    2    0    0  0.41809830537E+02 -0.62487896329E+02 -0.52866549471E+03  0.54842046316E+03  0.12500000000E+03 0.  0.
         25    1    1    2    0    0  0.26786012697E+02  0.12084106172E+03 -0.22364496744E+03  0.28453844053E+03  0.12500000000E+03 0.  0.
</event>
<event>
 5    0  0.5851292E-005  0.2514885E+03  0.7546771E-02  0.1112368E+00
         21   -1    0    0  502  501  0.00000000000E+00  0.00000000000E+00  0.45030136477E+03  0.45030136477E+03  0.00000000000E+00 0.  1.
         21   -1    0    0  501  502 -0.00000000000E+00 -0.00000000000E+00 -0.14045364647E+03  0.14045364647E+03  0.00000000000E+00 0.  1.
         25    1    1    2    0    0  0.25140459893E+02  0.46349104733E+02 -0.50732808331E+02  0.14484163792E+03  0.12500000000E+03 0.  0.
         25    1    1    2    0    0 -0.40107864536E+02 -0.12430844391E+02  0.17546101420E+03  0.21948743516E+03  0.12500000000E+03 0.  0.
         25    1    1    2    0    0  0.14967404643E+02 -0.33918260342E+02  0.18511951244E+03  0.22642593816E+03  0.12500000000E+03 0.  0.
</event>
<event>
 5    0  0.5851292E-005  0.3456937E+03  0.7546771E-02  0.1064397E+00
         21   -1    0    0  502  501  0.00000000000E+00  0.00000000000E+00  0.10031524697E+04  0.10031524697E+04  0.00000000000E+00 0.  1.
         21   -1    0    0  501  502 -0.00000000000E+00 -0.00000000000E+00 -0.11912858188E+03  0.11912858188E+03  0.00000000000E+00 0.  1.
         25    1    1    2    0    0 -0.48647331796E+02 -0.53559403318E+01  0.37297279674E+03  0.39639494964E+03  0.12500000000E+03 0.  0.
         25    1    1    2    0    0 -0.35496682956E+01 -0.10839218450E+03  0.52303991394E+03  0.54859567751E+03  0.12500000000E+03 0.  0.
         25    1    1    2    0    0  0.52197000092E+02  0.11374812484E+03 -0.11988822857E+02  0.17729042443E+03  0.12500000000E+03 0.  0.
</event>
<event>
 5    0  0.5851292E-005  0.2695657E+03  0.7546771E-02  0.1101528E+00
         21   -1    0    0  502  501  0.00000000000E+00  0.00000000000E+00  0.43188749449E+03  0.43188749449E+03  0.00000000000E+00 0.  1.
         21   -1    0    0  501  502 -0.00000000000E+00 -0.00000000000E+00 -0.16825140438E+03  0.16825140438E+03  0.00000000000E+00 0.  1.
         25    1    1    2    0    0  0.17092325621E+03 -0.91321193958E+01  0.90178283091E+02  0.23033731322E+03  0.12500000000E+03 0.  0.
         25    1    1    2    0    0 -0.12726205167E+03  0.38518045237E+02  0.14026688090E+03  0.23017182165E+03  0.12500000000E+03 0.  0.
         25    1    1    2    0    0 -0.43661204543E+02 -0.29385925841E+02  0.33190926111E+02  0.13962976400E+03  0.12500000000E+03 0.  0.
</event>
<event>
 5    0  0.5851292E-005  0.3419056E+03  0.7546771E-02  0.1065987E+00
         21   -1    0    0  502  501  0.00000000000E+00  0.00000000000E+00  0.17877972725E+04  0.17877972725E+04  0.00000000000E+00 0. -1.
         21   -1    0    0  501  502 -0.00000000000E+00 -0.00000000000E+00 -0.65387430213E+02  0.65387430213E+02  0.00000000000E+00 0. -1.
         25    1    1    2    0    0 -0.10789451770E+03  0.13711602174E+03  0.24940646334E+03  0.32904500349E+03  0.12500000000E+03 0.  0.
         25    1    1    2    0    0  0.17084588450E+03 -0.42901930342E+02  0.96408818300E+03  0.98798781191E+03  0.12500000000E+03 0.  0.
         25    1    1    2    0    0 -0.62951366798E+02 -0.94214091402E+02  0.50891519594E+03  0.53615188731E+03  0.12500000000E+03 0.  0.
</event>
<event>
 5    0  0.5851292E-005  0.2590827E+03  0.7546771E-02  0.1107696E+00
         21   -1    0    0  502  501  0.00000000000E+00  0.00000000000E+00  0.51329552914E+03  0.51329552914E+03  0.00000000000E+00 0.  1.
         21   -1    0    0  501  502 -0.00000000000E+00 -0.00000000000E+00 -0.13077038862E+03  0.13077038862E+03  0.00000000000E+00 0.  1.
         25    1    1    2    0    0  0.35275195123E+02 -0.41763146742E+02  0.46260475184E+02  0.14406085999E+03  0.12500000000E+03 0.  0.
         25    1    1    2    0    0 -0.12156697850E+03  0.10540896565E+03  0.20891965514E+03  0.29182529466E+03  0.12500000000E+03 0.  0.
         25    1    1    2    0    0  0.86291783380E+02 -0.63645818910E+02  0.12734501019E+03  0.20817976310E+03  0.12500000000E+03 0.  0.
</event>
<event>
 5    0  0.5851292E-005  0.2385255E+03  0.7546771E-02  0.1120779E+00
         21   -1    0    0  502  501  0.00000000000E+00  0.00000000000E+00  0.73078524179E+03  0.73078524179E+03  0.00000000000E+00 0.  1.
         21   -1    0    0  501  502 -0.00000000000E+00 -0.00000000000E+00 -0.77853780681E+02  0.77853780681E+02  0.00000000000E+00 0.  1.
         25    1    1    2    0    0  0.39617427741E+02 -0.83075774571E+02  0.36889494809E+03  0.40022444656E+03  0.12500000000E+03 0.  0.
         25    1    1    2    0    0 -0.58933222385E+02  0.21005248338E+01  0.98538951076E+02  0.16974233940E+03  0.12500000000E+03 0.  0.
         25    1    1    2    0    0  0.19315794645E+02  0.80975249737E+02  0.18549756194E+03  0.23867223650E+03  0.12500000000E+03 0.  0.
</event>
<event>
 5    0  0.5851292E-005  0.3400391E+03  0.7546771E-02  0.1066779E+00
         21   -1    0    0  502  501  0.00000000000E+00  0.00000000000E+00  0.31750919328E+02  0.31750919328E+02  0.00000000000E+00 0. -1.
         21   -1    0    0  501  502 -0.00000000000E+00 -0.00000000000E+00 -0.36416764065E+04  0.36416764065E+04  0.00000000000E+00 0. -1.
         25    1    1    2    0    0 -0.78481072580E+02 -0.58621886040E+01 -0.39713513847E+03  0.42371566199E+03  0.12500000000E+03 0.  0.
         25    1    1    2    0    0  0.15141340144E+03 -0.12095089891E+03 -0.25250939982E+04  0.25356024606E+04  0.12500000000E+03 0.  0.
         25    1    1    2    0    0 -0.72932328856E+02  0.12681308752E+03 -0.68769635050E+03  0.71410920331E+03  0.12500000000E+03 0.  0.
</event>
<event>
 5    0  0.5851292E-005  0.2818358E+03  0.7546771E-02  0.1094690E+00
         21   -1    0    0  502  501  0.00000000000E+00  0.00000000000E+00  0.58438891436E+03  0.58438891436E+03  0.00000000000E+00 0. -1.
         21   -1    0    0  501  502 -0.00000000000E+00 -0.00000000000E+00 -0.13592216361E+03  0.13592216361E+03  0.00000000000E+00 0. -1.
         25    1    1    2    0    0  0.10514060766E+03 -0.15085439443E+02 -0.13005301565E+02  0.16454864245E+03  0.12500000000E+03 0.  0.
         25    1    1    2    0    0 -0.31126898058E+02 -0.56243125519E+02  0.27512041144E+03  0.30894726693E+03  0.12500000000E+03 0.  0.
         25    1    1    2    0    0 -0.74013709604E+02  0.71328564963E+02  0.18635164088E+03  0.24681516860E+03  0.12500000000E+03 0.  0.
</event>
<event>
 5    0  0.5851292E-005  0.3497108E+03  0.7546771E-02  0.1062734E+00
         21   -1    0    0  502  501  0.00000000000E+00  0.00000000000E+00  0.99619978553E+03  0.99619978553E+03  0.00000000000E+00 0. -1.
         21   -1    0    0  501  502 -0.00000000000E+00 -0.00000000000E+00 -0.12276417281E+03  0.12276417281E+03  0.00000000000E+00 0. -1.
         25    1    1    2    0    0  0.85859368651E+02  0.79901878830E+02  0.39868233551E+03  0.43396860033E+03  0.12500000000E+03 0.  0.
         25    1    1    2    0    0  0.16362887570E+02  0.60107695251E+02 -0.24614019777E+02  0.14181512292E+03  0.12500000000E+03 0.  0.
         25    1    1    2    0    0 -0.10222225622E+03 -0.14000957408E+03  0.49936729699E+03  0.54318023510E+03  0.12500000000E+03 0.  0.
</event>
<event>
 5    0  0.5851292E-005  0.2419959E+03  0.7546771E-02  0.1118470E+00
         21   -1    0    0  502  501  0.00000000000E+00  0.00000000000E+00  0.36295624398E+03  0.36295624398E+03  0.00000000000E+00 0. -1.
         21   -1    0    0  501  502 -0.00000000000E+00 -0.00000000000E+00 -0.16134732466E+03  0.16134732466E+03  0.00000000000E+00 0. -1.
         25    1    1    2    0    0 -0.59666600140E+02  0.75202212713E+02  0.35116797486E+02  0.16147342021E+03  0.12500000000E+03 0.  0.
         25    1    1    2    0    0  0.68961868410E+02  0.43070617822E+02  0.90945537441E+02  0.17466226895E+03  0.12500000000E+03 0.  0.
         25    1    1    2    0    0 -0.92952682700E+01 -0.11827283053E+03  0.75546584395E+02  0.18816787948E+03  0.12500000000E+03 0.  0.
</event>
<event>
 5    0  0.5851292E-005  0.2455269E+03  0.7546771E-02  0.1116165E+00
         21   -1    0    0  502  501  0.00000000000E+00  0.00000000000E+00  0.21804382631E+03  0.21804382631E+03  0.00000000000E+00 0. -1.
         21   -1    0    0  501  502 -0.00000000000E+00 -0.00000000000E+00 -0.27647398335E+03  0.27647398335E+03  0.00000000000E+00 0. -1.
         25    1    1    2    0    0 -0.11231030897E+03 -0.87136558242E+02  0.13918891868E+01  0.18929691661E+03  0.12500000000E+03 0.  0.
         25    1    1    2    0    0  0.36754099763E+02  0.73401940509E+02 -0.51925673904E+02  0.15830345647E+03  0.12500000000E+03 0.  0.
         25    1    1    2    0    0  0.75556209209E+02  0.13734617733E+02 -0.78963723251E+01  0.14691743658E+03  0.12500000000E+03 0.  0.
</event>
<event>
 5    0  0.5851292E-005  0.3049487E+03  0.7546771E-02  0.1082793E+00
         21   -1    0    0  502  501  0.00000000000E+00  0.00000000000E+00  0.65845093474E+02  0.65845093474E+02  0.00000000000E+00 0. -1.
         21   -1    0    0  501  502 -0.00000000000E+00 -0.00000000000E+00 -0.14123104755E+04  0.14123104755E+04  0.00000000000E+00 0. -1.
         25    1    1    2    0    0 -0.36450755770E+02  0.92697879075E+02 -0.10316523044E+03  0.19023569369E+03  0.12500000000E+03 0.  0.
         25    1    1    2    0    0  0.92463496446E+02  0.17424854736E+02 -0.68352279428E+03  0.70120006705E+03  0.12500000000E+03 0.  0.
         25    1    1    2    0    0 -0.56012740676E+02 -0.11012273381E+03 -0.55977735733E+03  0.58671980826E+03  0.12500000000E+03 0.  0.
</event>
<event>
 5    0  0.5851292E-005  0.2522080E+03  0.7546771E-02  0.1111917E+00
         21   -1    0    0  502  501  0.00000000000E+00  0.00000000000E+00  0.29632228093E+02  0.29632228093E+02  0.00000000000E+00 0. -1.
         21   -1    0    0  501  502 -0.00000000000E+00 -0.00000000000E+00 -0.21466111533E+04  0.21466111533E+04  0.00000000000E+00 0. -1.
         25    1    1    2    0    0 -0.33970991893E+02  0.75176574781E+01 -0.25033405915E+03  0.28196220427E+03  0.12500000000E+03 0.  0.
         25    1    1    2    0    0 -0.77824590382E+02 -0.31846271223E+02 -0.99170822560E+03  0.10030857673E+04  0.12500000000E+03 0.  0.
         25    1    1    2    0    0  0.11179558227E+03  0.24328613745E+02 -0.87493664041E+03  0.89119540977E+03  0.12500000000E+03 0.  0.
</event>
<event>
 5    0  0.5851292E-005  0.3917830E+03  0.7546771E-02  0.1046663E+00
         21   -1    0    0  502  501  0.00000000000E+00  0.00000000000E+00  0.19086731406E+03  0.19086731406E+03  0.00000000000E+00 0.  1.
         21   -1    0    0  501  502 -0.00000000000E+00 -0.00000000000E+00 -0.80419190279E+03  0.80419190279E+03  0.00000000000E+00 0.  1.
         25    1    1    2    0    0 -0.11934446118E+03  0.19300656030E+03 -0.36019631966E+03  0.44369023139E+03  0.12500000000E+03 0.  0.
         25    1    1    2    0    0  0.11251088830E+03 -0.26336066985E+03 -0.26158886543E+03  0.40751843753E+03  0.12500000000E+03 0.  0.
         25    1    1    2    0    0  0.68335728756E+01  0.70354109546E+02  0.84605963632E+01  0.14385054793E+03  0.12500000000E+03 0.  0.
</event>
<event>
 5    0  0.5927716E-005  0.3998368E+03  0.7546771E-02  0.1043836E+00
         21   -1    0    0  502  501  0.00000000000E+00  0.00000000000E+00  0.34252901568E+03  0.34252901568E+03  0.00000000000E+00 0. -1.
         21   -1    0    0  501  502 -0.00000000000E+00 -0.00000000000E+00 -0.46673269944E+03  0.46673269944E+03  0.00000000000E+00 0. -1.
         25    1    1    2    0    0  0.21532746376E+03 -0.87536642399E+02 -0.10509798341E+03  0.28407598724E+03  0.12500000000E+03 0.  0.
         25    1    1    2    0    0 -0.18024563059E+03 -0.13224778161E+03 -0.68615629430E+02  0.26516234214E+03  0.12500000000E+03 0.  0.
         25    1    1    2    0    0 -0.35081833168E+02  0.21978442401E+03  0.49509929068E+02  0.26002338574E+03  0.12500000000E+03 0.  0.
</event>
<event>
 5    0  0.5851292E-005  0.2776361E+03  0.7546771E-02  0.1096987E+00
         21   -1    0    0  502  501  0.00000000000E+00  0.00000000000E+00  0.60183719489E+03  0.60183719489E+03  0.00000000000E+00 0.  1.
         21   -1    0    0  501  502 -0.00000000000E+00 -0.00000000000E+00 -0.12807747864E+03  0.12807747864E+03  0.00000000000E+00 0.  1.
         25    1    1    2    0    0 -0.54586725430E+02  0.58422260509E+02  0.30516177901E+00  0.14838451483E+03  0.12500000000E+03 0.  0.
         25    1    1    2    0    0 -0.50674762536E+02 -0.72885746602E+02  0.32888653068E+03  0.36286583427E+03  0.12500000000E+03 0.  0.
         25    1    1    2    0    0  0.10526148797E+03  0.14463486093E+02  0.14456802378E+03  0.21866432443E+03  0.12500000000E+03 0.  0.
</event>
<event>
 5    0  0.5851292E-005  0.3691842E+03  0.7546771E-02  0.1055005E+00
         21   -1    0    0  502  501  0.00000000000E+00  0.00000000000E+00  0.35266431894E+03  0.35266431894E+03  0.00000000000E+00 0.  1.
         21   -1    0    0  501  502 -0.00000000000E+00 -0.00000000000E+00 -0.38647783409E+03  0.38647783409E+03  0.00000000000E+00 0.  1.
         25    1    1    2    0    0  0.10299709276E+03 -0.15490364929E+03  0.13659714083E+03  0.26246394145E+03  0.12500000000E+03 0.  0.
         25    1    1    2    0    0  0.92727962727E+02  0.10257409867E+03 -0.43995543399E+01  0.18645180843E+03  0.12500000000E+03 0.  0.
         25    1    1    2    0    0 -0.19572505549E+03  0.52329550624E+02 -0.16601110164E+03  0.29022640314E+03  0.12500000000E+03 0.  0.
</event>
<event>
 5    0  0.5851292E-005  0.2490128E+03  0.7546771E-02  0.1113930E+00
         21   -1    0    0  502  501  0.00000000000E+00  0.00000000000E+00  0.70730838475E+03  0.70730838475E+03  0.00000000000E+00 0.  1.
         21   -1    0    0  501  502 -0.00000000000E+00 -0.00000000000E+00 -0.87666677691E+02  0.87666677691E+02  0.00000000000E+00 0.  1.
         25    1    1    2    0    0  0.11397728710E+02 -0.38273302837E+02  0.10405987203E+03  0.16747600096E+03  0.12500000000E+03 0.  0.
         25    1    1    2    0    0  0.75452232268E+02  0.59489934900E+02  0.41471419688E+03  0.44367212760E+03  0.12500000000E+03 0.  0.
         25    1    1    2    0    0 -0.86849960978E+02 -0.21216632063E+02  0.10086763815E+03  0.18382693389E+03  0.12500000000E+03 0.  0.
</event>
<event>
 5    0  0.5851292E-005  0.2807438E+03  0.7546771E-02  0.1095283E+00
         21   -1    0    0  502  501  0.00000000000E+00  0.00000000000E+00  0.15983798622E+03  0.15983798622E+03  0.00000000000E+00 0. -1.
         21   -1    0    0  501  502 -0.00000000000E+00 -0.00000000000E+00 -0.49310597931E+03  0.49310597931E+03  0.00000000000E+00 0. -1.
         25    1    1    2    0    0 -0.16799290358E+03  0.87678439246E+02 -0.21598422985E+03  0.31334216427E+03  0.12500000000E+03 0.  0.
         25    1    1    2    0    0  0.10752699033E+03 -0.26876208997E+02 -0.58184301933E+02  0.17690335568E+03  0.12500000000E+03 0.  0.
         25    1    1    2    0    0  0.60465913253E+02 -0.60802230249E+02 -0.59099461299E+02  0.16269844558E+03  0.12500000000E+03 0.  0.
</event>
<event>
 5    0  0.5851292E-005  0.5889007E+03  0.7546771E-02  0.9928705E-01
         21   -1    0    0  502  501  0.00000000000E+00  0.00000000000E+00  0.16469502285E+03  0.16469502285E+03  0.00000000000E+00 0. -1.
         21   -1    0    0  501  502 -0.00000000000E+00 -0.00000000000E+00 -0.21057346071E+04  0.21057346071E+04  0.00000000000E+00 0.  1.
         25    1    1    2    0    0  0.42751337054E+03 -0.25606819783E+03 -0.96865246418E+03  0.10964721612E+04  0.12500000000E+03 0.  0.
         25    1    1    2    0    0 -0.84134452010E+02 -0.64602376173E+02 -0.32853526736E+03  0.36716821066E+03  0.12500000000E+03 0.  0.
         25    1    1    2    0    0 -0.34337891853E+03  0.32067057400E+03 -0.64385185268E+03  0.80678925806E+03  0.12500000000E+03 0.  0.
</event>
<event>
 5    0  0.5851292E-005  0.5081435E+03  0.7546771E-02  0.1011675E+00
         21   -1    0    0  502  501  0.00000000000E+00  0.00000000000E+00  0.66845826123E+03  0.66845826123E+03  0.00000000000E+00 0. -1.
         21   -1    0    0  501  502 -0.00000000000E+00 -0.00000000000E+00 -0.38627667672E+03  0.38627667672E+03  0.00000000000E+00 0. -1.
         25    1    1    2    0    0 -0.62729289255E+02  0.21369170628E+03  0.31508501421E+03  0.40558929379E+03  0.12500000000E+03 0.  0.
         25    1    1    2    0    0 -0.43652036219E+02 -0.38567153957E+03 -0.49867293740E+02  0.41080382628E+03  0.12500000000E+03 0.  0.
         25    1    1    2    0    0  0.10638132547E+03  0.17197983329E+03  0.16963864047E+02  0.23834181788E+03  0.12500000000E+03 0.  0.
</event>
<event>
 5    0  0.5851292E-005  0.2707597E+03  0.7546771E-02  0.1100846E+00
         21   -1    0    0  502  501  0.00000000000E+00  0.00000000000E+00  0.11309681131E+04  0.11309681131E+04  0.00000000000E+00 0.  1.
         21   -1    0    0  501  502 -0.00000000000E+00 -0.00000000000E+00 -0.64821315032E+02  0.64821315032E+02  0.00000000000E+00 0.  1.
         25    1    1    2    0    0  0.12418594196E+03 -0.80372824356E+02  0.54424243798E+03  0.57767358462E+03  0.12500000000E+03 0.  0.
         25    1    1    2    0    0 -0.89921874575E+02  0.83901696810E+02  0.41336861915E+03  0.44902567137E+03  0.12500000000E+03 0.  0.
         25    1    1    2    0    0 -0.34264067384E+02 -0.35288724537E+01  0.10853574097E+03  0.16909017216E+03  0.12500000000E+03 0.  0.
</event>
<event>
 5    0  0.5851292E-005  0.3884420E+03  0.7546771E-02  0.1047857E+00
         21   -1    0    0  502  501  0.00000000000E+00  0.00000000000E+00  0.79328980884E+03  0.79328980884E+03  0.00000000000E+00 0.  1.
         21   -1    0    0  501  502 -0.00000000000E+00 -0.00000000000E+00 -0.19020435784E+03  0.19020435784E+03  0.00000000000E+00 0.  1.
         25    1    1    2    0    0 -0.60763386344E+02 -0.10560637491E+02 -0.12820690321E+03  0.18938248656E+03  0.12500000000E+03 0.  0.
         25    1    1    2    0    0  0.28188544980E+02  0.71075742146E+01  0.14451262775E+03  0.19327185842E+03  0.12500000000E+03 0.  0.
         25    1    1    2    0    0  0.32574841364E+02  0.34530632765E+01  0.58677972647E+03  0.60083982170E+03  0.12500000000E+03 0.  0.
</event>
<event>
 5    0  0.5851292E-005  0.3496283E+03  0.7546771E-02  0.1062768E+00
         21   -1    0    0  502  501  0.00000000000E+00  0.00000000000E+00  0.61408803024E+03  0.61408803024E+03  0.00000000000E+00 0.  1.
         21   -1    0    0  501  502 -0.00000000000E+00 -0.00000000000E+00 -0.19905937978E+03  0.19905937978E+03  0.00000000000E+00 0.  1.
         25    1    1    2    0    0  0.20913095082E+03 -0.42554371969E+02  0.14305863257E+03  0.28572259539E+03  0.12500000000E+03 0.  0.
         25    1    1    2    0    0 -0.67845912206E+02 -0.12482930552E+03  0.17334041360E+03  0.25662681525E+03  0.12500000000E+03 0.  0.
         25    1    1    2    0    0 -0.14128503862E+03  0.16738367749E+03  0.98629604294E+02  0.27079799938E+03  0.12500000000E+03 0.  0.
</event>
<event>
 5    0  0.6542921E-005  0.2992935E+03  0.7546771E-02  0.1085594E+00
         21   -1    0    0  502  501  0.00000000000E+00  0.00000000000E+00  0.99758941525E+02  0.99758941525E+02  0.00000000000E+00 0.  1.
         21   -1    0    0  501  502 -0.00000000000E+00 -0.00000000000E+00 -0.89793047252E+03  0.89793047252E+03  0.00000000000E+00 0.  1.
         25    1    1    2    0    0  0.10052011333E+03  0.57758487458E+02 -0.11024738991E+03  0.20302665598E+03  0.12500000000E+03 0.  0.
         25    1    1    2    0    0 -0.17033579472E+03  0.37349790488E+02 -0.47354848580E+03  0.51988696677E+03  0.12500000000E+03 0.  0.
         25    1    1    2    0    0  0.69815681388E+02 -0.95108277946E+02 -0.21437565528E+03  0.27477579129E+03  0.12500000000E+03 0.  0.
</event>
<event>
 5    0  0.5851292E-005  0.3928154E+03  0.7546771E-02  0.1046296E+00
         21   -1    0    0  502  501  0.00000000000E+00  0.00000000000E+00  0.80547597994E+03  0.80547597994E+03  0.00000000000E+00 0.  1.
         21   -1    0    0  501  502 -0.00000000000E+00 -0.00000000000E+00 -0.19156861166E+03  0.19156861166E+03  0.00000000000E+00 0.  1.
         25    1    1    2    0    0 -0.79617424493E+02 -0.25281841905E+02  0.28373896261E+03  0.32110886739E+03  0.12500000000E+03 0.  0.
         25    1    1    2    0    0  0.49043739863E+02 -0.46167685679E+02  0.45891763266E+03  0.48038228234E+03  0.12500000000E+03 0.  0.
         25    1    1    2    0    0  0.30573684631E+02  0.71449527583E+02 -0.12874922698E+03  0.19555344188E+03  0.12500000000E+03 0.  0.
</event>
<event>
 5    0  0.5851292E-005  0.2973276E+03  0.7546771E-02  0.1086584E+00
         21   -1    0    0  502  501  0.00000000000E+00  0.00000000000E+00  0.71587095523E+03  0.71587095523E+03  0.00000000000E+00 0. -1.
         21   -1    0    0  501  502 -0.00000000000E+00 -0.00000000000E+00 -0.12349113615E+03  0.12349113615E+03  0.00000000000E+00 0. -1.
         25    1    1    2    0    0  0.11464736860E+03  0.11708587928E+03  0.15281562833E+03  0.25657501537E+03  0.12500000000E+03 0.  0.
         25    1    1    2    0    0  0.27013583291E+02  0.11395723340E+02  0.26767341604E+03  0.29687312753E+03  0.12500000000E+03 0.  0.
         25    1    1    2    0    0 -0.14166095189E+03 -0.12848160262E+03  0.17189077471E+03  0.28591394847E+03  0.12500000000E+03 0.  0.
</event>
<event>
 5    0  0.5851292E-005  0.2741807E+03  0.7546771E-02  0.1098910E+00
         21   -1    0    0  502  501  0.00000000000E+00  0.00000000000E+00  0.41415376977E+03  0.41415376977E+03  0.00000000000E+00 0. -1.
         21   -1    0    0  501  502 -0.00000000000E+00 -0.00000000000E+00 -0.18151484720E+03  0.18151484720E+03  0.00000000000E+00 0. -1.
         25    1    1    2    0    0 -0.38096074747E+02  0.27938447586E+02 -0.78932073700E+02  0.15520032224E+03  0.12500000000E+03 0.  0.
         25    1    1    2    0    0  0.96247771846E+02  0.30096327715E+02  0.14232297754E+03  0.21459322557E+03  0.12500000000E+03 0.  0.
         25    1    1    2    0    0 -0.58151697098E+02 -0.58034775301E+02  0.16924801873E+03  0.22587506915E+03  0.12500000000E+03 0.  0.
</event>
<event>
 5    0  0.5851292E-005  0.3151964E+03  0.7546771E-02  0.1077882E+00
         21   -1    0    0  502  501  0.00000000000E+00  0.00000000000E+00  0.31276003339E+03  0.31276003339E+03  0.00000000000E+00 0.  1.
         21   -1    0    0  501  502 -0.00000000000E+00 -0.00000000000E+00 -0.31765175596E+03  0.31765175596E+03  0.00000000000E+00 0.  1.
         25    1    1    2    0    0 -0.11067357183E+03  0.12360894146E+03  0.47342740295E+02  0.21305901757E+03  0.12500000000E+03 0.  0.
         25    1    1    2    0    0  0.81758961350E+02 -0.19650601616E+03  0.29632886304E+02  0.24860058347E+03  0.12500000000E+03 0.  0.
         25    1    1    2    0    0  0.28914610478E+02  0.72897074703E+02 -0.81867349174E+02  0.16875218831E+03  0.12500000000E+03 0.  0.
</event>
<event>
 5    0  0.5936452E-005  0.5511555E+03  0.7546771E-02  0.1001227E+00
         21   -1    0    0  502  501  0.00000000000E+00  0.00000000000E+00  0.69785290012E+03  0.69785290012E+03  0.00000000000E+00 0. -1.
         21   -1    0    0  501  502 -0.00000000000E+00 -0.00000000000E+00 -0.43529576502E+03  0.43529576502E+03  0.00000000000E+00 0. -1.
         25    1    1    2    0    0 -0.39889512677E+03  0.56136938952E+02  0.21600265272E+03  0.47386793947E+03  0.12500000000E+03 0.  0.
         25    1    1    2    0    0  0.79569724358E+02 -0.19097214092E+03 -0.10151466863E+03  0.26216774704E+03  0.12500000000E+03 0.  0.
         25    1    1    2    0    0  0.31932540241E+03  0.13483520197E+03  0.14806915101E+03  0.39711297863E+03  0.12500000000E+03 0.  0.
</event>
<event>
 5    0  0.5851292E-005  0.3782076E+03  0.7546771E-02  0.1051598E+00
         21   -1    0    0  502  501  0.00000000000E+00  0.00000000000E+00  0.90197130434E+03  0.90197130434E+03  0.00000000000E+00 0.  1.
         21   -1    0    0  501  502 -0.00000000000E+00 -0.00000000000E+00 -0.15858707444E+03  0.15858707444E+03  0.00000000000E+00 0.  1.
         25    1    1    2    0    0  0.28990492638E+02  0.42856294920E+02  0.23748887205E+03  0.27331863278E+03  0.12500000000E+03 0.  0.
         25    1    1    2    0    0 -0.96668665076E+02 -0.88679176353E+02  0.58905800708E+03  0.61629794972E+03  0.12500000000E+03 0.  0.
         25    1    1    2    0    0  0.67678172438E+02  0.45822881433E+02 -0.83162649236E+02  0.17094179628E+03  0.12500000000E+03 0.  0.
</event>
<event>
 5    0  0.5851292E-005  0.2716008E+03  0.7546771E-02  0.1100367E+00
         21   -1    0    0  502  501  0.00000000000E+00  0.00000000000E+00  0.14413108491E+04  0.14413108491E+04  0.00000000000E+00 0. -1.
         21   -1    0    0  501  502 -0.00000000000E+00 -0.00000000000E+00 -0.51180489362E+02  0.51180489362E+02  0.00000000000E+00 0. -1.
         25    1    1    2    0    0  0.55083084906E+02  0.30838419072E+02  0.30467832658E+03  0.33531930606E+03  0.12500000000E+03 0.  0.
         25    1    1    2    0    0  0.11857041609E+03  0.25480282928E+02  0.57587087143E+03  0.60163148933E+03  0.12500000000E+03 0.  0.
         25    1    1    2    0    0 -0.17365350100E+03 -0.56318702000E+02  0.50958116174E+03  0.55554054308E+03  0.12500000000E+03 0.  0.
</event>
<event>
 5    0  0.5851292E-005  0.3288476E+03  0.7546771E-02  0.1071648E+00
         21   -1    0    0  502  501  0.00000000000E+00  0.00000000000E+00  0.81610974403E+03  0.81610974403E+03  0.00000000000E+00 0.  1.
         21   -1    0    0  501  502 -0.00000000000E+00 -0.00000000000E+00 -0.13250760345E+03  0.13250760345E+03  0.00000000000E+00 0.  1.
         25    1    1    2    0    0 -0.27868566417E+02 -0.96591059201E+02  0.19830578094E+02  0.16163149922E+03  0.12500000000E+03 0.  0.
         25    1    1    2    0    0  0.17457150720E+03  0.80803656611E+02  0.36125492159E+03  0.42794223959E+03  0.12500000000E+03 0.  0.
         25    1    1    2    0    0 -0.14670294078E+03  0.15787402590E+02  0.30251664089E+03  0.35904360868E+03  0.12500000000E+03 0.  0.
</event>
<event>
 5    0  0.6574383E-005  0.3060715E+03  0.7546771E-02  0.1082244E+00
         21   -1    0    0  502  501  0.00000000000E+00  0.00000000000E+00  0.44566890631E+03  0.44566890631E+03  0.00000000000E+00 0.  1.
         21   -1    0    0  501  502 -0.00000000000E+00 -0.00000000000E+00 -0.21020035443E+03  0.21020035443E+03  0.00000000000E+00 0.  1.
         25    1    1    2    0    0  0.60786738369E+02 -0.11155502302E+03  0.16247020469E+03  0.24116616291E+03  0.12500000000E+03 0.  0.
         25    1    1    2    0    0 -0.17536799381E+03  0.76147421079E+02  0.46240994904E+01  0.22847044730E+03  0.12500000000E+03 0.  0.
         25    1    1    2    0    0  0.11458125544E+03  0.35407601942E+02  0.68374247695E+02  0.18623265053E+03  0.12500000000E+03 0.  0.
</event>
<event>
 5    0  0.5851292E-005  0.3467180E+03  0.7546771E-02  0.1063970E+00
         21   -1    0    0  502  501  0.00000000000E+00  0.00000000000E+00  0.13649059973E+03  0.13649059973E+03  0.00000000000E+00 0.  1.
         21   -1    0    0  501  502 -0.00000000000E+00 -0.00000000000E+00 -0.88074491153E+03  0.88074491153E+03  0.00000000000E+00 0.  1.
         25    1    1    2    0    0  0.85143060760E+02 -0.15073611252E+03 -0.11823288872E+03  0.24407935674E+03  0.12500000000E+03 0.  0.
         25    1    1    2    0    0 -0.56478209965E+02  0.13337147636E+03 -0.61407852946E+03  0.64319140173E+03  0.12500000000E+03 0.  0.
         25    1    1    2    0    0 -0.28664850796E+02  0.17364636157E+02 -0.11942893626E+02  0.12996475279E+03  0.12500000000E+03 0.  0.
</event>
<event>
 5    0  0.5851292E-005  0.2443945E+03  0.7546771E-02  0.1116899E+00
         21   -1    0    0  502  501  0.00000000000E+00  0.00000000000E+00  0.13264914857E+03  0.13264914857E+03  0.00000000000E+00 0.  1.
         21   -1    0    0  501  502 -0.00000000000E+00 -0.00000000000E+00 -0.45027551933E+03  0.45027551933E+03  0.00000000000E+00 0.  1.
         25    1    1    2    0    0 -0.10048429404E+03 -0.99288794305E+01 -0.22112129927E+03  0.27334100495E+03  0.12500000000E+03 0.  0.
         25    1    1    2    0    0  0.64135008333E+02 -0.38262531060E+02 -0.98466892979E+01  0.14594272119E+03  0.12500000000E+03 0.  0.
         25    1    1    2    0    0  0.36349285704E+02  0.48191410490E+02 -0.86658382201E+02  0.16364094177E+03  0.12500000000E+03 0.  0.
</event>
<event>
 5    0  0.5851292E-005  0.5085867E+03  0.7546771E-02  0.1011562E+00
         21   -1    0    0  502  501  0.00000000000E+00  0.00000000000E+00  0.34655499907E+04  0.34655499907E+04  0.00000000000E+00 0. -1.
         21   -1    0    0  501  502 -0.00000000000E+00 -0.00000000000E+00 -0.74637633092E+02  0.74637633092E+02  0.00000000000E+00 0. -1.
         25    1    1    2    0    0  0.36682259558E+03 -0.18445918689E+03  0.15109264497E+04  0.15707029461E+04  0.12500000000E+03 0.  0.
         25    1    1    2    0    0 -0.27412853136E+03  0.39099788349E+02  0.15294782112E+04  0.15593600751E+04  0.12500000000E+03 0.  0.
         25    1    1    2    0    0 -0.92694064222E+02  0.14535939854E+03  0.35050769665E+03  0.41012460265E+03  0.12500000000E+03 0.  0.
</event>
<event>
 5    0  0.5851292E-005  0.2879211E+03  0.7546771E-02  0.1091440E+00
         21   -1    0    0  502  501  0.00000000000E+00  0.00000000000E+00  0.43017530330E+03  0.43017530330E+03  0.00000000000E+00 0. -1.
         21   -1    0    0  501  502 -0.00000000000E+00 -0.00000000000E+00 -0.19270881015E+03  0.19270881015E+03  0.00000000000E+00 0. -1.
         25    1    1    2    0    0  0.67864511405E+02 -0.10820779539E+03 -0.40590569657E+01  0.17876239771E+03  0.12500000000E+03 0.  0.
         25    1    1    2    0    0 -0.12182086332E+03  0.41737811964E+02  0.23062198841E+03  0.29222229420E+03  0.12500000000E+03 0.  0.
         25    1    1    2    0    0  0.53956351917E+02  0.66469983423E+02  0.10903561701E+02  0.15189942155E+03  0.12500000000E+03 0.  0.
</event>
<event>
 5    0  0.5851292E-005  0.3382366E+03  0.7546771E-02  0.1067549E+00
         21   -1    0    0  502  501  0.00000000000E+00  0.00000000000E+00  0.18675938052E+03  0.18675938052E+03  0.00000000000E+00 0.  1.
         21   -1    0    0  501  502 -0.00000000000E+00 -0.00000000000E+00 -0.61257442559E+03  0.61257442559E+03  0.00000000000E+00 0.  1.
         25    1    1    2    0    0 -0.12907143766E+03 -0.16043998538E+02 -0.24865184204E+03  0.30719632885E+03  0.12500000000E+03 0.  0.
         25    1    1    2    0    0  0.19736401504E+03  0.87660473388E+01 -0.24110403649E+03  0.33583560626E+03  0.12500000000E+03 0.  0.
         25    1    1    2    0    0 -0.68292577386E+02  0.72779511995E+01  0.63940833452E+02  0.15630187101E+03  0.12500000000E+03 0.  0.
</event>
<event>
 5    0  0.5851292E-005  0.4164296E+03  0.7546771E-02  0.1038235E+00
         21   -1    0    0  502  501  0.00000000000E+00  0.00000000000E+00  0.25029556407E+03  0.25029556407E+03  0.00000000000E+00 0. -1.
         21   -1    0    0  501  502 -0.00000000000E+00 -0.00000000000E+00 -0.69283530198E+03  0.69283530198E+03  0.00000000000E+00 0. -1.
         25    1    1    2    0    0 -0.25028690536E+03  0.14956634247E+03 -0.17167855651E+03  0.36071062164E+03  0.12500000000E+03 0.  0.
         25    1    1    2    0    0  0.27326345205E+03 -0.18342849826E+03 -0.28107493880E+03  0.45049644773E+03  0.12500000000E+03 0.  0.
         25    1    1    2    0    0 -0.22976546686E+02  0.33862155786E+02  0.10213757402E+02  0.13192379669E+03  0.12500000000E+03 0.  0.
</event>
<event>
 5    0  0.5851292E-005  0.3850547E+03  0.7546771E-02  0.1049081E+00
         21   -1    0    0  502  501  0.00000000000E+00  0.00000000000E+00  0.26685695483E+03  0.26685695483E+03  0.00000000000E+00 0. -1.
         21   -1    0    0  501  502 -0.00000000000E+00 -0.00000000000E+00 -0.55560510723E+03  0.55560510723E+03  0.00000000000E+00 0. -1.
         25    1    1    2    0    0 -0.56876702485E+02 -0.10248315801E+03 -0.13476986213E+03  0.21800383643E+03  0.12500000000E+03 0.  0.
         25    1    1    2    0    0  0.84879932142E+02  0.16531437869E+03 -0.31679899676E+03  0.38796913670E+03  0.12500000000E+03 0.  0.
         25    1    1    2    0    0 -0.28003229657E+02 -0.62831220681E+02  0.16282070649E+03  0.21648908893E+03  0.12500000000E+03 0.  0.
</event>
<event>
 5    0  0.5851292E-005  0.3304473E+03  0.7546771E-02  0.1070939E+00
         21   -1    0    0  502  501  0.00000000000E+00  0.00000000000E+00  0.51181350716E+03  0.51181350716E+03  0.00000000000E+00 0. -1.
         21   -1    0    0  501  502 -0.00000000000E+00 -0.00000000000E+00 -0.21335005963E+03  0.21335005963E+03  0.00000000000E+00 0. -1.
         25    1    1    2    0    0  0.12522135352E+02  0.22553954536E+03  0.22388049403E+03  0.34171971849E+03  0.12500000000E+03 0.  0.
         25    1    1    2    0    0 -0.81301375066E+02 -0.11982060533E+03  0.11688963476E+01  0.19129364174E+03  0.12500000000E+03 0.  0.
         25    1    1    2    0    0  0.68779239714E+02 -0.10571894002E+03  0.73414057141E+02  0.19215020656E+03  0.12500000000E+03 0.  0.
</event>
<event>
 5    0  0.6451752E-005  0.3311422E+03  0.7546771E-02  0.1070633E+00
         21   -1    0    0  502  501  0.00000000000E+00  0.00000000000E+00  0.41586976125E+03  0.41586976125E+03  0.00000000000E+00 0.  1.
         21   -1    0    0  501  502 -0.00000000000E+00 -0.00000000000E+00 -0.26367668691E+03  0.26367668691E+03  0.00000000000E+00 0.  1.
         25    1    1    2    0    0 -0.70267272047E+02 -0.52261237490E+02 -0.15492434491E+03  0.21747477810E+03  0.12500000000E+03 0.  0.
         25    1    1    2    0    0  0.32757871172E+02 -0.75334957646E+02  0.20231627685E+03  0.25160546465E+03  0.12500000000E+03 0.  0.
         25    1    1    2    0    0  0.37509400874E+02  0.12759619514E+03  0.10480114240E+03  0.21046620540E+03  0.12500000000E+03 0.  0.
</event>
<event>
 5    0  0.5851292E-005  0.3032272E+03  0.7546771E-02  0.1083638E+00
         21   -1    0    0  502  501  0.00000000000E+00  0.00000000000E+00  0.89561602752E+02  0.89561602752E+02  0.00000000000E+00 0. -1.
         21   -1    0    0  501  502 -0.00000000000E+00 -0.00000000000E+00 -0.10266308550E+04  0.10266308550E+04  0.00000000000E+00 0. -1.
         25    1    1    2    0    0  0.14704029088E+03  0.32068355067E+02 -0.38196549290E+03  0.42915249540E+03  0.12500000000E+03 0.  0.
         25    1    1    2    0    0  0.23668197428E+02  0.80423886013E+02 -0.30811756021E+03  0.34291342336E+03  0.12500000000E+03 0.  0.
         25    1    1    2    0    0 -0.17070848831E+03 -0.11249224108E+03 -0.24698619917E+03  0.34412653903E+03  0.12500000000E+03 0.  0.
</event>
<event>
 5    0  0.5851292E-005  0.3867313E+03  0.7546771E-02  0.1048474E+00
         21   -1    0    0  502  501  0.00000000000E+00  0.00000000000E+00  0.13679994507E+03  0.13679994507E+03  0.00000000000E+00 0.  1.
         21   -1    0    0  501  502 -0.00000000000E+00 -0.00000000000E+00 -0.10932831975E+04  0.10932831975E+04  0.00000000000E+00 0.  1.
         25    1    1    2    0    0  0.17616070244E+03  0.41809740939E+02 -0.38961942067E+03  0.44744713709E+03  0.12500000000E+03 0.  0.
         25    1    1    2    0    0 -0.30430698837E+03  0.48863355010E+02 -0.40997870260E+03  0.52791846645E+03  0.12500000000E+03 0.  0.
         25    1    1    2    0    0  0.12814628594E+03 -0.90673095950E+02 -0.15688512912E+03  0.25471753899E+03  0.12500000000E+03 0.  0.
</event>
<event>
 5    0  0.5851292E-005  0.2361489E+03  0.7546771E-02  0.1122385E+00
         21   -1    0    0  502  501  0.00000000000E+00  0.00000000000E+00  0.24558596208E+03  0.24558596208E+03  0.00000000000E+00 0.  1.
         21   -1    0    0  501  502 -0.00000000000E+00 -0.00000000000E+00 -0.22707442959E+03  0.22707442959E+03  0.00000000000E+00 0.  1.
         25    1    1    2    0    0 -0.20399512149E+02  0.28382813313E+01  0.84992187740E+02  0.15255447523E+03  0.12500000000E+03 0.  0.
         25    1    1    2    0    0 -0.25707273764E+02 -0.53212625439E+02 -0.10376254727E+03  0.17287022198E+03  0.12500000000E+03 0.  0.
         25    1    1    2    0    0  0.46106785914E+02  0.50374344107E+02  0.37281892017E+02  0.14723569446E+03  0.12500000000E+03 0.  0.
</event>
<event>
 5    0  0.5851292E-005  0.2751019E+03  0.7546771E-02  0.1098395E+00
         21   -1    0    0  502  501  0.00000000000E+00  0.00000000000E+00  0.42265341197E+03  0.42265341197E+03  0.00000000000E+00 0. -1.
         21   -1    0    0  501  502 -0.00000000000E+00 -0.00000000000E+00 -0.17906178848E+03  0.17906178848E+03  0.00000000000E+00 0. -1.
         25    1    1    2    0    0  0.15517909412E+02  0.63652299787E+02 -0.89917790663E+02  0.16733986333E+03  0.12500000000E+03 0.  0.
         25    1    1    2    0    0  0.36373340340E+02 -0.58866113175E+02  0.17037288005E+03  0.22235142775E+03  0.12500000000E+03 0.  0.
         25    1    1    2    0    0 -0.51891249752E+02 -0.47861866122E+01  0.16313653410E+03  0.21202390936E+03  0.12500000000E+03 0.  0.
</event>
<event>
 5    0  0.5851292E-005  0.2574196E+03  0.7546771E-02  0.1108704E+00
         21   -1    0    0  502  501  0.00000000000E+00  0.00000000000E+00  0.10529875358E+04  0.10529875358E+04  0.00000000000E+00 0.  1.
         21   -1    0    0  501  502 -0.00000000000E+00 -0.00000000000E+00 -0.62930331802E+02  0.62930331802E+02  0.00000000000E+00 0.  1.
         25    1    1    2    0    0  0.15162202152E+03 -0.21040473804E+01  0.31331747406E+03  0.36984659519E+03  0.12500000000E+03 0.  0.
         25    1    1    2    0    0 -0.69617094866E+02 -0.43994991728E+02  0.41462832792E+03  0.44082167540E+03  0.12500000000E+03 0.  0.
         25    1    1    2    0    0 -0.82004926649E+02  0.46099039109E+02  0.26211140201E+03  0.30524959699E+03  0.12500000000E+03 0.  0.
</event>
<event>
 5    0  0.5851292E-005  0.7061246E+03  0.7546771E-02  0.9706815E-01
         21   -1    0    0  502  501  0.00000000000E+00  0.00000000000E+00  0.11401027894E+04  0.11401027894E+04  0.00000000000E+00 0.  1.
         21   -1    0    0  501  502 -0.00000000000E+00 -0.00000000000E+00 -0.43733949089E+03  0.43733949089E+03  0.00000000000E+00 0.  1.
         25    1    1    2    0    0  0.10605128274E+03  0.53182920283E+03  0.79178658110E+02  0.56212403921E+03  0.12500000000E+03 0.  0.
         25    1    1    2    0    0 -0.53702261005E+02  0.82101133832E+02  0.56515029702E+02  0.16865194216E+03  0.12500000000E+03 0.  0.
         25    1    1    2    0    0 -0.52349021738E+02 -0.61393033666E+03  0.56706961073E+03  0.84666629894E+03  0.12500000000E+03 0.  0.
</event>
<event>
 5    0  0.5851292E-005  0.3230367E+03  0.7546771E-02  0.1074260E+00
         21   -1    0    0  502  501  0.00000000000E+00  0.00000000000E+00  0.34584633208E+03  0.34584633208E+03  0.00000000000E+00 0. -1.
         21   -1    0    0  501  502 -0.00000000000E+00 -0.00000000000E+00 -0.30173150738E+03  0.30173150738E+03  0.00000000000E+00 0. -1.
         25    1    1    2    0    0  0.87314576292E+02 -0.17091049070E+03  0.21697782856E+02  0.23006526215E+03  0.12500000000E+03 0.  0.
         25    1    1    2    0    0  0.42130598138E+02  0.41148307419E+01 -0.76979559447E+02  0.15278341436E+03  0.12500000000E+03 0.  0.
         25    1    1    2    0    0 -0.12944517443E+03  0.16679565996E+03  0.99396601294E+02  0.26472916295E+03  0.12500000000E+03 0.  0.
</event>
<event>
 5    0  0.5851292E-005  0.3624733E+03  0.7546771E-02  0.1057609E+00
         21   -1    0    0  502  501  0.00000000000E+00  0.00000000000E+00  0.26550178291E+04  0.26550178291E+04  0.00000000000E+00 0. -1.
         21   -1    0    0  501  502 -0.00000000000E+00 -0.00000000000E+00 -0.49486249536E+02  0.49486249536E+02  0.00000000000E+00 0. -1.
         25    1    1    2    0    0  0.78785443600E+02  0.39811188827E+02  0.15398623993E+03  0.21709177544E+03  0.12500000000E+03 0.  0.
         25    1    1    2    0    0 -0.33169106159E+02  0.11713328511E+03  0.16751994315E+04  0.16842620139E+04  0.12500000000E+03 0.  0.
         25    1    1    2    0    0 -0.45616337442E+02 -0.15694447394E+03  0.77634590805E+03  0.80315028923E+03  0.12500000000E+03 0.  0.
</event>
<event>
 5    0  0.5851292E-005  0.3771988E+03  0.7546771E-02  0.1051974E+00
         21   -1    0    0  502  501  0.00000000000E+00  0.00000000000E+00  0.76558749764E+03  0.76558749764E+03  0.00000000000E+00 0.  1.
         21   -1    0    0  501  502 -0.00000000000E+00 -0.00000000000E+00 -0.18584281338E+03  0.18584281338E+03  0.00000000000E+00 0.  1.
         25    1    1    2    0    0 -0.14185011834E+02 -0.16516340213E+02  0.14617073261E+03  0.19355848503E+03  0.12500000000E+03 0.  0.
         25    1    1    2    0    0  0.18267121495E+03  0.22621187604E+03  0.28598863058E+03  0.42656193273E+03  0.12500000000E+03 0.  0.
         25    1    1    2    0    0 -0.16848620311E+03 -0.20969553582E+03  0.14758532107E+03  0.33130989327E+03  0.12500000000E+03 0.  0.
</event>
<event>
 5    0  0.5851292E-005  0.2795283E+03  0.7546771E-02  0.1095947E+00
         21   -1    0    0  502  501  0.00000000000E+00  0.00000000000E+00  0.24053310939E+03  0.24053310939E+03  0.00000000000E+00 0.  1.
         21   -1    0    0  501  502 -0.00000000000E+00 -0.00000000000E+00 -0.32484536126E+03  0.32484536126E+03  0.00000000000E+00 0.  1.
         25    1    1    2    0    0 -0.14650250845E+03  0.81566553705E+01  0.38661795494E+02  0.19659412616E+03  0.12500000000E+03 0.  0.
         25    1    1    2    0    0 -0.71461760970E+00 -0.42589986662E+02 -0.11054347729E+03  0.17221869241E+03  0.12500000000E+03 0.  0.
         25    1    1    2    0    0  0.14721712606E+03  0.34433331291E+02 -0.12430570070E+02  0.19656565209E+03  0.12500000000E+03 0.  0.
</event>
<event>
 5    0  0.5851292E-005  0.4677877E+03  0.7546771E-02  0.1022546E+00
         21   -1    0    0  502  501  0.00000000000E+00  0.00000000000E+00  0.90890297525E+03  0.90890297525E+03  0.00000000000E+00 0.  1.
         21   -1    0    0  501  502 -0.00000000000E+00 -0.00000000000E+00 -0.24075764439E+03  0.24075764439E+03  0.00000000000E+00 0.  1.
         25    1    1    2    0    0  0.22357768196E+03  0.25269009498E+03  0.76619282521E+02  0.36787875506E+03  0.12500000000E+03 0.  0.
         25    1    1    2    0    0 -0.10612327568E+03  0.14494798344E+02  0.88392456667E+02  0.18684345109E+03  0.12500000000E+03 0.  0.
         25    1    1    2    0    0 -0.11745440628E+03 -0.26718489333E+03  0.50313359166E+03  0.59493841348E+03  0.12500000000E+03 0.  0.
</event>
<event>
 5    0  0.5851292E-005  0.3486106E+03  0.7546771E-02  0.1063187E+00
         21   -1    0    0  502  501  0.00000000000E+00  0.00000000000E+00  0.14325118642E+03  0.14325118642E+03  0.00000000000E+00 0. -1.
         21   -1    0    0  501  502 -0.00000000000E+00 -0.00000000000E+00 -0.84836558670E+03  0.84836558670E+03  0.00000000000E+00 0. -1.
         25    1    1    2    0    0 -0.14326841493E+03  0.16728090506E+03 -0.13750761079E+03  0.28817023258E+03  0.12500000000E+03 0.  0.
         25    1    1    2    0    0  0.19756548426E+03 -0.13066974346E+03 -0.30960123147E+03  0.40937101138E+03  0.12500000000E+03 0.  0.
         25    1    1    2    0    0 -0.54297069328E+02 -0.36611161599E+02 -0.25800555802E+03  0.29407552918E+03  0.12500000000E+03 0.  0.
</event>
<event>
 5    0  0.5851292E-005  0.3986127E+03  0.7546771E-02  0.1044261E+00
         21   -1    0    0  502  501  0.00000000000E+00  0.00000000000E+00  0.42965039991E+03  0.42965039991E+03  0.00000000000E+00 0. -1.
         21   -1    0    0  501  502 -0.00000000000E+00 -0.00000000000E+00 -0.36981717477E+03  0.36981717477E+03  0.00000000000E+00 0. -1.
         25    1    1    2    0    0  0.61467929411E+02  0.71643055870E+02 -0.21691425337E+02  0.15813460005E+03  0.12500000000E+03 0.  0.
         25    1    1    2    0    0  0.13203922077E+03 -0.17208780946E+03 -0.15646017220E+03  0.29521747148E+03  0.12500000000E+03 0.  0.
         25    1    1    2    0    0 -0.19350715018E+03  0.10044475359E+03  0.23798482268E+03  0.34611550315E+03  0.12500000000E+03 0.  0.
</event>
<event>
 5    0  0.5851292E-005  0.2144028E+03  0.7546771E-02  0.1138126E+00
         21   -1    0    0  502  501  0.00000000000E+00  0.00000000000E+00  0.42228033902E+03  0.42228033902E+03  0.00000000000E+00 0. -1.
         21   -1    0    0  501  502 -0.00000000000E+00 -0.00000000000E+00 -0.10885792551E+03  0.10885792551E+03  0.00000000000E+00 0. -1.
         25    1    1    2    0    0  0.13055484850E+02  0.45799662665E+01  0.42298075124E+01  0.12583446685E+03  0.12500000000E+03 0.  0.
         25    1    1    2    0    0 -0.12921657637E+02  0.53773786717E+01  0.97041050543E+02  0.15886425315E+03  0.12500000000E+03 0.  0.
         25    1    1    2    0    0 -0.13382721310E+00 -0.99573449383E+01  0.21215155545E+03  0.24643954453E+03  0.12500000000E+03 0.  0.
</event>
<event>
 5    0  0.5851292E-005  0.2508312E+03  0.7546771E-02  0.1112781E+00
         21   -1    0    0  502  501  0.00000000000E+00  0.00000000000E+00  0.18214573873E+03  0.18214573873E+03  0.00000000000E+00 0. -1.
         21   -1    0    0  501  502 -0.00000000000E+00 -0.00000000000E+00 -0.34541725164E+03  0.34541725164E+03  0.00000000000E+00 0. -1.
         25    1    1    2    0    0 -0.11106330450E+03 -0.31212816466E+01 -0.18426723543E+02  0.16825380871E+03  0.12500000000E+03 0.  0.
         25    1    1    2    0    0  0.13013807795E+03 -0.30860046021E+02 -0.13604139311E+03  0.22808007895E+03  0.12500000000E+03 0.  0.
         25    1    1    2    0    0 -0.19074773455E+02  0.33981327668E+02 -0.88033962645E+01  0.13122910271E+03  0.12500000000E+03 0.  0.
</event>
<event>
 5    0  0.5851292E-005  0.3016863E+03  0.7546771E-02  0.1084401E+00
         21   -1    0    0  502  501  0.00000000000E+00  0.00000000000E+00  0.10061217172E+04  0.10061217172E+04  0.00000000000E+00 0. -1.
         21   -1    0    0  501  502 -0.00000000000E+00 -0.00000000000E+00 -0.90460858191E+02  0.90460858191E+02  0.00000000000E+00 0. -1.
         25    1    1    2    0    0 -0.17951073462E+03  0.12282359034E+03  0.50690566640E+03  0.56558650339E+03  0.12500000000E+03 0.  0.
         25    1    1    2    0    0  0.10027418411E+03 -0.36590862530E+02  0.16345488553E+03  0.23181092042E+03  0.12500000000E+03 0.  0.
         25    1    1    2    0    0  0.79236550509E+02 -0.86232727809E+02  0.24530030711E+03  0.29918515162E+03  0.12500000000E+03 0.  0.
</event>
<event>
 5    0  0.5851292E-005  0.2526676E+03  0.7546771E-02  0.1111630E+00
         21   -1    0    0  502  501  0.00000000000E+00  0.00000000000E+00  0.21549241739E+03  0.21549241739E+03  0.00000000000E+00 0. -1.
         21   -1    0    0  501  502 -0.00000000000E+00 -0.00000000000E+00 -0.29625596137E+03  0.29625596137E+03  0.00000000000E+00 0. -1.
         25    1    1    2    0    0 -0.80133901472E+02 -0.96947022091E+02  0.88418212305E+01  0.17754814857E+03  0.12500000000E+03 0.  0.
         25    1    1    2    0    0 -0.31719374829E+02  0.46333042235E+02 -0.80118930528E+02  0.15873535388E+03  0.12500000000E+03 0.  0.
         25    1    1    2    0    0  0.11185327630E+03  0.50613979857E+02 -0.94864346838E+01  0.17546487631E+03  0.12500000000E+03 0.  0.
</event>
<event>
 5    0  0.5851292E-005  0.2665133E+03  0.7546771E-02  0.1103292E+00
         21   -1    0    0  502  501  0.00000000000E+00  0.00000000000E+00  0.29891791723E+03  0.29891791723E+03  0.00000000000E+00 0.  1.
         21   -1    0    0  501  502 -0.00000000000E+00 -0.00000000000E+00 -0.23762154025E+03  0.23762154025E+03  0.00000000000E+00 0.  1.
         25    1    1    2    0    0  0.97668617955E+01  0.74070594116E+02 -0.84145826409E+02  0.16818847940E+03  0.12500000000E+03 0.  0.
         25    1    1    2    0    0 -0.90287242186E+02 -0.11456017336E+02  0.54046501954E+01  0.15471663349E+03  0.12500000000E+03 0.  0.
         25    1    1    2    0    0  0.80520380390E+02 -0.62614576780E+02  0.14003755319E+03  0.21363434459E+03  0.12500000000E+03 0.  0.
</event>
<event>
 5    0  0.5851292E-005  0.4833028E+03  0.7546771E-02  0.1018231E+00
         21   -1    0    0  502  501  0.00000000000E+00  0.00000000000E+00  0.14103320422E+04  0.14103320422E+04  0.00000000000E+00 0. -1.
         21   -1    0    0  501  502 -0.00000000000E+00 -0.00000000000E+00 -0.16562167779E+03  0.16562167779E+03  0.00000000000E+00 0. -1.
         25    1    1    2    0    0  0.93282722289E+02 -0.26943318574E+03  0.36076807987E+03  0.47652336281E+03  0.12500000000E+03 0.  0.
         25    1    1    2    0    0 -0.10242324718E+03  0.39137410601E+03  0.80069414109E+03  0.90575952659E+03  0.12500000000E+03 0.  0.
         25    1    1    2    0    0  0.91405248935E+01 -0.12194092028E+03  0.83248143428E+02  0.19367083058E+03  0.12500000000E+03 0.  0.
</event>
<event>
 5    0  0.5851292E-005  0.4069319E+03  0.7546771E-02  0.1041406E+00
         21   -1    0    0  502  501  0.00000000000E+00  0.00000000000E+00  0.49410346666E+03  0.49410346666E+03  0.00000000000E+00 0. -1.
         21   -1    0    0  501  502 -0.00000000000E+00 -0.00000000000E+00 -0.33513939904E+03  0.33513939904E+03  0.00000000000E+00 0. -1.
         25    1    1    2    0    0  0.27644631967E+03  0.12024913986E+01  0.12486072114E+03  0.32808415587E+03  0.12500000000E+03 0.  0.
         25    1    1    2    0    0 -0.20046228383E+03  0.11375011455E+03 -0.90344047081E+02  0.27732879879E+03  0.12500000000E+03 0.  0.
         25    1    1    2    0    0 -0.75984035849E+02 -0.11495260594E+03  0.12444739356E+03  0.22382991105E+03  0.12500000000E+03 0.  0.
</event>
<event>
 5    0  0.5851292E-005  0.4065132E+03  0.7546771E-02  0.1041547E+00
         21   -1    0    0  502  501  0.00000000000E+00  0.00000000000E+00  0.18272951492E+03  0.18272951492E+03  0.00000000000E+00 0. -1.
         21   -1    0    0  501  502 -0.00000000000E+00 -0.00000000000E+00 -0.90435849875E+03  0.90435849875E+03  0.00000000000E+00 0. -1.
         25    1    1    2    0    0  0.22021449062E+03  0.10689044229E+03 -0.61506711055E+03  0.67368578656E+03  0.12500000000E+03 0.  0.
         25    1    1    2    0    0 -0.19723281165E+03 -0.81645364518E+02 -0.13344014512E+03  0.28106586393E+03  0.12500000000E+03 0.  0.
         25    1    1    2    0    0 -0.22981678972E+02 -0.25245077774E+02  0.26878271852E+02  0.13233636317E+03  0.12500000000E+03 0.  0.
</event>
<event>
 5    0  0.5851292E-005  0.5956079E+03  0.7546771E-02  0.9914560E-01
         21   -1    0    0  502  501  0.00000000000E+00  0.00000000000E+00  0.84529470205E+03  0.84529470205E+03  0.00000000000E+00 0.  1.
         21   -1    0    0  501  502 -0.00000000000E+00 -0.00000000000E+00 -0.41967466440E+03  0.41967466440E+03  0.00000000000E+00 0.  1.
         25    1    1    2    0    0 -0.28873067185E+03  0.54739158072E+02  0.34640310419E+03  0.47114953771E+03  0.12500000000E+03 0.  0.
         25    1    1    2    0    0  0.49423843031E+03 -0.14575704012E+03  0.82552803503E+02  0.53661597638E+03  0.12500000000E+03 0.  0.
         25    1    1    2    0    0 -0.20550775846E+03  0.91017882047E+02 -0.33358700458E+01  0.25720385236E+03  0.12500000000E+03 0.  0.
</event>
<event>
 5    0  0.5851292E-005  0.4770509E+03  0.7546771E-02  0.1019949E+00
         21   -1    0    0  502  501  0.00000000000E+00  0.00000000000E+00  0.13463192791E+04  0.13463192791E+04  0.00000000000E+00 0. -1.
         21   -1    0    0  501  502 -0.00000000000E+00 -0.00000000000E+00 -0.16903682749E+03  0.16903682749E+03  0.00000000000E+00 0. -1.
         25    1    1    2    0    0 -0.19175263238E+03  0.33139051272E+03  0.28673704083E+03  0.49440052035E+03  0.12500000000E+03 0.  0.
         25    1    1    2    0    0  0.70903681876E+02 -0.20426280811E+03  0.28873682765E+03  0.38176508814E+03  0.12500000000E+03 0.  0.
         25    1    1    2    0    0  0.12084895050E+03 -0.12712770460E+03  0.60180858311E+03  0.63919049807E+03  0.12500000000E+03 0.  0.
</event>
<event>
 5    0  0.5851292E-005  0.2735819E+03  0.7546771E-02  0.1099247E+00
         21   -1    0    0  502  501  0.00000000000E+00  0.00000000000E+00  0.17239738810E+03  0.17239738810E+03  0.00000000000E+00 0.  1.
         21   -1    0    0  501  502 -0.00000000000E+00 -0.00000000000E+00 -0.43415439085E+03  0.43415439085E+03  0.00000000000E+00 0.  1.
         25    1    1    2    0    0 -0.14664885978E+03  0.43259429012E+02 -0.12523755372E+03  0.23385190000E+03  0.12500000000E+03 0.  0.
         25    1    1    2    0    0  0.40524623951E+01 -0.25402028223E+02 -0.12992542847E+03  0.18211892393E+03  0.12500000000E+03 0.  0.
         25    1    1    2    0    0  0.14259639738E+03 -0.17857400788E+02 -0.65940205606E+01  0.19058095502E+03  0.12500000000E+03 0.  0.
</event>
<event>
 5    0  0.5851292E-005  0.2937495E+03  0.7546771E-02  0.1088408E+00
         21   -1    0    0  502  501  0.00000000000E+00  0.00000000000E+00  0.27187185487E+03  0.27187185487E+03  0.00000000000E+00 0.  1.
         21   -1    0    0  501  502 -0.00000000000E+00 -0.00000000000E+00 -0.31738761052E+03  0.31738761052E+03  0.00000000000E+00 0.  1.
         25    1    1    2    0    0 -0.14212688166E+03  0.87423070573E+01 -0.18110572046E+03  0.26210829900E+03  0.12500000000E+03 0.  0.
         25    1    1    2    0    0  0.88960991726E+02 -0.29745979080E+02  0.45362865350E+02  0.16273189876E+03  0.12500000000E+03 0.  0.
         25    1    1    2    0    0  0.53165889938E+02  0.21003672023E+02  0.90227099455E+02  0.16441926763E+03  0.12500000000E+03 0.  0.
</event>
<event>
 5    0  0.5851292E-005  0.3875953E+03  0.7546771E-02  0.1048162E+00
         21   -1    0    0  502  501  0.00000000000E+00  0.00000000000E+00  0.20735687294E+03  0.20735687294E+03  0.00000000000E+00 0. -1.
         21   -1    0    0  501  502 -0.00000000000E+00 -0.00000000000E+00 -0.72450039749E+03  0.72450039749E+03  0.00000000000E+00 0. -1.
         25    1    1    2    0    0  0.33827920865E+02 -0.70279896947E+02 -0.21346812690E+03  0.25937855221E+03  0.12500000000E+03 0.  0.
         25    1    1    2    0    0  0.10018317777E+03 -0.50311133105E+02  0.11243880016E+03  0.20207761628E+03  0.12500000000E+03 0.  0.
         25    1    1    2    0    0 -0.13401109863E+03  0.12059103005E+03 -0.41611419781E+03  0.47040110194E+03  0.12500000000E+03 0.  0.
</event>
<event>
 5    0  0.5851292E-005  0.5501448E+03  0.7546771E-02  0.1001460E+00
         21   -1    0    0  502  501  0.00000000000E+00  0.00000000000E+00  0.33157480830E+03  0.33157480830E+03  0.00000000000E+00 0. -1.
         21   -1    0    0  501  502 -0.00000000000E+00 -0.00000000000E+00 -0.91279340325E+03  0.91279340325E+03  0.00000000000E+00 0. -1.
         25    1    1    2    0    0  0.85784699982E+02  0.30826175091E+03 -0.24742423586E+03  0.42335336814E+03  0.12500000000E+03 0.  0.
         25    1    1    2    0    0 -0.20935404324E+02  0.15576093706E+03  0.44871607119E+02  0.20576253739E+03  0.12500000000E+03 0.  0.
         25    1    1    2    0    0 -0.64849295658E+02 -0.46402268797E+03 -0.37866596621E+03  0.61525230602E+03  0.12500000000E+03 0.  0.
</event>
<event>
 5    0  0.5851292E-005  0.2968539E+03  0.7546771E-02  0.1086824E+00
         21   -1    0    0  502  501  0.00000000000E+00  0.00000000000E+00  0.25033465274E+03  0.25033465274E+03  0.00000000000E+00 0. -1.
         21   -1    0    0  501  502 -0.00000000000E+00 -0.00000000000E+00 -0.35201767765E+03  0.35201767765E+03  0.00000000000E+00 0. -1.
         25    1    1    2    0    0  0.33669431482E+02 -0.45338702832E+02 -0.31120519951E+02  0.14065104107E+03  0.12500000000E+03 0.  0.
         25    1    1    2    0    0 -0.14935247287E+03 -0.99912346728E+02 -0.90733417059E+02  0.23695187518E+03  0.12500000000E+03 0.  0.
         25    1    1    2    0    0  0.11568304138E+03  0.14525104956E+03  0.20170912105E+02  0.22474941414E+03  0.12500000000E+03 0.  0.
</event>
<event>
 5    0  0.5851292E-005  0.2540961E+03  0.7546771E-02  0.1110743E+00
         21   -1    0    0  502  501  0.00000000000E+00  0.00000000000E+00  0.58014499582E+03  0.58014499582E+03  0.00000000000E+00 0. -1.
         21   -1    0    0  501  502 -0.00000000000E+00 -0.00000000000E+00 -0.11129084718E+03  0.11129084718E+03  0.00000000000E+00 0. -1.
         25    1    1    2    0    0 -0.56054105269E+02  0.50523850481E+02  0.30195882318E+03  0.33540848689E+03  0.12500000000E+03 0.  0.
         25    1    1    2    0    0  0.30333996926E+02  0.53444456337E+02  0.31300877583E+02  0.14276276202E+03  0.12500000000E+03 0.  0.
         25    1    1    2    0    0  0.25720108343E+02 -0.10396830682E+03  0.13559444787E+03  0.21326459409E+03  0.12500000000E+03 0.  0.
</event>
<event>
 5    0  0.5851292E-005  0.2765667E+03  0.7546771E-02  0.1097579E+00
         21   -1    0    0  502  501  0.00000000000E+00  0.00000000000E+00  0.58895597305E+02  0.58895597305E+02  0.00000000000E+00 0.  1.
         21   -1    0    0  501  502 -0.00000000000E+00 -0.00000000000E+00 -0.12987238524E+04  0.12987238524E+04  0.00000000000E+00 0.  1.
         25    1    1    2    0    0 -0.16928256106E+03 -0.31568533431E+02 -0.36677667557E+03  0.42403217746E+03  0.12500000000E+03 0.  0.
         25    1    1    2    0    0  0.84818862524E+02  0.44202896185E+02 -0.27683309613E+03  0.31844889478E+03  0.12500000000E+03 0.  0.
         25    1    1    2    0    0  0.84463698535E+02 -0.12634362754E+02 -0.59621848342E+03  0.61513837749E+03  0.12500000000E+03 0.  0.
</event>
<event>
 5    0  0.5851292E-005  0.4257865E+03  0.7546771E-02  0.1035199E+00
         21   -1    0    0  502  501  0.00000000000E+00  0.00000000000E+00  0.13622115618E+04  0.13622115618E+04  0.00000000000E+00 0. -1.
         21   -1    0    0  501  502 -0.00000000000E+00 -0.00000000000E+00 -0.13308811985E+03  0.13308811985E+03  0.00000000000E+00 0. -1.
         25    1    1    2    0    0 -0.80400450990E+02 -0.51135521454E+02  0.43754381764E+02  0.16315183112E+03  0.12500000000E+03 0.  0.
         25    1    1    2    0    0  0.11793473629E+03  0.21119343889E+03  0.10511476703E+04  0.10858396269E+04  0.12500000000E+03 0.  0.
         25    1    1    2    0    0 -0.37534285295E+02 -0.16005791743E+03  0.13422138990E+03  0.24630822360E+03  0.12500000000E+03 0.  0.
</event>
<event>
 5    0  0.5851292E-005  0.3362769E+03  0.7546771E-02  0.1068393E+00
         21   -1    0    0  502  501  0.00000000000E+00  0.00000000000E+00  0.71605864343E+03  0.71605864343E+03  0.00000000000E+00 0. -1.
         21   -1    0    0  501  502 -0.00000000000E+00 -0.00000000000E+00 -0.15792306387E+03  0.15792306387E+03  0.00000000000E+00 0. -1.
         25    1    1    2    0    0  0.15598360352E+03 -0.11397989966E+03  0.37093035713E+02  0.23307336912E+03  0.12500000000E+03 0.  0.
         25    1    1    2    0    0 -0.83379476664E+02 -0.40335591495E+02  0.16475873092E+03  0.22660436113E+03  0.12500000000E+03 0.  0.
         25    1    1    2    0    0 -0.72604126856E+02  0.15431549115E+03  0.35628381293E+03  0.41430397705E+03  0.12500000000E+03 0.  0.
</event>
<event>
 5    0  0.5851292E-005  0.2777801E+03  0.7546771E-02  0.1096908E+00
         21   -1    0    0  502  501  0.00000000000E+00  0.00000000000E+00  0.29293315767E+03  0.29293315767E+03  0.00000000000E+00 0.  1.
         21   -1    0    0  501  502 -0.00000000000E+00 -0.00000000000E+00 -0.26341082341E+03  0.26341082341E+03  0.00000000000E+00 0.  1.
         25    1    1    2    0    0 -0.13672026985E+03 -0.53640733085E+02 -0.82145146081E+02  0.20962486842E+03  0.12500000000E+03 0.  0.
         25    1    1    2    0    0  0.37670861171E+02  0.80919350278E+02  0.10250067729E+03  0.18465758548E+03  0.12500000000E+03 0.  0.
         25    1    1    2    0    0  0.99049408681E+02 -0.27278617193E+02  0.91668030472E+01  0.16206152719E+03  0.12500000000E+03 0.  0.
</event>
<event>
 5    0  0.5851292E-005  0.2678999E+03  0.7546771E-02  0.1102488E+00
         21   -1    0    0  502  501  0.00000000000E+00  0.00000000000E+00  0.17133926146E+03  0.17133926146E+03  0.00000000000E+00 0.  1.
         21   -1    0    0  501  502 -0.00000000000E+00 -0.00000000000E+00 -0.41887871479E+03  0.41887871479E+03  0.00000000000E+00 0.  1.
         25    1    1    2    0    0  0.17791322923E+02 -0.91932137125E+02 -0.26751558016E+03  0.30977029334E+03  0.12500000000E+03 0.  0.
         25    1    1    2    0    0  0.21884631255E+02  0.74598765010E+02  0.46547283914E+01  0.14727721929E+03  0.12500000000E+03 0.  0.
         25    1    1    2    0    0 -0.39675954179E+02  0.17333372115E+02  0.15321398441E+02  0.13317046361E+03  0.12500000000E+03 0.  0.
</event>
<event>
 5    0  0.6346903E-005  0.2576272E+03  0.7546771E-02  0.1108577E+00
         21   -1    0    0  502  501  0.00000000000E+00  0.00000000000E+00  0.27917129283E+03  0.27917129283E+03  0.00000000000E+00 0. -1.
         21   -1    0    0  501  502 -0.00000000000E+00 -0.00000000000E+00 -0.23774561172E+03  0.23774561172E+03  0.00000000000E+00 0. -1.
         25    1    1    2    0    0 -0.80507812160E+02 -0.28213442701E+02  0.10855437233E+03  0.18624327617E+03  0.12500000000E+03 0.  0.
         25    1    1    2    0    0  0.12464107332E+03  0.47880735509E+02 -0.50267963200E+01  0.18297057324E+03  0.12500000000E+03 0.  0.
         25    1    1    2    0    0 -0.44133261157E+02 -0.19667292809E+02 -0.62101894898E+02  0.14770305514E+03  0.12500000000E+03 0.  0.
</event>
<event>
 5    0  0.5851292E-005  0.3233341E+03  0.7546771E-02  0.1074125E+00
         21   -1    0    0  502  501  0.00000000000E+00  0.00000000000E+00  0.11004642783E+03  0.11004642783E+03  0.00000000000E+00 0. -1.
         21   -1    0    0  501  502 -0.00000000000E+00 -0.00000000000E+00 -0.95000749780E+03  0.95000749780E+03  0.00000000000E+00 0. -1.
         25    1    1    2    0    0  0.57290279518E+02 -0.11153771432E+03 -0.25556601224E+02  0.17888817096E+03  0.12500000000E+03 0.  0.
         25    1    1    2    0    0  0.30544451860E+02  0.10608075170E+03 -0.56059025489E+03  0.58486966352E+03  0.12500000000E+03 0.  0.
         25    1    1    2    0    0 -0.87834731378E+02  0.54569626188E+01 -0.25381421386E+03  0.29629609116E+03  0.12500000000E+03 0.  0.
</event>
<event>
 5    0  0.5851292E-005  0.3819460E+03  0.7546771E-02  0.1050217E+00
         21   -1    0    0  502  501  0.00000000000E+00  0.00000000000E+00  0.51116189856E+03  0.51116189856E+03  0.00000000000E+00 0. -1.
         21   -1    0    0  501  502 -0.00000000000E+00 -0.00000000000E+00 -0.28539435376E+03  0.28539435376E+03  0.00000000000E+00 0. -1.
         25    1    1    2    0    0  0.17908956562E+03  0.49765549007E+01 -0.17317432138E+03  0.27876905172E+03  0.12500000000E+03 0.  0.
         25    1    1    2    0    0 -0.10883616278E+03  0.42828945964E+02  0.15566359099E+03  0.23137800782E+03  0.12500000000E+03 0.  0.
         25    1    1    2    0    0 -0.70253402842E+02 -0.47805500865E+02  0.24327827519E+03  0.28640919277E+03  0.12500000000E+03 0.  0.
</event>
<event>
 5    0  0.5998136E-005  0.2700110E+03  0.7546771E-02  0.1101273E+00
         21   -1    0    0  502  501  0.00000000000E+00  0.00000000000E+00  0.36888937322E+03  0.36888937322E+03  0.00000000000E+00 0. -1.
         21   -1    0    0  501  502 -0.00000000000E+00 -0.00000000000E+00 -0.19763629287E+03  0.19763629287E+03  0.00000000000E+00 0. -1.
         25    1    1    2    0    0 -0.99601100351E+02 -0.10696703144E+02  0.11475490693E+03  0.19704945398E+03  0.12500000000E+03 0.  0.
         25    1    1    2    0    0  0.15913786381E+03 -0.55472966548E+02  0.50942879728E+02  0.21592194587E+03  0.12500000000E+03 0.  0.
         25    1    1    2    0    0 -0.59536763456E+02  0.66169669692E+02  0.55552936847E+01  0.15355426623E+03  0.12500000000E+03 0.  0.
</event>
<event>
 5    0  0.7515300E-005  0.3586206E+03  0.7546771E-02  0.1059131E+00
         21   -1    0    0  502  501  0.00000000000E+00  0.00000000000E+00  0.26192968262E+03  0.26192968262E+03  0.00000000000E+00 0. -1.
         21   -1    0    0  501  502 -0.00000000000E+00 -0.00000000000E+00 -0.49100483580E+03  0.49100483580E+03  0.00000000000E+00 0. -1.
         25    1    1    2    0    0 -0.17808914983E+03 -0.87470921842E+02  0.39217313802E+02  0.23776018413E+03  0.12500000000E+03 0.  0.
         25    1    1    2    0    0  0.65574805774E+02 -0.22559502915E+02 -0.27945034987E+03  0.31388928680E+03  0.12500000000E+03 0.  0.
         25    1    1    2    0    0  0.11251434405E+03  0.11003042476E+03  0.11157882889E+02  0.20128504748E+03  0.12500000000E+03 0.  0.
</event>
<event>
 5    0  0.5851292E-005  0.2191734E+03  0.7546771E-02  0.1134501E+00
         21   -1    0    0  502  501  0.00000000000E+00  0.00000000000E+00  0.41745177843E+03  0.41745177843E+03  0.00000000000E+00 0. -1.
         21   -1    0    0  501  502 -0.00000000000E+00 -0.00000000000E+00 -0.11507193339E+03  0.11507193339E+03  0.00000000000E+00 0. -1.
         25    1    1    2    0    0 -0.45468622881E+02 -0.58971225977E+02  0.44152910532E+02  0.15205091472E+03  0.12500000000E+03 0.  0.
         25    1    1    2    0    0  0.56896349794E+02  0.57272503041E+02  0.17568716197E+03  0.23023534287E+03  0.12500000000E+03 0.  0.
         25    1    1    2    0    0 -0.11427726913E+02  0.16987229360E+01  0.82539772539E+02  0.15023745423E+03  0.12500000000E+03 0.  0.
</event>
<event>
 5    0  0.5851292E-005  0.3680314E+03  0.7546771E-02  0.1055448E+00
         21   -1    0    0  502  501  0.00000000000E+00  0.00000000000E+00  0.17709738420E+03  0.17709738420E+03  0.00000000000E+00 0. -1.
         21   -1    0    0  501  502 -0.00000000000E+00 -0.00000000000E+00 -0.76481696955E+03  0.76481696955E+03  0.00000000000E+00 0. -1.
         25    1    1    2    0    0 -0.67107444192E+02 -0.18653277237E+02 -0.44995856048E+02  0.15000326956E+03  0.12500000000E+03 0.  0.
         25    1    1    2    0    0 -0.20407387209E+03  0.53357180920E+02 -0.37393523277E+03  0.44715287356E+03  0.12500000000E+03 0.  0.
         25    1    1    2    0    0  0.27118131629E+03 -0.34703903683E+02 -0.16878849654E+03  0.34475821063E+03  0.12500000000E+03 0.  0.
</event>
<event>
 5    0  0.5851292E-005  0.4332488E+03  0.7546771E-02  0.1032839E+00
         21   -1    0    0  502  501  0.00000000000E+00  0.00000000000E+00  0.83659520284E+02  0.83659520284E+02  0.00000000000E+00 0.  1.
         21   -1    0    0  501  502 -0.00000000000E+00 -0.00000000000E+00 -0.22436716266E+04  0.22436716266E+04  0.00000000000E+00 0.  1.
         25    1    1    2    0    0 -0.62668873673E+01  0.53639724159E+02 -0.33736339762E+03  0.36380703118E+03  0.12500000000E+03 0.  0.
         25    1    1    2    0    0 -0.23907960863E+01 -0.15551981601E+03 -0.82543149074E+02  0.21594096540E+03  0.12500000000E+03 0.  0.
         25    1    1    2    0    0  0.86576834536E+01  0.10188009185E+03 -0.17401055596E+04  0.17475831503E+04  0.12500000000E+03 0.  0.
</event>
<event>
 5    0  0.5851292E-005  0.4845037E+03  0.7546771E-02  0.1017905E+00
         21   -1    0    0  502  501  0.00000000000E+00  0.00000000000E+00  0.24324321881E+03  0.24324321881E+03  0.00000000000E+00 0.  1.
         21   -1    0    0  501  502 -0.00000000000E+00 -0.00000000000E+00 -0.96505804372E+03  0.96505804372E+03  0.00000000000E+00 0.  1.
         25    1    1    2    0    0  0.18626059542E+03 -0.94596423033E+02 -0.18860638408E+03  0.30795918686E+03  0.12500000000E+03 0.  0.
         25    1    1    2    0    0  0.66215842684E+02 -0.22721599574E+03 -0.85037797476E+02  0.28083460175E+03  0.12500000000E+03 0.  0.
         25    1    1    2    0    0 -0.25247643810E+03  0.32181241877E+03 -0.44817064335E+03  0.61950747391E+03  0.12500000000E+03 0.  0.
</event>
<event>
 5    0  0.5851292E-005  0.2501794E+03  0.7546771E-02  0.1113191E+00
         21   -1    0    0  502  501  0.00000000000E+00  0.00000000000E+00  0.21189927519E+03  0.21189927519E+03  0.00000000000E+00 0. -1.
         21   -1    0    0  501  502 -0.00000000000E+00 -0.00000000000E+00 -0.29537502894E+03  0.29537502894E+03  0.00000000000E+00 0. -1.
         25    1    1    2    0    0 -0.70907699190E+02 -0.12790850303E+03 -0.33650715098E+02  0.19530964538E+03  0.12500000000E+03 0.  0.
         25    1    1    2    0    0  0.70629511517E+02  0.11159301426E+03 -0.26461169649E+02  0.18375723721E+03  0.12500000000E+03 0.  0.
         25    1    1    2    0    0  0.27818767259E+00  0.16315488773E+02 -0.23363868999E+02  0.12820742154E+03  0.12500000000E+03 0.  0.
</event>
<event>
 5    0  0.5851292E-005  0.2396858E+03  0.7546771E-02  0.1120002E+00
         21   -1    0    0  502  501  0.00000000000E+00  0.00000000000E+00  0.15904657764E+04  0.15904657764E+04  0.00000000000E+00 0. -1.
         21   -1    0    0  501  502 -0.00000000000E+00 -0.00000000000E+00 -0.36121054022E+02  0.36121054022E+02  0.00000000000E+00 0. -1.
         25    1    1    2    0    0  0.35343472265E+02  0.21044523728E+02  0.10612037932E+04  0.10693318118E+04  0.12500000000E+03 0.  0.
         25    1    1    2    0    0 -0.27344711105E+02  0.10240383818E+02  0.28074909113E+03  0.30870317597E+03  0.12500000000E+03 0.  0.
         25    1    1    2    0    0 -0.79987611605E+01 -0.31284907546E+02  0.21239183808E+03  0.24855184269E+03  0.12500000000E+03 0.  0.
</event>
<event>
 5    0  0.5851292E-005  0.3193454E+03  0.7546771E-02  0.1075951E+00
         21   -1    0    0  502  501  0.00000000000E+00  0.00000000000E+00  0.48038622018E+02  0.48038622018E+02  0.00000000000E+00 0.  1.
         21   -1    0    0  501  502 -0.00000000000E+00 -0.00000000000E+00 -0.21229063293E+04  0.21229063293E+04  0.00000000000E+00 0.  1.
         25    1    1    2    0    0 -0.89904767504E+02  0.85728279143E+02 -0.12785574338E+04  0.12906456976E+04  0.12500000000E+03 0.  0.
         25    1    1    2    0    0  0.42875310729E+02 -0.70878112082E+02 -0.12368870835E+03  0.19438594501E+03  0.12500000000E+03 0.  0.
         25    1    1    2    0    0  0.47029456775E+02 -0.14850167062E+02 -0.67262156513E+03  0.68591330877E+03  0.12500000000E+03 0.  0.
</event>
<event>
 5    0  0.5851292E-005  0.2401651E+03  0.7546771E-02  0.1119683E+00
         21   -1    0    0  502  501  0.00000000000E+00  0.00000000000E+00  0.27615804042E+02  0.27615804042E+02  0.00000000000E+00 0.  1.
         21   -1    0    0  501  502 -0.00000000000E+00 -0.00000000000E+00 -0.20886330205E+04  0.20886330205E+04  0.00000000000E+00 0.  1.
         25    1    1    2    0    0  0.15003131435E+02  0.87996486245E+02 -0.90467508568E+03  0.91762219142E+03  0.12500000000E+03 0.  0.
         25    1    1    2    0    0  0.76580250930E+02 -0.56814141567E+02 -0.55149914463E+03  0.57347073861E+03  0.12500000000E+03 0.  0.
         25    1    1    2    0    0 -0.91583382365E+02 -0.31182344678E+02 -0.60484298613E+03  0.62515589449E+03  0.12500000000E+03 0.  0.
</event>
<event>
 5    0  0.5851292E-005  0.3145585E+03  0.7546771E-02  0.1078181E+00
         21   -1    0    0  502  501  0.00000000000E+00  0.00000000000E+00  0.15215206549E+03  0.15215206549E+03  0.00000000000E+00 0.  1.
         21   -1    0    0  501  502 -0.00000000000E+00 -0.00000000000E+00 -0.65031683754E+03  0.65031683754E+03  0.00000000000E+00 0.  1.
         25    1    1    2    0    0 -0.78365761157E-01 -0.29907918055E+02 -0.67381814245E+02  0.14511994554E+03  0.12500000000E+03 0.  0.
         25    1    1    2    0    0 -0.22344000751E+02  0.20362933860E+03 -0.35640553503E+03  0.42966739149E+03  0.12500000000E+03 0.  0.
         25    1    1    2    0    0  0.22422366512E+02 -0.17372142055E+03 -0.74377422769E+02  0.22768156600E+03  0.12500000000E+03 0.  0.
</event>
<event>
 5    0  0.5851292E-005  0.3193380E+03  0.7546771E-02  0.1075954E+00
         21   -1    0    0  502  501  0.00000000000E+00  0.00000000000E+00  0.49546369184E+03  0.49546369184E+03  0.00000000000E+00 0. -1.
         21   -1    0    0  501  502 -0.00000000000E+00 -0.00000000000E+00 -0.20582085177E+03  0.20582085177E+03  0.00000000000E+00 0. -1.
         25    1    1    2    0    0  0.40892972651E+02 -0.41343893775E+02  0.82243794025E+02  0.16053222237E+03  0.12500000000E+03 0.  0.
         25    1    1    2    0    0  0.18694034098E+03  0.48407675419E+02  0.14971494194E+03  0.27446230700E+03  0.12500000000E+03 0.  0.
         25    1    1    2    0    0 -0.22783331363E+03 -0.70637816435E+01  0.57684104108E+02  0.26629001423E+03  0.12500000000E+03 0.  0.
</event>
<event>
 5    0  0.5851292E-005  0.2955463E+03  0.7546771E-02  0.1087488E+00
         21   -1    0    0  502  501  0.00000000000E+00  0.00000000000E+00  0.18309528151E+04  0.18309528151E+04  0.00000000000E+00 0.  1.
         21   -1    0    0  501  502 -0.00000000000E+00 -0.00000000000E+00 -0.47706099894E+02  0.47706099894E+02  0.00000000000E+00 0.  1.
         25    1    1    2    0    0 -0.72504483175E+02  0.31285611811E+02  0.32495143988E+03  0.35700718181E+03  0.12500000000E+03 0.  0.
         25    1    1    2    0    0  0.46638255286E+02  0.13299552157E+03  0.10102114447E+04  0.10276259526E+04  0.12500000000E+03 0.  0.
         25    1    1    2    0    0  0.25866227889E+02 -0.16428113338E+03  0.44808383062E+03  0.49402578050E+03  0.12500000000E+03 0.  0.
</event>
<event>
 5    0  0.5851292E-005  0.3758334E+03  0.7546771E-02  0.1052485E+00
         21   -1    0    0  502  501  0.00000000000E+00  0.00000000000E+00  0.30088991790E+03  0.30088991790E+03  0.00000000000E+00 0.  1.
         21   -1    0    0  501  502 -0.00000000000E+00 -0.00000000000E+00 -0.46944323107E+03  0.46944323107E+03  0.00000000000E+00 0.  1.
         25    1    1    2    0    0  0.31881831960E+02  0.29777134161E+03 -0.15012075183E+03  0.35755483947E+03  0.12500000000E+03 0.  0.
         25    1    1    2    0    0  0.50277501392E+02 -0.15524158830E+03 -0.15562277015E+02  0.20614306282E+03  0.12500000000E+03 0.  0.
         25    1    1    2    0    0 -0.82159333351E+02 -0.14252975331E+03 -0.28702843184E+01  0.20663524667E+03  0.12500000000E+03 0.  0.
</event>
<event>
 5    0  0.5851292E-005  0.3341563E+03  0.7546771E-02  0.1069312E+00
         21   -1    0    0  502  501  0.00000000000E+00  0.00000000000E+00  0.27128357092E+03  0.27128357092E+03  0.00000000000E+00 0.  1.
         21   -1    0    0  501  502 -0.00000000000E+00 -0.00000000000E+00 -0.41160044975E+03  0.41160044975E+03  0.00000000000E+00 0.  1.
         25    1    1    2    0    0 -0.66793360255E+02 -0.35468816151E+02 -0.14406365188E+03  0.20517973995E+03  0.12500000000E+03 0.  0.
         25    1    1    2    0    0 -0.16732736725E+03  0.11495467072E+02  0.23487450916E+02  0.21049288336E+03  0.12500000000E+03 0.  0.
         25    1    1    2    0    0  0.23412072751E+03  0.23973349079E+02 -0.19740677866E+02  0.26721139736E+03  0.12500000000E+03 0.  0.
</event>
<event>
 5    0  0.5851292E-005  0.2697475E+03  0.7546771E-02  0.1101424E+00
         21   -1    0    0  502  501  0.00000000000E+00  0.00000000000E+00  0.40865766818E+03  0.40865766818E+03  0.00000000000E+00 0.  1.
         21   -1    0    0  501  502 -0.00000000000E+00 -0.00000000000E+00 -0.17805543905E+03  0.17805543905E+03  0.00000000000E+00 0.  1.
         25    1    1    2    0    0  0.40710911256E+02 -0.58194718399E+02  0.99247740357E+02  0.17469721667E+03  0.12500000000E+03 0.  0.
         25    1    1    2    0    0  0.29973127035E+02  0.15020274423E+03  0.15737876660E+01  0.19770364065E+03  0.12500000000E+03 0.  0.
         25    1    1    2    0    0 -0.70684038291E+02 -0.92008025828E+02  0.12978070110E+03  0.21431224992E+03  0.12500000000E+03 0.  0.
</event>
<event>
 5    0  0.6787417E-005  0.2713061E+03  0.7546771E-02  0.1100534E+00
         21   -1    0    0  502  501  0.00000000000E+00  0.00000000000E+00  0.58375687382E+03  0.58375687382E+03  0.00000000000E+00 0. -1.
         21   -1    0    0  501  502 -0.00000000000E+00 -0.00000000000E+00 -0.12609191038E+03  0.12609191038E+03  0.00000000000E+00 0. -1.
         25    1    1    2    0    0 -0.10252586322E+03  0.46523292339E+02  0.15142649308E+03  0.22634255491E+03  0.12500000000E+03 0.  0.
         25    1    1    2    0    0  0.17114187620E+03 -0.31619942355E+02  0.11111449568E+03  0.24137272773E+03  0.12500000000E+03 0.  0.
         25    1    1    2    0    0 -0.68616012979E+02 -0.14903349984E+02  0.19512397468E+03  0.24213350155E+03  0.12500000000E+03 0.  0.
</event>
<event>
 5    0  0.5851292E-005  0.3805113E+03  0.7546771E-02  0.1050745E+00
         21   -1    0    0  502  501  0.00000000000E+00  0.00000000000E+00  0.50171897563E+03  0.50171897563E+03  0.00000000000E+00 0.  1.
         21   -1    0    0  501  502 -0.00000000000E+00 -0.00000000000E+00 -0.28858556416E+03  0.28858556416E+03  0.00000000000E+00 0.  1.
         25    1    1    2    0    0 -0.45583746696E+02 -0.42163611771E+02 -0.16497913765E+02  0.14054475899E+03  0.12500000000E+03 0.  0.
         25    1    1    2    0    0  0.18361877176E+01  0.13852157628E+03  0.38258700068E+03  0.42566349594E+03  0.12500000000E+03 0.  0.
         25    1    1    2    0    0  0.43747558979E+02 -0.96357964509E+02 -0.15295567544E+03  0.22409628487E+03  0.12500000000E+03 0.  0.
</event>
<event>
 5    0  0.5851292E-005  0.2597244E+03  0.7546771E-02  0.1107309E+00
         21   -1    0    0  502  501  0.00000000000E+00  0.00000000000E+00  0.78750745687E+03  0.78750745687E+03  0.00000000000E+00 0.  1.
         21   -1    0    0  501  502 -0.00000000000E+00 -0.00000000000E+00 -0.85658543707E+02  0.85658543707E+02  0.00000000000E+00 0.  1.
         25    1    1    2    0    0 -0.37429415505E+02 -0.84309737385E+01  0.10580680293E+03  0.16820262189E+03  0.12500000000E+03 0.  0.
         25    1    1    2    0    0  0.36683999181E+02  0.13281142387E+03  0.40082209222E+03  0.44189132116E+03  0.12500000000E+03 0.  0.
         25    1    1    2    0    0  0.74541632339E+00 -0.12438045013E+03  0.19522001801E+03  0.26307205753E+03  0.12500000000E+03 0.  0.
</event>
<event>
 5    0  0.5851292E-005  0.3460705E+03  0.7546771E-02  0.1064240E+00
         21   -1    0    0  502  501  0.00000000000E+00  0.00000000000E+00  0.55027896672E+03  0.55027896672E+03  0.00000000000E+00 0. -1.
         21   -1    0    0  501  502 -0.00000000000E+00 -0.00000000000E+00 -0.21764377032E+03  0.21764377032E+03  0.00000000000E+00 0. -1.
         25    1    1    2    0    0 -0.10591953234E+03 -0.12905600614E+03  0.43395287023E+02  0.21303180746E+03  0.12500000000E+03 0.  0.
         25    1    1    2    0    0  0.17714543070E+03 -0.37875540856E+02  0.42662768343E+02  0.22418780523E+03  0.12500000000E+03 0.  0.
         25    1    1    2    0    0 -0.71225898357E+02  0.16693154700E+03  0.24657714103E+03  0.33070312435E+03  0.12500000000E+03 0.  0.
</event>
<event>
 5    0  0.5851292E-005  0.2271624E+03  0.7546771E-02  0.1128653E+00
         21   -1    0    0  502  501  0.00000000000E+00  0.00000000000E+00  0.23403304015E+03  0.23403304015E+03  0.00000000000E+00 0. -1.
         21   -1    0    0  501  502 -0.00000000000E+00 -0.00000000000E+00 -0.22049344141E+03  0.22049344141E+03  0.00000000000E+00 0. -1.
         25    1    1    2    0    0  0.25656994551E+02  0.49062438033E+02 -0.69406930290E+02  0.15332229508E+03  0.12500000000E+03 0.  0.
         25    1    1    2    0    0 -0.74658162202E+02  0.27934624437E+01  0.42636480902E+02  0.15173830802E+03  0.12500000000E+03 0.  0.
         25    1    1    2    0    0  0.49001167651E+02 -0.51855900476E+02  0.40310048134E+02  0.14946587847E+03  0.12500000000E+03 0.  0.
</event>
<event>
 5    0  0.5851292E-005  0.3534743E+03  0.7546771E-02  0.1061198E+00
         21   -1    0    0  502  501  0.00000000000E+00  0.00000000000E+00  0.84978662470E+02  0.84978662470E+02  0.00000000000E+00 0. -1.
         21   -1    0    0  501  502 -0.00000000000E+00 -0.00000000000E+00 -0.14702990440E+04  0.14702990440E+04  0.00000000000E+00 0. -1.
         25    1    1    2    0    0  0.15288555195E+03 -0.13337460646E+03 -0.30496912385E+03  0.38703222624E+03  0.12500000000E+03 0.  0.
         25    1    1    2    0    0 -0.13740548234E+03  0.13517724955E+03 -0.30034957097E+03  0.37813756777E+03  0.12500000000E+03 0.  0.
         25    1    1    2    0    0 -0.15480069609E+02 -0.18026430953E+01 -0.78000168668E+03  0.79010791244E+03  0.12500000000E+03 0.  0.
</event>
<event>
 5    0  0.5851292E-005  0.3340653E+03  0.7546771E-02  0.1069352E+00
         21   -1    0    0  502  501  0.00000000000E+00  0.00000000000E+00  0.16418337955E+03  0.16418337955E+03  0.00000000000E+00 0. -1.
         21   -1    0    0  501  502 -0.00000000000E+00 -0.00000000000E+00 -0.67972531088E+03  0.67972531088E+03  0.00000000000E+00 0. -1.
         25    1    1    2    0    0 -0.50813610088E+02 -0.15190393083E+03 -0.48550112797E+03  0.52630140835E+03  0.12500000000E+03 0.  0.
         25    1    1    2    0    0 -0.12440378035E+01  0.88995435505E+02 -0.60991636044E+02  0.16512636022E+03  0.12500000000E+03 0.  0.
         25    1    1    2    0    0  0.52057647891E+02  0.62908495329E+02  0.30950832677E+02  0.15248092186E+03  0.12500000000E+03 0.  0.
</event>
<event>
 5    0  0.5851292E-005  0.3992817E+03  0.7546771E-02  0.1044029E+00
         21   -1    0    0  502  501  0.00000000000E+00  0.00000000000E+00  0.61967785997E+03  0.61967785997E+03  0.00000000000E+00 0.  1.
         21   -1    0    0  501  502 -0.00000000000E+00 -0.00000000000E+00 -0.25727217760E+03  0.25727217760E+03  0.00000000000E+00 0.  1.
         25    1    1    2    0    0 -0.10464858805E+03 -0.99075814386E+02 -0.14463476307E+03  0.23939832637E+03  0.12500000000E+03 0.  0.
         25    1    1    2    0    0 -0.68104399321E+02  0.25107587195E+02  0.11309157219E+03  0.18353011699E+03  0.12500000000E+03 0.  0.
         25    1    1    2    0    0  0.17275298737E+03  0.73968227191E+02  0.39394887325E+03  0.45402159422E+03  0.12500000000E+03 0.  0.
</event>
<event>
 5    0  0.6762163E-005  0.3789585E+03  0.7546771E-02  0.1051319E+00
         21   -1    0    0  502  501  0.00000000000E+00  0.00000000000E+00  0.68902986218E+03  0.68902986218E+03  0.00000000000E+00 0. -1.
         21   -1    0    0  501  502 -0.00000000000E+00 -0.00000000000E+00 -0.20842280284E+03  0.20842280284E+03  0.00000000000E+00 0. -1.
         25    1    1    2    0    0  0.36065996465E+01 -0.49447042670E+02 -0.45985981407E+02  0.14211871121E+03  0.12500000000E+03 0.  0.
         25    1    1    2    0    0 -0.34808056878E+02 -0.21234871171E+03  0.26381384935E+03  0.36266558052E+03  0.12500000000E+03 0.  0.
         25    1    1    2    0    0  0.31201457232E+02  0.26179575438E+03  0.26277919140E+03  0.39266837328E+03  0.12500000000E+03 0.  0.
</event>
<event>
 5    0  0.5851292E-005  0.3097011E+03  0.7546771E-02  0.1080489E+00
         21   -1    0    0  502  501  0.00000000000E+00  0.00000000000E+00  0.57157326498E+02  0.57157326498E+02  0.00000000000E+00 0.  1.
         21   -1    0    0  501  502 -0.00000000000E+00 -0.00000000000E+00 -0.16780831164E+04  0.16780831164E+04  0.00000000000E+00 0.  1.
         25    1    1    2    0    0 -0.10060332605E+03 -0.11413172670E+03 -0.68667568372E+03  0.71434975668E+03  0.12500000000E+03 0.  0.
         25    1    1    2    0    0  0.47324913836E+02 -0.93684793662E+02 -0.36229353330E+03  0.39736392929E+03  0.12500000000E+03 0.  0.
         25    1    1    2    0    0  0.53278412215E+02  0.20781652036E+03 -0.57195657290E+03  0.62352675694E+03  0.12500000000E+03 0.  0.
</event>
<event>
 5    0  0.5851292E-005  0.5139936E+03  0.7546771E-02  0.1010190E+00
         21   -1    0    0  502  501  0.00000000000E+00  0.00000000000E+00  0.13412264216E+04  0.13412264216E+04  0.00000000000E+00 0. -1.
         21   -1    0    0  501  502 -0.00000000000E+00 -0.00000000000E+00 -0.19697603970E+03  0.19697603970E+03  0.00000000000E+00 0. -1.
         25    1    1    2    0    0  0.18947928837E+03 -0.73107809989E+02  0.25468360383E+02  0.23983492236E+03  0.12500000000E+03 0.  0.
         25    1    1    2    0    0 -0.42908319684E+02  0.15994789032E+03  0.56173286498E+02  0.21495322661E+03  0.12500000000E+03 0.  0.
         25    1    1    2    0    0 -0.14657096868E+03 -0.86840080331E+02  0.10626087350E+04  0.10834143123E+04  0.12500000000E+03 0.  0.
</event>
<event>
 5    0  0.5851292E-005  0.4963353E+03  0.7546771E-02  0.1014740E+00
         21   -1    0    0  502  501  0.00000000000E+00  0.00000000000E+00  0.37567273219E+03  0.37567273219E+03  0.00000000000E+00 0.  1.
         21   -1    0    0  501  502 -0.00000000000E+00 -0.00000000000E+00 -0.65575347892E+03  0.65575347892E+03  0.00000000000E+00 0.  1.
         25    1    1    2    0    0 -0.22520905793E+03  0.30977832566E+02  0.26901189175E+03  0.37372602771E+03  0.12500000000E+03 0.  0.
         25    1    1    2    0    0  0.14382145070E+03 -0.50758796275E+02 -0.21761525979E+03  0.29367067673E+03  0.12500000000E+03 0.  0.
         25    1    1    2    0    0  0.81387607229E+02  0.19780963708E+02 -0.33147737870E+03  0.36402950666E+03  0.12500000000E+03 0.  0.
</event>
<event>
 5    0  0.5851292E-005  0.2854196E+03  0.7546771E-02  0.1092765E+00
         21   -1    0    0  502  501  0.00000000000E+00  0.00000000000E+00  0.12818001614E+03  0.12818001614E+03  0.00000000000E+00 0.  1.
         21   -1    0    0  501  502 -0.00000000000E+00 -0.00000000000E+00 -0.63554624026E+03  0.63554624026E+03  0.00000000000E+00 0.  1.
         25    1    1    2    0    0  0.12545831315E+03  0.85263775837E+02 -0.16869814482E+03  0.25902463951E+03  0.12500000000E+03 0.  0.
         25    1    1    2    0    0  0.19085594061E+02 -0.69105902471E+02 -0.39628449835E+02  0.14944999061E+03  0.12500000000E+03 0.  0.
         25    1    1    2    0    0 -0.14454390721E+03 -0.16157873366E+02 -0.29903962947E+03  0.35525162628E+03  0.12500000000E+03 0.  0.
</event>
<event>
 5    0  0.6542587E-005  0.3453588E+03  0.7546771E-02  0.1064536E+00
         21   -1    0    0  502  501  0.00000000000E+00  0.00000000000E+00  0.65641035091E+03  0.65641035091E+03  0.00000000000E+00 0.  1.
         21   -1    0    0  501  502 -0.00000000000E+00 -0.00000000000E+00 -0.18170447429E+03  0.18170447429E+03  0.00000000000E+00 0.  1.
         25    1    1    2    0    0  0.20401936498E+03 -0.53162496537E+02  0.14863077080E+03  0.28664657395E+03  0.12500000000E+03 0.  0.
         25    1    1    2    0    0 -0.15229163523E+03  0.15520754452E+03  0.10253722198E+03  0.27096310806E+03  0.12500000000E+03 0.  0.
         25    1    1    2    0    0 -0.51727729749E+02 -0.10204504799E+03  0.22353788384E+03  0.28050514319E+03  0.12500000000E+03 0.  0.
</event>
<event>
 5    0  0.5851292E-005  0.4285506E+03  0.7546771E-02  0.1034319E+00
         21   -1    0    0  502  501  0.00000000000E+00  0.00000000000E+00  0.12998418028E+03  0.12998418028E+03  0.00000000000E+00 0.  1.
         21   -1    0    0  501  502 -0.00000000000E+00 -0.00000000000E+00 -0.14129075724E+04  0.14129075724E+04  0.00000000000E+00 0.  1.
         25    1    1    2    0    0 -0.10670657366E+03  0.21069823576E+03 -0.42225912077E+03  0.49970771906E+03  0.12500000000E+03 0.  0.
         25    1    1    2    0    0  0.26625721326E+03 -0.62143465589E+02 -0.64660412080E+03  0.71307545391E+03  0.12500000000E+03 0.  0.
         25    1    1    2    0    0 -0.15955063960E+03 -0.14855477017E+03 -0.21406015052E+03  0.33010857968E+03  0.12500000000E+03 0.  0.
</event>
<event>
 5    0  0.5851292E-005  0.2096019E+03  0.7546771E-02  0.1141882E+00
         21   -1    0    0  502  501  0.00000000000E+00  0.00000000000E+00  0.46832222038E+03  0.46832222038E+03  0.00000000000E+00 0. -1.
         21   -1    0    0  501  502 -0.00000000000E+00 -0.00000000000E+00 -0.93809255125E+02  0.93809255125E+02  0.00000000000E+00 0. -1.
         25    1    1    2    0    0  0.23572431733E+01  0.40771571488E+02  0.10382440907E+03  0.16754815891E+03  0.12500000000E+03 0.  0.
         25    1    1    2    0    0 -0.24882598365E+02 -0.84123874071E+02  0.15093799596E+03  0.21471667032E+03  0.12500000000E+03 0.  0.
         25    1    1    2    0    0  0.22525355191E+02  0.43352302584E+02  0.11975056024E+03  0.17986664628E+03  0.12500000000E+03 0.  0.
</event>
<event>
 5    0  0.5851292E-005  0.2995265E+03  0.7546771E-02  0.1085478E+00
         21   -1    0    0  502  501  0.00000000000E+00  0.00000000000E+00  0.34566781172E+03  0.34566781172E+03  0.00000000000E+00 0.  1.
         21   -1    0    0  501  502 -0.00000000000E+00 -0.00000000000E+00 -0.25954437423E+03  0.25954437423E+03  0.00000000000E+00 0.  1.
         25    1    1    2    0    0  0.38899226741E+02  0.13206263076E+03  0.80049333911E+02  0.20245143651E+03  0.12500000000E+03 0.  0.
         25    1    1    2    0    0  0.57340544861E+02 -0.16663403824E+03 -0.65995288272E+02  0.22590975822E+03  0.12500000000E+03 0.  0.
         25    1    1    2    0    0 -0.96239771602E+02  0.34571407476E+02  0.72069391846E+02  0.17685099122E+03  0.12500000000E+03 0.  0.
</event>
<event>
 5    0  0.5851292E-005  0.4831657E+03  0.7546771E-02  0.1018269E+00
         21   -1    0    0  502  501  0.00000000000E+00  0.00000000000E+00  0.11674850913E+04  0.11674850913E+04  0.00000000000E+00 0. -1.
         21   -1    0    0  501  502 -0.00000000000E+00 -0.00000000000E+00 -0.19995891124E+03  0.19995891124E+03  0.00000000000E+00 0. -1.
         25    1    1    2    0    0  0.24552523806E+03  0.42589922456E+02  0.31510873110E+03  0.42073157290E+03  0.12500000000E+03 0.  0.
         25    1    1    2    0    0  0.17445033353E+02  0.23377537060E+03  0.37159573378E+03  0.45679715680E+03  0.12500000000E+03 0.  0.
         25    1    1    2    0    0 -0.26297027141E+03 -0.27636529306E+03  0.28082171517E+03  0.48991527284E+03  0.12500000000E+03 0.  0.
</event>
<event>
 5    0  0.5851292E-005  0.2793311E+03  0.7546771E-02  0.1096055E+00
         21   -1    0    0  502  501  0.00000000000E+00  0.00000000000E+00  0.56646321128E+03  0.56646321128E+03  0.00000000000E+00 0.  1.
         21   -1    0    0  501  502 -0.00000000000E+00 -0.00000000000E+00 -0.13774211084E+03  0.13774211084E+03  0.00000000000E+00 0.  1.
         25    1    1    2    0    0 -0.61576611453E+02  0.23153965277E+02  0.28639959970E+03  0.31933918628E+03  0.12500000000E+03 0.  0.
         25    1    1    2    0    0 -0.18371089248E+02  0.43457542878E+02 -0.41035109571E+02  0.13976743244E+03  0.12500000000E+03 0.  0.
         25    1    1    2    0    0  0.79947700702E+02 -0.66611508155E+02  0.18335661030E+03  0.24509870340E+03  0.12500000000E+03 0.  0.
</event>
<event>
 5    0  0.5851292E-005  0.8200161E+03  0.7546771E-02  0.9531488E-01
         21   -1    0    0  502  501  0.00000000000E+00  0.00000000000E+00  0.20584828860E+03  0.20584828860E+03  0.00000000000E+00 0. -1.
         21   -1    0    0  501  502 -0.00000000000E+00 -0.00000000000E+00 -0.32666112448E+04  0.32666112448E+04  0.00000000000E+00 0. -1.
         25    1    1    2    0    0 -0.24063957622E+03  0.47641549457E+03 -0.22921450705E+04  0.23567844944E+04  0.12500000000E+03 0.  0.
         25    1    1    2    0    0 -0.93595584388E+02 -0.34716414614E+03 -0.57505355802E+03  0.68963372335E+03  0.12500000000E+03 0.  0.
         25    1    1    2    0    0  0.33423516060E+03 -0.12925134843E+03 -0.19356432771E+03  0.42604131562E+03  0.12500000000E+03 0.  0.
</event>
<event>
 5    0  0.5851292E-005  0.2837370E+03  0.7546771E-02  0.1093665E+00
         21   -1    0    0  502  501  0.00000000000E+00  0.00000000000E+00  0.97287215988E+02  0.97287215988E+02  0.00000000000E+00 0. -1.
         21   -1    0    0  501  502 -0.00000000000E+00 -0.00000000000E+00 -0.82751538045E+03  0.82751538045E+03  0.00000000000E+00 0. -1.
         25    1    1    2    0    0 -0.23035010446E+02 -0.43972757245E+01 -0.25514634212E+03  0.28508701064E+03  0.12500000000E+03 0.  0.
         25    1    1    2    0    0 -0.33047856551E+02  0.20089318918E+02  0.13973219895E+02  0.13159024444E+03  0.12500000000E+03 0.  0.
         25    1    1    2    0    0  0.56082866997E+02 -0.15692043193E+02 -0.48905504224E+03  0.50812534135E+03  0.12500000000E+03 0.  0.
</event>
<event>
 5    0  0.5851292E-005  0.3146640E+03  0.7546771E-02  0.1078132E+00
         21   -1    0    0  502  501  0.00000000000E+00  0.00000000000E+00  0.84269156857E+02  0.84269156857E+02  0.00000000000E+00 0.  1.
         21   -1    0    0  501  502 -0.00000000000E+00 -0.00000000000E+00 -0.11749661559E+04  0.11749661559E+04  0.00000000000E+00 0.  1.
         25    1    1    2    0    0  0.32896899859E+01 -0.32871130732E+02 -0.23419654597E+03  0.26751514993E+03  0.12500000000E+03 0.  0.
         25    1    1    2    0    0  0.24029199341E+02 -0.18176994492E+03 -0.56934848933E+03  0.61106498640E+03  0.12500000000E+03 0.  0.
         25    1    1    2    0    0 -0.27318889327E+02  0.21464107565E+03 -0.28715196378E+03  0.38065517647E+03  0.12500000000E+03 0.  0.
</event>
<event>
 5    0  0.5851292E-005  0.3346076E+03  0.7546771E-02  0.1069116E+00
         21   -1    0    0  502  501  0.00000000000E+00  0.00000000000E+00  0.23057332276E+04  0.23057332276E+04  0.00000000000E+00 0.  1.
         21   -1    0    0  501  502 -0.00000000000E+00 -0.00000000000E+00 -0.48558203484E+02  0.48558203484E+02  0.00000000000E+00 0.  1.
         25    1    1    2    0    0  0.93780669055E+02 -0.17266053479E+03  0.69544502924E+03  0.73339979742E+03  0.12500000000E+03 0.  0.
         25    1    1    2    0    0  0.86433979325E+02  0.10628757828E+03  0.94368722953E+03  0.96173721425E+03  0.12500000000E+03 0.  0.
         25    1    1    2    0    0 -0.18021464838E+03  0.66372956514E+02  0.61804276535E+03  0.65915441943E+03  0.12500000000E+03 0.  0.
</event>
<event>
 5    0  0.5851292E-005  0.2767629E+03  0.7546771E-02  0.1097470E+00
         21   -1    0    0  502  501  0.00000000000E+00  0.00000000000E+00  0.13972532958E+03  0.13972532958E+03  0.00000000000E+00 0. -1.
         21   -1    0    0  501  502 -0.00000000000E+00 -0.00000000000E+00 -0.54820207856E+03  0.54820207856E+03  0.00000000000E+00 0. -1.
         25    1    1    2    0    0 -0.59458428818E+02  0.79681963192E+02 -0.18638130215E+03  0.24545368159E+03  0.12500000000E+03 0.  0.
         25    1    1    2    0    0  0.73120438028E+02 -0.17243136162E+03 -0.11326374126E+03  0.25205723161E+03  0.12500000000E+03 0.  0.
         25    1    1    2    0    0 -0.13662009209E+02  0.92749398424E+02 -0.10883170558E+03  0.19041649494E+03  0.12500000000E+03 0.  0.
</event>
<event>
 5    0  0.5851292E-005  0.2324614E+03  0.7546771E-02  0.1124919E+00
         21   -1    0    0  502  501  0.00000000000E+00  0.00000000000E+00  0.50683741571E+02  0.50683741571E+02  0.00000000000E+00 0. -1.
         21   -1    0    0  501  502 -0.00000000000E+00 -0.00000000000E+00 -0.10661862538E+04  0.10661862538E+04  0.00000000000E+00 0. -1.
         25    1    1    2    0    0  0.94245013485E+01 -0.10077621974E+03 -0.20812590482E+03  0.26303243136E+03  0.12500000000E+03 0.  0.
         25    1    1    2    0    0 -0.33516410153E+02  0.68767272015E+02 -0.42455726744E+03  0.44913935564E+03  0.12500000000E+03 0.  0.
         25    1    1    2    0    0  0.24091908805E+02  0.32008947723E+02 -0.38281934000E+03  0.40469820840E+03  0.12500000000E+03 0.  0.
</event>
<event>
 5    0  0.5851292E-005  0.2348590E+03  0.7546771E-02  0.1123266E+00
         21   -1    0    0  502  501  0.00000000000E+00  0.00000000000E+00  0.18879675468E+04  0.18879675468E+04  0.00000000000E+00 0.  1.
         21   -1    0    0  501  502 -0.00000000000E+00 -0.00000000000E+00 -0.29215931511E+02  0.29215931511E+02  0.00000000000E+00 0.  1.
         25    1    1    2    0    0  0.74509193744E+02  0.68905857763E+02  0.56097003587E+03  0.58361975492E+03  0.12500000000E+03 0.  0.
         25    1    1    2    0    0 -0.21458097697E+02 -0.61992692484E+02  0.37263172309E+03  0.39847577710E+03  0.12500000000E+03 0.  0.
         25    1    1    2    0    0 -0.53051096047E+02 -0.69131652788E+01  0.92514985631E+03  0.93508794627E+03  0.12500000000E+03 0.  0.
</event>
<event>
 5    0  0.6215992E-005  0.3404969E+03  0.7546771E-02  0.1066585E+00
         21   -1    0    0  502  501  0.00000000000E+00  0.00000000000E+00  0.28071140402E+03  0.28071140402E+03  0.00000000000E+00 0.  1.
         21   -1    0    0  501  502 -0.00000000000E+00 -0.00000000000E+00 -0.41301530736E+03  0.41301530736E+03  0.00000000000E+00 0.  1.
         25    1    1    2    0    0 -0.11241316521E+03 -0.17786740149E+01  0.70817947167E+02  0.18242824626E+03  0.12500000000E+03 0.  0.
         25    1    1    2    0    0  0.19448028888E+03  0.96738186026E+02 -0.12270572782E+02  0.25091119216E+03  0.12500000000E+03 0.  0.
         25    1    1    2    0    0 -0.82067123669E+02 -0.94959512011E+02 -0.19085127772E+03  0.26038727295E+03  0.12500000000E+03 0.  0.
</event>
<event>
 5    0  0.5851292E-005  0.3354011E+03  0.7546771E-02  0.1068772E+00
         21   -1    0    0  502  501  0.00000000000E+00  0.00000000000E+00  0.49338829409E+03  0.49338829409E+03  0.00000000000E+00 0. -1.
         21   -1    0    0  501  502 -0.00000000000E+00 -0.00000000000E+00 -0.22800280627E+03  0.22800280627E+03  0.00000000000E+00 0. -1.
         25    1    1    2    0    0 -0.47642148573E+02 -0.19671466737E+03  0.22877763492E+03  0.33004642237E+03  0.12500000000E+03 0.  0.
         25    1    1    2    0    0 -0.46619885916E+02  0.19044136579E+03  0.12915109055E+02  0.23288007130E+03  0.12500000000E+03 0.  0.
         25    1    1    2    0    0  0.94262034490E+02  0.62733015826E+01  0.23692743846E+02  0.15846460668E+03  0.12500000000E+03 0.  0.
</event>
<event>
 5    0  0.5851292E-005  0.2661769E+03  0.7546771E-02  0.1103488E+00
         21   -1    0    0  502  501  0.00000000000E+00  0.00000000000E+00  0.23529562164E+02  0.23529562164E+02  0.00000000000E+00 0. -1.
         21   -1    0    0  501  502 -0.00000000000E+00 -0.00000000000E+00 -0.30111120115E+04  0.30111120115E+04  0.00000000000E+00 0. -1.
         25    1    1    2    0    0 -0.82761676877E+00 -0.13463233408E+03 -0.18997533485E+04  0.19086158167E+04  0.12500000000E+03 0.  0.
         25    1    1    2    0    0 -0.14506828297E+02  0.45072635131E+02 -0.43041002816E+03  0.45068812148E+03  0.12500000000E+03 0.  0.
         25    1    1    2    0    0  0.15334445066E+02  0.89559698952E+02 -0.65741907264E+03  0.67533763553E+03  0.12500000000E+03 0.  0.
</event>
<event>
 5    0  0.5851292E-005  0.3673317E+03  0.7546771E-02  0.1055718E+00
         21   -1    0    0  502  501  0.00000000000E+00  0.00000000000E+00  0.13928280459E+03  0.13928280459E+03  0.00000000000E+00 0.  1.
         21   -1    0    0  501  502 -0.00000000000E+00 -0.00000000000E+00 -0.96876711019E+03  0.96876711019E+03  0.00000000000E+00 0.  1.
         25    1    1    2    0    0  0.52517238514E+02 -0.18256297073E+02 -0.14951075108E+02  0.13762226335E+03  0.12500000000E+03 0.  0.
         25    1    1    2    0    0 -0.20065718120E+03 -0.81387696706E+02 -0.65276192242E+03  0.69900671592E+03  0.12500000000E+03 0.  0.
         25    1    1    2    0    0  0.14813994268E+03  0.99643993779E+02 -0.16177130808E+03  0.27142093550E+03  0.12500000000E+03 0.  0.
</event>
<event>
 5    0  0.5851292E-005  0.2454928E+03  0.7546771E-02  0.1116187E+00
         21   -1    0    0  502  501  0.00000000000E+00  0.00000000000E+00  0.74078938751E+02  0.74078938751E+02  0.00000000000E+00 0.  1.
         21   -1    0    0  501  502 -0.00000000000E+00 -0.00000000000E+00 -0.81354709220E+03  0.81354709220E+03  0.00000000000E+00 0.  1.
         25    1    1    2    0    0  0.19390065685E+02 -0.80961237979E+02 -0.95005547954E+02  0.17771255117E+03  0.12500000000E+03 0.  0.
         25    1    1    2    0    0 -0.40606467801E+02  0.18514025327E+02 -0.45230799454E+03  0.47138007625E+03  0.12500000000E+03 0.  0.
         25    1    1    2    0    0  0.21216402116E+02  0.62447212652E+02 -0.19215461095E+03  0.23853340352E+03  0.12500000000E+03 0.  0.
</event>
<event>
 5    0  0.5851292E-005  0.2735360E+03  0.7546771E-02  0.1099273E+00
         21   -1    0    0  502  501  0.00000000000E+00  0.00000000000E+00  0.31716956822E+03  0.31716956822E+03  0.00000000000E+00 0.  1.
         21   -1    0    0  501  502 -0.00000000000E+00 -0.00000000000E+00 -0.23590517717E+03  0.23590517717E+03  0.00000000000E+00 0.  1.
         25    1    1    2    0    0  0.58873203615E+02 -0.30321268005E+02  0.70859824398E+02  0.15821361544E+03  0.12500000000E+03 0.  0.
         25    1    1    2    0    0 -0.82400866374E+02  0.60211678992E+01 -0.13391679752E+03  0.20095986141E+03  0.12500000000E+03 0.  0.
         25    1    1    2    0    0  0.23527662759E+02  0.24300100106E+02  0.14432136417E+03  0.19390126853E+03  0.12500000000E+03 0.  0.
</event>
<event>
 5    0  0.5851292E-005  0.2661552E+03  0.7546771E-02  0.1103500E+00
         21   -1    0    0  502  501  0.00000000000E+00  0.00000000000E+00  0.15793587274E+03  0.15793587274E+03  0.00000000000E+00 0.  1.
         21   -1    0    0  501  502 -0.00000000000E+00 -0.00000000000E+00 -0.44852745043E+03  0.44852745043E+03  0.00000000000E+00 0.  1.
         25    1    1    2    0    0 -0.18158697947E+02 -0.10522685064E+03 -0.88718669080E+02  0.18681121661E+03  0.12500000000E+03 0.  0.
         25    1    1    2    0    0  0.26744648366E+02  0.18083080089E+03 -0.11631091063E+03  0.25013652811E+03  0.12500000000E+03 0.  0.
         25    1    1    2    0    0 -0.85859504193E+01 -0.75603950246E+02 -0.85561997980E+02  0.16951557845E+03  0.12500000000E+03 0.  0.
</event>
<event>
 5    0  0.5851292E-005  0.2254711E+03  0.7546771E-02  0.1129869E+00
         21   -1    0    0  502  501  0.00000000000E+00  0.00000000000E+00  0.26462615023E+03  0.26462615023E+03  0.00000000000E+00 0. -1.
         21   -1    0    0  501  502 -0.00000000000E+00 -0.00000000000E+00 -0.19210954941E+03  0.19210954941E+03  0.00000000000E+00 0. -1.
         25    1    1    2    0    0  0.14551452037E+02 -0.91440422566E+02  0.47767284587E+02  0.16272617832E+03  0.12500000000E+03 0.  0.
         25    1    1    2    0    0 -0.48943166450E+02  0.95696125351E+00  0.18103413589E+01  0.13425582540E+03  0.12500000000E+03 0.  0.
         25    1    1    2    0    0  0.34391714413E+02  0.90483461313E+02  0.22938974877E+02  0.15975369592E+03  0.12500000000E+03 0.  0.
</event>
<event>
 5    0  0.5851292E-005  0.3109209E+03  0.7546771E-02  0.1079905E+00
         21   -1    0    0  502  501  0.00000000000E+00  0.00000000000E+00  0.69534885421E+03  0.69534885421E+03  0.00000000000E+00 0.  1.
         21   -1    0    0  501  502 -0.00000000000E+00 -0.00000000000E+00 -0.13902632378E+03  0.13902632378E+03  0.00000000000E+00 0.  1.
         25    1    1    2    0    0 -0.36768076917E+02  0.17691944966E+02  0.55549128348E+03  0.57084188916E+03  0.12500000000E+03 0.  0.
         25    1    1    2    0    0  0.19026530792E+02  0.27519032877E+02  0.23461920433E+01  0.12942105958E+03  0.12500000000E+03 0.  0.
         25    1    1    2    0    0  0.17741546125E+02 -0.45210977843E+02 -0.15149451009E+01  0.13411222925E+03  0.12500000000E+03 0.  0.
</event>
<event>
 5    0  0.5851292E-005  0.4019513E+03  0.7546771E-02  0.1043106E+00
         21   -1    0    0  502  501  0.00000000000E+00  0.00000000000E+00  0.35566770577E+03  0.35566770577E+03  0.00000000000E+00 0.  1.
         21   -1    0    0  501  502 -0.00000000000E+00 -0.00000000000E+00 -0.45425779890E+03  0.45425779890E+03  0.00000000000E+00 0. -1.
         25    1    1    2    0    0 -0.12363091518E+03 -0.22686503116E+03 -0.13741712266E+03  0.31821503917E+03  0.12500000000E+03 0.  0.
         25    1    1    2    0    0  0.33637007151E+02 -0.38114297605E+02 -0.86824730888E+02  0.16046084203E+03  0.12500000000E+03 0.  0.
         25    1    1    2    0    0  0.89993908025E+02  0.26497932877E+03  0.12565176042E+03  0.33124962347E+03  0.12500000000E+03 0.  0.
</event>
<event>
 5    0  0.5851292E-005  0.2817865E+03  0.7546771E-02  0.1094717E+00
         21   -1    0    0  502  501  0.00000000000E+00  0.00000000000E+00  0.95875595378E+02  0.95875595378E+02  0.00000000000E+00 0. -1.
         21   -1    0    0  501  502 -0.00000000000E+00 -0.00000000000E+00 -0.82819429647E+03  0.82819429647E+03  0.00000000000E+00 0. -1.
         25    1    1    2    0    0 -0.10510993153E+03  0.46782490203E+02 -0.17660528322E+03  0.24505331085E+03  0.12500000000E+03 0.  0.
         25    1    1    2    0    0  0.96865665385E+02  0.10539460468E+03 -0.31514997524E+03  0.36801560663E+03  0.12500000000E+03 0.  0.
         25    1    1    2    0    0  0.82442661410E+01 -0.15217709489E+03 -0.24056344263E+03  0.31100097438E+03  0.12500000000E+03 0.  0.
</event>
<event>
 5    0  0.5851292E-005  0.5052109E+03  0.7546771E-02  0.1012428E+00
         21   -1    0    0  502  501  0.00000000000E+00  0.00000000000E+00  0.40279660204E+03  0.40279660204E+03  0.00000000000E+00 0.  1.
         21   -1    0    0  501  502 -0.00000000000E+00 -0.00000000000E+00 -0.63366480186E+03  0.63366480186E+03  0.00000000000E+00 0.  1.
         25    1    1    2    0    0 -0.19538583667E+02 -0.19410588977E+02  0.24439951588E+03  0.27588883736E+03  0.12500000000E+03 0.  0.
         25    1    1    2    0    0 -0.74110573131E+02  0.46101061331E+02  0.87597311181E+02  0.17582938842E+03  0.12500000000E+03 0.  0.
         25    1    1    2    0    0  0.93649156797E+02 -0.26690472354E+02 -0.56286502688E+03  0.58474317813E+03  0.12500000000E+03 0.  0.
</event>
<event>
 5    0  0.5851292E-005  0.3986785E+03  0.7546771E-02  0.1044238E+00
         21   -1    0    0  502  501  0.00000000000E+00  0.00000000000E+00  0.12998727916E+04  0.12998727916E+04  0.00000000000E+00 0.  1.
         21   -1    0    0  501  502 -0.00000000000E+00 -0.00000000000E+00 -0.12227701015E+03  0.12227701015E+03  0.00000000000E+00 0.  1.
         25    1    1    2    0    0  0.98843571737E+02  0.19690021556E+03  0.13147735193E+03  0.28539628700E+03  0.12500000000E+03 0.  0.
         25    1    1    2    0    0  0.97958450217E+01 -0.24250947553E+03  0.63767165680E+03  0.69365477450E+03  0.12500000000E+03 0.  0.
         25    1    1    2    0    0 -0.10863941676E+03  0.45609259963E+02  0.40844677270E+03  0.44309874023E+03  0.12500000000E+03 0.  0.
</event>
<event>
 5    0  0.5851292E-005  0.3043904E+03  0.7546771E-02  0.1083066E+00
         21   -1    0    0  502  501  0.00000000000E+00  0.00000000000E+00  0.20275799986E+03  0.20275799986E+03  0.00000000000E+00 0.  1.
         21   -1    0    0  501  502 -0.00000000000E+00 -0.00000000000E+00 -0.45696607967E+03  0.45696607967E+03  0.00000000000E+00 0.  1.
         25    1    1    2    0    0 -0.11034201900E+02  0.84716847274E+02 -0.83945442432E+02  0.17312000210E+03  0.12500000000E+03 0.  0.
         25    1    1    2    0    0 -0.95479905656E+02 -0.74310606925E+02  0.76471436755E+02  0.19002989061E+03  0.12500000000E+03 0.  0.
         25    1    1    2    0    0  0.10651410756E+03 -0.10406240349E+02 -0.24673407413E+03  0.29657418682E+03  0.12500000000E+03 0.  0.
</event>
<event>
 5    0  0.7073961E-005  0.2849998E+03  0.7546771E-02  0.1092989E+00
         21   -1    0    0  502  501  0.00000000000E+00  0.00000000000E+00  0.24803485318E+03  0.24803485318E+03  0.00000000000E+00 0. -1.
         21   -1    0    0  501  502 -0.00000000000E+00 -0.00000000000E+00 -0.32747358848E+03  0.32747358848E+03  0.00000000000E+00 0. -1.
         25    1    1    2    0    0  0.56543742003E+02  0.11306611259E+03 -0.15877692352E+03  0.23836159929E+03  0.12500000000E+03 0.  0.
         25    1    1    2    0    0 -0.26980328899E+02  0.31747352144E+01  0.10042844208E+03  0.16263114422E+03  0.12500000000E+03 0.  0.
         25    1    1    2    0    0 -0.29563413104E+02 -0.11624084781E+03 -0.21090253867E+02  0.17451569815E+03  0.12500000000E+03 0.  0.
</event>
<event>
 5    0  0.5851292E-005  0.3639624E+03  0.7546771E-02  0.1057026E+00
         21   -1    0    0  502  501  0.00000000000E+00  0.00000000000E+00  0.71498919050E+02  0.71498919050E+02  0.00000000000E+00 0.  1.
         21   -1    0    0  501  502 -0.00000000000E+00 -0.00000000000E+00 -0.18527356071E+04  0.18527356071E+04  0.00000000000E+00 0.  1.
         25    1    1    2    0    0  0.81753799833E+02 -0.68236012219E+01 -0.92638889777E+03  0.93837712847E+03  0.12500000000E+03 0.  0.
         25    1    1    2    0    0 -0.13183419667E+03  0.27522950562E+02 -0.82652590842E+03  0.84670410741E+03  0.12500000000E+03 0.  0.
         25    1    1    2    0    0  0.50080396836E+02 -0.20699349340E+02 -0.28321881903E+02  0.13915329031E+03  0.12500000000E+03 0.  0.
</event>
<event>
 5    0  0.5851292E-005  0.4190897E+03  0.7546771E-02  0.1037363E+00
         21   -1    0    0  502  501  0.00000000000E+00  0.00000000000E+00  0.85270004263E+03  0.85270004263E+03  0.00000000000E+00 0.  1.
         21   -1    0    0  501  502 -0.00000000000E+00 -0.00000000000E+00 -0.20597648234E+03  0.20597648234E+03  0.00000000000E+00 0.  1.
         25    1    1    2    0    0 -0.92774693721E+02 -0.24307983722E+03  0.92753829571E+02  0.30318842979E+03  0.12500000000E+03 0.  0.
         25    1    1    2    0    0 -0.78489948727E+02  0.16427526316E+03  0.46053675667E+03  0.51075056376E+03  0.12500000000E+03 0.  0.
         25    1    1    2    0    0  0.17126464245E+03  0.78804574061E+02  0.93432974057E+02  0.24473753142E+03  0.12500000000E+03 0.  0.
</event>
<event>
 5    0  0.7326169E-005  0.3350186E+03  0.7546771E-02  0.1068938E+00
         21   -1    0    0  502  501  0.00000000000E+00  0.00000000000E+00  0.66529143927E+03  0.66529143927E+03  0.00000000000E+00 0. -1.
         21   -1    0    0  501  502 -0.00000000000E+00 -0.00000000000E+00 -0.16870419487E+03  0.16870419487E+03  0.00000000000E+00 0. -1.
         25    1    1    2    0    0  0.81817411417E+01  0.24113658439E+02  0.24212484430E+03  0.27367471502E+03  0.12500000000E+03 0.  0.
         25    1    1    2    0    0  0.15771140446E+03  0.35810050400E+02  0.27557533016E+03  0.34310641119E+03  0.12500000000E+03 0.  0.
         25    1    1    2    0    0 -0.16589314560E+03 -0.59923708839E+02 -0.21112930062E+02  0.21721450793E+03  0.12500000000E+03 0.  0.
</event>
<event>
 5    0  0.7068496E-005  0.3200739E+03  0.7546771E-02  0.1075615E+00
         21   -1    0    0  502  501  0.00000000000E+00  0.00000000000E+00  0.14867958495E+03  0.14867958495E+03  0.00000000000E+00 0.  1.
         21   -1    0    0  501  502 -0.00000000000E+00 -0.00000000000E+00 -0.68904758277E+03  0.68904758277E+03  0.00000000000E+00 0.  1.
         25    1    1    2    0    0  0.11522769113E+03 -0.11467644235E+02 -0.44340699859E+02  0.17606824056E+03  0.12500000000E+03 0.  0.
         25    1    1    2    0    0 -0.23169504653E+03  0.11914217088E+02 -0.25923616977E+03  0.36966597744E+03  0.12500000000E+03 0.  0.
         25    1    1    2    0    0  0.11646735540E+03 -0.44657285368E+00 -0.23679112819E+03  0.29199294973E+03  0.12500000000E+03 0.  0.
</event>
<event>
 5    0  0.5851292E-005  0.4185618E+03  0.7546771E-02  0.1037535E+00
         21   -1    0    0  502  501  0.00000000000E+00  0.00000000000E+00  0.12511132245E+04  0.12511132245E+04  0.00000000000E+00 0.  1.
         21   -1    0    0  501  502 -0.00000000000E+00 -0.00000000000E+00 -0.14003046411E+03  0.14003046411E+03  0.00000000000E+00 0.  1.
         25    1    1    2    0    0 -0.33236124307E+02  0.16142008152E+03  0.37116846649E+03  0.42491424217E+03  0.12500000000E+03 0.  0.
         25    1    1    2    0    0 -0.88102018423E+01 -0.35437441359E+03  0.54418537945E+03  0.66137853901E+03  0.12500000000E+03 0.  0.
         25    1    1    2    0    0  0.42046326149E+02  0.19295433207E+03  0.19572891446E+03  0.30485090743E+03  0.12500000000E+03 0.  0.
</event>
<event>
 5    0  0.5851292E-005  0.2580895E+03  0.7546771E-02  0.1108297E+00
         21   -1    0    0  502  501  0.00000000000E+00  0.00000000000E+00  0.48099391559E+03  0.48099391559E+03  0.00000000000E+00 0.  1.
         21   -1    0    0  501  502 -0.00000000000E+00 -0.00000000000E+00 -0.13848448218E+03  0.13848448218E+03  0.00000000000E+00 0.  1.
         25    1    1    2    0    0  0.52749475804E+01 -0.53391980853E+02  0.20419315216E+03  0.24535356545E+03  0.12500000000E+03 0.  0.
         25    1    1    2    0    0 -0.18851327691E+01  0.57555008743E+02  0.19344127251E+03  0.23740399885E+03  0.12500000000E+03 0.  0.
         25    1    1    2    0    0 -0.33898148113E+01 -0.41630278897E+01 -0.55124991263E+02  0.13672083348E+03  0.12500000000E+03 0.  0.
</event>
<event>
 5    0  0.5851292E-005  0.4260584E+03  0.7546771E-02  0.1035112E+00
         21   -1    0    0  502  501  0.00000000000E+00  0.00000000000E+00  0.37236582914E+03  0.37236582914E+03  0.00000000000E+00 0.  1.
         21   -1    0    0  501  502 -0.00000000000E+00 -0.00000000000E+00 -0.48749296085E+03  0.48749296085E+03  0.00000000000E+00 0.  1.
         25    1    1    2    0    0 -0.36512775361E+02  0.52347112261E+02  0.12907978836E+03  0.19068296906E+03  0.12500000000E+03 0.  0.
         25    1    1    2    0    0 -0.17589350671E+03 -0.16460725704E+03  0.42584852627E+02  0.27472266824E+03  0.12500000000E+03 0.  0.
         25    1    1    2    0    0  0.21240628207E+03  0.11226014478E+03 -0.28679177271E+03  0.39445315268E+03  0.12500000000E+03 0.  0.
</event>
<event>
 5    0  0.5851292E-005  0.3579773E+03  0.7546771E-02  0.1059388E+00
         21   -1    0    0  502  501  0.00000000000E+00  0.00000000000E+00  0.26317097003E+03  0.26317097003E+03  0.00000000000E+00 0.  1.
         21   -1    0    0  501  502 -0.00000000000E+00 -0.00000000000E+00 -0.48693735625E+03  0.48693735625E+03  0.00000000000E+00 0.  1.
         25    1    1    2    0    0 -0.72484936772E+02  0.93290803730E+02 -0.22028756519E+03  0.27947960837E+03  0.12500000000E+03 0.  0.
         25    1    1    2    0    0  0.72961729246E+02  0.20660746442E+02  0.17278184050E+03  0.22633789957E+03  0.12500000000E+03 0.  0.
         25    1    1    2    0    0 -0.47679247384E+00 -0.11395155017E+03 -0.17626066152E+03  0.24429081833E+03  0.12500000000E+03 0.  0.
</event>
<event>
 5    0  0.6089276E-005  0.4156690E+03  0.7546771E-02  0.1038485E+00
         21   -1    0    0  502  501  0.00000000000E+00  0.00000000000E+00  0.22830778090E+03  0.22830778090E+03  0.00000000000E+00 0. -1.
         21   -1    0    0  501  502 -0.00000000000E+00 -0.00000000000E+00 -0.75678870545E+03  0.75678870545E+03  0.00000000000E+00 0. -1.
         25    1    1    2    0    0 -0.15820642023E+03  0.54128841533E+02 -0.24593872765E+03  0.32259891607E+03  0.12500000000E+03 0.  0.
         25    1    1    2    0    0  0.17204937283E+03  0.13330052696E+03 -0.34654248864E+03  0.42788633258E+03  0.12500000000E+03 0.  0.
         25    1    1    2    0    0 -0.13842952603E+02 -0.18742936849E+03  0.64000291735E+02  0.23461123769E+03  0.12500000000E+03 0.  0.
</event>
<event>
 5    0  0.5851292E-005  0.2725853E+03  0.7546771E-02  0.1099809E+00
         21   -1    0    0  502  501  0.00000000000E+00  0.00000000000E+00  0.34282252241E+03  0.34282252241E+03  0.00000000000E+00 0.  1.
         21   -1    0    0  501  502 -0.00000000000E+00 -0.00000000000E+00 -0.21673818864E+03  0.21673818864E+03  0.00000000000E+00 0.  1.
         25    1    1    2    0    0  0.49998100439E+02 -0.16348301436E+03  0.27142796068E+02  0.21351402158E+03  0.12500000000E+03 0.  0.
         25    1    1    2    0    0 -0.50386002416E+02  0.35335248890E+02  0.91869712230E+02  0.16689030253E+03  0.12500000000E+03 0.  0.
         25    1    1    2    0    0  0.38790197700E+00  0.12814776547E+03  0.70718254726E+01  0.17915638694E+03  0.12500000000E+03 0.  0.
</event>
<event>
 5    0  0.5851292E-005  0.2505456E+03  0.7546771E-02  0.1112961E+00
         21   -1    0    0  502  501  0.00000000000E+00  0.00000000000E+00  0.26458486934E+03  0.26458486934E+03  0.00000000000E+00 0. -1.
         21   -1    0    0  501  502 -0.00000000000E+00 -0.00000000000E+00 -0.23725122816E+03  0.23725122816E+03  0.00000000000E+00 0. -1.
         25    1    1    2    0    0  0.98443670320E+02 -0.57169964041E+02 -0.17161519444E+02  0.16993845581E+03  0.12500000000E+03 0.  0.
         25    1    1    2    0    0 -0.71002626880E+02 -0.57384995293E+02  0.40905320802E+02  0.16010201741E+03  0.12500000000E+03 0.  0.
         25    1    1    2    0    0 -0.27441043440E+02  0.11455495933E+03  0.35898398189E+01  0.17179562428E+03  0.12500000000E+03 0.  0.
</event>
<event>
 5    0  0.5851292E-005  0.4852843E+03  0.7546771E-02  0.1017693E+00
         21   -1    0    0  502  501  0.00000000000E+00  0.00000000000E+00  0.18484565525E+03  0.18484565525E+03  0.00000000000E+00 0.  1.
         21   -1    0    0  501  502 -0.00000000000E+00 -0.00000000000E+00 -0.12740404094E+04  0.12740404094E+04  0.00000000000E+00 0.  1.
         25    1    1    2    0    0  0.19703709674E+03 -0.10291624644E+03 -0.24496393416E+03  0.35362084258E+03  0.12500000000E+03 0.  0.
         25    1    1    2    0    0  0.10431975179E+03 -0.20648336872E+03 -0.28684507926E+03  0.38913120109E+03  0.12500000000E+03 0.  0.
         25    1    1    2    0    0 -0.30135684853E+03  0.30939961516E+03 -0.55738574073E+03  0.71613402096E+03  0.12500000000E+03 0.  0.
</event>
<event>
 5    0  0.5851292E-005  0.4257766E+03  0.7546771E-02  0.1035202E+00
         21   -1    0    0  502  501  0.00000000000E+00  0.00000000000E+00  0.14237963181E+03  0.14237963181E+03  0.00000000000E+00 0.  1.
         21   -1    0    0  501  502 -0.00000000000E+00 -0.00000000000E+00 -0.12732561849E+04  0.12732561849E+04  0.00000000000E+00 0.  1.
         25    1    1    2    0    0 -0.11223210123E+03 -0.17617330947E+03 -0.59170275665E+02  0.25051786571E+03  0.12500000000E+03 0.  0.
         25    1    1    2    0    0  0.76946660495E+02 -0.39467356813E+02 -0.69917651623E+03  0.71550769504E+03  0.12500000000E+03 0.  0.
         25    1    1    2    0    0  0.35285440739E+02  0.21564066629E+03 -0.37252976122E+03  0.44961025598E+03  0.12500000000E+03 0.  0.
</event>
<event>
 5    0  0.5851292E-005  0.3231606E+03  0.7546771E-02  0.1074204E+00
         21   -1    0    0  502  501  0.00000000000E+00  0.00000000000E+00  0.41446939195E+03  0.41446939195E+03  0.00000000000E+00 0.  1.
         21   -1    0    0  501  502 -0.00000000000E+00 -0.00000000000E+00 -0.25196733622E+03  0.25196733622E+03  0.00000000000E+00 0.  1.
         25    1    1    2    0    0  0.40671529445E+02  0.11649532738E+03 -0.21276574951E+02  0.17692661544E+03  0.12500000000E+03 0.  0.
         25    1    1    2    0    0 -0.15236155869E+03 -0.13733452052E+03  0.20938998520E+03  0.31865966327E+03  0.12500000000E+03 0.  0.
         25    1    1    2    0    0  0.11169002924E+03  0.20839193133E+02 -0.25611354519E+02  0.17085044947E+03  0.12500000000E+03 0.  0.
</event>
<event>
 5    0  0.5851292E-005  0.3296362E+03  0.7546771E-02  0.1071298E+00
         21   -1    0    0  502  501  0.00000000000E+00  0.00000000000E+00  0.76955551439E+02  0.76955551439E+02  0.00000000000E+00 0. -1.
         21   -1    0    0  501  502 -0.00000000000E+00 -0.00000000000E+00 -0.14119837973E+04  0.14119837973E+04  0.00000000000E+00 0. -1.
         25    1    1    2    0    0  0.32449173928E+02 -0.16833900961E+03 -0.24339534807E+03  0.32288893835E+03  0.12500000000E+03 0.  0.
         25    1    1    2    0    0 -0.45836405203E+02  0.37251936550E+02 -0.86325249412E+03  0.87425313922E+03  0.12500000000E+03 0.  0.
         25    1    1    2    0    0  0.13387231275E+02  0.13108707306E+03 -0.22838040366E+03  0.29179727116E+03  0.12500000000E+03 0.  0.
</event>
<event>
 5    0  0.5851292E-005  0.2984342E+03  0.7546771E-02  0.1086026E+00
         21   -1    0    0  502  501  0.00000000000E+00  0.00000000000E+00  0.72058229741E+03  0.72058229741E+03  0.00000000000E+00 0.  1.
         21   -1    0    0  501  502 -0.00000000000E+00 -0.00000000000E+00 -0.12359863118E+03  0.12359863118E+03  0.00000000000E+00 0.  1.
         25    1    1    2    0    0 -0.11052171737E+02  0.13236097760E+03  0.47251952138E+03  0.50649903946E+03  0.12500000000E+03 0.  0.
         25    1    1    2    0    0  0.35304869436E+02 -0.24087319202E+02  0.49325963817E+01  0.13219668400E+03  0.12500000000E+03 0.  0.
         25    1    1    2    0    0 -0.24252697698E+02 -0.10827365840E+03  0.11953154846E+03  0.20548520513E+03  0.12500000000E+03 0.  0.
</event>
<event>
 5    0  0.5851292E-005  0.4373170E+03  0.7546771E-02  0.1031573E+00
         21   -1    0    0  502  501  0.00000000000E+00  0.00000000000E+00  0.20717397719E+03  0.20717397719E+03  0.00000000000E+00 0. -1.
         21   -1    0    0  501  502 -0.00000000000E+00 -0.00000000000E+00 -0.92311857861E+03  0.92311857861E+03  0.00000000000E+00 0. -1.
         25    1    1    2    0    0 -0.55239895858E+01 -0.85547126365E+02 -0.64888593276E+03  0.66635334397E+03  0.12500000000E+03 0.  0.
         25    1    1    2    0    0 -0.91637513408E+02 -0.73318122329E+02  0.86579971603E+02  0.19207829760E+03  0.12500000000E+03 0.  0.
         25    1    1    2    0    0  0.97161502994E+02  0.15886524869E+03 -0.15363864026E+03  0.27186091423E+03  0.12500000000E+03 0.  0.
</event>
<event>
 5    0  0.5851292E-005  0.5844108E+03  0.7546771E-02  0.9938287E-01
         21   -1    0    0  502  501  0.00000000000E+00  0.00000000000E+00  0.21721106502E+03  0.21721106502E+03  0.00000000000E+00 0.  1.
         21   -1    0    0  501  502 -0.00000000000E+00 -0.00000000000E+00 -0.15723690988E+04  0.15723690988E+04  0.00000000000E+00 0.  1.
         25    1    1    2    0    0  0.33116205562E+03 -0.40301200456E+03 -0.62579577724E+03  0.82421619598E+03  0.12500000000E+03 0.  0.
         25    1    1    2    0    0 -0.99473921349E+02  0.74747831229E+02 -0.37817648676E+03  0.41728258344E+03  0.12500000000E+03 0.  0.
         25    1    1    2    0    0 -0.23168813427E+03  0.32826417333E+03 -0.35118576982E+03  0.54808138445E+03  0.12500000000E+03 0.  0.
</event>
<event>
 5    0  0.5851292E-005  0.2792431E+03  0.7546771E-02  0.1096103E+00
         21   -1    0    0  502  501  0.00000000000E+00  0.00000000000E+00  0.19737389486E+04  0.19737389486E+04  0.00000000000E+00 0. -1.
         21   -1    0    0  501  502 -0.00000000000E+00 -0.00000000000E+00 -0.39507100842E+02  0.39507100842E+02  0.00000000000E+00 0. -1.
         25    1    1    2    0    0  0.44940989346E+02 -0.12970271425E+03  0.57363095196E+03  0.60292616103E+03  0.12500000000E+03 0.  0.
         25    1    1    2    0    0 -0.79755143372E+02 -0.41062344654E+02  0.65598751278E+03  0.67378899959E+03  0.12500000000E+03 0.  0.
         25    1    1    2    0    0  0.34814154026E+02  0.17076505891E+03  0.70461338303E+03  0.73653088883E+03  0.12500000000E+03 0.  0.
</event>
<event>
 5    0  0.5851292E-005  0.2471152E+03  0.7546771E-02  0.1115142E+00
         21   -1    0    0  502  501  0.00000000000E+00  0.00000000000E+00  0.34345278648E+03  0.34345278648E+03  0.00000000000E+00 0.  1.
         21   -1    0    0  501  502 -0.00000000000E+00 -0.00000000000E+00 -0.17780000817E+03  0.17780000817E+03  0.00000000000E+00 0.  1.
         25    1    1    2    0    0 -0.43813709842E+02  0.23415598175E+02  0.45932407840E+00  0.13451075194E+03  0.12500000000E+03 0.  0.
         25    1    1    2    0    0 -0.84741774537E+02 -0.43358955044E+02  0.12771119100E+03  0.20247546923E+03  0.12500000000E+03 0.  0.
         25    1    1    2    0    0  0.12855548438E+03  0.19943356869E+02  0.37482263240E+02  0.18426657349E+03  0.12500000000E+03 0.  0.
</event>
<event>
 5    0  0.5851292E-005  0.3208563E+03  0.7546771E-02  0.1075256E+00
         21   -1    0    0  502  501  0.00000000000E+00  0.00000000000E+00  0.65494560489E+02  0.65494560489E+02  0.00000000000E+00 0.  1.
         21   -1    0    0  501  502 -0.00000000000E+00 -0.00000000000E+00 -0.15718676150E+04  0.15718676150E+04  0.00000000000E+00 0.  1.
         25    1    1    2    0    0  0.43169657113E+02  0.27162334262E+02 -0.77325796026E+02  0.15558178052E+03  0.12500000000E+03 0.  0.
         25    1    1    2    0    0 -0.76363028457E+02 -0.11807253185E+03 -0.11086935784E+04  0.11245438567E+04  0.12500000000E+03 0.  0.
         25    1    1    2    0    0  0.33193371345E+02  0.90910197583E+02 -0.32035368014E+03  0.35723653832E+03  0.12500000000E+03 0.  0.
</event>
<event>
 5    0  0.5851292E-005  0.3502718E+03  0.7546771E-02  0.1062504E+00
         21   -1    0    0  502  501  0.00000000000E+00  0.00000000000E+00  0.12058355602E+03  0.12058355602E+03  0.00000000000E+00 0.  1.
         21   -1    0    0  501  502 -0.00000000000E+00 -0.00000000000E+00 -0.10174714462E+04  0.10174714462E+04  0.00000000000E+00 0.  1.
         25    1    1    2    0    0  0.84760134800E+02 -0.57837033487E+02 -0.36696191598E+03  0.40101801789E+03  0.12500000000E+03 0.  0.
         25    1    1    2    0    0 -0.13492986573E+03 -0.98002221514E+02 -0.48261579099E+03  0.52569335720E+03  0.12500000000E+03 0.  0.
         25    1    1    2    0    0  0.50169730931E+02  0.15583925500E+03 -0.47310183241E+02  0.21134362716E+03  0.12500000000E+03 0.  0.
</event>
<event>
 5    0  0.5851292E-005  0.2854645E+03  0.7546771E-02  0.1092741E+00
         21   -1    0    0  502  501  0.00000000000E+00  0.00000000000E+00  0.78317404764E+03  0.78317404764E+03  0.00000000000E+00 0.  1.
         21   -1    0    0  501  502 -0.00000000000E+00 -0.00000000000E+00 -0.10405089701E+03  0.10405089701E+03  0.00000000000E+00 0.  1.
         25    1    1    2    0    0  0.87555476742E+02 -0.88605824504E+02  0.49898646084E+03  0.52927255903E+03  0.12500000000E+03 0.  0.
         25    1    1    2    0    0 -0.34768671792E+02  0.38797482928E+02  0.11591991215E+02  0.13591717875E+03  0.12500000000E+03 0.  0.
         25    1    1    2    0    0 -0.52786804950E+02  0.49808341576E+02  0.16854469858E+03  0.22203520686E+03  0.12500000000E+03 0.  0.
</event>
<event>
 5    0  0.5851292E-005  0.2505320E+03  0.7546771E-02  0.1112969E+00
         21   -1    0    0  502  501  0.00000000000E+00  0.00000000000E+00  0.17508281501E+03  0.17508281501E+03  0.00000000000E+00 0. -1.
         21   -1    0    0  501  502 -0.00000000000E+00 -0.00000000000E+00 -0.35849491949E+03  0.35849491949E+03  0.00000000000E+00 0. -1.
         25    1    1    2    0    0 -0.12161726966E+02 -0.11669772626E+02 -0.20265880883E+03  0.23870417674E+03  0.12500000000E+03 0.  0.
         25    1    1    2    0    0  0.93609786299E+00  0.64916459743E+02  0.59228200552E+02  0.15280053261E+03  0.12500000000E+03 0.  0.
         25    1    1    2    0    0  0.11225629103E+02 -0.53246687118E+02 -0.39981496202E+02  0.14207302515E+03  0.12500000000E+03 0.  0.
</event>
<event>
 5    0  0.5851292E-005  0.2455973E+03  0.7546771E-02  0.1116119E+00
         21   -1    0    0  502  501  0.00000000000E+00  0.00000000000E+00  0.84896555872E+03  0.84896555872E+03  0.00000000000E+00 0.  1.
         21   -1    0    0  501  502 -0.00000000000E+00 -0.00000000000E+00 -0.71048886349E+02  0.71048886349E+02  0.00000000000E+00 0.  1.
         25    1    1    2    0    0  0.50352874197E+02 -0.61855783529E+02  0.43609889817E+03  0.46061784472E+03  0.12500000000E+03 0.  0.
         25    1    1    2    0    0 -0.41581793824E+02 -0.46154781316E+02  0.18210101781E+03  0.22944517886E+03  0.12500000000E+03 0.  0.
         25    1    1    2    0    0 -0.87710803732E+01  0.10801056485E+03  0.15971675640E+03  0.22995142149E+03  0.12500000000E+03 0.  0.
</event>
<event>
 5    0  0.5852767E-005  0.3809557E+03  0.7546771E-02  0.1050581E+00
         21   -1    0    0  502  501  0.00000000000E+00  0.00000000000E+00  0.50545360889E+03  0.50545360889E+03  0.00000000000E+00 0. -1.
         21   -1    0    0  501  502 -0.00000000000E+00 -0.00000000000E+00 -0.28712284227E+03  0.28712284227E+03  0.00000000000E+00 0. -1.
         25    1    1    2    0    0  0.18340272819E+03  0.14356937692E+02  0.17554007033E+03  0.28334078185E+03  0.12500000000E+03 0.  0.
         25    1    1    2    0    0  0.26580794251E+02 -0.17160097243E+03 -0.86124306034E+01  0.21413221692E+03  0.12500000000E+03 0.  0.
         25    1    1    2    0    0 -0.20998352245E+03  0.15724403474E+03  0.51403126887E+02  0.29510345239E+03  0.12500000000E+03 0.  0.
</event>
<event>
 5    0  0.5851292E-005  0.3674919E+03  0.7546771E-02  0.1055656E+00
         21   -1    0    0  502  501  0.00000000000E+00  0.00000000000E+00  0.45556133627E+03  0.45556133627E+03  0.00000000000E+00 0.  1.
         21   -1    0    0  501  502 -0.00000000000E+00 -0.00000000000E+00 -0.29644809758E+03  0.29644809758E+03  0.00000000000E+00 0.  1.
         25    1    1    2    0    0  0.13168583257E+03  0.50245191616E+02  0.31615063178E+03  0.36802440103E+03  0.12500000000E+03 0.  0.
         25    1    1    2    0    0 -0.58708088604E+02  0.10218510928E+02 -0.17822097775E+03  0.22569619967E+03  0.12500000000E+03 0.  0.
         25    1    1    2    0    0 -0.72977743962E+02 -0.60463702544E+02  0.21183584656E+02  0.15828883314E+03  0.12500000000E+03 0.  0.
</event>
<event>
 5    0  0.5851292E-005  0.3272486E+03  0.7546771E-02  0.1072361E+00
         21   -1    0    0  502  501  0.00000000000E+00  0.00000000000E+00  0.68178869128E+03  0.68178869128E+03  0.00000000000E+00 0. -1.
         21   -1    0    0  501  502 -0.00000000000E+00 -0.00000000000E+00 -0.15707450551E+03  0.15707450551E+03  0.00000000000E+00 0. -1.
         25    1    1    2    0    0 -0.11648886982E+03 -0.14170616450E+03  0.64854035734E+02  0.23126032907E+03  0.12500000000E+03 0.  0.
         25    1    1    2    0    0  0.84398413805E+02 -0.53221755121E+02  0.14850952180E+03  0.21825610080E+03  0.12500000000E+03 0.  0.
         25    1    1    2    0    0  0.32090456016E+02  0.19492791962E+03  0.31135062823E+03  0.38934676693E+03  0.12500000000E+03 0.  0.
</event>
<event>
 5    0  0.5851292E-005  0.3423434E+03  0.7546771E-02  0.1065802E+00
         21   -1    0    0  502  501  0.00000000000E+00  0.00000000000E+00  0.18003727117E+03  0.18003727117E+03  0.00000000000E+00 0.  1.
         21   -1    0    0  501  502 -0.00000000000E+00 -0.00000000000E+00 -0.65097068833E+03  0.65097068833E+03  0.00000000000E+00 0.  1.
         25    1    1    2    0    0  0.26444250847E+03  0.42539740860E+02 -0.12775929086E+03  0.32200451277E+03  0.12500000000E+03 0.  0.
         25    1    1    2    0    0 -0.12301777339E+03  0.21075050365E+02 -0.15551535314E+03  0.23534560837E+03  0.12500000000E+03 0.  0.
         25    1    1    2    0    0 -0.14142473508E+03 -0.63614791225E+02 -0.18765877315E+03  0.27365783836E+03  0.12500000000E+03 0.  0.
</event>
<event>
 5    0  0.5851292E-005  0.3497120E+03  0.7546771E-02  0.1062733E+00
         21   -1    0    0  502  501  0.00000000000E+00  0.00000000000E+00  0.25667066236E+03  0.25667066236E+03  0.00000000000E+00 0. -1.
         21   -1    0    0  501  502 -0.00000000000E+00 -0.00000000000E+00 -0.47648013257E+03  0.47648013257E+03  0.00000000000E+00 0. -1.
         25    1    1    2    0    0  0.41148257120E+01  0.66087010984E+02  0.11498188815E+03  0.18229168773E+03  0.12500000000E+03 0.  0.
         25    1    1    2    0    0  0.13900757141E+03  0.41140994568E+02 -0.25431038963E+03  0.31829932551E+03  0.12500000000E+03 0.  0.
         25    1    1    2    0    0 -0.14312239712E+03 -0.10722800555E+03 -0.80480968723E+02  0.23255978169E+03  0.12500000000E+03 0.  0.
</event>
<event>
 5    0  0.5851292E-005  0.4002989E+03  0.7546771E-02  0.1043676E+00
         21   -1    0    0  502  501  0.00000000000E+00  0.00000000000E+00  0.20730510000E+04  0.20730510000E+04  0.00000000000E+00 0.  1.
         21   -1    0    0  501  502 -0.00000000000E+00 -0.00000000000E+00 -0.77296331602E+02  0.77296331602E+02  0.00000000000E+00 0.  1.
         25    1    1    2    0    0 -0.19621960599E+03 -0.15751825570E+03  0.82000769952E+03  0.86680549255E+03  0.12500000000E+03 0.  0.
         25    1    1    2    0    0 -0.71044554494E+02  0.23958609205E+02  0.64920605310E+03  0.66536820111E+03  0.12500000000E+03 0.  0.
         25    1    1    2    0    0  0.26726416048E+03  0.13355964649E+03  0.52654091581E+03  0.61817363796E+03  0.12500000000E+03 0.  0.
</event>
<event>
 5    0  0.5851292E-005  0.2312576E+03  0.7546771E-02  0.1125758E+00
         21   -1    0    0  502  501  0.00000000000E+00  0.00000000000E+00  0.91736219080E+02  0.91736219080E+02  0.00000000000E+00 0.  1.
         21   -1    0    0  501  502 -0.00000000000E+00 -0.00000000000E+00 -0.58297667393E+03  0.58297667393E+03  0.00000000000E+00 0.  1.
         25    1    1    2    0    0  0.12237034425E+02  0.58845361591E+02 -0.25492175083E+03  0.29021133789E+03  0.12500000000E+03 0.  0.
         25    1    1    2    0    0 -0.18716343585E+02 -0.11018449461E+03 -0.12169967376E+03  0.20718768053E+03  0.12500000000E+03 0.  0.
         25    1    1    2    0    0  0.64793091600E+01  0.51339133017E+02 -0.11461903026E+03  0.17731387460E+03  0.12500000000E+03 0.  0.
</event>
<event>
 5    0  0.5851292E-005  0.4121678E+03  0.7546771E-02  0.1039646E+00
         21   -1    0    0  502  501  0.00000000000E+00  0.00000000000E+00  0.15553604423E+03  0.15553604423E+03  0.00000000000E+00 0. -1.
         21   -1    0    0  501  502 -0.00000000000E+00 -0.00000000000E+00 -0.10922373536E+04  0.10922373536E+04  0.00000000000E+00 0. -1.
         25    1    1    2    0    0  0.26167215231E+03 -0.18471731036E+03 -0.46742326853E+03  0.58026055527E+03  0.12500000000E+03 0.  0.
         25    1    1    2    0    0 -0.49877363250E+02  0.13142660598E+03 -0.80968032502E+02  0.20479630468E+03  0.12500000000E+03 0.  0.
         25    1    1    2    0    0 -0.21179478906E+03  0.53290704374E+02 -0.38831000838E+03  0.46271653791E+03  0.12500000000E+03 0.  0.
</event>
<event>
 5    0  0.5851292E-005  0.2624975E+03  0.7546771E-02  0.1105652E+00
         21   -1    0    0  502  501  0.00000000000E+00  0.00000000000E+00  0.10741952904E+03  0.10741952904E+03  0.00000000000E+00 0.  1.
         21   -1    0    0  501  502 -0.00000000000E+00 -0.00000000000E+00 -0.64145651323E+03  0.64145651323E+03  0.00000000000E+00 0.  1.
         25    1    1    2    0    0 -0.12476278438E+03 -0.78998969559E+02 -0.87562423925E+02  0.21236470432E+03  0.12500000000E+03 0.  0.
         25    1    1    2    0    0  0.51321172995E+02  0.64928112717E+02 -0.25686042041E+03  0.29740847027E+03  0.12500000000E+03 0.  0.
         25    1    1    2    0    0  0.73441611381E+02  0.14070856842E+02 -0.18961413986E+03  0.23910286767E+03  0.12500000000E+03 0.  0.
</event>
<event>
 5    0  0.5851292E-005  0.2280075E+03  0.7546771E-02  0.1128050E+00
         21   -1    0    0  502  501  0.00000000000E+00  0.00000000000E+00  0.13984821519E+03  0.13984821519E+03  0.00000000000E+00 0.  1.
         21   -1    0    0  501  502 -0.00000000000E+00 -0.00000000000E+00 -0.37174168658E+03  0.37174168658E+03  0.00000000000E+00 0.  1.
         25    1    1    2    0    0  0.16970675460E+02 -0.11959931827E+02 -0.23074383339E+01  0.12673345283E+03  0.12500000000E+03 0.  0.
         25    1    1    2    0    0 -0.23500824249E+02  0.84857077145E+01 -0.48199679051E+01  0.12756381958E+03  0.12500000000E+03 0.  0.
         25    1    1    2    0    0  0.65301487898E+01  0.34742241123E+01 -0.22476606515E+03  0.25729262935E+03  0.12500000000E+03 0.  0.
</event>
<event>
 5    0  0.5851292E-005  0.2446145E+03  0.7546771E-02  0.1116756E+00
         21   -1    0    0  502  501  0.00000000000E+00  0.00000000000E+00  0.13664826993E+03  0.13664826993E+03  0.00000000000E+00 0.  1.
         21   -1    0    0  501  502 -0.00000000000E+00 -0.00000000000E+00 -0.43788501255E+03  0.43788501255E+03  0.00000000000E+00 0.  1.
         25    1    1    2    0    0  0.57975726227E+02 -0.59945013572E+02 -0.17116679574E+02  0.15123680175E+03  0.12500000000E+03 0.  0.
         25    1    1    2    0    0  0.40981490986E+02  0.59802412270E+02 -0.82970682573E+02  0.16662816474E+03  0.12500000000E+03 0.  0.
         25    1    1    2    0    0 -0.98957217213E+02  0.14260130253E+00 -0.20114938047E+03  0.25666831600E+03  0.12500000000E+03 0.  0.
</event>
<event>
 5    0  0.5851292E-005  0.2753345E+03  0.7546771E-02  0.1098265E+00
         21   -1    0    0  502  501  0.00000000000E+00  0.00000000000E+00  0.21456670695E+02  0.21456670695E+02  0.00000000000E+00 0.  1.
         21   -1    0    0  501  502 -0.00000000000E+00 -0.00000000000E+00 -0.35331251746E+04  0.35331251746E+04  0.00000000000E+00 0.  1.
         25    1    1    2    0    0 -0.10206292268E+03 -0.13363038526E+03 -0.13914535291E+04  0.14071395964E+04  0.12500000000E+03 0.  0.
         25    1    1    2    0    0  0.40368096329E+02 -0.59336472503E+01 -0.58430104409E+03  0.59891360102E+03  0.12500000000E+03 0.  0.
         25    1    1    2    0    0  0.61694826353E+02  0.13956403251E+03 -0.15359139307E+04  0.15485286479E+04  0.12500000000E+03 0.  0.
</event>
<event>
 5    0  0.5851292E-005  0.2755867E+03  0.7546771E-02  0.1098124E+00
         21   -1    0    0  502  501  0.00000000000E+00  0.00000000000E+00  0.17292338694E+03  0.17292338694E+03  0.00000000000E+00 0.  1.
         21   -1    0    0  501  502 -0.00000000000E+00 -0.00000000000E+00 -0.43920053805E+03  0.43920053805E+03  0.00000000000E+00 0.  1.
         25    1    1    2    0    0  0.77758697124E+02 -0.58684282404E+02 -0.14403917530E+03  0.21415542020E+03  0.12500000000E+03 0.  0.
         25    1    1    2    0    0 -0.85904173803E+02 -0.27639831095E+02 -0.17841616736E+03  0.23579825299E+03  0.12500000000E+03 0.  0.
         25    1    1    2    0    0  0.81454766797E+01  0.86324113499E+02  0.56178191557E+02  0.16217025180E+03  0.12500000000E+03 0.  0.
</event>
<event>
 5    0  0.5851292E-005  0.2445026E+03  0.7546771E-02  0.1116829E+00
         21   -1    0    0  502  501  0.00000000000E+00  0.00000000000E+00  0.11042015579E+03  0.11042015579E+03  0.00000000000E+00 0.  1.
         21   -1    0    0  501  502 -0.00000000000E+00 -0.00000000000E+00 -0.54140060509E+03  0.54140060509E+03  0.00000000000E+00 0.  1.
         25    1    1    2    0    0  0.37535595349E+02 -0.49707081533E+02 -0.18173387433E+03  0.22919842048E+03  0.12500000000E+03 0.  0.
         25    1    1    2    0    0  0.88444877784E+02  0.19901583262E+02 -0.73239173884E+02  0.17090215333E+03  0.12500000000E+03 0.  0.
         25    1    1    2    0    0 -0.12598047313E+03  0.29805498272E+02 -0.17600740109E+03  0.25172018706E+03  0.12500000000E+03 0.  0.
</event>
<event>
 5    0  0.5851292E-005  0.2713856E+03  0.7546771E-02  0.1100489E+00
         21   -1    0    0  502  501  0.00000000000E+00  0.00000000000E+00  0.12467957205E+03  0.12467957205E+03  0.00000000000E+00 0. -1.
         21   -1    0    0  501  502 -0.00000000000E+00 -0.00000000000E+00 -0.59071543131E+03  0.59071543131E+03  0.00000000000E+00 0. -1.
         25    1    1    2    0    0 -0.60163087318E+02 -0.56526625074E+01 -0.15736231402E+03  0.20985577796E+03  0.12500000000E+03 0.  0.
         25    1    1    2    0    0  0.99123497582E+02  0.61415651816E+02 -0.59675961869E+01  0.17104959008E+03  0.12500000000E+03 0.  0.
         25    1    1    2    0    0 -0.38960410264E+02 -0.55762989309E+02 -0.30270594906E+03  0.33448963533E+03  0.12500000000E+03 0.  0.
</event>
<event>
 5    0  0.5851292E-005  0.2754424E+03  0.7546771E-02  0.1098205E+00
         21   -1    0    0  502  501  0.00000000000E+00  0.00000000000E+00  0.42522066034E+03  0.42522066034E+03  0.00000000000E+00 0. -1.
         21   -1    0    0  501  502 -0.00000000000E+00 -0.00000000000E+00 -0.17842146416E+03  0.17842146416E+03  0.00000000000E+00 0. -1.
         25    1    1    2    0    0  0.68131232241E+02 -0.10277075520E+03  0.16522604817E+03  0.24109819561E+03  0.12500000000E+03 0.  0.
         25    1    1    2    0    0  0.23766914280E+02 -0.40514382817E+02 -0.65778364963E+01  0.13369573427E+03  0.12500000000E+03 0.  0.
         25    1    1    2    0    0 -0.91898146522E+02  0.14328513802E+03  0.88150984508E+02  0.22884819462E+03  0.12500000000E+03 0.  0.
</event>
<event>
 5    0  0.5851292E-005  0.3292497E+03  0.7546771E-02  0.1071469E+00
         21   -1    0    0  502  501  0.00000000000E+00  0.00000000000E+00  0.56595753230E+02  0.56595753230E+02  0.00000000000E+00 0.  1.
         21   -1    0    0  501  502 -0.00000000000E+00 -0.00000000000E+00 -0.19154323831E+04  0.19154323831E+04  0.00000000000E+00 0.  1.
         25    1    1    2    0    0  0.55883457110E+02 -0.30965890291E+02 -0.83161292678E+02  0.16316448063E+03  0.12500000000E+03 0.  0.
         25    1    1    2    0    0 -0.10995028216E+03 -0.24991081928E+02 -0.57323279590E+03  0.59743991917E+03  0.12500000000E+03 0.  0.
         25    1    1    2    0    0  0.54066825054E+02  0.55956972220E+02 -0.12024425413E+04  0.12114237365E+04  0.12500000000E+03 0.  0.
</event>
<event>
 5    0  0.5851292E-005  0.3497034E+03  0.7546771E-02  0.1062737E+00
         21   -1    0    0  502  501  0.00000000000E+00  0.00000000000E+00  0.21582687838E+03  0.21582687838E+03  0.00000000000E+00 0.  1.
         21   -1    0    0  501  502 -0.00000000000E+00 -0.00000000000E+00 -0.56662312291E+03  0.56662312291E+03  0.00000000000E+00 0.  1.
         25    1    1    2    0    0  0.17015071708E+03  0.19114833829E+03 -0.16784442843E+03  0.33058388634E+03  0.12500000000E+03 0.  0.
         25    1    1    2    0    0 -0.96957227009E+01  0.11368852727E+02 -0.48491701327E+02  0.13490627468E+03  0.12500000000E+03 0.  0.
         25    1    1    2    0    0 -0.16045499438E+03 -0.20251719102E+03 -0.13446011477E+03  0.31695984027E+03  0.12500000000E+03 0.  0.
</event>
<event>
 5    0  0.5851292E-005  0.3010118E+03  0.7546771E-02  0.1084736E+00
         21   -1    0    0  502  501  0.00000000000E+00  0.00000000000E+00  0.18114908709E+04  0.18114908709E+04  0.00000000000E+00 0. -1.
         21   -1    0    0  501  502 -0.00000000000E+00 -0.00000000000E+00 -0.50018531483E+02  0.50018531483E+02  0.00000000000E+00 0. -1.
         25    1    1    2    0    0 -0.74461742713E+02 -0.86161339621E+02  0.60827576848E+03  0.63134201357E+03  0.12500000000E+03 0.  0.
         25    1    1    2    0    0  0.11988455059E+03  0.28335370885E+02  0.10142563406E+04  0.10293279959E+04  0.12500000000E+03 0.  0.
         25    1    1    2    0    0 -0.45422807879E+02  0.57825968736E+02  0.13894023032E+03  0.20083939289E+03  0.12500000000E+03 0.  0.
</event>
<event>
 5    0  0.6596402E-005  0.2665521E+03  0.7546771E-02  0.1103269E+00
         21   -1    0    0  502  501  0.00000000000E+00  0.00000000000E+00  0.19696713419E+03  0.19696713419E+03  0.00000000000E+00 0. -1.
         21   -1    0    0  501  502 -0.00000000000E+00 -0.00000000000E+00 -0.36072026036E+03  0.36072026036E+03  0.00000000000E+00 0. -1.
         25    1    1    2    0    0 -0.12387055337E+02 -0.43434986973E+01 -0.22752799882E+03  0.25993517532E+03  0.12500000000E+03 0.  0.
         25    1    1    2    0    0 -0.41358901641E+01 -0.69897562933E+02  0.45321662505E+02  0.15027251240E+03  0.12500000000E+03 0.  0.
         25    1    1    2    0    0  0.16522945501E+02  0.74241061631E+02  0.18453210144E+02  0.14747970682E+03  0.12500000000E+03 0.  0.
</event>
<event>
 5    0  0.5851292E-005  0.2195789E+03  0.7546771E-02  0.1134197E+00
         21   -1    0    0  502  501  0.00000000000E+00  0.00000000000E+00  0.60530727016E+03  0.60530727016E+03  0.00000000000E+00 0.  1.
         21   -1    0    0  501  502 -0.00000000000E+00 -0.00000000000E+00 -0.79653566206E+02  0.79653566206E+02  0.00000000000E+00 0.  1.
         25    1    1    2    0    0  0.11948914400E+02  0.58857604075E+02  0.10076595678E+03  0.17142278775E+03  0.12500000000E+03 0.  0.
         25    1    1    2    0    0  0.10837788356E+02 -0.29848347634E+02  0.99096480233E+02  0.16264530091E+03  0.12500000000E+03 0.  0.
         25    1    1    2    0    0 -0.22786702756E+02 -0.29009256441E+02  0.32579126694E+03  0.35089274771E+03  0.12500000000E+03 0.  0.
</event>
<event>
 5    0  0.5851292E-005  0.4144914E+03  0.7546771E-02  0.1038874E+00
         21   -1    0    0  502  501  0.00000000000E+00  0.00000000000E+00  0.16269923200E+03  0.16269923200E+03  0.00000000000E+00 0.  1.
         21   -1    0    0  501  502 -0.00000000000E+00 -0.00000000000E+00 -0.10559552815E+04  0.10559552815E+04  0.00000000000E+00 0.  1.
         25    1    1    2    0    0 -0.74808429362E+02 -0.15150552403E+03 -0.64372886674E+02  0.21981604458E+03  0.12500000000E+03 0.  0.
         25    1    1    2    0    0  0.26654998961E+03  0.62238162524E+02 -0.35757527333E+03  0.46734094827E+03  0.12500000000E+03 0.  0.
         25    1    1    2    0    0 -0.19174156024E+03  0.89267361504E+02 -0.47130788950E+03  0.53149752065E+03  0.12500000000E+03 0.  0.
</event>
<event>
 5    0  0.5851292E-005  0.4553163E+03  0.7546771E-02  0.1026148E+00
         21   -1    0    0  502  501  0.00000000000E+00  0.00000000000E+00  0.87835833557E+03  0.87835833557E+03  0.00000000000E+00 0. -1.
         21   -1    0    0  501  502 -0.00000000000E+00 -0.00000000000E+00 -0.23602315583E+03  0.23602315583E+03  0.00000000000E+00 0. -1.
         25    1    1    2    0    0  0.44527561326E+01 -0.20006997236E+03  0.20129455422E+03  0.31014886496E+03  0.12500000000E+03 0.  0.
         25    1    1    2    0    0  0.28149013165E+03  0.27860368647E+02  0.26221296789E+03  0.40545472607E+03  0.12500000000E+03 0.  0.
         25    1    1    2    0    0 -0.28594288779E+03  0.17220960371E+03  0.17882765763E+03  0.39877790037E+03  0.12500000000E+03 0.  0.
</event>
<event>
 5    0  0.5851292E-005  0.3574491E+03  0.7546771E-02  0.1059599E+00
         21   -1    0    0  502  501  0.00000000000E+00  0.00000000000E+00  0.28986001788E+03  0.28986001788E+03  0.00000000000E+00 0.  1.
         21   -1    0    0  501  502 -0.00000000000E+00 -0.00000000000E+00 -0.44079841413E+03  0.44079841413E+03  0.00000000000E+00 0.  1.
         25    1    1    2    0    0  0.84924589279E+02 -0.56343953445E+02 -0.55568121472E+02  0.17058617493E+03  0.12500000000E+03 0.  0.
         25    1    1    2    0    0  0.44841682537E+02 -0.16488456892E+02 -0.26837055267E+03  0.29988397631E+03  0.12500000000E+03 0.  0.
         25    1    1    2    0    0 -0.12976627182E+03  0.72832410337E+02  0.17300027790E+03  0.26018828077E+03  0.12500000000E+03 0.  0.
</event>
<event>
 5    0  0.5851292E-005  0.3635066E+03  0.7546771E-02  0.1057204E+00
         21   -1    0    0  502  501  0.00000000000E+00  0.00000000000E+00  0.68807135950E+03  0.68807135950E+03  0.00000000000E+00 0. -1.
         21   -1    0    0  501  502 -0.00000000000E+00 -0.00000000000E+00 -0.19203975242E+03  0.19203975242E+03  0.00000000000E+00 0. -1.
         25    1    1    2    0    0 -0.23702678627E+03  0.48640583865E+02  0.35055133427E+03  0.44391310159E+03  0.12500000000E+03 0.  0.
         25    1    1    2    0    0  0.39094360801E+00 -0.51126889421E+02  0.91623988743E+02  0.16319946989E+03  0.12500000000E+03 0.  0.
         25    1    1    2    0    0  0.23663584266E+03  0.24863055553E+01  0.53856284073E+02  0.27299854044E+03  0.12500000000E+03 0.  0.
</event>
<event>
 5    0  0.5851292E-005  0.3343237E+03  0.7546771E-02  0.1069240E+00
         21   -1    0    0  502  501  0.00000000000E+00  0.00000000000E+00  0.20996807151E+03  0.20996807151E+03  0.00000000000E+00 0. -1.
         21   -1    0    0  501  502 -0.00000000000E+00 -0.00000000000E+00 -0.53233025893E+03  0.53233025893E+03  0.00000000000E+00 0. -1.
         25    1    1    2    0    0 -0.20700795614E+03  0.19404082167E+02 -0.11344952260E+03  0.26781450015E+03  0.12500000000E+03 0.  0.
         25    1    1    2    0    0  0.75760918049E+02  0.75724274237E+02  0.21800150472E+02  0.16605459636E+03  0.12500000000E+03 0.  0.
         25    1    1    2    0    0  0.13124703809E+03 -0.95128356404E+02 -0.23071281529E+03  0.30842923393E+03  0.12500000000E+03 0.  0.
</event>
<event>
 5    0  0.5851292E-005  0.4897568E+03  0.7546771E-02  0.1016488E+00
         21   -1    0    0  502  501  0.00000000000E+00  0.00000000000E+00  0.13476186366E+03  0.13476186366E+03  0.00000000000E+00 0.  1.
         21   -1    0    0  501  502 -0.00000000000E+00 -0.00000000000E+00 -0.17798934606E+04  0.17798934606E+04  0.00000000000E+00 0.  1.
         25    1    1    2    0    0  0.28772325149E+03  0.10018563357E+03 -0.50075411990E+03  0.59933422997E+03  0.12500000000E+03 0.  0.
         25    1    1    2    0    0 -0.16566918294E+03 -0.31083301903E+03 -0.62395576575E+03  0.72733021490E+03  0.12500000000E+03 0.  0.
         25    1    1    2    0    0 -0.12205406855E+03  0.21064738546E+03 -0.52042171127E+03  0.58799087936E+03  0.12500000000E+03 0.  0.
</event>
<event>
 5    0  0.7540034E-005  0.2950770E+03  0.7546771E-02  0.1087728E+00
         21   -1    0    0  502  501  0.00000000000E+00  0.00000000000E+00  0.65187299709E+03  0.65187299709E+03  0.00000000000E+00 0. -1.
         21   -1    0    0  501  502 -0.00000000000E+00 -0.00000000000E+00 -0.13356965423E+03  0.13356965423E+03  0.00000000000E+00 0. -1.
         25    1    1    2    0    0 -0.15273515025E+03 -0.79496368405E+02  0.27660523778E+03  0.34897443499E+03  0.12500000000E+03 0.  0.
         25    1    1    2    0    0  0.14297474073E+03  0.24264807746E+02  0.22956696502E+03  0.29892565767E+03  0.12500000000E+03 0.  0.
         25    1    1    2    0    0  0.97604095191E+01  0.55231560659E+02  0.12131140065E+02  0.13754255867E+03  0.12500000000E+03 0.  0.
</event>
<event>
 5    0  0.5851292E-005  0.4323019E+03  0.7546771E-02  0.1033135E+00
         21   -1    0    0  502  501  0.00000000000E+00  0.00000000000E+00  0.14756660837E+04  0.14756660837E+04  0.00000000000E+00 0.  1.
         21   -1    0    0  501  502 -0.00000000000E+00 -0.00000000000E+00 -0.12664445392E+03  0.12664445392E+03  0.00000000000E+00 0.  1.
         25    1    1    2    0    0  0.21576065940E+03 -0.39382942528E+01  0.22402221987E+03  0.33522996182E+03  0.12500000000E+03 0.  0.
         25    1    1    2    0    0 -0.36355667307E+03  0.36078751032E+02  0.77338421118E+03  0.86442077076E+03  0.12500000000E+03 0.  0.
         25    1    1    2    0    0  0.14779601367E+03 -0.32140456779E+02  0.35161519868E+03  0.40265980500E+03  0.12500000000E+03 0.  0.
</event>
<event>
 5    0  0.5851292E-005  0.2317243E+03  0.7546771E-02  0.1125432E+00
         21   -1    0    0  502  501  0.00000000000E+00  0.00000000000E+00  0.13779069077E+04  0.13779069077E+04  0.00000000000E+00 0. -1.
         21   -1    0    0  501  502 -0.00000000000E+00 -0.00000000000E+00 -0.38969352436E+02  0.38969352436E+02  0.00000000000E+00 0. -1.
         25    1    1    2    0    0 -0.60812733177E+02  0.59162079351E+02  0.34345997842E+03  0.37521739955E+03  0.12500000000E+03 0.  0.
         25    1    1    2    0    0  0.10723381313E+03 -0.29305725299E+02  0.47718196530E+03  0.50565358124E+03  0.12500000000E+03 0.  0.
         25    1    1    2    0    0 -0.46421079949E+02 -0.29856354052E+02  0.51829561155E+03  0.53600527935E+03  0.12500000000E+03 0.  0.
</event>
<event>
 5    0  0.5851292E-005  0.3227338E+03  0.7546771E-02  0.1074398E+00
         21   -1    0    0  502  501  0.00000000000E+00  0.00000000000E+00  0.88224986852E+02  0.88224986852E+02  0.00000000000E+00 0.  1.
         21   -1    0    0  501  502 -0.00000000000E+00 -0.00000000000E+00 -0.11805850253E+04  0.11805850253E+04  0.00000000000E+00 0.  1.
         25    1    1    2    0    0 -0.94778908019E+01  0.92410331173E+02 -0.26988381841E+03  0.31159553135E+03  0.12500000000E+03 0.  0.
         25    1    1    2    0    0  0.90840170427E+02 -0.19487672024E+03 -0.23376548865E+03  0.34132122164E+03  0.12500000000E+03 0.  0.
         25    1    1    2    0    0 -0.81362279626E+02  0.10246638906E+03 -0.58871073138E+03  0.61589325916E+03  0.12500000000E+03 0.  0.
</event>
<event>
 5    0  0.5851292E-005  0.2741456E+03  0.7546771E-02  0.1098930E+00
         21   -1    0    0  502  501  0.00000000000E+00  0.00000000000E+00  0.11802880025E+03  0.11802880025E+03  0.00000000000E+00 0. -1.
         21   -1    0    0  501  502 -0.00000000000E+00 -0.00000000000E+00 -0.63675811812E+03  0.63675811812E+03  0.00000000000E+00 0. -1.
         25    1    1    2    0    0  0.39155775530E+02  0.10169479412E+02 -0.21639001409E+03  0.25315258495E+03  0.12500000000E+03 0.  0.
         25    1    1    2    0    0  0.27128200619E+02 -0.11398951991E+03 -0.27503000232E+03  0.32403094311E+03  0.12500000000E+03 0.  0.
         25    1    1    2    0    0 -0.66283976149E+02  0.10382004049E+03 -0.27309301447E+02  0.17760339031E+03  0.12500000000E+03 0.  0.
</event>
<event>
 5    0  0.5851292E-005  0.3056386E+03  0.7546771E-02  0.1082455E+00
         21   -1    0    0  502  501  0.00000000000E+00  0.00000000000E+00  0.10727369454E+04  0.10727369454E+04  0.00000000000E+00 0.  1.
         21   -1    0    0  501  502 -0.00000000000E+00 -0.00000000000E+00 -0.87080947747E+02  0.87080947747E+02  0.00000000000E+00 0.  1.
         25    1    1    2    0    0 -0.78197198280E+02 -0.20997272218E+02  0.77905221516E+03  0.79316016113E+03  0.12500000000E+03 0.  0.
         25    1    1    2    0    0  0.11694330812E+03  0.89992856641E+01  0.12111505353E+03  0.20988230189E+03  0.12500000000E+03 0.  0.
         25    1    1    2    0    0 -0.38746109837E+02  0.11997986554E+02  0.85488728943E+02  0.15677543011E+03  0.12500000000E+03 0.  0.
</event>
<event>
 5    0  0.5851292E-005  0.2833596E+03  0.7546771E-02  0.1093868E+00
         21   -1    0    0  502  501  0.00000000000E+00  0.00000000000E+00  0.68520881507E+03  0.68520881507E+03  0.00000000000E+00 0. -1.
         21   -1    0    0  501  502 -0.00000000000E+00 -0.00000000000E+00 -0.11717983591E+03  0.11717983591E+03  0.00000000000E+00 0. -1.
         25    1    1    2    0    0  0.79443517615E+02 -0.51431286345E+00  0.74775512329E+02  0.16591538281E+03  0.12500000000E+03 0.  0.
         25    1    1    2    0    0 -0.16464852666E+03  0.66008252320E+02  0.37617949662E+03  0.43428359442E+03  0.12500000000E+03 0.  0.
         25    1    1    2    0    0  0.85205009042E+02 -0.65493939457E+02  0.11707397020E+03  0.20218967375E+03  0.12500000000E+03 0.  0.
</event>
<event>
 5    0  0.5851292E-005  0.3167112E+03  0.7546771E-02  0.1077173E+00
         21   -1    0    0  502  501  0.00000000000E+00  0.00000000000E+00  0.32549557476E+03  0.32549557476E+03  0.00000000000E+00 0.  1.
         21   -1    0    0  501  502 -0.00000000000E+00 -0.00000000000E+00 -0.30816382331E+03  0.30816382331E+03  0.00000000000E+00 0.  1.
         25    1    1    2    0    0 -0.11649312925E+03 -0.12165885550E+03 -0.12949220883E+03  0.24650508805E+03  0.12500000000E+03 0.  0.
         25    1    1    2    0    0  0.38648980199E+02 -0.15954059167E+02 -0.94088331352E+01  0.13214311112E+03  0.12500000000E+03 0.  0.
         25    1    1    2    0    0  0.77844149053E+02  0.13761291467E+03  0.15623279342E+03  0.25501119890E+03  0.12500000000E+03 0.  0.
</event>
<event>
 5    0  0.5851292E-005  0.2674191E+03  0.7546771E-02  0.1102766E+00
         21   -1    0    0  502  501  0.00000000000E+00  0.00000000000E+00  0.12955817006E+04  0.12955817006E+04  0.00000000000E+00 0.  1.
         21   -1    0    0  501  502 -0.00000000000E+00 -0.00000000000E+00 -0.55197590480E+02  0.55197590480E+02  0.00000000000E+00 0.  1.
         25    1    1    2    0    0 -0.68290228888E+02  0.38139354595E+01  0.14435250498E+03  0.20283181989E+03  0.12500000000E+03 0.  0.
         25    1    1    2    0    0  0.14052355124E+03  0.12640652680E+02  0.73466030984E+03  0.75845726670E+03  0.12500000000E+03 0.  0.
         25    1    1    2    0    0 -0.72233322355E+02 -0.16454588140E+02  0.36137129530E+03  0.38949020449E+03  0.12500000000E+03 0.  0.
</event>
<event>
 5    0  0.5851292E-005  0.3431521E+03  0.7546771E-02  0.1065461E+00
         21   -1    0    0  502  501  0.00000000000E+00  0.00000000000E+00  0.19360591748E+03  0.19360591748E+03  0.00000000000E+00 0. -1.
         21   -1    0    0  501  502 -0.00000000000E+00 -0.00000000000E+00 -0.60821158022E+03  0.60821158022E+03  0.00000000000E+00 0. -1.
         25    1    1    2    0    0  0.13127080056E+03 -0.62715357640E+00 -0.98572544700E+02  0.20633458985E+03  0.12500000000E+03 0.  0.
         25    1    1    2    0    0 -0.55769927283E+02 -0.20237514032E+03 -0.96373877518E+02  0.26263835683E+03  0.12500000000E+03 0.  0.
         25    1    1    2    0    0 -0.75500873279E+02  0.20300229389E+03 -0.21965924052E+03  0.33284455101E+03  0.12500000000E+03 0.  0.
</event>
<event>
 5    0  0.5851292E-005  0.4458821E+03  0.7546771E-02  0.1028957E+00
         21   -1    0    0  502  501  0.00000000000E+00  0.00000000000E+00  0.12067518510E+04  0.12067518510E+04  0.00000000000E+00 0. -1.
         21   -1    0    0  501  502 -0.00000000000E+00 -0.00000000000E+00 -0.16474873988E+03  0.16474873988E+03  0.00000000000E+00 0. -1.
         25    1    1    2    0    0 -0.28984578724E+03  0.79900063688E+02  0.57139058791E+03  0.65765249525E+03  0.12500000000E+03 0.  0.
         25    1    1    2    0    0  0.44861225060E+02  0.14452971294E+02 -0.28145116445E+02  0.13652313164E+03  0.12500000000E+03 0.  0.
         25    1    1    2    0    0  0.24498456218E+03 -0.94353034982E+02  0.49875763961E+03  0.57732496394E+03  0.12500000000E+03 0.  0.
</event>
<event>
 5    0  0.5851292E-005  0.2403526E+03  0.7546771E-02  0.1119558E+00
         21   -1    0    0  502  501  0.00000000000E+00  0.00000000000E+00  0.38870796240E+02  0.38870796240E+02  0.00000000000E+00 0.  1.
         21   -1    0    0  501  502 -0.00000000000E+00 -0.00000000000E+00 -0.14861895843E+04  0.14861895843E+04  0.00000000000E+00 0.  1.
         25    1    1    2    0    0  0.12474545435E+03  0.14979879008E+02 -0.42793123807E+03  0.46318027772E+03  0.12500000000E+03 0.  0.
         25    1    1    2    0    0 -0.70155872864E+02  0.16288356376E+02 -0.67309447623E+03  0.68838094902E+03  0.12500000000E+03 0.  0.
         25    1    1    2    0    0 -0.54589581483E+02 -0.31268235384E+02 -0.34629307379E+03  0.37349915382E+03  0.12500000000E+03 0.  0.
</event>
<event>
 5    0  0.5851292E-005  0.3390288E+03  0.7546771E-02  0.1067210E+00
         21   -1    0    0  502  501  0.00000000000E+00  0.00000000000E+00  0.18809450985E+03  0.18809450985E+03  0.00000000000E+00 0.  1.
         21   -1    0    0  501  502 -0.00000000000E+00 -0.00000000000E+00 -0.61107860165E+03  0.61107860165E+03  0.00000000000E+00 0.  1.
         25    1    1    2    0    0  0.22474775036E+02 -0.30522971774E+02 -0.62823170868E+02  0.14494315478E+03  0.12500000000E+03 0.  0.
         25    1    1    2    0    0 -0.45593766031E+02 -0.14078350581E+03  0.42714179672E+02  0.19836402939E+03  0.12500000000E+03 0.  0.
         25    1    1    2    0    0  0.23118990995E+02  0.17130647759E+03 -0.40287510061E+03  0.45586592733E+03  0.12500000000E+03 0.  0.
</event>
<event>
 5    0  0.5851292E-005  0.3987964E+03  0.7546771E-02  0.1044197E+00
         21   -1    0    0  502  501  0.00000000000E+00  0.00000000000E+00  0.15691552580E+04  0.15691552580E+04  0.00000000000E+00 0.  1.
         21   -1    0    0  501  502 -0.00000000000E+00 -0.00000000000E+00 -0.10135298301E+03  0.10135298301E+03  0.00000000000E+00 0.  1.
         25    1    1    2    0    0  0.12330701706E+03  0.58088981395E+02  0.30701929033E+03  0.35841985833E+03  0.12500000000E+03 0.  0.
         25    1    1    2    0    0 -0.27809367872E+03 -0.24644949780E+02  0.10230674144E+04  0.10678180566E+04  0.12500000000E+03 0.  0.
         25    1    1    2    0    0  0.15478666165E+03 -0.33444031615E+02  0.13771557023E+03  0.24427032599E+03  0.12500000000E+03 0.  0.
</event>
<event>
 5    0  0.5851292E-005  0.5716889E+03  0.7546771E-02  0.9965948E-01
         21   -1    0    0  502  501  0.00000000000E+00  0.00000000000E+00  0.27687762600E+03  0.27687762600E+03  0.00000000000E+00 0.  1.
         21   -1    0    0  501  502 -0.00000000000E+00 -0.00000000000E+00 -0.11804068097E+04  0.11804068097E+04  0.00000000000E+00 0.  1.
         25    1    1    2    0    0 -0.76002671525E+02 -0.14796962845E+03  0.12480524941E+03  0.24263711032E+03  0.12500000000E+03 0.  0.
         25    1    1    2    0    0  0.25732894781E+02  0.16453793037E+03 -0.33877164143E+02  0.21096818398E+03  0.12500000000E+03 0.  0.
         25    1    1    2    0    0  0.50269776744E+02 -0.16568301922E+02 -0.99445726898E+03  0.10036791414E+04  0.12500000000E+03 0.  0.
</event>
<event>
 5    0  0.5851292E-005  0.4128837E+03  0.7546771E-02  0.1039408E+00
         21   -1    0    0  502  501  0.00000000000E+00  0.00000000000E+00  0.30486643347E+03  0.30486643347E+03  0.00000000000E+00 0.  1.
         21   -1    0    0  501  502 -0.00000000000E+00 -0.00000000000E+00 -0.55917259505E+03  0.55917259505E+03  0.00000000000E+00 0.  1.
         25    1    1    2    0    0  0.11126493764E+03  0.76027813324E+02  0.19419299821E+03  0.26738742548E+03  0.12500000000E+03 0.  0.
         25    1    1    2    0    0 -0.52722360881E+02 -0.17542568946E+03 -0.22658547272E+03  0.31704857090E+03  0.12500000000E+03 0.  0.
         25    1    1    2    0    0 -0.58542576764E+02  0.99397876135E+02 -0.22191368708E+03  0.27960303215E+03  0.12500000000E+03 0.  0.
</event>
<event>
 5    0  0.5851292E-005  0.2890108E+03  0.7546771E-02  0.1090867E+00
         21   -1    0    0  502  501  0.00000000000E+00  0.00000000000E+00  0.51372745571E+03  0.51372745571E+03  0.00000000000E+00 0. -1.
         21   -1    0    0  501  502 -0.00000000000E+00 -0.00000000000E+00 -0.16259062101E+03  0.16259062101E+03  0.00000000000E+00 0. -1.
         25    1    1    2    0    0 -0.14161764746E+02 -0.33672613599E+02 -0.59431223674E+02  0.14314842240E+03  0.12500000000E+03 0.  0.
         25    1    1    2    0    0 -0.57081428720E+02 -0.27868570540E+01  0.34411349783E+03  0.37054710290E+03  0.12500000000E+03 0.  0.
         25    1    1    2    0    0  0.71243193466E+02  0.36459470653E+02  0.66454560543E+02  0.16262255143E+03  0.12500000000E+03 0.  0.
</event>
<event>
 5    0  0.5851292E-005  0.2258048E+03  0.7546771E-02  0.1129628E+00
         21   -1    0    0  502  501  0.00000000000E+00  0.00000000000E+00  0.17556912459E+03  0.17556912459E+03  0.00000000000E+00 0.  1.
         21   -1    0    0  501  502 -0.00000000000E+00 -0.00000000000E+00 -0.29041455996E+03  0.29041455996E+03  0.00000000000E+00 0.  1.
         25    1    1    2    0    0 -0.36010077011E+02  0.46506243817E+01 -0.74052036494E+02  0.14975666283E+03  0.12500000000E+03 0.  0.
         25    1    1    2    0    0  0.69813062935E+02 -0.72713836985E+02  0.11207411728E+02  0.16097133882E+03  0.12500000000E+03 0.  0.
         25    1    1    2    0    0 -0.33802985924E+02  0.68063212603E+02 -0.52000810609E+02  0.15525568289E+03  0.12500000000E+03 0.  0.
</event>
<event>
 5    0  0.5851292E-005  0.3305898E+03  0.7546771E-02  0.1070876E+00
         21   -1    0    0  502  501  0.00000000000E+00  0.00000000000E+00  0.21241018962E+03  0.21241018962E+03  0.00000000000E+00 0.  1.
         21   -1    0    0  501  502 -0.00000000000E+00 -0.00000000000E+00 -0.51452163157E+03  0.51452163157E+03  0.00000000000E+00 0.  1.
         25    1    1    2    0    0  0.28577550841E+02 -0.12227378254E+03  0.77837318073E+01  0.17735033349E+03  0.12500000000E+03 0.  0.
         25    1    1    2    0    0 -0.17421462966E+03  0.42794707851E+01 -0.83374979149E+02  0.23009875750E+03  0.12500000000E+03 0.  0.
         25    1    1    2    0    0  0.14563707882E+03  0.11799431175E+03 -0.22652019460E+03  0.31948273020E+03  0.12500000000E+03 0.  0.
</event>
<event>
 5    0  0.5851292E-005  0.3087151E+03  0.7546771E-02  0.1080963E+00
         21   -1    0    0  502  501  0.00000000000E+00  0.00000000000E+00  0.88211155445E+02  0.88211155445E+02  0.00000000000E+00 0.  1.
         21   -1    0    0  501  502 -0.00000000000E+00 -0.00000000000E+00 -0.10804187297E+04  0.10804187297E+04  0.00000000000E+00 0.  1.
         25    1    1    2    0    0 -0.19515582170E+03 -0.66617121969E+02 -0.56094994490E+03  0.61058453662E+03  0.12500000000E+03 0.  0.
         25    1    1    2    0    0  0.12103861090E+03  0.69373220971E+01 -0.12668282481E+03  0.21534161202E+03  0.12500000000E+03 0.  0.
         25    1    1    2    0    0  0.74117210803E+02  0.59679799872E+02 -0.30457480459E+03  0.34270373654E+03  0.12500000000E+03 0.  0.
</event>
<event>
 5    0  0.5878741E-005  0.3311947E+03  0.7546771E-02  0.1070609E+00
         21   -1    0    0  502  501  0.00000000000E+00  0.00000000000E+00  0.80034870272E+03  0.80034870272E+03  0.00000000000E+00 0.  1.
         21   -1    0    0  501  502 -0.00000000000E+00 -0.00000000000E+00 -0.13705270490E+03  0.13705270490E+03  0.00000000000E+00 0.  1.
         25    1    1    2    0    0 -0.42641792045E+02 -0.20021500508E+02 -0.13330722763E+02  0.13424563710E+03  0.12500000000E+03 0.  0.
         25    1    1    2    0    0 -0.13924484151E+03 -0.62170689910E+02  0.31240554399E+03  0.36942731963E+03  0.12500000000E+03 0.  0.
         25    1    1    2    0    0  0.18188663355E+03  0.82192190418E+02  0.36422117659E+03  0.43372845089E+03  0.12500000000E+03 0.  0.
</event>
<event>
 5    0  0.5851292E-005  0.3024948E+03  0.7546771E-02  0.1084000E+00
         21   -1    0    0  502  501  0.00000000000E+00  0.00000000000E+00  0.15397431259E+03  0.15397431259E+03  0.00000000000E+00 0. -1.
         21   -1    0    0  501  502 -0.00000000000E+00 -0.00000000000E+00 -0.59427499804E+03  0.59427499804E+03  0.00000000000E+00 0. -1.
         25    1    1    2    0    0 -0.15102972651E+02  0.85034442270E+01 -0.60237548265E+02  0.13983551254E+03  0.12500000000E+03 0.  0.
         25    1    1    2    0    0  0.37455077079E+02  0.10974769831E+03 -0.39896324036E+03  0.43387107214E+03  0.12500000000E+03 0.  0.
         25    1    1    2    0    0 -0.22352104428E+02 -0.11825114253E+03  0.18900103172E+02  0.17454272595E+03  0.12500000000E+03 0.  0.
</event>
<event>
 5    0  0.5851292E-005  0.2164287E+03  0.7546771E-02  0.1136574E+00
         21   -1    0    0  502  501  0.00000000000E+00  0.00000000000E+00  0.99049849887E+03  0.99049849887E+03  0.00000000000E+00 0. -1.
         21   -1    0    0  501  502 -0.00000000000E+00 -0.00000000000E+00 -0.47290703816E+02  0.47290703816E+02  0.00000000000E+00 0. -1.
         25    1    1    2    0    0 -0.31029039339E+02 -0.29903801879E+02  0.25707677887E+03  0.28908564282E+03  0.12500000000E+03 0.  0.
         25    1    1    2    0    0  0.30952145042E+02  0.61375852584E+02  0.51539572393E+03  0.53477358088E+03  0.12500000000E+03 0.  0.
         25    1    1    2    0    0  0.76894297006E-01 -0.31472050705E+02  0.17073529225E+03  0.21392997899E+03  0.12500000000E+03 0.  0.
</event>
<event>
 5    0  0.5851292E-005  0.2868536E+03  0.7546771E-02  0.1092003E+00
         21   -1    0    0  502  501  0.00000000000E+00  0.00000000000E+00  0.11524992464E+04  0.11524992464E+04  0.00000000000E+00 0.  1.
         21   -1    0    0  501  502 -0.00000000000E+00 -0.00000000000E+00 -0.71397015709E+02  0.71397015709E+02  0.00000000000E+00 0.  1.
         25    1    1    2    0    0  0.18185665721E+02 -0.79632566538E+02  0.23918934182E+03  0.28197270317E+03  0.12500000000E+03 0.  0.
         25    1    1    2    0    0 -0.33137872078E+01  0.52699787820E+02  0.58101009958E+02  0.14761089452E+03  0.12500000000E+03 0.  0.
         25    1    1    2    0    0 -0.14871878513E+02  0.26932778718E+02  0.78381187886E+03  0.79431266438E+03  0.12500000000E+03 0.  0.
</event>
<event>
 5    0  0.5851292E-005  0.2723191E+03  0.7546771E-02  0.1099960E+00
         21   -1    0    0  502  501  0.00000000000E+00  0.00000000000E+00  0.64086972606E+03  0.64086972606E+03  0.00000000000E+00 0. -1.
         21   -1    0    0  501  502 -0.00000000000E+00 -0.00000000000E+00 -0.11571412178E+03  0.11571412178E+03  0.00000000000E+00 0. -1.
         25    1    1    2    0    0 -0.50666401553E+02 -0.12975655117E+02  0.53781696871E+02  0.14578382211E+03  0.12500000000E+03 0.  0.
         25    1    1    2    0    0  0.16886025048E+03  0.32609767669E+02  0.29509736549E+03  0.36370954931E+03  0.12500000000E+03 0.  0.
         25    1    1    2    0    0 -0.11819384893E+03 -0.19634112552E+02  0.17627654192E+03  0.24709047641E+03  0.12500000000E+03 0.  0.
</event>
<event>
 5    0  0.5851292E-005  0.3541657E+03  0.7546771E-02  0.1060918E+00
         21   -1    0    0  502  501  0.00000000000E+00  0.00000000000E+00  0.23041139897E+03  0.23041139897E+03  0.00000000000E+00 0. -1.
         21   -1    0    0  501  502 -0.00000000000E+00 -0.00000000000E+00 -0.54438847135E+03  0.54438847135E+03  0.00000000000E+00 0. -1.
         25    1    1    2    0    0  0.15281594380E+03 -0.41742093195E+02 -0.28387871576E+03  0.34829188949E+03  0.12500000000E+03 0.  0.
         25    1    1    2    0    0 -0.16913709549E+03  0.14069191786E+03 -0.67624986593E+02  0.26191546658E+03  0.12500000000E+03 0.  0.
         25    1    1    2    0    0  0.16321151689E+02 -0.98949824663E+02  0.37526629970E+02  0.16459251426E+03  0.12500000000E+03 0.  0.
</event>
<event>
 5    0  0.5851292E-005  0.3791028E+03  0.7546771E-02  0.1051266E+00
         21   -1    0    0  502  501  0.00000000000E+00  0.00000000000E+00  0.14345751673E+04  0.14345751673E+04  0.00000000000E+00 0. -1.
         21   -1    0    0  501  502 -0.00000000000E+00 -0.00000000000E+00 -0.10018224723E+03  0.10018224723E+03  0.00000000000E+00 0. -1.
         25    1    1    2    0    0 -0.65515966471E+02  0.88188114681E+02  0.59590601928E+03  0.61870709488E+03  0.12500000000E+03 0.  0.
         25    1    1    2    0    0  0.17593700525E+03 -0.23482852254E+03  0.46239832362E+03  0.56172544406E+03  0.12500000000E+03 0.  0.
         25    1    1    2    0    0 -0.11042103878E+03  0.14664040786E+03  0.27608857717E+03  0.35432487560E+03  0.12500000000E+03 0.  0.
</event>
<event>
 5    0  0.6141546E-005  0.2836044E+03  0.7546771E-02  0.1093736E+00
         21   -1    0    0  502  501  0.00000000000E+00  0.00000000000E+00  0.12578324653E+03  0.12578324653E+03  0.00000000000E+00 0. -1.
         21   -1    0    0  501  502 -0.00000000000E+00 -0.00000000000E+00 -0.63944479579E+03  0.63944479579E+03  0.00000000000E+00 0. -1.
         25    1    1    2    0    0 -0.12610950289E+03  0.28874000103E+02 -0.41567621684E+03  0.45293380515E+03  0.12500000000E+03 0.  0.
         25    1    1    2    0    0  0.41560547042E+02 -0.51337777081E+02 -0.26644501014E+02  0.14386721607E+03  0.12500000000E+03 0.  0.
         25    1    1    2    0    0  0.84548955848E+02  0.22463776978E+02 -0.71340831399E+02  0.16842702110E+03  0.12500000000E+03 0.  0.
</event>
<event>
 5    0  0.5851292E-005  0.2800024E+03  0.7546771E-02  0.1095688E+00
         21   -1    0    0  502  501  0.00000000000E+00  0.00000000000E+00  0.53319998258E+03  0.53319998258E+03  0.00000000000E+00 0. -1.
         21   -1    0    0  501  502 -0.00000000000E+00 -0.00000000000E+00 -0.14703927445E+03  0.14703927445E+03  0.00000000000E+00 0. -1.
         25    1    1    2    0    0  0.14839450013E+03  0.93023815122E+01  0.26246999301E+03  0.32653171240E+03  0.12500000000E+03 0.  0.
         25    1    1    2    0    0 -0.14230769893E+03  0.40043831337E+02  0.48440325821E+02  0.19956566530E+03  0.12500000000E+03 0.  0.
         25    1    1    2    0    0 -0.60868012078E+01 -0.49346212849E+02  0.75250389306E+02  0.15414187933E+03  0.12500000000E+03 0.  0.
</event>
<event>
 5    0  0.5851292E-005  0.2373676E+03  0.7546771E-02  0.1121559E+00
         21   -1    0    0  502  501  0.00000000000E+00  0.00000000000E+00  0.14219786076E+03  0.14219786076E+03  0.00000000000E+00 0.  1.
         21   -1    0    0  501  502 -0.00000000000E+00 -0.00000000000E+00 -0.39623216246E+03  0.39623216246E+03  0.00000000000E+00 0.  1.
         25    1    1    2    0    0 -0.57570161163E+02 -0.27771640519E+02 -0.19786124545E+03  0.24261009856E+03  0.12500000000E+03 0.  0.
         25    1    1    2    0    0  0.21061033836E+02  0.16736485435E+02  0.39533365214E+02  0.13383409153E+03  0.12500000000E+03 0.  0.
         25    1    1    2    0    0  0.36509127328E+02  0.11035155084E+02 -0.95706421464E+02  0.16198583313E+03  0.12500000000E+03 0.  0.
</event>
<event>
 5    0  0.5851292E-005  0.3647945E+03  0.7546771E-02  0.1056701E+00
         21   -1    0    0  502  501  0.00000000000E+00  0.00000000000E+00  0.67645171409E+03  0.67645171409E+03  0.00000000000E+00 0. -1.
         21   -1    0    0  501  502 -0.00000000000E+00 -0.00000000000E+00 -0.19672512533E+03  0.19672512533E+03  0.00000000000E+00 0. -1.
         25    1    1    2    0    0 -0.15267618555E+03  0.33878784637E+02  0.42734385107E+02  0.20471692004E+03  0.12500000000E+03 0.  0.
         25    1    1    2    0    0  0.20191875501E+03  0.13215173340E+03  0.14907423701E+03  0.30997321240E+03  0.12500000000E+03 0.  0.
         25    1    1    2    0    0 -0.49242569461E+02 -0.16603051804E+03  0.28791796664E+03  0.35848670698E+03  0.12500000000E+03 0.  0.
</event>
<event>
 5    0  0.5851292E-005  0.3497541E+03  0.7546771E-02  0.1062716E+00
         21   -1    0    0  502  501  0.00000000000E+00  0.00000000000E+00  0.61554857707E+03  0.61554857707E+03  0.00000000000E+00 0.  1.
         21   -1    0    0  501  502 -0.00000000000E+00 -0.00000000000E+00 -0.19872990158E+03  0.19872990158E+03  0.00000000000E+00 0.  1.
         25    1    1    2    0    0  0.11822434250E+03  0.17154492145E+02  0.48709044866E+02  0.17963530503E+03  0.12500000000E+03 0.  0.
         25    1    1    2    0    0 -0.23906024715E+02  0.13813282345E+03  0.36906341684E+03  0.41410745053E+03  0.12500000000E+03 0.  0.
         25    1    1    2    0    0 -0.94318317785E+02 -0.15528731559E+03 -0.95378621561E+00  0.22053572310E+03  0.12500000000E+03 0.  0.
</event>
<event>
 5    0  0.5851292E-005  0.3809166E+03  0.7546771E-02  0.1050596E+00
         21   -1    0    0  502  501  0.00000000000E+00  0.00000000000E+00  0.42120200191E+03  0.42120200191E+03  0.00000000000E+00 0. -1.
         21   -1    0    0  501  502 -0.00000000000E+00 -0.00000000000E+00 -0.34448417387E+03  0.34448417387E+03  0.00000000000E+00 0. -1.
         25    1    1    2    0    0 -0.61368755677E+02 -0.74619164789E+02 -0.47068974896E+02  0.16484730002E+03  0.12500000000E+03 0.  0.
         25    1    1    2    0    0  0.31021405571E+01  0.24195237663E+03  0.23266097272E+03  0.35819925190E+03  0.12500000000E+03 0.  0.
         25    1    1    2    0    0  0.58266615120E+02 -0.16733321184E+03 -0.10887416979E+03  0.24263962386E+03  0.12500000000E+03 0.  0.
</event>
<event>
 5    0  0.5851292E-005  0.3286920E+03  0.7546771E-02  0.1071717E+00
         21   -1    0    0  502  501  0.00000000000E+00  0.00000000000E+00  0.17205093792E+04  0.17205093792E+04  0.00000000000E+00 0.  1.
         21   -1    0    0  501  502 -0.00000000000E+00 -0.00000000000E+00 -0.62794440978E+02  0.62794440978E+02  0.00000000000E+00 0.  1.
         25    1    1    2    0    0  0.13373140401E+03 -0.19936281108E+02  0.46566249756E+03  0.50074754653E+03  0.12500000000E+03 0.  0.
         25    1    1    2    0    0 -0.12633919447E+03 -0.30500902744E+01  0.11244448757E+04  0.11384077361E+04  0.12500000000E+03 0.  0.
         25    1    1    2    0    0 -0.73922095410E+01  0.22986371383E+02  0.67607564913E+02  0.14414853750E+03  0.12500000000E+03 0.  0.
</event>
<event>
 5    0  0.5851292E-005  0.2059317E+03  0.7546771E-02  0.1144829E+00
         21   -1    0    0  502  501  0.00000000000E+00  0.00000000000E+00  0.89847389775E+02  0.89847389775E+02  0.00000000000E+00 0. -1.
         21   -1    0    0  501  502 -0.00000000000E+00 -0.00000000000E+00 -0.47199868512E+03  0.47199868512E+03  0.00000000000E+00 0. -1.
         25    1    1    2    0    0 -0.15063370770E+02 -0.29091154224E+02 -0.13129173445E+03  0.18421650287E+03  0.12500000000E+03 0.  0.
         25    1    1    2    0    0  0.37312873982E+02 -0.33534859673E+02 -0.16116161040E+03  0.21003547806E+03  0.12500000000E+03 0.  0.
         25    1    1    2    0    0 -0.22249503212E+02  0.62626013897E+02 -0.89697950497E+02  0.16759409397E+03  0.12500000000E+03 0.  0.
</event>
<event>
 5    0  0.5851292E-005  0.2683789E+03  0.7546771E-02  0.1102211E+00
         21   -1    0    0  502  501  0.00000000000E+00  0.00000000000E+00  0.74575105684E+03  0.74575105684E+03  0.00000000000E+00 0. -1.
         21   -1    0    0  501  502 -0.00000000000E+00 -0.00000000000E+00 -0.96583450201E+02  0.96583450201E+02  0.00000000000E+00 0. -1.
         25    1    1    2    0    0 -0.38311064596E+02  0.32845508594E+02  0.17345092055E+03  0.21967427465E+03  0.12500000000E+03 0.  0.
         25    1    1    2    0    0  0.39826942218E+02  0.11147741239E+03  0.36090649367E+03  0.39986484713E+03  0.12500000000E+03 0.  0.
         25    1    1    2    0    0 -0.15158776216E+01 -0.14432292099E+03  0.11481019242E+03  0.22279538525E+03  0.12500000000E+03 0.  0.
</event>
<event>
 5    0  0.5851292E-005  0.3953163E+03  0.7546771E-02  0.1045414E+00
         21   -1    0    0  502  501  0.00000000000E+00  0.00000000000E+00  0.14508303260E+04  0.14508303260E+04  0.00000000000E+00 0.  1.
         21   -1    0    0  501  502 -0.00000000000E+00 -0.00000000000E+00 -0.10771416841E+03  0.10771416841E+03  0.00000000000E+00 0.  1.
         25    1    1    2    0    0 -0.74148563679E+02  0.16799429537E+03  0.58121096085E+03  0.62221481322E+03  0.12500000000E+03 0.  0.
         25    1    1    2    0    0  0.38340955996E+01  0.12664114023E+03  0.11713778836E+03  0.21307027045E+03  0.12500000000E+03 0.  0.
         25    1    1    2    0    0  0.70314468079E+02 -0.29463543560E+03  0.64476740842E+03  0.72325941079E+03  0.12500000000E+03 0.  0.
</event>
<event>
 5    0  0.5851292E-005  0.3360092E+03  0.7546771E-02  0.1068508E+00
         21   -1    0    0  502  501  0.00000000000E+00  0.00000000000E+00  0.72411925928E+03  0.72411925928E+03  0.00000000000E+00 0. -1.
         21   -1    0    0  501  502 -0.00000000000E+00 -0.00000000000E+00 -0.15591656524E+03  0.15591656524E+03  0.00000000000E+00 0. -1.
         25    1    1    2    0    0 -0.74673421162E+02  0.13246954230E+03  0.30824234633E+03  0.36573575644E+03  0.12500000000E+03 0.  0.
         25    1    1    2    0    0 -0.33207530950E+01  0.75309881032E+02  0.20836895514E+03  0.25441153089E+03  0.12500000000E+03 0.  0.
         25    1    1    2    0    0  0.77994174257E+02 -0.20777942334E+03  0.51591392572E+02  0.25988853720E+03  0.12500000000E+03 0.  0.
</event>
<event>
 5    0  0.5851292E-005  0.3148605E+03  0.7546771E-02  0.1078039E+00
         21   -1    0    0  502  501  0.00000000000E+00  0.00000000000E+00  0.14533516636E+03  0.14533516636E+03  0.00000000000E+00 0.  1.
         21   -1    0    0  501  502 -0.00000000000E+00 -0.00000000000E+00 -0.68212758731E+03  0.68212758731E+03  0.00000000000E+00 0.  1.
         25    1    1    2    0    0  0.18789925909E+03  0.13487887588E+03 -0.31854983898E+03  0.41303443276E+03  0.12500000000E+03 0.  0.
         25    1    1    2    0    0 -0.14340439736E+03 -0.76396026731E+02 -0.10426510666E+03  0.22999431851E+03  0.12500000000E+03 0.  0.
         25    1    1    2    0    0 -0.44494861733E+02 -0.58482849152E+02 -0.11397747531E+03  0.18443400241E+03  0.12500000000E+03 0.  0.
</event>
<event>
 5    0  0.5895048E-005  0.2769016E+03  0.7546771E-02  0.1097393E+00
         21   -1    0    0  502  501  0.00000000000E+00  0.00000000000E+00  0.79358596996E+02  0.79358596996E+02  0.00000000000E+00 0.  1.
         21   -1    0    0  501  502 -0.00000000000E+00 -0.00000000000E+00 -0.96617751495E+03  0.96617751495E+03  0.00000000000E+00 0.  1.
         25    1    1    2    0    0  0.33616196462E+02 -0.69021143090E+02 -0.93268644805E+02  0.17383327346E+03  0.12500000000E+03 0.  0.
         25    1    1    2    0    0 -0.13453117667E+03  0.25221495051E+01 -0.46558542232E+03  0.50049953467E+03  0.12500000000E+03 0.  0.
         25    1    1    2    0    0  0.10091498021E+03  0.66498993585E+02 -0.32796485083E+03  0.37120330381E+03  0.12500000000E+03 0.  0.
</event>
<event>
 5    0  0.5851292E-005  0.4708046E+03  0.7546771E-02  0.1021693E+00
         21   -1    0    0  502  501  0.00000000000E+00  0.00000000000E+00  0.28395886610E+03  0.28395886610E+03  0.00000000000E+00 0.  1.
         21   -1    0    0  501  502 -0.00000000000E+00 -0.00000000000E+00 -0.78059521903E+03  0.78059521903E+03  0.00000000000E+00 0.  1.
         25    1    1    2    0    0 -0.58977234761E+02  0.18074422144E+03  0.12616720607E+03  0.26017292652E+03  0.12500000000E+03 0.  0.
         25    1    1    2    0    0  0.74276134180E+02  0.11278350013E+03 -0.17192826968E+03  0.25183604175E+03  0.12500000000E+03 0.  0.
         25    1    1    2    0    0 -0.15298899419E+02 -0.29352772158E+03 -0.45087528931E+03  0.55254511686E+03  0.12500000000E+03 0.  0.
</event>
<event>
 5    0  0.5851292E-005  0.2229403E+03  0.7546771E-02  0.1131710E+00
         21   -1    0    0  502  501  0.00000000000E+00  0.00000000000E+00  0.78775897493E+03  0.78775897493E+03  0.00000000000E+00 0.  1.
         21   -1    0    0  501  502 -0.00000000000E+00 -0.00000000000E+00 -0.63093401762E+02  0.63093401762E+02  0.00000000000E+00 0.  1.
         25    1    1    2    0    0 -0.49244906067E+02 -0.50152999617E+02  0.14502263148E+03  0.20395329805E+03  0.12500000000E+03 0.  0.
         25    1    1    2    0    0  0.59540490643E+02  0.68228878121E+02  0.25088866808E+03  0.29456811370E+03  0.12500000000E+03 0.  0.
         25    1    1    2    0    0 -0.10295584575E+02 -0.18075878503E+02  0.32875427360E+03  0.35233096494E+03  0.12500000000E+03 0.  0.
</event>
<event>
 5    0  0.5851292E-005  0.2307590E+03  0.7546771E-02  0.1126107E+00
         21   -1    0    0  502  501  0.00000000000E+00  0.00000000000E+00  0.36870537600E+03  0.36870537600E+03  0.00000000000E+00 0. -1.
         21   -1    0    0  501  502 -0.00000000000E+00 -0.00000000000E+00 -0.14442350557E+03  0.14442350557E+03  0.00000000000E+00 0. -1.
         25    1    1    2    0    0 -0.41077911311E+02 -0.78540113495E+02  0.11998266306E+02  0.15370394471E+03  0.12500000000E+03 0.  0.
         25    1    1    2    0    0 -0.69994986618E+01 -0.14156771244E+02  0.76727385273E+02  0.14751779148E+03  0.12500000000E+03 0.  0.
         25    1    1    2    0    0  0.48077409973E+02  0.92696884739E+02  0.13555621886E+03  0.21190714537E+03  0.12500000000E+03 0.  0.
</event>
<event>
 5    0  0.5851292E-005  0.2972684E+03  0.7546771E-02  0.1086614E+00
         21   -1    0    0  502  501  0.00000000000E+00  0.00000000000E+00  0.53060680086E+03  0.53060680086E+03  0.00000000000E+00 0.  1.
         21   -1    0    0  501  502 -0.00000000000E+00 -0.00000000000E+00 -0.16654235105E+03  0.16654235105E+03  0.00000000000E+00 0.  1.
         25    1    1    2    0    0  0.18896408103E+03 -0.88392838996E+01  0.10459457883E+03  0.24970098674E+03  0.12500000000E+03 0.  0.
         25    1    1    2    0    0 -0.16698557168E+03  0.60573502738E+02  0.20890104319E+03  0.30136021010E+03  0.12500000000E+03 0.  0.
         25    1    1    2    0    0 -0.21978509355E+02 -0.51734218838E+02  0.50568827783E+02  0.14608795507E+03  0.12500000000E+03 0.  0.
</event>
<event>
 5    0  0.5851292E-005  0.3512532E+03  0.7546771E-02  0.1062102E+00
         21   -1    0    0  502  501  0.00000000000E+00  0.00000000000E+00  0.12075595845E+04  0.12075595845E+04  0.00000000000E+00 0. -1.
         21   -1    0    0  501  502 -0.00000000000E+00 -0.00000000000E+00 -0.10217205267E+03  0.10217205267E+03  0.00000000000E+00 0. -1.
         25    1    1    2    0    0  0.21758921398E+03  0.62732698333E+02  0.20090510031E+03  0.32751842210E+03  0.12500000000E+03 0.  0.
         25    1    1    2    0    0 -0.10585358020E+03 -0.13111671282E+02  0.21328909113E+03  0.26924734495E+03  0.12500000000E+03 0.  0.
         25    1    1    2    0    0 -0.11173563377E+03 -0.49621027051E+02  0.69119334037E+03  0.71296587012E+03  0.12500000000E+03 0.  0.
</event>
<event>
 5    0  0.5851292E-005  0.3056265E+03  0.7546771E-02  0.1082461E+00
         21   -1    0    0  502  501  0.00000000000E+00  0.00000000000E+00  0.13407684393E+03  0.13407684393E+03  0.00000000000E+00 0.  1.
         21   -1    0    0  501  502 -0.00000000000E+00 -0.00000000000E+00 -0.69667167569E+03  0.69667167569E+03  0.00000000000E+00 0.  1.
         25    1    1    2    0    0  0.87489664818E+02  0.34843557928E+02 -0.10801761613E+03  0.19016130094E+03  0.12500000000E+03 0.  0.
         25    1    1    2    0    0 -0.96882832881E+02  0.15637569477E+03 -0.23570271881E+03  0.32406853114E+03  0.12500000000E+03 0.  0.
         25    1    1    2    0    0  0.93931680626E+01 -0.19121925269E+03 -0.21887449682E+03  0.31651868755E+03  0.12500000000E+03 0.  0.
</event>
<event>
 5    0  0.5851292E-005  0.2067620E+03  0.7546771E-02  0.1144156E+00
         21   -1    0    0  502  501  0.00000000000E+00  0.00000000000E+00  0.56832691360E+03  0.56832691360E+03  0.00000000000E+00 0. -1.
         21   -1    0    0  501  502 -0.00000000000E+00 -0.00000000000E+00 -0.75221678482E+02  0.75221678482E+02  0.00000000000E+00 0. -1.
         25    1    1    2    0    0 -0.43666312700E+02 -0.34289655175E+02  0.10742619659E+03  0.17391927734E+03  0.12500000000E+03 0.  0.
         25    1    1    2    0    0  0.15072888518E+02  0.55470714944E+02  0.21132192669E+03  0.25216294114E+03  0.12500000000E+03 0.  0.
         25    1    1    2    0    0  0.28593424182E+02 -0.21181059769E+02  0.17435711184E+03  0.21746637360E+03  0.12500000000E+03 0.  0.
</event>
<event>
 5    0  0.5851292E-005  0.2299989E+03  0.7546771E-02  0.1126641E+00
         21   -1    0    0  502  501  0.00000000000E+00  0.00000000000E+00  0.31803942704E+03  0.31803942704E+03  0.00000000000E+00 0. -1.
         21   -1    0    0  501  502 -0.00000000000E+00 -0.00000000000E+00 -0.16633005829E+03  0.16633005829E+03  0.00000000000E+00 0. -1.
         25    1    1    2    0    0 -0.35147998404E+02 -0.14485460650E+02  0.12133834038E+03  0.17830648672E+03  0.12500000000E+03 0.  0.
         25    1    1    2    0    0  0.66788430207E+02  0.14591666909E+02 -0.53562916122E+02  0.15220905734E+03  0.12500000000E+03 0.  0.
         25    1    1    2    0    0 -0.31640431803E+02 -0.10620625881E+00  0.83933944497E+02  0.15385394127E+03  0.12500000000E+03 0.  0.
</event>
<event>
 5    0  0.5851292E-005  0.5891475E+03  0.7546771E-02  0.9928181E-01
         21   -1    0    0  502  501  0.00000000000E+00  0.00000000000E+00  0.45824446592E+03  0.45824446592E+03  0.00000000000E+00 0. -1.
         21   -1    0    0  501  502 -0.00000000000E+00 -0.00000000000E+00 -0.75744451540E+03  0.75744451540E+03  0.00000000000E+00 0. -1.
         25    1    1    2    0    0  0.36134060400E+03 -0.35950046524E+03 -0.14105933204E+03  0.54344305292E+03  0.12500000000E+03 0.  0.
         25    1    1    2    0    0 -0.62298516076E+02  0.28602343642E+02  0.66670325159E+02  0.15738211914E+03  0.12500000000E+03 0.  0.
         25    1    1    2    0    0 -0.29904208792E+03  0.33089812160E+03 -0.22481104260E+03  0.51486380928E+03  0.12500000000E+03 0.  0.
</event>
<event>
 5    0  0.5851292E-005  0.3312665E+03  0.7546771E-02  0.1070578E+00
         21   -1    0    0  502  501  0.00000000000E+00  0.00000000000E+00  0.13280107829E+04  0.13280107829E+04  0.00000000000E+00 0.  1.
         21   -1    0    0  501  502 -0.00000000000E+00 -0.00000000000E+00 -0.82632973864E+02  0.82632973864E+02  0.00000000000E+00 0.  1.
         25    1    1    2    0    0  0.11127038743E+03  0.81068431135E+02  0.44989836867E+03  0.48681283033E+03  0.12500000000E+03 0.  0.
         25    1    1    2    0    0 -0.11624133369E+03  0.10350638119E+03  0.58142585470E+03  0.61474111878E+03  0.12500000000E+03 0.  0.
         25    1    1    2    0    0  0.49709462581E+01 -0.18457481232E+03  0.21405358564E+03  0.30908980763E+03  0.12500000000E+03 0.  0.
</event>
<event>
 5    0  0.5851292E-005  0.5370325E+03  0.7546771E-02  0.1004541E+00
         21   -1    0    0  502  501  0.00000000000E+00  0.00000000000E+00  0.15058294206E+04  0.15058294206E+04  0.00000000000E+00 0. -1.
         21   -1    0    0  501  502 -0.00000000000E+00 -0.00000000000E+00 -0.19152498368E+03  0.19152498368E+03  0.00000000000E+00 0. -1.
         25    1    1    2    0    0  0.24187973406E+03 -0.25928945813E+03  0.11285934128E+04  0.11895734194E+04  0.12500000000E+03 0.  0.
         25    1    1    2    0    0 -0.16553378889E+03  0.44166553878E+02  0.74838633617E+02  0.22489539974E+03  0.12500000000E+03 0.  0.
         25    1    1    2    0    0 -0.76345945173E+02  0.21512290425E+03  0.11087239053E+03  0.28288558510E+03  0.12500000000E+03 0.  0.
</event>
<event>
 5    0  0.5851292E-005  0.2953504E+03  0.7546771E-02  0.1087588E+00
         21   -1    0    0  502  501  0.00000000000E+00  0.00000000000E+00  0.42132409232E+03  0.42132409232E+03  0.00000000000E+00 0.  1.
         21   -1    0    0  501  502 -0.00000000000E+00 -0.00000000000E+00 -0.20704221549E+03  0.20704221549E+03  0.00000000000E+00 0.  1.
         25    1    1    2    0    0  0.36074748148E+02  0.17269766953E+03 -0.41407452783E+02  0.22014869898E+03  0.12500000000E+03 0.  0.
         25    1    1    2    0    0 -0.13776480192E+02 -0.49878675426E+02  0.71548382725E+02  0.15304197052E+03  0.12500000000E+03 0.  0.
         25    1    1    2    0    0 -0.22298267956E+02 -0.12281899410E+03  0.18414094689E+03  0.25517563831E+03  0.12500000000E+03 0.  0.
</event>
<event>
 5    0  0.5851292E-005  0.5376432E+03  0.7546771E-02  0.1004395E+00
         21   -1    0    0  502  501  0.00000000000E+00  0.00000000000E+00  0.14055879946E+04  0.14055879946E+04  0.00000000000E+00 0. -1.
         21   -1    0    0  501  502 -0.00000000000E+00 -0.00000000000E+00 -0.20565072364E+03  0.20565072364E+03  0.00000000000E+00 0. -1.
         25    1    1    2    0    0  0.13474970614E+03 -0.26778841381E+03  0.67931033397E+03  0.75296457268E+03  0.12500000000E+03 0.  0.
         25    1    1    2    0    0  0.46601415882E+02  0.40215280042E+03  0.30561685304E+03  0.52242246096E+03  0.12500000000E+03 0.  0.
         25    1    1    2    0    0 -0.18135112202E+03 -0.13436438661E+03  0.21501008391E+03  0.33585168457E+03  0.12500000000E+03 0.  0.
</event>
<event>
 5    0  0.6256693E-005  0.2769033E+03  0.7546771E-02  0.1097392E+00
         21   -1    0    0  502  501  0.00000000000E+00  0.00000000000E+00  0.27936358621E+03  0.27936358621E+03  0.00000000000E+00 0. -1.
         21   -1    0    0  501  502 -0.00000000000E+00 -0.00000000000E+00 -0.27446476700E+03  0.27446476700E+03  0.00000000000E+00 0. -1.
         25    1    1    2    0    0 -0.85044132911E+02 -0.12022839725E+03  0.19674197050E+02  0.19416345196E+03  0.12500000000E+03 0.  0.
         25    1    1    2    0    0 -0.72043324223E+00 -0.20788245278E+02  0.59119847682E+02  0.13983142192E+03  0.12500000000E+03 0.  0.
         25    1    1    2    0    0  0.85764566154E+02  0.14101664253E+03 -0.73895225520E+02  0.21983347933E+03  0.12500000000E+03 0.  0.
</event>
<event>
 5    0  0.6507292E-005  0.3304368E+03  0.7546771E-02  0.1070944E+00
         21   -1    0    0  502  501  0.00000000000E+00  0.00000000000E+00  0.48996116802E+03  0.48996116802E+03  0.00000000000E+00 0. -1.
         21   -1    0    0  501  502 -0.00000000000E+00 -0.00000000000E+00 -0.22285129684E+03  0.22285129684E+03  0.00000000000E+00 0. -1.
         25    1    1    2    0    0 -0.88570142284E+02  0.44940452529E+02 -0.54749420295E+02  0.16878037031E+03  0.12500000000E+03 0.  0.
         25    1    1    2    0    0  0.17497190623E+03  0.84198381151E+02  0.22468066548E+03  0.32219704654E+03  0.12500000000E+03 0.  0.
         25    1    1    2    0    0 -0.86401763944E+02 -0.12913883368E+03  0.97178625992E+02  0.22183504801E+03  0.12500000000E+03 0.  0.
</event>
<event>
 5    0  0.5949916E-005  0.2728144E+03  0.7546771E-02  0.1099680E+00
         21   -1    0    0  502  501  0.00000000000E+00  0.00000000000E+00  0.15990297516E+03  0.15990297516E+03  0.00000000000E+00 0.  1.
         21   -1    0    0  501  502 -0.00000000000E+00 -0.00000000000E+00 -0.46545525529E+03  0.46545525529E+03  0.00000000000E+00 0.  1.
         25    1    1    2    0    0  0.72477894785E+02 -0.15728713460E+03 -0.72359302260E+02  0.22550644463E+03  0.12500000000E+03 0.  0.
         25    1    1    2    0    0 -0.46181069851E+02  0.10887659981E+03 -0.66855191188E+02  0.18461154294E+03  0.12500000000E+03 0.  0.
         25    1    1    2    0    0 -0.26296824934E+02  0.48410534796E+02 -0.16633778668E+03  0.21524024289E+03  0.12500000000E+03 0.  0.
</event>
<event>
 5    0  0.5851292E-005  0.5728971E+03  0.7546771E-02  0.9963288E-01
         21   -1    0    0  502  501  0.00000000000E+00  0.00000000000E+00  0.11767251809E+04  0.11767251809E+04  0.00000000000E+00 0. -1.
         21   -1    0    0  501  502 -0.00000000000E+00 -0.00000000000E+00 -0.27891907379E+03  0.27891907379E+03  0.00000000000E+00 0. -1.
         25    1    1    2    0    0 -0.15087481785E+03  0.30386239402E+01  0.45467553544E+03  0.49510330884E+03  0.12500000000E+03 0.  0.
         25    1    1    2    0    0  0.42364896326E+03  0.18819843384E+03  0.34568899343E+03  0.59162739520E+03  0.12500000000E+03 0.  0.
         25    1    1    2    0    0 -0.27277414541E+03 -0.19123705778E+03  0.97441578222E+02  0.36891355063E+03  0.12500000000E+03 0.  0.
</event>
<event>
 5    0  0.5851292E-005  0.2862491E+03  0.7546771E-02  0.1092324E+00
         21   -1    0    0  502  501  0.00000000000E+00  0.00000000000E+00  0.53727307597E+02  0.53727307597E+02  0.00000000000E+00 0. -1.
         21   -1    0    0  501  502 -0.00000000000E+00 -0.00000000000E+00 -0.15250816568E+04  0.15250816568E+04  0.00000000000E+00 0. -1.
         25    1    1    2    0    0  0.72203908708E+01 -0.20064316080E+02 -0.14641247229E+03  0.19369130818E+03  0.12500000000E+03 0.  0.
         25    1    1    2    0    0 -0.10670040628E+02 -0.14236621006E+03 -0.78403209292E+03  0.80666802978E+03  0.12500000000E+03 0.  0.
         25    1    1    2    0    0  0.34496497571E+01  0.16243052614E+03 -0.54090978400E+03  0.57844962644E+03  0.12500000000E+03 0.  0.
</event>
<event>
 5    0  0.5851292E-005  0.3616704E+03  0.7546771E-02  0.1057924E+00
         21   -1    0    0  502  501  0.00000000000E+00  0.00000000000E+00  0.85413737646E+03  0.85413737646E+03  0.00000000000E+00 0. -1.
         21   -1    0    0  501  502 -0.00000000000E+00 -0.00000000000E+00 -0.15314336498E+03  0.15314336498E+03  0.00000000000E+00 0. -1.
         25    1    1    2    0    0 -0.27252967906E+02 -0.16809188357E+01  0.23950751193E+03  0.27154078519E+03  0.12500000000E+03 0.  0.
         25    1    1    2    0    0 -0.10582742093E+03  0.21639889847E+03  0.32246349460E+03  0.42146842305E+03  0.12500000000E+03 0.  0.
         25    1    1    2    0    0  0.13308038884E+03 -0.21471797964E+03  0.13902300496E+03  0.31427153320E+03  0.12500000000E+03 0.  0.
</event>
<event>
 5    0  0.5851292E-005  0.3513886E+03  0.7546771E-02  0.1062047E+00
         21   -1    0    0  502  501  0.00000000000E+00  0.00000000000E+00  0.14400866302E+04  0.14400866302E+04  0.00000000000E+00 0. -1.
         21   -1    0    0  501  502 -0.00000000000E+00 -0.00000000000E+00 -0.85740644383E+02  0.85740644383E+02  0.00000000000E+00 0. -1.
         25    1    1    2    0    0  0.38687768947E+02 -0.10044905066E+03  0.88285195249E+03  0.89813101787E+03  0.12500000000E+03 0.  0.
         25    1    1    2    0    0 -0.14632699283E+03 -0.37811948768E+02  0.18732086782E+03  0.27121106139E+03  0.12500000000E+03 0.  0.
         25    1    1    2    0    0  0.10763922388E+03  0.13826099943E+03  0.28417316546E+03  0.35648519527E+03  0.12500000000E+03 0.  0.
</event>
<event>
 5    0  0.5851292E-005  0.2680511E+03  0.7546771E-02  0.1102400E+00
         21   -1    0    0  502  501  0.00000000000E+00  0.00000000000E+00  0.33055958661E+03  0.33055958661E+03  0.00000000000E+00 0. -1.
         21   -1    0    0  501  502 -0.00000000000E+00 -0.00000000000E+00 -0.21736283110E+03  0.21736283110E+03  0.00000000000E+00 0. -1.
         25    1    1    2    0    0  0.11315138180E+03 -0.80861806270E+02  0.73554488647E+02  0.20094061241E+03  0.12500000000E+03 0.  0.
         25    1    1    2    0    0 -0.11376450091E+03  0.47415727944E+02  0.10233630125E+03  0.20319530378E+03  0.12500000000E+03 0.  0.
         25    1    1    2    0    0  0.61311911124E+00  0.33446078325E+02 -0.62694034385E+02  0.14378650151E+03  0.12500000000E+03 0.  0.
</event>
<event>
 5    0  0.5851292E-005  0.2699911E+03  0.7546771E-02  0.1101285E+00
         21   -1    0    0  502  501  0.00000000000E+00  0.00000000000E+00  0.26749278696E+03  0.26749278696E+03  0.00000000000E+00 0.  1.
         21   -1    0    0  501  502 -0.00000000000E+00 -0.00000000000E+00 -0.27251280127E+03  0.27251280127E+03  0.00000000000E+00 0.  1.
         25    1    1    2    0    0 -0.37219382157E+02  0.37099541238E+02  0.22717245115E+02  0.13748720520E+03  0.12500000000E+03 0.  0.
         25    1    1    2    0    0 -0.65108395217E+02 -0.10882494711E+02  0.11741756686E+03  0.18376456902E+03  0.12500000000E+03 0.  0.
         25    1    1    2    0    0  0.10232777737E+03 -0.26217046527E+02 -0.14515482628E+03  0.21875381401E+03  0.12500000000E+03 0.  0.
</event>
<event>
 5    0  0.5851292E-005  0.3096996E+03  0.7546771E-02  0.1080490E+00
         21   -1    0    0  502  501  0.00000000000E+00  0.00000000000E+00  0.14763918959E+03  0.14763918959E+03  0.00000000000E+00 0.  1.
         21   -1    0    0  501  502 -0.00000000000E+00 -0.00000000000E+00 -0.64965017803E+03  0.64965017803E+03  0.00000000000E+00 0.  1.
         25    1    1    2    0    0  0.39548092295E+02  0.81447380400E+02 -0.11417610421E+02  0.15476785585E+03  0.12500000000E+03 0.  0.
         25    1    1    2    0    0  0.31900977699E+02 -0.79324137878E+01 -0.34952460680E+01  0.12929737937E+03  0.12500000000E+03 0.  0.
         25    1    1    2    0    0 -0.71449069994E+02 -0.73514966612E+02 -0.48709813196E+03  0.51322413240E+03  0.12500000000E+03 0.  0.
</event>
<event>
 5    0  0.5851292E-005  0.3244134E+03  0.7546771E-02  0.1073636E+00
         21   -1    0    0  502  501  0.00000000000E+00  0.00000000000E+00  0.15772750110E+03  0.15772750110E+03  0.00000000000E+00 0. -1.
         21   -1    0    0  501  502 -0.00000000000E+00 -0.00000000000E+00 -0.66725248214E+03  0.66725248214E+03  0.00000000000E+00 0. -1.
         25    1    1    2    0    0 -0.74542776658E+02  0.15403374461E+02 -0.42549392878E+02  0.15241174604E+03  0.12500000000E+03 0.  0.
         25    1    1    2    0    0  0.29692557413E+02  0.10153111505E+03  0.97696063578E+01  0.16404469055E+03  0.12500000000E+03 0.  0.
         25    1    1    2    0    0  0.44850219245E+02 -0.11693448951E+03 -0.47674519452E+03  0.50852354665E+03  0.12500000000E+03 0.  0.
</event>
<event>
 5    0  0.5851292E-005  0.3998620E+03  0.7546771E-02  0.1043827E+00
         21   -1    0    0  502  501  0.00000000000E+00  0.00000000000E+00  0.25994874448E+03  0.25994874448E+03  0.00000000000E+00 0. -1.
         21   -1    0    0  501  502 -0.00000000000E+00 -0.00000000000E+00 -0.61508123079E+03  0.61508123079E+03  0.00000000000E+00 0. -1.
         25    1    1    2    0    0 -0.78008234038E+02 -0.52885649147E+02 -0.26139961977E+03  0.30469154514E+03  0.12500000000E+03 0.  0.
         25    1    1    2    0    0  0.24660851060E+03 -0.10542093176E+03 -0.82611477584E+02  0.30721163159E+03  0.12500000000E+03 0.  0.
         25    1    1    2    0    0 -0.16860027656E+03  0.15830658091E+03 -0.11121388948E+02  0.26312679854E+03  0.12500000000E+03 0.  0.
</event>
<event>
 5    0  0.5851292E-005  0.2997861E+03  0.7546771E-02  0.1085348E+00
         21   -1    0    0  502  501  0.00000000000E+00  0.00000000000E+00  0.10500372210E+03  0.10500372210E+03  0.00000000000E+00 0. -1.
         21   -1    0    0  501  502 -0.00000000000E+00 -0.00000000000E+00 -0.85589087993E+03  0.85589087993E+03  0.00000000000E+00 0. -1.
         25    1    1    2    0    0 -0.57015020229E+02  0.10376804496E+02 -0.33126766062E+03  0.35877800041E+03  0.12500000000E+03 0.  0.
         25    1    1    2    0    0 -0.72983200007E+02  0.10707603473E+03 -0.73353562847E+02  0.19441597125E+03  0.12500000000E+03 0.  0.
         25    1    1    2    0    0  0.12999822024E+03 -0.11745283923E+03 -0.34626593435E+03  0.40770063037E+03  0.12500000000E+03 0.  0.
</event>
<event>
 5    0  0.5996223E-005  0.3497434E+03  0.7546771E-02  0.1062720E+00
         21   -1    0    0  502  501  0.00000000000E+00  0.00000000000E+00  0.23601569700E+03  0.23601569700E+03  0.00000000000E+00 0.  1.
         21   -1    0    0  501  502 -0.00000000000E+00 -0.00000000000E+00 -0.51827256995E+03  0.51827256995E+03  0.00000000000E+00 0.  1.
         25    1    1    2    0    0 -0.26178652498E+02 -0.16354721392E+03 -0.30669351380E+02  0.20975848527E+03  0.12500000000E+03 0.  0.
         25    1    1    2    0    0  0.16478089076E+03  0.13986868468E+03 -0.26372063599E+02  0.25107066067E+03  0.12500000000E+03 0.  0.
         25    1    1    2    0    0 -0.13860223826E+03  0.23678529243E+02 -0.22521545796E+03  0.29345912101E+03  0.12500000000E+03 0.  0.
</event>
<event>
 5    0  0.5851292E-005  0.2551820E+03  0.7546771E-02  0.1110073E+00
         21   -1    0    0  502  501  0.00000000000E+00  0.00000000000E+00  0.27175162717E+03  0.27175162717E+03  0.00000000000E+00 0.  1.
         21   -1    0    0  501  502 -0.00000000000E+00 -0.00000000000E+00 -0.23962276526E+03  0.23962276526E+03  0.00000000000E+00 0.  1.
         25    1    1    2    0    0  0.25488313509E+00 -0.34320185455E+01  0.10162503391E+03  0.16113500934E+03  0.12500000000E+03 0.  0.
         25    1    1    2    0    0  0.68053236152E+02 -0.21898390914E+01  0.62960449107E+02  0.15564400566E+03  0.12500000000E+03 0.  0.
         25    1    1    2    0    0 -0.68308119287E+02  0.56218576369E+01 -0.13245662110E+03  0.19459537743E+03  0.12500000000E+03 0.  0.
</event>
<event>
 5    0  0.5851292E-005  0.2886585E+03  0.7546771E-02  0.1091052E+00
         21   -1    0    0  502  501  0.00000000000E+00  0.00000000000E+00  0.33248698845E+03  0.33248698845E+03  0.00000000000E+00 0. -1.
         21   -1    0    0  501  502 -0.00000000000E+00 -0.00000000000E+00 -0.25060746561E+03  0.25060746561E+03  0.00000000000E+00 0. -1.
         25    1    1    2    0    0 -0.15126791695E+03  0.45653972252E+02 -0.70454940327E+02  0.21343656317E+03  0.12500000000E+03 0.  0.
         25    1    1    2    0    0  0.12255475152E+03 -0.33128161354E+02  0.16149963431E+03  0.24046678373E+03  0.12500000000E+03 0.  0.
         25    1    1    2    0    0  0.28713165426E+02 -0.12525810898E+02 -0.91651711440E+01  0.12919110716E+03  0.12500000000E+03 0.  0.
</event>
<event>
 5    0  0.5851292E-005  0.2857449E+03  0.7546771E-02  0.1092592E+00
         21   -1    0    0  502  501  0.00000000000E+00  0.00000000000E+00  0.19837047747E+04  0.19837047747E+04  0.00000000000E+00 0. -1.
         21   -1    0    0  501  502 -0.00000000000E+00 -0.00000000000E+00 -0.41160421777E+02  0.41160421777E+02  0.00000000000E+00 0. -1.
         25    1    1    2    0    0 -0.44540314088E+02 -0.80453417118E+02  0.79950315186E+03  0.81442426397E+03  0.12500000000E+03 0.  0.
         25    1    1    2    0    0  0.13115221128E+03 -0.43083492127E+02  0.38779358547E+03  0.43019292736E+03  0.12500000000E+03 0.  0.
         25    1    1    2    0    0 -0.86611897192E+02  0.12353690924E+03  0.75524761555E+03  0.78024800511E+03  0.12500000000E+03 0.  0.
</event>
<event>
 5    0  0.5851292E-005  0.3550664E+03  0.7546771E-02  0.1060555E+00
         21   -1    0    0  502  501  0.00000000000E+00  0.00000000000E+00  0.51377038460E+02  0.51377038460E+02  0.00000000000E+00 0. -1.
         21   -1    0    0  501  502 -0.00000000000E+00 -0.00000000000E+00 -0.24538614747E+04  0.24538614747E+04  0.00000000000E+00 0. -1.
         25    1    1    2    0    0 -0.97959037149E+02  0.14458749862E+03 -0.79699514203E+03  0.82542581383E+03  0.12500000000E+03 0.  0.
         25    1    1    2    0    0  0.89876643033E+02  0.38240945414E+02 -0.12559962138E+04  0.12659745930E+04  0.12500000000E+03 0.  0.
         25    1    1    2    0    0  0.80823941159E+01 -0.18282844404E+03 -0.34949308033E+03  0.41383810632E+03  0.12500000000E+03 0.  0.
</event>
<event>
 5    0  0.5851292E-005  0.2333096E+03  0.7546771E-02  0.1124332E+00
         21   -1    0    0  502  501  0.00000000000E+00  0.00000000000E+00  0.14013314013E+03  0.14013314013E+03  0.00000000000E+00 0.  1.
         21   -1    0    0  501  502 -0.00000000000E+00 -0.00000000000E+00 -0.38844034683E+03  0.38844034683E+03  0.00000000000E+00 0.  1.
         25    1    1    2    0    0  0.65551146733E+02 -0.74610847557E+02 -0.12637521377E+03  0.20361587872E+03  0.12500000000E+03 0.  0.
         25    1    1    2    0    0 -0.91323562249E+02  0.63939766793E+02 -0.37745394031E+02  0.17169158852E+03  0.12500000000E+03 0.  0.
         25    1    1    2    0    0  0.25772415516E+02  0.10671080765E+02 -0.84186598896E+02  0.15326601972E+03  0.12500000000E+03 0.  0.
</event>
<event>
 5    0  0.5851292E-005  0.3088089E+03  0.7546771E-02  0.1080918E+00
         21   -1    0    0  502  501  0.00000000000E+00  0.00000000000E+00  0.35690516925E+02  0.35690516925E+02  0.00000000000E+00 0. -1.
         21   -1    0    0  501  502 -0.00000000000E+00 -0.00000000000E+00 -0.26719396143E+04  0.26719396143E+04  0.00000000000E+00 0. -1.
         25    1    1    2    0    0  0.95764845802E+02  0.94836629974E+02 -0.38564916633E+03  0.42721794388E+03  0.12500000000E+03 0.  0.
         25    1    1    2    0    0 -0.11051408599E+03  0.93400985607E+01 -0.63676720620E+03  0.65832976200E+03  0.12500000000E+03 0.  0.
         25    1    1    2    0    0  0.14749240183E+02 -0.10417672853E+03 -0.16138327248E+04  0.16220824253E+04  0.12500000000E+03 0.  0.
</event>
<event>
 5    0  0.5851292E-005  0.2860274E+03  0.7546771E-02  0.1092442E+00
         21   -1    0    0  502  501  0.00000000000E+00  0.00000000000E+00  0.79907139009E+02  0.79907139009E+02  0.00000000000E+00 0. -1.
         21   -1    0    0  501  502 -0.00000000000E+00 -0.00000000000E+00 -0.10238344589E+04  0.10238344589E+04  0.00000000000E+00 0. -1.
         25    1    1    2    0    0 -0.45109770737E+02  0.40762544050E+02 -0.22164212665E+02  0.14075769512E+03  0.12500000000E+03 0.  0.
         25    1    1    2    0    0  0.13245321547E+02 -0.54017751878E+02 -0.61323181367E+03  0.62830853357E+03  0.12500000000E+03 0.  0.
         25    1    1    2    0    0  0.31864449190E+02  0.13255207828E+02 -0.30853129358E+03  0.33467536924E+03  0.12500000000E+03 0.  0.
</event>
<event>
 5    0  0.5851292E-005  0.3403042E+03  0.7546771E-02  0.1066666E+00
         21   -1    0    0  502  501  0.00000000000E+00  0.00000000000E+00  0.16321720245E+03  0.16321720245E+03  0.00000000000E+00 0. -1.
         21   -1    0    0  501  502 -0.00000000000E+00 -0.00000000000E+00 -0.70952643482E+03  0.70952643482E+03  0.00000000000E+00 0. -1.
         25    1    1    2    0    0  0.42184946691E+02  0.75477922733E+01 -0.58963316031E+02  0.14470041995E+03  0.12500000000E+03 0.  0.
         25    1    1    2    0    0 -0.25335878944E+03 -0.33407256667E+02 -0.19214784770E+03  0.34329654289E+03  0.12500000000E+03 0.  0.
         25    1    1    2    0    0  0.21117384275E+03  0.25859464393E+02 -0.29519806864E+03  0.38474667444E+03  0.12500000000E+03 0.  0.
</event>
<event>
 5    0  0.5851292E-005  0.3352738E+03  0.7546771E-02  0.1068827E+00
         21   -1    0    0  502  501  0.00000000000E+00  0.00000000000E+00  0.67689693935E+03  0.67689693935E+03  0.00000000000E+00 0. -1.
         21   -1    0    0  501  502 -0.00000000000E+00 -0.00000000000E+00 -0.16606444578E+03  0.16606444578E+03  0.00000000000E+00 0. -1.
         25    1    1    2    0    0 -0.84479471385E+02 -0.36586275761E+02  0.10608392252E+03  0.18802695359E+03  0.12500000000E+03 0.  0.
         25    1    1    2    0    0  0.85382878535E+01  0.15205126244E+02 -0.79141354475E+02  0.14897131339E+03  0.12500000000E+03 0.  0.
         25    1    1    2    0    0  0.75941183532E+02  0.21381149517E+02  0.48388992553E+03  0.50596311816E+03  0.12500000000E+03 0.  0.
</event>
<event>
 5    0  0.5851292E-005  0.3369180E+03  0.7546771E-02  0.1068116E+00
         21   -1    0    0  502  501  0.00000000000E+00  0.00000000000E+00  0.63658259462E+02  0.63658259462E+02  0.00000000000E+00 0. -1.
         21   -1    0    0  501  502 -0.00000000000E+00 -0.00000000000E+00 -0.17831742094E+04  0.17831742094E+04  0.00000000000E+00 0. -1.
         25    1    1    2    0    0 -0.10612947609E+03 -0.85341086018E+02 -0.53147590133E+03  0.56270614032E+03  0.12500000000E+03 0.  0.
         25    1    1    2    0    0 -0.42244173207E+01 -0.11085577059E+03 -0.80782217492E+03  0.82492939932E+03  0.12500000000E+03 0.  0.
         25    1    1    2    0    0  0.11035389341E+03  0.19619685661E+03 -0.38021787371E+03  0.45919692924E+03  0.12500000000E+03 0.  0.
</event>
<event>
 5    0  0.5851292E-005  0.3140079E+03  0.7546771E-02  0.1078441E+00
         21   -1    0    0  502  501  0.00000000000E+00  0.00000000000E+00  0.70020199172E+03  0.70020199172E+03  0.00000000000E+00 0.  1.
         21   -1    0    0  501  502 -0.00000000000E+00 -0.00000000000E+00 -0.14081788809E+03  0.14081788809E+03  0.00000000000E+00 0.  1.
         25    1    1    2    0    0 -0.66396369725E+02 -0.19102743149E+02  0.32287535485E+03  0.35305366090E+03  0.12500000000E+03 0.  0.
         25    1    1    2    0    0  0.29719250328E+01 -0.14772425651E+03  0.46935298539E+02  0.19914620396E+03  0.12500000000E+03 0.  0.
         25    1    1    2    0    0  0.63424444693E+02  0.16682699966E+03  0.18957345024E+03  0.28882001495E+03  0.12500000000E+03 0.  0.
</event>
<event>
 5    0  0.6769547E-005  0.2566329E+03  0.7546771E-02  0.1109183E+00
         21   -1    0    0  502  501  0.00000000000E+00  0.00000000000E+00  0.43467848418E+03  0.43467848418E+03  0.00000000000E+00 0. -1.
         21   -1    0    0  501  502 -0.00000000000E+00 -0.00000000000E+00 -0.15151530834E+03  0.15151530834E+03  0.00000000000E+00 0. -1.
         25    1    1    2    0    0  0.61314807444E+02 -0.85682565283E+02  0.24637330665E+03  0.29567856506E+03  0.12500000000E+03 0.  0.
         25    1    1    2    0    0 -0.73753173463E+02  0.21554023147E+02  0.11025692700E+02  0.14714167462E+03  0.12500000000E+03 0.  0.
         25    1    1    2    0    0  0.12438366019E+02  0.64128542136E+02  0.25764176496E+02  0.14337355285E+03  0.12500000000E+03 0.  0.
</event>
<event>
 5    0  0.5851292E-005  0.3449112E+03  0.7546771E-02  0.1064723E+00
         21   -1    0    0  502  501  0.00000000000E+00  0.00000000000E+00  0.67945473916E+02  0.67945473916E+02  0.00000000000E+00 0. -1.
         21   -1    0    0  501  502 -0.00000000000E+00 -0.00000000000E+00 -0.17508709058E+04  0.17508709058E+04  0.00000000000E+00 0. -1.
         25    1    1    2    0    0  0.61441675724E+02  0.15657485680E+03 -0.68000280913E+03  0.71156137172E+03  0.12500000000E+03 0.  0.
         25    1    1    2    0    0 -0.86949181135E+02 -0.52761603407E+02 -0.89758825777E+03  0.91193948669E+03  0.12500000000E+03 0.  0.
         25    1    1    2    0    0  0.25507505411E+02 -0.10381325340E+03 -0.10533436496E+03  0.19531552129E+03  0.12500000000E+03 0.  0.
</event>
<event>
 5    0  0.5851292E-005  0.3490526E+03  0.7546771E-02  0.1063005E+00
         21   -1    0    0  502  501  0.00000000000E+00  0.00000000000E+00  0.27357015196E+04  0.27357015196E+04  0.00000000000E+00 0.  1.
         21   -1    0    0  501  502 -0.00000000000E+00 -0.00000000000E+00 -0.44536184743E+02  0.44536184743E+02  0.00000000000E+00 0.  1.
         25    1    1    2    0    0 -0.48514171971E+02 -0.19167442828E+03  0.11886637733E+04  0.12114616285E+04  0.12500000000E+03 0.  0.
         25    1    1    2    0    0  0.15507643018E+03  0.17691058807E+03  0.68865844905E+03  0.73839116654E+03  0.12500000000E+03 0.  0.
         25    1    1    2    0    0 -0.10656225821E+03  0.14763840210E+02  0.81384311252E+03  0.83038490933E+03  0.12500000000E+03 0.  0.
</event>
<event>
 5    0  0.5851292E-005  0.2991717E+03  0.7546771E-02  0.1085655E+00
         21   -1    0    0  502  501  0.00000000000E+00  0.00000000000E+00  0.61227738215E+03  0.61227738215E+03  0.00000000000E+00 0.  1.
         21   -1    0    0  501  502 -0.00000000000E+00 -0.00000000000E+00 -0.14618159692E+03  0.14618159692E+03  0.00000000000E+00 0.  1.
         25    1    1    2    0    0  0.28273623460E+02 -0.25143888863E+02  0.17791976836E+03  0.22070808074E+03  0.12500000000E+03 0.  0.
         25    1    1    2    0    0 -0.24574274286E+02 -0.14533976210E+03  0.17176340624E+02  0.19402981235E+03  0.12500000000E+03 0.  0.
         25    1    1    2    0    0 -0.36993491741E+01  0.17048365096E+03  0.27099967624E+03  0.34372108598E+03  0.12500000000E+03 0.  0.
</event>
<event>
 5    0  0.5851292E-005  0.2845702E+03  0.7546771E-02  0.1093219E+00
         21   -1    0    0  502  501  0.00000000000E+00  0.00000000000E+00  0.10466378009E+03  0.10466378009E+03  0.00000000000E+00 0. -1.
         21   -1    0    0  501  502 -0.00000000000E+00 -0.00000000000E+00 -0.77371765588E+03  0.77371765588E+03  0.00000000000E+00 0. -1.
         25    1    1    2    0    0 -0.28437893190E+02  0.94809169316E+02 -0.24510544766E+02  0.16131726244E+03  0.12500000000E+03 0.  0.
         25    1    1    2    0    0 -0.45140923016E+02  0.11897501110E+02 -0.25032387311E+03  0.28366581555E+03  0.12500000000E+03 0.  0.
         25    1    1    2    0    0  0.73578816205E+02 -0.10670667043E+03 -0.39421945792E+03  0.43339835799E+03  0.12500000000E+03 0.  0.
</event>
<event>
 5    0  0.5851292E-005  0.3541112E+03  0.7546771E-02  0.1060940E+00
         21   -1    0    0  502  501  0.00000000000E+00  0.00000000000E+00  0.19603167760E+03  0.19603167760E+03  0.00000000000E+00 0. -1.
         21   -1    0    0  501  502 -0.00000000000E+00 -0.00000000000E+00 -0.63966582420E+03  0.63966582420E+03  0.00000000000E+00 0. -1.
         25    1    1    2    0    0 -0.15528525523E+03  0.12428785975E+03 -0.11413899966E+02  0.23519408939E+03  0.12500000000E+03 0.  0.
         25    1    1    2    0    0  0.21473705163E+03 -0.42503994968E+02 -0.22235183846E+03  0.33613082423E+03  0.12500000000E+03 0.  0.
         25    1    1    2    0    0 -0.59451796406E+02 -0.81783864780E+02 -0.20986840816E+03  0.26437258818E+03  0.12500000000E+03 0.  0.
</event>
<event>
 5    0  0.5851292E-005  0.3040431E+03  0.7546771E-02  0.1083237E+00
         21   -1    0    0  502  501  0.00000000000E+00  0.00000000000E+00  0.55128009701E+03  0.55128009701E+03  0.00000000000E+00 0.  1.
         21   -1    0    0  501  502 -0.00000000000E+00 -0.00000000000E+00 -0.16768643175E+03  0.16768643175E+03  0.00000000000E+00 0.  1.
         25    1    1    2    0    0 -0.52511693315E+02  0.12884010846E+03 -0.40408079509E+02  0.19135063202E+03  0.12500000000E+03 0.  0.
         25    1    1    2    0    0  0.60215850835E+02 -0.79689347576E+02  0.31926969581E+03  0.35711969908E+03  0.12500000000E+03 0.  0.
         25    1    1    2    0    0 -0.77041575204E+01 -0.49150760888E+02  0.10473204896E+03  0.17049619766E+03  0.12500000000E+03 0.  0.
</event>
<event>
 5    0  0.5851292E-005  0.4136418E+03  0.7546771E-02  0.1039156E+00
         21   -1    0    0  502  501  0.00000000000E+00  0.00000000000E+00  0.58913494358E+03  0.58913494358E+03  0.00000000000E+00 0. -1.
         21   -1    0    0  501  502 -0.00000000000E+00 -0.00000000000E+00 -0.29042501044E+03  0.29042501044E+03  0.00000000000E+00 0. -1.
         25    1    1    2    0    0 -0.75076796623E+02 -0.68818595100E+02  0.24812109604E+03  0.29590809844E+03  0.12500000000E+03 0.  0.
         25    1    1    2    0    0 -0.19908002428E+03 -0.75679871912E+02  0.31331663784E+02  0.24893166178E+03  0.12500000000E+03 0.  0.
         25    1    1    2    0    0  0.27415682091E+03  0.14449846701E+03  0.19257173317E+02  0.33472019381E+03  0.12500000000E+03 0.  0.
</event>
<event>
 5    0  0.5851292E-005  0.3253638E+03  0.7546771E-02  0.1073207E+00
         21   -1    0    0  502  501  0.00000000000E+00  0.00000000000E+00  0.39883446789E+03  0.39883446789E+03  0.00000000000E+00 0. -1.
         21   -1    0    0  501  502 -0.00000000000E+00 -0.00000000000E+00 -0.26542735983E+03  0.26542735983E+03  0.00000000000E+00 0. -1.
         25    1    1    2    0    0  0.17416382342E+03 -0.15252208590E+03  0.13871568289E+03  0.29742741090E+03  0.12500000000E+03 0.  0.
         25    1    1    2    0    0 -0.15001087315E+02  0.53537133629E+02  0.26376111977E+02  0.13932679778E+03  0.12500000000E+03 0.  0.
         25    1    1    2    0    0 -0.15916273610E+03  0.98984952274E+02 -0.31684686802E+02  0.22750761903E+03  0.12500000000E+03 0.  0.
</event>
<event>
 5    0  0.5851292E-005  0.3407805E+03  0.7546771E-02  0.1066464E+00
         21   -1    0    0  502  501  0.00000000000E+00  0.00000000000E+00  0.83098372057E+02  0.83098372057E+02  0.00000000000E+00 0.  1.
         21   -1    0    0  501  502 -0.00000000000E+00 -0.00000000000E+00 -0.13975162583E+04  0.13975162583E+04  0.00000000000E+00 0.  1.
         25    1    1    2    0    0 -0.10137869191E+03 -0.73706608644E+02 -0.80120407624E+03  0.82052621842E+03  0.12500000000E+03 0.  0.
         25    1    1    2    0    0  0.28359347648E+02 -0.99687468434E+02 -0.10446758394E+03  0.19308112299E+03  0.12500000000E+03 0.  0.
         25    1    1    2    0    0  0.73019344261E+02  0.17339407708E+03 -0.40874622602E+03  0.46700728891E+03  0.12500000000E+03 0.  0.
</event>
<event>
 5    0  0.5851292E-005  0.2332613E+03  0.7546771E-02  0.1124365E+00
         21   -1    0    0  502  501  0.00000000000E+00  0.00000000000E+00  0.20785725072E+03  0.20785725072E+03  0.00000000000E+00 0. -1.
         21   -1    0    0  501  502 -0.00000000000E+00 -0.00000000000E+00 -0.26177011907E+03  0.26177011907E+03  0.00000000000E+00 0. -1.
         25    1    1    2    0    0  0.71344865320E+02 -0.77726512603E+02 -0.12213243509E+02  0.16402946042E+03  0.12500000000E+03 0.  0.
         25    1    1    2    0    0  0.20562619093E+02  0.73516165184E+02 -0.33046196846E+02  0.15014825664E+03  0.12500000000E+03 0.  0.
         25    1    1    2    0    0 -0.91907484413E+02  0.42103474190E+01 -0.86534279963E+01  0.15544965273E+03  0.12500000000E+03 0.  0.
</event>
<event>
 5    0  0.5851292E-005  0.8188736E+03  0.7546771E-02  0.9533093E-01
         21   -1    0    0  502  501  0.00000000000E+00  0.00000000000E+00  0.85034189848E+03  0.85034189848E+03  0.00000000000E+00 0. -1.
         21   -1    0    0  501  502 -0.00000000000E+00 -0.00000000000E+00 -0.78856988380E+03  0.78856988380E+03  0.00000000000E+00 0. -1.
         25    1    1    2    0    0 -0.78130743758E+02 -0.38255914556E+03 -0.51781330138E+03  0.66046311635E+03  0.12500000000E+03 0.  0.
         25    1    1    2    0    0 -0.75156341517E+02  0.17227694462E+02  0.54173397086E+03  0.56128955479E+03  0.12500000000E+03 0.  0.
         25    1    1    2    0    0  0.15328708528E+03  0.36533145110E+03  0.37851345194E+02  0.41715911114E+03  0.12500000000E+03 0.  0.
</event>
<event>
 5    0  0.5851292E-005  0.2809551E+03  0.7546771E-02  0.1095168E+00
         21   -1    0    0  502  501  0.00000000000E+00  0.00000000000E+00  0.22487985631E+03  0.22487985631E+03  0.00000000000E+00 0.  1.
         21   -1    0    0  501  502 -0.00000000000E+00 -0.00000000000E+00 -0.35101297426E+03  0.35101297426E+03  0.00000000000E+00 0.  1.
         25    1    1    2    0    0 -0.16344749908E+02 -0.42618796750E+02  0.79212414787E+02  0.15486484218E+03  0.12500000000E+03 0.  0.
         25    1    1    2    0    0 -0.16343191763E+02  0.93319662143E+02  0.18200994387E+02  0.15789849732E+03  0.12500000000E+03 0.  0.
         25    1    1    2    0    0  0.32687941671E+02 -0.50700865393E+02 -0.22354652713E+03  0.26312949107E+03  0.12500000000E+03 0.  0.
</event>
<event>
 5    0  0.5851292E-005  0.3025202E+03  0.7546771E-02  0.1083988E+00
         21   -1    0    0  502  501  0.00000000000E+00  0.00000000000E+00  0.18090600259E+03  0.18090600259E+03  0.00000000000E+00 0.  1.
         21   -1    0    0  501  502 -0.00000000000E+00 -0.00000000000E+00 -0.50588978082E+03  0.50588978082E+03  0.00000000000E+00 0.  1.
         25    1    1    2    0    0 -0.26995320406E+02  0.10924014122E+01 -0.84290508318E+02  0.15316602253E+03  0.12500000000E+03 0.  0.
         25    1    1    2    0    0  0.11116992379E+03  0.86982735501E+02  0.49544937376E+02  0.19494729814E+03  0.12500000000E+03 0.  0.
         25    1    1    2    0    0 -0.84174603385E+02 -0.88075136913E+02 -0.29023820729E+03  0.33868246274E+03  0.12500000000E+03 0.  0.
</event>
<event>
 5    0  0.5851292E-005  0.3778424E+03  0.7546771E-02  0.1051734E+00
         21   -1    0    0  502  501  0.00000000000E+00  0.00000000000E+00  0.91170258138E+03  0.91170258138E+03  0.00000000000E+00 0. -1.
         21   -1    0    0  501  502 -0.00000000000E+00 -0.00000000000E+00 -0.15659147345E+03  0.15659147345E+03  0.00000000000E+00 0. -1.
         25    1    1    2    0    0  0.63271187615E+02 -0.29820546706E+02  0.37780050182E+03  0.40404297713E+03  0.12500000000E+03 0.  0.
         25    1    1    2    0    0 -0.94077292899E+02  0.18538590779E+03  0.39286992974E+03  0.46172530096E+03  0.12500000000E+03 0.  0.
         25    1    1    2    0    0  0.30806105284E+02 -0.15556536109E+03 -0.15559323640E+02  0.20252577674E+03  0.12500000000E+03 0.  0.
</event>
<event>
 5    0  0.5851292E-005  0.4285104E+03  0.7546771E-02  0.1034332E+00
         21   -1    0    0  502  501  0.00000000000E+00  0.00000000000E+00  0.54022824718E+03  0.54022824718E+03  0.00000000000E+00 0.  1.
         21   -1    0    0  501  502 -0.00000000000E+00 -0.00000000000E+00 -0.33989550601E+03  0.33989550601E+03  0.00000000000E+00 0.  1.
         25    1    1    2    0    0  0.11367844293E+03  0.77772313525E+02 -0.31507121611E+01  0.18602754668E+03  0.12500000000E+03 0.  0.
         25    1    1    2    0    0  0.31240708139E+02 -0.23713945862E+03  0.32044449703E+03  0.41895200245E+03  0.12500000000E+03 0.  0.
         25    1    1    2    0    0 -0.14491915107E+03  0.15936714510E+03 -0.11696104370E+03  0.27514420406E+03  0.12500000000E+03 0.  0.
</event>
<event>
 5    0  0.5851292E-005  0.3411089E+03  0.7546771E-02  0.1066325E+00
         21   -1    0    0  502  501  0.00000000000E+00  0.00000000000E+00  0.39938260324E+03  0.39938260324E+03  0.00000000000E+00 0.  1.
         21   -1    0    0  501  502 -0.00000000000E+00 -0.00000000000E+00 -0.29133792586E+03  0.29133792586E+03  0.00000000000E+00 0.  1.
         25    1    1    2    0    0  0.35171792185E+02 -0.14136303758E+02  0.98871522682E+02  0.16382145173E+03  0.12500000000E+03 0.  0.
         25    1    1    2    0    0 -0.17132112786E+03  0.17959426474E+03 -0.10070330891E+02  0.27808531127E+03  0.12500000000E+03 0.  0.
         25    1    1    2    0    0  0.13614933568E+03 -0.16545796099E+03  0.19243485587E+02  0.24881376609E+03  0.12500000000E+03 0.  0.
</event>
<event>
 5    0  0.6919516E-005  0.3357129E+03  0.7546771E-02  0.1068637E+00
         21   -1    0    0  502  501  0.00000000000E+00  0.00000000000E+00  0.44951276247E+03  0.44951276247E+03  0.00000000000E+00 0.  1.
         21   -1    0    0  501  502 -0.00000000000E+00 -0.00000000000E+00 -0.25072296868E+03  0.25072296868E+03  0.00000000000E+00 0.  1.
         25    1    1    2    0    0  0.70782246226E+02  0.75886266536E+02 -0.99939910581E+02  0.19074023581E+03  0.12500000000E+03 0.  0.
         25    1    1    2    0    0 -0.12039091826E+03  0.17931446826E+02  0.67261506686E+01  0.17460169268E+03  0.12500000000E+03 0.  0.
         25    1    1    2    0    0  0.49608672037E+02 -0.93817713362E+02  0.29200355371E+03  0.33489380266E+03  0.12500000000E+03 0.  0.
</event>
<event>
 5    0  0.5851292E-005  0.3254453E+03  0.7546771E-02  0.1073170E+00
         21   -1    0    0  502  501  0.00000000000E+00  0.00000000000E+00  0.10104303390E+04  0.10104303390E+04  0.00000000000E+00 0.  1.
         21   -1    0    0  501  502 -0.00000000000E+00 -0.00000000000E+00 -0.10482135124E+03  0.10482135124E+03  0.00000000000E+00 0.  1.
         25    1    1    2    0    0 -0.12000161155E+03  0.78891754890E+02  0.59843621305E+03  0.62799299109E+03  0.12500000000E+03 0.  0.
         25    1    1    2    0    0  0.12969289200E+03 -0.14018901074E+02  0.29453140095E+03  0.34552933590E+03  0.12500000000E+03 0.  0.
         25    1    1    2    0    0 -0.96912804565E+01 -0.64872853816E+02  0.12641373761E+02  0.14172936326E+03  0.12500000000E+03 0.  0.
</event>
<event>
 5    0  0.5851292E-005  0.2951540E+03  0.7546771E-02  0.1087688E+00
         21   -1    0    0  502  501  0.00000000000E+00  0.00000000000E+00  0.46751266156E+02  0.46751266156E+02  0.00000000000E+00 0. -1.
         21   -1    0    0  501  502 -0.00000000000E+00 -0.00000000000E+00 -0.18633909635E+04  0.18633909635E+04  0.00000000000E+00 0. -1.
         25    1    1    2    0    0  0.38806511242E+02 -0.34423154250E+02 -0.53172916649E+03  0.54868187993E+03  0.12500000000E+03 0.  0.
         25    1    1    2    0    0  0.15451551873E+03 -0.24814805622E+01 -0.40442454896E+03  0.45062780548E+03  0.12500000000E+03 0.  0.
         25    1    1    2    0    0 -0.19332202998E+03  0.36904634813E+02 -0.88048598193E+03  0.91083254428E+03  0.12500000000E+03 0.  0.
</event>
<event>
 5    0  0.5851292E-005  0.2236283E+03  0.7546771E-02  0.1131207E+00
         21   -1    0    0  502  501  0.00000000000E+00  0.00000000000E+00  0.21624015398E+02  0.21624015398E+02  0.00000000000E+00 0. -1.
         21   -1    0    0  501  502 -0.00000000000E+00 -0.00000000000E+00 -0.23126881772E+04  0.23126881772E+04  0.00000000000E+00 0. -1.
         25    1    1    2    0    0  0.30627824143E+01 -0.36699017993E+02 -0.11562671707E+04  0.11635871126E+04  0.12500000000E+03 0.  0.
         25    1    1    2    0    0  0.22180545213E+02  0.38069551785E+02 -0.32562581634E+03  0.35156569745E+03  0.12500000000E+03 0.  0.
         25    1    1    2    0    0 -0.25243327627E+02 -0.13705337916E+01 -0.80917117472E+03  0.81915938251E+03  0.12500000000E+03 0.  0.
</event>
<event>
 5    0  0.5851292E-005  0.3530891E+03  0.7546771E-02  0.1061354E+00
         21   -1    0    0  502  501  0.00000000000E+00  0.00000000000E+00  0.28076482729E+03  0.28076482729E+03  0.00000000000E+00 0. -1.
         21   -1    0    0  501  502 -0.00000000000E+00 -0.00000000000E+00 -0.44404391800E+03  0.44404391800E+03  0.00000000000E+00 0. -1.
         25    1    1    2    0    0  0.11997906285E+03 -0.23279738140E+03  0.42299553129E+02  0.29326412754E+03  0.12500000000E+03 0.  0.
         25    1    1    2    0    0 -0.16533517529E+02  0.10895381409E+03 -0.47219379159E+02  0.17320208017E+03  0.12500000000E+03 0.  0.
         25    1    1    2    0    0 -0.10344554532E+03  0.12384356732E+03 -0.15835926467E+03  0.25834253757E+03  0.12500000000E+03 0.  0.
</event>
<event>
 5    0  0.5851292E-005  0.3172558E+03  0.7546771E-02  0.1076919E+00
         21   -1    0    0  502  501  0.00000000000E+00  0.00000000000E+00  0.33402802444E+02  0.33402802444E+02  0.00000000000E+00 0. -1.
         21   -1    0    0  501  502 -0.00000000000E+00 -0.00000000000E+00 -0.30132581490E+04  0.30132581490E+04  0.00000000000E+00 0. -1.
         25    1    1    2    0    0 -0.19089039563E+02  0.40335433188E+02 -0.70605050768E+03  0.71841746777E+03  0.12500000000E+03 0.  0.
         25    1    1    2    0    0 -0.23906560753E+02  0.16673683312E+03 -0.58098049184E+03  0.61768602628E+03  0.12500000000E+03 0.  0.
         25    1    1    2    0    0  0.42995600316E+02 -0.20707226631E+03 -0.16928243470E+04  0.17105574574E+04  0.12500000000E+03 0.  0.
</event>
<event>
 5    0  0.5851292E-005  0.3147401E+03  0.7546771E-02  0.1078096E+00
         21   -1    0    0  502  501  0.00000000000E+00  0.00000000000E+00  0.28652724513E+03  0.28652724513E+03  0.00000000000E+00 0. -1.
         21   -1    0    0  501  502 -0.00000000000E+00 -0.00000000000E+00 -0.34573092478E+03  0.34573092478E+03  0.00000000000E+00 0. -1.
         25    1    1    2    0    0 -0.10246593038E+03 -0.13174458475E+03 -0.72746891082E+01  0.20864760627E+03  0.12500000000E+03 0.  0.
         25    1    1    2    0    0  0.95963446649E+02 -0.39808566840E+02 -0.11839786021E+03  0.20108893154E+03  0.12500000000E+03 0.  0.
         25    1    1    2    0    0  0.65024837360E+01  0.17155315159E+03  0.66468869672E+02  0.22252163210E+03  0.12500000000E+03 0.  0.
</event>
<event>
 5    0  0.5851292E-005  0.3475409E+03  0.7546771E-02  0.1063629E+00
         21   -1    0    0  502  501  0.00000000000E+00  0.00000000000E+00  0.36971083741E+03  0.36971083741E+03  0.00000000000E+00 0.  1.
         21   -1    0    0  501  502 -0.00000000000E+00 -0.00000000000E+00 -0.32670032382E+03  0.32670032382E+03  0.00000000000E+00 0.  1.
         25    1    1    2    0    0 -0.17104093952E+03 -0.11633354018E+03  0.12878174509E+03  0.27385805343E+03  0.12500000000E+03 0.  0.
         25    1    1    2    0    0 -0.19799497039E+02  0.82057836461E+02 -0.11546658395E+03  0.18995536480E+03  0.12500000000E+03 0.  0.
         25    1    1    2    0    0  0.19084043656E+03  0.34275703718E+02  0.29695352454E+02  0.23259774300E+03  0.12500000000E+03 0.  0.
</event>
<event>
 5    0  0.5851292E-005  0.2815226E+03  0.7546771E-02  0.1094860E+00
         21   -1    0    0  502  501  0.00000000000E+00  0.00000000000E+00  0.22183891817E+03  0.22183891817E+03  0.00000000000E+00 0. -1.
         21   -1    0    0  501  502 -0.00000000000E+00 -0.00000000000E+00 -0.35726349424E+03  0.35726349424E+03  0.00000000000E+00 0. -1.
         25    1    1    2    0    0 -0.66258947815E+02  0.11317796251E+03  0.41179788234E+02  0.18579632484E+03  0.12500000000E+03 0.  0.
         25    1    1    2    0    0  0.28283501558E+02  0.41002011809E+02 -0.12743184554E+03  0.18532403161E+03  0.12500000000E+03 0.  0.
         25    1    1    2    0    0  0.37975446257E+02 -0.15417997432E+03 -0.49172518769E+02  0.20798205596E+03  0.12500000000E+03 0.  0.
</event>
<event>
 5    0  0.5851292E-005  0.2833304E+03  0.7546771E-02  0.1093884E+00
         21   -1    0    0  502  501  0.00000000000E+00  0.00000000000E+00  0.58888941114E+02  0.58888941114E+02  0.00000000000E+00 0.  1.
         21   -1    0    0  501  502 -0.00000000000E+00 -0.00000000000E+00 -0.13631776890E+04  0.13631776890E+04  0.00000000000E+00 0.  1.
         25    1    1    2    0    0  0.42275156295E+01 -0.11694741528E+03 -0.19749595252E+03  0.26138902252E+03  0.12500000000E+03 0.  0.
         25    1    1    2    0    0  0.46443495292E+02 -0.30299542529E+02 -0.30260569176E+03  0.33206966922E+03  0.12500000000E+03 0.  0.
         25    1    1    2    0    0 -0.50671010921E+02  0.14724695781E+03 -0.80418710362E+03  0.82860793839E+03  0.12500000000E+03 0.  0.
</event>
<event>
 5    0  0.5851292E-005  0.3502262E+03  0.7546771E-02  0.1062522E+00
         21   -1    0    0  502  501  0.00000000000E+00  0.00000000000E+00  0.12300893353E+04  0.12300893353E+04  0.00000000000E+00 0.  1.
         21   -1    0    0  501  502 -0.00000000000E+00 -0.00000000000E+00 -0.99715022289E+02  0.99715022289E+02  0.00000000000E+00 0.  1.
         25    1    1    2    0    0 -0.10316152935E+03 -0.16469637531E+02  0.23465792740E+03  0.28566220084E+03  0.12500000000E+03 0.  0.
         25    1    1    2    0    0 -0.15349875347E+03 -0.44500915232E+01  0.60321382860E+03  0.63488077121E+03  0.12500000000E+03 0.  0.
         25    1    1    2    0    0  0.25666028282E+03  0.20919729054E+02  0.29250255702E+03  0.40926138555E+03  0.12500000000E+03 0.  0.
</event>
<event>
 5    0  0.5851292E-005  0.2422558E+03  0.7546771E-02  0.1118299E+00
         21   -1    0    0  502  501  0.00000000000E+00  0.00000000000E+00  0.37632027284E+03  0.37632027284E+03  0.00000000000E+00 0.  1.
         21   -1    0    0  501  502 -0.00000000000E+00 -0.00000000000E+00 -0.15595194760E+03  0.15595194760E+03  0.00000000000E+00 0.  1.
         25    1    1    2    0    0 -0.97343499598E+02 -0.72539382871E+02  0.15481784174E+03  0.23309071861E+03  0.12500000000E+03 0.  0.
         25    1    1    2    0    0  0.30390894275E+02  0.53633380277E+02  0.70188904164E+02  0.15605008235E+03  0.12500000000E+03 0.  0.
         25    1    1    2    0    0  0.66952605323E+02  0.18906002594E+02 -0.46384206667E+01  0.14313141947E+03  0.12500000000E+03 0.  0.
</event>
<event>
 5    0  0.5851292E-005  0.3358792E+03  0.7546771E-02  0.1068565E+00
         21   -1    0    0  502  501  0.00000000000E+00  0.00000000000E+00  0.23303158587E+03  0.23303158587E+03  0.00000000000E+00 0. -1.
         21   -1    0    0  501  502 -0.00000000000E+00 -0.00000000000E+00 -0.48411832708E+03  0.48411832708E+03  0.00000000000E+00 0. -1.
         25    1    1    2    0    0  0.13921463391E+03  0.11766778898E+03  0.13177665945E+02  0.22141606477E+03  0.12500000000E+03 0.  0.
         25    1    1    2    0    0 -0.17752474955E+03 -0.21463271450E+02 -0.25145016830E+03  0.33290823940E+03  0.12500000000E+03 0.  0.
         25    1    1    2    0    0  0.38310115649E+02 -0.96204517532E+02 -0.12814238857E+02  0.16282560877E+03  0.12500000000E+03 0.  0.
</event>
<event>
 5    0  0.5851292E-005  0.3070829E+03  0.7546771E-02  0.1081753E+00
         21   -1    0    0  502  501  0.00000000000E+00  0.00000000000E+00  0.92578976557E+03  0.92578976557E+03  0.00000000000E+00 0. -1.
         21   -1    0    0  501  502 -0.00000000000E+00 -0.00000000000E+00 -0.10185886020E+03  0.10185886020E+03  0.00000000000E+00 0. -1.
         25    1    1    2    0    0 -0.14391932546E+03  0.96306609448E+02  0.30424020902E+03  0.37171876472E+03  0.12500000000E+03 0.  0.
         25    1    1    2    0    0  0.23608308035E+01  0.72555138583E+02  0.15567125379E+03  0.21243436848E+03  0.12500000000E+03 0.  0.
         25    1    1    2    0    0  0.14155849466E+03 -0.16886174803E+03  0.36401944257E+03  0.44349549256E+03  0.12500000000E+03 0.  0.
</event>
<event>
 5    0  0.5851292E-005  0.4768935E+03  0.7546771E-02  0.1019992E+00
         21   -1    0    0  502  501  0.00000000000E+00  0.00000000000E+00  0.15034072215E+04  0.15034072215E+04  0.00000000000E+00 0. -1.
         21   -1    0    0  501  502 -0.00000000000E+00 -0.00000000000E+00 -0.15127464195E+03  0.15127464195E+03  0.00000000000E+00 0. -1.
         25    1    1    2    0    0 -0.21153203788E+03  0.12504568603E+03  0.27164683389E+03  0.38703905359E+03  0.12500000000E+03 0.  0.
         25    1    1    2    0    0  0.30815045407E+03  0.75440617770E+02  0.87779963256E+03  0.94170334186E+03  0.12500000000E+03 0.  0.
         25    1    1    2    0    0 -0.96618416183E+02 -0.20048630380E+03  0.20268611310E+03  0.32593946800E+03  0.12500000000E+03 0.  0.
</event>
<event>
 5    0  0.5851292E-005  0.2658966E+03  0.7546771E-02  0.1103651E+00
         21   -1    0    0  502  501  0.00000000000E+00  0.00000000000E+00  0.13502830829E+04  0.13502830829E+04  0.00000000000E+00 0. -1.
         21   -1    0    0  501  502 -0.00000000000E+00 -0.00000000000E+00 -0.52360143444E+02  0.52360143444E+02  0.00000000000E+00 0. -1.
         25    1    1    2    0    0  0.32164652202E+02  0.11384145889E+03  0.89325417531E+03  0.90968261736E+03  0.12500000000E+03 0.  0.
         25    1    1    2    0    0 -0.38293943336E+02 -0.69390576718E+02  0.23059510133E+03  0.27400835570E+03  0.12500000000E+03 0.  0.
         25    1    1    2    0    0  0.61292911341E+01 -0.44450882176E+02  0.17407366282E+03  0.21895225330E+03  0.12500000000E+03 0.  0.
</event>
<event>
 5    0  0.5851292E-005  0.2510118E+03  0.7546771E-02  0.1112667E+00
         21   -1    0    0  502  501  0.00000000000E+00  0.00000000000E+00  0.45770596454E+03  0.45770596454E+03  0.00000000000E+00 0.  1.
         21   -1    0    0  501  502 -0.00000000000E+00 -0.00000000000E+00 -0.13765811680E+03  0.13765811680E+03  0.00000000000E+00 0.  1.
         25    1    1    2    0    0 -0.25379918739E+02  0.61190248138E+02 -0.95656169750E+01  0.14179170558E+03  0.12500000000E+03 0.  0.
         25    1    1    2    0    0  0.21181512009E+02 -0.38865019858E+02  0.29259560703E+03  0.32124186445E+03  0.12500000000E+03 0.  0.
         25    1    1    2    0    0  0.41984067297E+01 -0.22325228280E+02  0.37017857687E+02  0.13233051131E+03  0.12500000000E+03 0.  0.
</event>
<event>
 5    0  0.5851292E-005  0.2962067E+03  0.7546771E-02  0.1087152E+00
         21   -1    0    0  502  501  0.00000000000E+00  0.00000000000E+00  0.10061675603E+03  0.10061675603E+03  0.00000000000E+00 0.  1.
         21   -1    0    0  501  502 -0.00000000000E+00 -0.00000000000E+00 -0.87200611320E+03  0.87200611320E+03  0.00000000000E+00 0.  1.
         25    1    1    2    0    0  0.86212331785E+02  0.19815230860E+02 -0.51347445817E+03  0.53582294531E+03  0.12500000000E+03 0.  0.
         25    1    1    2    0    0 -0.71432549531E+02 -0.25687291557E+02 -0.27318852159E+03  0.30986999598E+03  0.12500000000E+03 0.  0.
         25    1    1    2    0    0 -0.14779782254E+02  0.58720606971E+01  0.15273622597E+02  0.12692992794E+03  0.12500000000E+03 0.  0.
</event>
<event>
 5    0  0.5851292E-005  0.2393044E+03  0.7546771E-02  0.1120257E+00
         21   -1    0    0  502  501  0.00000000000E+00  0.00000000000E+00  0.62442707931E+03  0.62442707931E+03  0.00000000000E+00 0. -1.
         21   -1    0    0  501  502 -0.00000000000E+00 -0.00000000000E+00 -0.91710593293E+02  0.91710593293E+02  0.00000000000E+00 0. -1.
         25    1    1    2    0    0  0.14981051757E+02 -0.43123408247E+02  0.39955041641E+03  0.42112895354E+03  0.12500000000E+03 0.  0.
         25    1    1    2    0    0 -0.17174128516E+02 -0.11066826682E+02  0.71490352515E+02  0.14544172663E+03  0.12500000000E+03 0.  0.
         25    1    1    2    0    0  0.21930767592E+01  0.54190234929E+02  0.61675717088E+02  0.14956699243E+03  0.12500000000E+03 0.  0.
</event>
<event>
 5    0  0.5851292E-005  0.2417378E+03  0.7546771E-02  0.1118641E+00
         21   -1    0    0  502  501  0.00000000000E+00  0.00000000000E+00  0.63266424883E+03  0.63266424883E+03  0.00000000000E+00 0.  1.
         21   -1    0    0  501  502 -0.00000000000E+00 -0.00000000000E+00 -0.92366799096E+02  0.92366799096E+02  0.00000000000E+00 0.  1.
         25    1    1    2    0    0 -0.29950559179E+02  0.79512878362E+02  0.10385080146E+03  0.18338299481E+03  0.12500000000E+03 0.  0.
         25    1    1    2    0    0 -0.41712741428E+02 -0.19194894806E+02  0.32065929251E+03  0.34721143221E+03  0.12500000000E+03 0.  0.
         25    1    1    2    0    0  0.71663300608E+02 -0.60317983556E+02  0.11578735576E+03  0.19443662090E+03  0.12500000000E+03 0.  0.
</event>
<event>
 5    0  0.5851292E-005  0.3712199E+03  0.7546771E-02  0.1054227E+00
         21   -1    0    0  502  501  0.00000000000E+00  0.00000000000E+00  0.18969354592E+03  0.18969354592E+03  0.00000000000E+00 0.  1.
         21   -1    0    0  501  502 -0.00000000000E+00 -0.00000000000E+00 -0.72645715055E+03  0.72645715055E+03  0.00000000000E+00 0.  1.
         25    1    1    2    0    0  0.74332976515E+02  0.21354620284E+03 -0.32527696049E+03  0.41540037695E+03  0.12500000000E+03 0.  0.
         25    1    1    2    0    0 -0.71248985226E+02  0.53365475192E+02 -0.11080752116E+03  0.18928179676E+03  0.12500000000E+03 0.  0.
         25    1    1    2    0    0 -0.30839912895E+01 -0.26691167803E+03 -0.10067912298E+03  0.31146852276E+03  0.12500000000E+03 0.  0.
</event>
<event>
 5    0  0.5851292E-005  0.3713467E+03  0.7546771E-02  0.1054179E+00
         21   -1    0    0  502  501  0.00000000000E+00  0.00000000000E+00  0.65779642159E+03  0.65779642159E+03  0.00000000000E+00 0. -1.
         21   -1    0    0  501  502 -0.00000000000E+00 -0.00000000000E+00 -0.20963683141E+03  0.20963683141E+03  0.00000000000E+00 0. -1.
         25    1    1    2    0    0  0.24431125451E+03  0.87086858259E+02  0.23375300094E+03  0.37086058757E+03  0.12500000000E+03 0.  0.
         25    1    1    2    0    0 -0.12564151892E+03  0.91649528365E+02  0.91116132277E+02  0.21934579296E+03  0.12500000000E+03 0.  0.
         25    1    1    2    0    0 -0.11866973558E+03 -0.17873638662E+03  0.12329045697E+03  0.27722687248E+03  0.12500000000E+03 0.  0.
</event>
<event>
 5    0  0.6244394E-005  0.3613167E+03  0.7546771E-02  0.1058064E+00
         21   -1    0    0  502  501  0.00000000000E+00  0.00000000000E+00  0.59327871082E+03  0.59327871082E+03  0.00000000000E+00 0.  1.
         21   -1    0    0  501  502 -0.00000000000E+00 -0.00000000000E+00 -0.22004795405E+03  0.22004795405E+03  0.00000000000E+00 0.  1.
         25    1    1    2    0    0 -0.10824908337E+03  0.59692479379E+02  0.96741703256E+02  0.20066143948E+03  0.12500000000E+03 0.  0.
         25    1    1    2    0    0  0.22736350580E+03  0.88003835334E+02  0.27139440764E+02  0.27531870268E+03  0.12500000000E+03 0.  0.
         25    1    1    2    0    0 -0.11911442242E+03 -0.14769631471E+03  0.24934961274E+03  0.33734652271E+03  0.12500000000E+03 0.  0.
</event>
<event>
 5    0  0.5851292E-005  0.2330665E+03  0.7546771E-02  0.1124500E+00
         21   -1    0    0  502  501  0.00000000000E+00  0.00000000000E+00  0.13745174165E+03  0.13745174165E+03  0.00000000000E+00 0.  1.
         21   -1    0    0  501  502 -0.00000000000E+00 -0.00000000000E+00 -0.39519318018E+03  0.39519318018E+03  0.00000000000E+00 0.  1.
         25    1    1    2    0    0  0.29135328184E+02 -0.21708570024E+02 -0.12587027153E+03  0.18107582560E+03  0.12500000000E+03 0.  0.
         25    1    1    2    0    0  0.26592117942E+02  0.10505310758E+03 -0.73535254129E+02  0.18104068534E+03  0.12500000000E+03 0.  0.
         25    1    1    2    0    0 -0.55727446127E+02 -0.83344537553E+02 -0.58335912860E+02  0.17052841089E+03  0.12500000000E+03 0.  0.
</event>
<event>
 5    0  0.5851292E-005  0.2840629E+03  0.7546771E-02  0.1093490E+00
         21   -1    0    0  502  501  0.00000000000E+00  0.00000000000E+00  0.15535669678E+04  0.15535669678E+04  0.00000000000E+00 0. -1.
         21   -1    0    0  501  502 -0.00000000000E+00 -0.00000000000E+00 -0.51939648417E+02  0.51939648417E+02  0.00000000000E+00 0. -1.
         25    1    1    2    0    0  0.11498737970E+03  0.24842114009E+02  0.90181863265E+03  0.91800929968E+03  0.12500000000E+03 0.  0.
         25    1    1    2    0    0 -0.99190928706E+02 -0.47351985748E+02  0.16551479114E+03  0.23473644152E+03  0.12500000000E+03 0.  0.
         25    1    1    2    0    0 -0.15796450998E+02  0.22509871739E+02  0.43429389561E+03  0.45276087502E+03  0.12500000000E+03 0.  0.
</event>
<event>
 5    0  0.5851292E-005  0.2536064E+03  0.7546771E-02  0.1111047E+00
         21   -1    0    0  502  501  0.00000000000E+00  0.00000000000E+00  0.51562123109E+03  0.51562123109E+03  0.00000000000E+00 0.  1.
         21   -1    0    0  501  502 -0.00000000000E+00 -0.00000000000E+00 -0.12473536763E+03  0.12473536763E+03  0.00000000000E+00 0.  1.
         25    1    1    2    0    0 -0.46329361819E+02 -0.53225493093E+02  0.66701833858E+02  0.15828296662E+03  0.12500000000E+03 0.  0.
         25    1    1    2    0    0 -0.57260508796E+02  0.48790877836E+02  0.27680502737E+03  0.31289828828E+03  0.12500000000E+03 0.  0.
         25    1    1    2    0    0  0.10358987061E+03  0.44346152564E+01  0.47379002232E+02  0.16917534383E+03  0.12500000000E+03 0.  0.
</event>
<event>
 5    0  0.5851292E-005  0.3962784E+03  0.7546771E-02  0.1045076E+00
         21   -1    0    0  502  501  0.00000000000E+00  0.00000000000E+00  0.50706297750E+03  0.50706297750E+03  0.00000000000E+00 0. -1.
         21   -1    0    0  501  502 -0.00000000000E+00 -0.00000000000E+00 -0.30969837376E+03  0.30969837376E+03  0.00000000000E+00 0. -1.
         25    1    1    2    0    0 -0.23262767552E+03  0.15475213454E+03  0.11020134784E+03  0.32532014329E+03  0.12500000000E+03 0.  0.
         25    1    1    2    0    0  0.12493946738E+03 -0.11953999057E+03 -0.10325670539E+03  0.23703718498E+03  0.12500000000E+03 0.  0.
         25    1    1    2    0    0  0.10768820814E+03 -0.35212143976E+02  0.19041996129E+03  0.25440402299E+03  0.12500000000E+03 0.  0.
</event>
<event>
 5    0  0.5851292E-005  0.3410526E+03  0.7546771E-02  0.1066349E+00
         21   -1    0    0  502  501  0.00000000000E+00  0.00000000000E+00  0.22153668135E+03  0.22153668135E+03  0.00000000000E+00 0. -1.
         21   -1    0    0  501  502 -0.00000000000E+00 -0.00000000000E+00 -0.52504560784E+03  0.52504560784E+03  0.00000000000E+00 0. -1.
         25    1    1    2    0    0  0.11570978188E+03 -0.10107638210E+03  0.10033894698E+03  0.22203173855E+03  0.12500000000E+03 0.  0.
         25    1    1    2    0    0 -0.11567763966E+03  0.58054091090E+01 -0.15577192803E+03  0.23087856690E+03  0.12500000000E+03 0.  0.
         25    1    1    2    0    0 -0.32142217105E-01  0.95270972991E+02 -0.24807594544E+03  0.29367198374E+03  0.12500000000E+03 0.  0.
</event>
<event>
 5    0  0.5851292E-005  0.2780785E+03  0.7546771E-02  0.1096743E+00
         21   -1    0    0  502  501  0.00000000000E+00  0.00000000000E+00  0.14022292744E+03  0.14022292744E+03  0.00000000000E+00 0. -1.
         21   -1    0    0  501  502 -0.00000000000E+00 -0.00000000000E+00 -0.55146217770E+03  0.55146217770E+03  0.00000000000E+00 0. -1.
         25    1    1    2    0    0 -0.26830267878E+02  0.19971848472E+02 -0.11978208593E+03  0.17632778033E+03  0.12500000000E+03 0.  0.
         25    1    1    2    0    0  0.35368327286E+02 -0.15874945369E+03 -0.52115458562E+02  0.21164434470E+03  0.12500000000E+03 0.  0.
         25    1    1    2    0    0 -0.85380594075E+01  0.13877760521E+03 -0.23934170577E+03  0.30371298011E+03  0.12500000000E+03 0.  0.
</event>
<event>
 5    0  0.6037229E-005  0.2965034E+03  0.7546771E-02  0.1087002E+00
         21   -1    0    0  502  501  0.00000000000E+00  0.00000000000E+00  0.24915182913E+03  0.24915182913E+03  0.00000000000E+00 0.  1.
         21   -1    0    0  501  502 -0.00000000000E+00 -0.00000000000E+00 -0.35285426173E+03  0.35285426173E+03  0.00000000000E+00 0.  1.
         25    1    1    2    0    0  0.75267924158E+02  0.84455931263E+02  0.12972395797E+03  0.21272369404E+03  0.12500000000E+03 0.  0.
         25    1    1    2    0    0  0.22329494103E+02 -0.83231707112E+02 -0.97744209471E+02  0.18056869568E+03  0.12500000000E+03 0.  0.
         25    1    1    2    0    0 -0.97597418262E+02 -0.12242241511E+01 -0.13568218111E+03  0.20871370114E+03  0.12500000000E+03 0.  0.
</event>
<event>
 5    0  0.5851292E-005  0.3410336E+03  0.7546771E-02  0.1066357E+00
         21   -1    0    0  502  501  0.00000000000E+00  0.00000000000E+00  0.74681583992E+03  0.74681583992E+03  0.00000000000E+00 0. -1.
         21   -1    0    0  501  502 -0.00000000000E+00 -0.00000000000E+00 -0.15573303816E+03  0.15573303816E+03  0.00000000000E+00 0. -1.
         25    1    1    2    0    0  0.28911488743E+01  0.25589027745E+03  0.12806189065E+03  0.31227078101E+03  0.12500000000E+03 0.  0.
         25    1    1    2    0    0  0.59611742211E+00 -0.10197220789E+03  0.15351809457E+03  0.22269147245E+03  0.12500000000E+03 0.  0.
         25    1    1    2    0    0 -0.34872662964E+01 -0.15391806955E+03  0.30950281653E+03  0.36758662463E+03  0.12500000000E+03 0.  0.
</event>
<event>
 5    0  0.5851292E-005  0.3288740E+03  0.7546771E-02  0.1071636E+00
         21   -1    0    0  502  501  0.00000000000E+00  0.00000000000E+00  0.19001053784E+03  0.19001053784E+03  0.00000000000E+00 0. -1.
         21   -1    0    0  501  502 -0.00000000000E+00 -0.00000000000E+00 -0.56922165617E+03  0.56922165617E+03  0.00000000000E+00 0. -1.
         25    1    1    2    0    0  0.12370602830E+03  0.11380871585E+02 -0.12666438565E+03  0.21702896643E+03  0.12500000000E+03 0.  0.
         25    1    1    2    0    0  0.18093573596E+02  0.10479453664E+03  0.45809142860E+02  0.17038999350E+03  0.12500000000E+03 0.  0.
         25    1    1    2    0    0 -0.14179960190E+03 -0.11617540822E+03 -0.29835587554E+03  0.37181323409E+03  0.12500000000E+03 0.  0.
</event>
<event>
 5    0  0.5851292E-005  0.3349556E+03  0.7546771E-02  0.1068965E+00
         21   -1    0    0  502  501  0.00000000000E+00  0.00000000000E+00  0.15477053727E+03  0.15477053727E+03  0.00000000000E+00 0. -1.
         21   -1    0    0  501  502 -0.00000000000E+00 -0.00000000000E+00 -0.72491330336E+03  0.72491330336E+03  0.00000000000E+00 0. -1.
         25    1    1    2    0    0  0.19282390501E+03  0.10032521964E+02 -0.25716384956E+03  0.34502167376E+03  0.12500000000E+03 0.  0.
         25    1    1    2    0    0 -0.11673132017E+02 -0.13084201772E+03 -0.15002171488E+03  0.23534530067E+03  0.12500000000E+03 0.  0.
         25    1    1    2    0    0 -0.18115077299E+03  0.12080949576E+03 -0.16295720166E+03  0.29931686620E+03  0.12500000000E+03 0.  0.
</event>
<event>
 5    0  0.5851292E-005  0.3018657E+03  0.7546771E-02  0.1084312E+00
         21   -1    0    0  502  501  0.00000000000E+00  0.00000000000E+00  0.13176161898E+03  0.13176161898E+03  0.00000000000E+00 0.  1.
         21   -1    0    0  501  502 -0.00000000000E+00 -0.00000000000E+00 -0.69157393540E+03  0.69157393540E+03  0.00000000000E+00 0.  1.
         25    1    1    2    0    0 -0.46136499187E+02 -0.59870138596E+02 -0.61909895557E+02  0.15865322316E+03  0.12500000000E+03 0.  0.
         25    1    1    2    0    0  0.56608640857E+02 -0.34482183571E+02 -0.48723062573E+03  0.50735810021E+03  0.12500000000E+03 0.  0.
         25    1    1    2    0    0 -0.10472141671E+02  0.94352322166E+02 -0.10671795134E+02  0.15732423100E+03  0.12500000000E+03 0.  0.
</event>
<event>
 5    0  0.5851292E-005  0.2850182E+03  0.7546771E-02  0.1092979E+00
         21   -1    0    0  502  501  0.00000000000E+00  0.00000000000E+00  0.15600171653E+04  0.15600171653E+04  0.00000000000E+00 0.  1.
         21   -1    0    0  501  502 -0.00000000000E+00 -0.00000000000E+00 -0.52073375096E+02  0.52073375096E+02  0.00000000000E+00 0.  1.
         25    1    1    2    0    0 -0.95513158713E+02  0.49650922558E+02  0.32417817548E+03  0.36373681015E+03  0.12500000000E+03 0.  0.
         25    1    1    2    0    0  0.36071450224E+02 -0.16354128306E+03  0.51006026935E+03  0.55121083004E+03  0.12500000000E+03 0.  0.
         25    1    1    2    0    0  0.59441708489E+02  0.11389036050E+03  0.67370534532E+03  0.69714290015E+03  0.12500000000E+03 0.  0.
</event>
<event>
 5    0  0.5851292E-005  0.4271506E+03  0.7546771E-02  0.1034764E+00
         21   -1    0    0  502  501  0.00000000000E+00  0.00000000000E+00  0.39666175394E+03  0.39666175394E+03  0.00000000000E+00 0.  1.
         21   -1    0    0  501  502 -0.00000000000E+00 -0.00000000000E+00 -0.45998292896E+03  0.45998292896E+03  0.00000000000E+00 0.  1.
         25    1    1    2    0    0  0.13613277484E+03  0.24236916798E+03 -0.36833477224E+01  0.30481717967E+03  0.12500000000E+03 0.  0.
         25    1    1    2    0    0  0.13024277409E+03 -0.85240161227E+02  0.40185241215E+02  0.20363918803E+03  0.12500000000E+03 0.  0.
         25    1    1    2    0    0 -0.26637554894E+03 -0.15712900675E+03 -0.99823068508E+02  0.34818831520E+03  0.12500000000E+03 0.  0.
</event>
<event>
 5    0  0.5851292E-005  0.4380019E+03  0.7546771E-02  0.1031362E+00
         21   -1    0    0  502  501  0.00000000000E+00  0.00000000000E+00  0.30043738059E+03  0.30043738059E+03  0.00000000000E+00 0. -1.
         21   -1    0    0  501  502 -0.00000000000E+00 -0.00000000000E+00 -0.63855465992E+03  0.63855465992E+03  0.00000000000E+00 0. -1.
         25    1    1    2    0    0  0.17283111242E+03 -0.93226886949E+02  0.13869550873E+03  0.27096732277E+03  0.12500000000E+03 0.  0.
         25    1    1    2    0    0 -0.67382842934E+02  0.13708017231E+03 -0.45669310002E+03  0.49751885268E+03  0.12500000000E+03 0.  0.
         25    1    1    2    0    0 -0.10544826948E+03 -0.43853285357E+02 -0.20119688033E+02  0.17050586506E+03  0.12500000000E+03 0.  0.
</event>
<event>
 5    0  0.5851292E-005  0.3230737E+03  0.7546771E-02  0.1074243E+00
         21   -1    0    0  502  501  0.00000000000E+00  0.00000000000E+00  0.37090703288E+03  0.37090703288E+03  0.00000000000E+00 0.  1.
         21   -1    0    0  501  502 -0.00000000000E+00 -0.00000000000E+00 -0.28140912440E+03  0.28140912440E+03  0.00000000000E+00 0.  1.
         25    1    1    2    0    0  0.61606860648E+02 -0.13156865154E+03 -0.80388238791E+02  0.20782921903E+03  0.12500000000E+03 0.  0.
         25    1    1    2    0    0  0.17595860126E+02  0.16418586606E+03  0.20231697803E+03  0.28952335399E+03  0.12500000000E+03 0.  0.
         25    1    1    2    0    0 -0.79202720773E+02 -0.32617214521E+02 -0.32430830761E+02  0.15496358425E+03  0.12500000000E+03 0.  0.
</event>
<event>
 5    0  0.5851292E-005  0.2721430E+03  0.7546771E-02  0.1100059E+00
         21   -1    0    0  502  501  0.00000000000E+00  0.00000000000E+00  0.45780863963E+02  0.45780863963E+02  0.00000000000E+00 0. -1.
         21   -1    0    0  501  502 -0.00000000000E+00 -0.00000000000E+00 -0.16177456735E+04  0.16177456735E+04  0.00000000000E+00 0. -1.
         25    1    1    2    0    0  0.11953465689E+03  0.58900328493E+01 -0.90976494667E+03  0.92607801231E+03  0.12500000000E+03 0.  0.
         25    1    1    2    0    0 -0.19166210295E+02  0.32048045105E+02 -0.45163268992E+03  0.47009733824E+03  0.12500000000E+03 0.  0.
         25    1    1    2    0    0 -0.10036844659E+03 -0.37938077955E+02 -0.21056717298E+03  0.26735118696E+03  0.12500000000E+03 0.  0.
</event>
<event>
 5    0  0.5851292E-005  0.3305366E+03  0.7546771E-02  0.1070900E+00
         21   -1    0    0  502  501  0.00000000000E+00  0.00000000000E+00  0.16662707825E+04  0.16662707825E+04  0.00000000000E+00 0.  1.
         21   -1    0    0  501  502 -0.00000000000E+00 -0.00000000000E+00 -0.65568237302E+02  0.65568237302E+02  0.00000000000E+00 0.  1.
         25    1    1    2    0    0 -0.31319998885E+02  0.18338289389E+03  0.82516213647E+03  0.85506010289E+03  0.12500000000E+03 0.  0.
         25    1    1    2    0    0  0.60881879085E+02 -0.18164430090E+03  0.26381980653E+03  0.34918067754E+03  0.12500000000E+03 0.  0.
         25    1    1    2    0    0 -0.29561880200E+02 -0.17385929868E+01  0.51172060216E+03  0.52759823933E+03  0.12500000000E+03 0.  0.
</event>
<event>
 5    0  0.5851292E-005  0.3519630E+03  0.7546771E-02  0.1061812E+00
         21   -1    0    0  502  501  0.00000000000E+00  0.00000000000E+00  0.12198858085E+03  0.12198858085E+03  0.00000000000E+00 0.  1.
         21   -1    0    0  501  502 -0.00000000000E+00 -0.00000000000E+00 -0.10154878403E+04  0.10154878403E+04  0.00000000000E+00 0.  1.
         25    1    1    2    0    0  0.38376974000E+02 -0.12684011010E+02 -0.60682410636E+03  0.62088177001E+03  0.12500000000E+03 0.  0.
         25    1    1    2    0    0  0.86844394798E+02 -0.11950013468E+03 -0.66194299642E+02  0.20452118815E+03  0.12500000000E+03 0.  0.
         25    1    1    2    0    0 -0.12522136880E+03  0.13218414569E+03 -0.22048085349E+03  0.31207346304E+03  0.12500000000E+03 0.  0.
</event>
<event>
 5    0  0.5851292E-005  0.2416727E+03  0.7546771E-02  0.1118684E+00
         21   -1    0    0  502  501  0.00000000000E+00  0.00000000000E+00  0.75925586265E+03  0.75925586265E+03  0.00000000000E+00 0. -1.
         21   -1    0    0  501  502 -0.00000000000E+00 -0.00000000000E+00 -0.76924904352E+02  0.76924904352E+02  0.00000000000E+00 0. -1.
         25    1    1    2    0    0 -0.13623783415E+02  0.62959828683E+02  0.10682642017E+03  0.17659680504E+03  0.12500000000E+03 0.  0.
         25    1    1    2    0    0 -0.40368088326E+02 -0.10882921497E+03  0.38389643653E+03  0.42008910313E+03  0.12500000000E+03 0.  0.
         25    1    1    2    0    0  0.53991871741E+02  0.45869386285E+02  0.19160810159E+03  0.23949485883E+03  0.12500000000E+03 0.  0.
</event>
<event>
 5    0  0.5851292E-005  0.2156671E+03  0.7546771E-02  0.1137155E+00
         21   -1    0    0  502  501  0.00000000000E+00  0.00000000000E+00  0.20668698428E+04  0.20668698428E+04  0.00000000000E+00 0. -1.
         21   -1    0    0  501  502 -0.00000000000E+00 -0.00000000000E+00 -0.22503739756E+02  0.22503739756E+02  0.00000000000E+00 0. -1.
         25    1    1    2    0    0  0.17840905576E+02 -0.37266021762E+02  0.75262695626E+03  0.76405457238E+03  0.12500000000E+03 0.  0.
         25    1    1    2    0    0 -0.35356145439E+02  0.84545408679E+02  0.54948068328E+03  0.57092206513E+03  0.12500000000E+03 0.  0.
         25    1    1    2    0    0  0.17515239863E+02 -0.47279386918E+02  0.74225846348E+03  0.75439694502E+03  0.12500000000E+03 0.  0.
</event>
<event>
 5    0  0.5851292E-005  0.3972558E+03  0.7546771E-02  0.1044734E+00
         21   -1    0    0  502  501  0.00000000000E+00  0.00000000000E+00  0.25664992993E+03  0.25664992993E+03  0.00000000000E+00 0. -1.
         21   -1    0    0  501  502 -0.00000000000E+00 -0.00000000000E+00 -0.61489274997E+03  0.61489274997E+03  0.00000000000E+00 0. -1.
         25    1    1    2    0    0 -0.19625568094E+03 -0.12271763901E+03 -0.11030157162E+03  0.28524962388E+03  0.12500000000E+03 0.  0.
         25    1    1    2    0    0  0.18506299296E+03  0.25557693263E+03 -0.21158164035E+03  0.39994958481E+03  0.12500000000E+03 0.  0.
         25    1    1    2    0    0  0.11192687975E+02 -0.13285929362E+03 -0.36359608074E+02  0.18634347121E+03  0.12500000000E+03 0.  0.
</event>
<event>
 5    0  0.5851292E-005  0.3166654E+03  0.7546771E-02  0.1077194E+00
         21   -1    0    0  502  501  0.00000000000E+00  0.00000000000E+00  0.48308210002E+03  0.48308210002E+03  0.00000000000E+00 0.  1.
         21   -1    0    0  501  502 -0.00000000000E+00 -0.00000000000E+00 -0.20757755542E+03  0.20757755542E+03  0.00000000000E+00 0.  1.
         25    1    1    2    0    0 -0.11381320080E+03  0.20349445096E+03  0.82768909253E+02  0.27719871678E+03  0.12500000000E+03 0.  0.
         25    1    1    2    0    0  0.11880275313E+03 -0.13291100787E+03  0.14705130638E+03  0.26273278606E+03  0.12500000000E+03 0.  0.
         25    1    1    2    0    0 -0.49895523366E+01 -0.70583443089E+02  0.45684328967E+02  0.15072815259E+03  0.12500000000E+03 0.  0.
</event>
<event>
 5    0  0.5851292E-005  0.4526742E+03  0.7546771E-02  0.1026928E+00
         21   -1    0    0  502  501  0.00000000000E+00  0.00000000000E+00  0.12359447239E+04  0.12359447239E+04  0.00000000000E+00 0.  1.
         21   -1    0    0  501  502 -0.00000000000E+00 -0.00000000000E+00 -0.16579536838E+03  0.16579536838E+03  0.00000000000E+00 0.  1.
         25    1    1    2    0    0  0.47370498940E+02 -0.40544882374E+02  0.37625114185E+03  0.40134495561E+03  0.12500000000E+03 0.  0.
         25    1    1    2    0    0  0.22351728426E+03 -0.11059175038E+03  0.62463458514E+02  0.28586219629E+03  0.12500000000E+03 0.  0.
         25    1    1    2    0    0 -0.27088778321E+03  0.15113663276E+03  0.63143475514E+03  0.71453294036E+03  0.12500000000E+03 0.  0.
</event>
<event>
 5    0  0.5851292E-005  0.3378167E+03  0.7546771E-02  0.1067730E+00
         21   -1    0    0  502  501  0.00000000000E+00  0.00000000000E+00  0.85783120613E+03  0.85783120613E+03  0.00000000000E+00 0.  1.
         21   -1    0    0  501  502 -0.00000000000E+00 -0.00000000000E+00 -0.13303332513E+03  0.13303332513E+03  0.00000000000E+00 0.  1.
         25    1    1    2    0    0 -0.11655292500E+03 -0.29426032092E+02  0.34391845815E+03  0.38516928947E+03  0.12500000000E+03 0.  0.
         25    1    1    2    0    0 -0.59205656882E+02 -0.50739510546E+02 -0.14707956015E+02  0.14805786608E+03  0.12500000000E+03 0.  0.
         25    1    1    2    0    0  0.17575858189E+03  0.80165542638E+02  0.39558737886E+03  0.45763737571E+03  0.12500000000E+03 0.  0.
</event>
<event>
 5    0  0.5851292E-005  0.2829178E+03  0.7546771E-02  0.1094106E+00
         21   -1    0    0  502  501  0.00000000000E+00  0.00000000000E+00  0.80613679790E+02  0.80613679790E+02  0.00000000000E+00 0.  1.
         21   -1    0    0  501  502 -0.00000000000E+00 -0.00000000000E+00 -0.99291428116E+03  0.99291428116E+03  0.00000000000E+00 0.  1.
         25    1    1    2    0    0  0.48166854040E+02 -0.11291193078E+03 -0.10428994331E+03  0.20388855342E+03  0.12500000000E+03 0.  0.
         25    1    1    2    0    0 -0.84741480704E+02  0.25213629440E+02 -0.51413107210E+03  0.53644440994E+03  0.12500000000E+03 0.  0.
         25    1    1    2    0    0  0.36574626664E+02  0.87698301336E+02 -0.29387958596E+03  0.33319499759E+03  0.12500000000E+03 0.  0.
</event>
<event>
 5    0  0.5851292E-005  0.4053053E+03  0.7546771E-02  0.1041958E+00
         21   -1    0    0  502  501  0.00000000000E+00  0.00000000000E+00  0.10299002574E+04  0.10299002574E+04  0.00000000000E+00 0. -1.
         21   -1    0    0  501  502 -0.00000000000E+00 -0.00000000000E+00 -0.15950322703E+03  0.15950322703E+03  0.00000000000E+00 0. -1.
         25    1    1    2    0    0 -0.19049574749E+03  0.67107872721E+02  0.57340241691E+03  0.62065081012E+03  0.12500000000E+03 0.  0.
         25    1    1    2    0    0 -0.70707878847E+02 -0.12270035371E+03  0.95852804219E+02  0.21182006753E+03  0.12500000000E+03 0.  0.
         25    1    1    2    0    0  0.26120362634E+03  0.55592480985E+02  0.20114180923E+03  0.35693260677E+03  0.12500000000E+03 0.  0.
</event>
<event>
 5    0  0.5851292E-005  0.2367974E+03  0.7546771E-02  0.1121945E+00
         21   -1    0    0  502  501  0.00000000000E+00  0.00000000000E+00  0.77755255726E+03  0.77755255726E+03  0.00000000000E+00 0.  1.
         21   -1    0    0  501  502 -0.00000000000E+00 -0.00000000000E+00 -0.72114721929E+02  0.72114721929E+02  0.00000000000E+00 0.  1.
         25    1    1    2    0    0  0.81016288188E+02  0.66290727533E+02  0.28194832002E+03  0.32569610786E+03  0.12500000000E+03 0.  0.
         25    1    1    2    0    0 -0.58360762651E+02  0.37583311607E+02  0.17183567264E+03  0.22354190283E+03  0.12500000000E+03 0.  0.
         25    1    1    2    0    0 -0.22655525537E+02 -0.10387403914E+03  0.25165384266E+03  0.30042926850E+03  0.12500000000E+03 0.  0.
</event>
<event>
 5    0  0.5851292E-005  0.4202019E+03  0.7546771E-02  0.1037001E+00
         21   -1    0    0  502  501  0.00000000000E+00  0.00000000000E+00  0.21147280526E+03  0.21147280526E+03  0.00000000000E+00 0. -1.
         21   -1    0    0  501  502 -0.00000000000E+00 -0.00000000000E+00 -0.83495179373E+03  0.83495179373E+03  0.00000000000E+00 0. -1.
         25    1    1    2    0    0 -0.25543444392E+03  0.88289502244E+02 -0.30479696052E+03  0.42610794230E+03  0.12500000000E+03 0.  0.
         25    1    1    2    0    0  0.81782633470E+02  0.32524560206E+02 -0.34088947833E+03  0.37359989640E+03  0.12500000000E+03 0.  0.
         25    1    1    2    0    0  0.17365181045E+03 -0.12081406245E+03  0.22207450384E+02  0.24671676030E+03  0.12500000000E+03 0.  0.
</event>
<event>
 5    0  0.5851292E-005  0.3894519E+03  0.7546771E-02  0.1047495E+00
         21   -1    0    0  502  501  0.00000000000E+00  0.00000000000E+00  0.14248640254E+04  0.14248640254E+04  0.00000000000E+00 0. -1.
         21   -1    0    0  501  502 -0.00000000000E+00 -0.00000000000E+00 -0.10644721658E+03  0.10644721658E+03  0.00000000000E+00 0. -1.
         25    1    1    2    0    0 -0.83236629248E+02 -0.11982387761E+03  0.32206463495E+03  0.37501563591E+03  0.12500000000E+03 0.  0.
         25    1    1    2    0    0 -0.14087258013E+03 -0.88734103536E+02  0.62643733953E+03  0.66012693122E+03  0.12500000000E+03 0.  0.
         25    1    1    2    0    0  0.22410920938E+03  0.20855798114E+03  0.36991483429E+03  0.49616867481E+03  0.12500000000E+03 0.  0.
</event>
<event>
 5    0  0.5851292E-005  0.4823515E+03  0.7546771E-02  0.1018491E+00
         21   -1    0    0  502  501  0.00000000000E+00  0.00000000000E+00  0.41311005859E+03  0.41311005859E+03  0.00000000000E+00 0.  1.
         21   -1    0    0  501  502 -0.00000000000E+00 -0.00000000000E+00 -0.56319841381E+03  0.56319841381E+03  0.00000000000E+00 0.  1.
         25    1    1    2    0    0 -0.27195570882E+03 -0.20021094416E+03  0.18496483401E+03  0.40482257785E+03  0.12500000000E+03 0.  0.
         25    1    1    2    0    0  0.13309821641E+03  0.39436500990E+02 -0.24713195291E+03  0.30978956563E+03  0.12500000000E+03 0.  0.
         25    1    1    2    0    0  0.13885749241E+03  0.16077444317E+03 -0.87921236315E+02  0.26169632892E+03  0.12500000000E+03 0.  0.
</event>
<event>
 5    0  0.5851292E-005  0.2766836E+03  0.7546771E-02  0.1097514E+00
         21   -1    0    0  502  501  0.00000000000E+00  0.00000000000E+00  0.40664849598E+03  0.40664849598E+03  0.00000000000E+00 0.  1.
         21   -1    0    0  501  502 -0.00000000000E+00 -0.00000000000E+00 -0.18825551884E+03  0.18825551884E+03  0.00000000000E+00 0.  1.
         25    1    1    2    0    0 -0.36413267720E+02 -0.55615880407E+02  0.75977120853E+02  0.16067537183E+03  0.12500000000E+03 0.  0.
         25    1    1    2    0    0  0.82256249623E+02  0.15714164828E+03  0.40607564206E+01  0.21702782764E+03  0.12500000000E+03 0.  0.
         25    1    1    2    0    0 -0.45842981903E+02 -0.10152576787E+03  0.13835509987E+03  0.21720081536E+03  0.12500000000E+03 0.  0.
</event>
<event>
 5    0  0.5851292E-005  0.3309823E+03  0.7546771E-02  0.1070703E+00
         21   -1    0    0  502  501  0.00000000000E+00  0.00000000000E+00  0.37361069667E+03  0.37361069667E+03  0.00000000000E+00 0. -1.
         21   -1    0    0  501  502 -0.00000000000E+00 -0.00000000000E+00 -0.29321779973E+03  0.29321779973E+03  0.00000000000E+00 0.  1.
         25    1    1    2    0    0 -0.74277481960E+01 -0.22375260759E+03 -0.69008934475E+02  0.26553273599E+03  0.12500000000E+03 0.  0.
         25    1    1    2    0    0 -0.71538002847E+02  0.14345234920E+03  0.95736652051E+02  0.22469260978E+03  0.12500000000E+03 0.  0.
         25    1    1    2    0    0  0.78965751043E+02  0.80300258391E+02  0.53665179368E+02  0.17660315063E+03  0.12500000000E+03 0.  0.
</event>
<event>
 5    0  0.5959904E-005  0.5331165E+03  0.7546771E-02  0.1005479E+00
         21   -1    0    0  502  501  0.00000000000E+00  0.00000000000E+00  0.47473585146E+03  0.47473585146E+03  0.00000000000E+00 0.  1.
         21   -1    0    0  501  502 -0.00000000000E+00 -0.00000000000E+00 -0.59867649102E+03  0.59867649102E+03  0.00000000000E+00 0.  1.
         25    1    1    2    0    0  0.99705692396E+02 -0.26382447535E+03  0.12856694543E+03  0.33421406066E+03  0.12500000000E+03 0.  0.
         25    1    1    2    0    0 -0.30753211119E+03  0.20694599008E+03 -0.96565870109E+01  0.39130664688E+03  0.12500000000E+03 0.  0.
         25    1    1    2    0    0  0.20782641879E+03  0.56878485268E+02 -0.24285099799E+03  0.34789163493E+03  0.12500000000E+03 0.  0.
</event>
<event>
 5    0  0.5851292E-005  0.2663029E+03  0.7546771E-02  0.1103414E+00
         21   -1    0    0  502  501  0.00000000000E+00  0.00000000000E+00  0.40772674421E+03  0.40772674421E+03  0.00000000000E+00 0.  1.
         21   -1    0    0  501  502 -0.00000000000E+00 -0.00000000000E+00 -0.17393324978E+03  0.17393324978E+03  0.00000000000E+00 0.  1.
         25    1    1    2    0    0  0.24699423122E+02  0.73630257026E+02  0.81931417390E+02  0.16843168766E+03  0.12500000000E+03 0.  0.
         25    1    1    2    0    0  0.11032181125E+03  0.34557985304E+02  0.55964193748E+02  0.17922652529E+03  0.12500000000E+03 0.  0.
         25    1    1    2    0    0 -0.13502123437E+03 -0.10818824233E+03  0.95897883298E+02  0.23400178104E+03  0.12500000000E+03 0.  0.
</event>
<event>
 5    0  0.5851292E-005  0.2539620E+03  0.7546771E-02  0.1110826E+00
         21   -1    0    0  502  501  0.00000000000E+00  0.00000000000E+00  0.10434077891E+03  0.10434077891E+03  0.00000000000E+00 0. -1.
         21   -1    0    0  501  502 -0.00000000000E+00 -0.00000000000E+00 -0.61813486035E+03  0.61813486035E+03  0.00000000000E+00 0. -1.
         25    1    1    2    0    0  0.15735530226E+02 -0.13090212568E+03 -0.21409643220E+03  0.28079397376E+03  0.12500000000E+03 0.  0.
         25    1    1    2    0    0 -0.70898562900E+02  0.11948423597E+03 -0.16136441594E+03  0.24691408141E+03  0.12500000000E+03 0.  0.
         25    1    1    2    0    0  0.55163032675E+02  0.11417889710E+02 -0.13833323330E+03  0.19476758410E+03  0.12500000000E+03 0.  0.
</event>
<event>
 5    0  0.5851292E-005  0.2932625E+03  0.7546771E-02  0.1088658E+00
         21   -1    0    0  502  501  0.00000000000E+00  0.00000000000E+00  0.12709059498E+03  0.12709059498E+03  0.00000000000E+00 0.  1.
         21   -1    0    0  501  502 -0.00000000000E+00 -0.00000000000E+00 -0.67670551415E+03  0.67670551415E+03  0.00000000000E+00 0.  1.
         25    1    1    2    0    0  0.27882551704E+02 -0.11712271776E+02  0.28652798293E+02  0.13175961767E+03  0.12500000000E+03 0.  0.
         25    1    1    2    0    0  0.28281767997E+02  0.10900027812E+03 -0.35242044239E+03  0.39052027764E+03  0.12500000000E+03 0.  0.
         25    1    1    2    0    0 -0.56164319701E+02 -0.97288006345E+02 -0.22584727508E+03  0.28151621382E+03  0.12500000000E+03 0.  0.
</event>
<event>
 5    0  0.5851292E-005  0.3555953E+03  0.7546771E-02  0.1060342E+00
         21   -1    0    0  502  501  0.00000000000E+00  0.00000000000E+00  0.12518149231E+04  0.12518149231E+04  0.00000000000E+00 0. -1.
         21   -1    0    0  501  502 -0.00000000000E+00 -0.00000000000E+00 -0.10101176640E+03  0.10101176640E+03  0.00000000000E+00 0. -1.
         25    1    1    2    0    0 -0.12899376033E+03 -0.85517756102E+02  0.34325252354E+03  0.39673665287E+03  0.12500000000E+03 0.  0.
         25    1    1    2    0    0 -0.96261331164E+02  0.17527758377E+03  0.42803315934E+03  0.48869812844E+03  0.12500000000E+03 0.  0.
         25    1    1    2    0    0  0.22525509149E+03 -0.89759827663E+02  0.37951747383E+03  0.46739190820E+03  0.12500000000E+03 0.  0.
</event>
<event>
 5    0  0.5851292E-005  0.3504861E+03  0.7546771E-02  0.1062416E+00
         21   -1    0    0  502  501  0.00000000000E+00  0.00000000000E+00  0.22498378059E+03  0.22498378059E+03  0.00000000000E+00 0.  1.
         21   -1    0    0  501  502 -0.00000000000E+00 -0.00000000000E+00 -0.54599710968E+03  0.54599710968E+03  0.00000000000E+00 0.  1.
         25    1    1    2    0    0  0.69133004428E+02 -0.20586982106E+03  0.39849336201E+02  0.25372174743E+03  0.12500000000E+03 0.  0.
         25    1    1    2    0    0 -0.40332778512E+02  0.12143299012E+03 -0.77476451547E+02  0.19493666832E+03  0.12500000000E+03 0.  0.
         25    1    1    2    0    0 -0.28800225916E+02  0.84436830939E+02 -0.28338621375E+03  0.32232247451E+03  0.12500000000E+03 0.  0.
</event>
<event>
 5    0  0.5851292E-005  0.3053484E+03  0.7546771E-02  0.1082597E+00
         21   -1    0    0  502  501  0.00000000000E+00  0.00000000000E+00  0.73125846754E+03  0.73125846754E+03  0.00000000000E+00 0.  1.
         21   -1    0    0  501  502 -0.00000000000E+00 -0.00000000000E+00 -0.12750298660E+03  0.12750298660E+03  0.00000000000E+00 0.  1.
         25    1    1    2    0    0  0.70671036955E+02  0.17382253900E+03  0.40217150937E+03  0.46105920821E+03  0.12500000000E+03 0.  0.
         25    1    1    2    0    0 -0.73855853178E+02 -0.70039365200E+02  0.16592562003E+03  0.23133635925E+03  0.12500000000E+03 0.  0.
         25    1    1    2    0    0  0.31848162227E+01 -0.10378317380E+03  0.35658351543E+02  0.16636588669E+03  0.12500000000E+03 0.  0.
</event>
<event>
 5    0  0.5851292E-005  0.3740418E+03  0.7546771E-02  0.1053158E+00
         21   -1    0    0  502  501  0.00000000000E+00  0.00000000000E+00  0.14848790870E+03  0.14848790870E+03  0.00000000000E+00 0.  1.
         21   -1    0    0  501  502 -0.00000000000E+00 -0.00000000000E+00 -0.94221297986E+03  0.94221297986E+03  0.00000000000E+00 0.  1.
         25    1    1    2    0    0 -0.13944724775E+03 -0.12578735842E+03 -0.17810021333E+03  0.28742421685E+03  0.12500000000E+03 0.  0.
         25    1    1    2    0    0 -0.20431445661E+02  0.17235097399E+03 -0.54158063829E+03  0.58228591773E+03  0.12500000000E+03 0.  0.
         25    1    1    2    0    0  0.15987869341E+03 -0.46563615567E+02 -0.74044219539E+02  0.22099075399E+03  0.12500000000E+03 0.  0.
</event>
<event>
 5    0  0.5851292E-005  0.3825800E+03  0.7546771E-02  0.1049984E+00
         21   -1    0    0  502  501  0.00000000000E+00  0.00000000000E+00  0.28812242161E+03  0.28812242161E+03  0.00000000000E+00 0.  1.
         21   -1    0    0  501  502 -0.00000000000E+00 -0.00000000000E+00 -0.50800446242E+03  0.50800446242E+03  0.00000000000E+00 0.  1.
         25    1    1    2    0    0 -0.78641495956E+02  0.34061624576E+02 -0.34410073842E+02  0.15541471081E+03  0.12500000000E+03 0.  0.
         25    1    1    2    0    0  0.17949144143E+03  0.20180349281E+03 -0.19396242890E+03  0.35522985669E+03  0.12500000000E+03 0.  0.
         25    1    1    2    0    0 -0.10084994548E+03 -0.23586511739E+03  0.84904619322E+01  0.28548231652E+03  0.12500000000E+03 0.  0.
</event>
<event>
 5    0  0.5851292E-005  0.4201757E+03  0.7546771E-02  0.1037009E+00
         21   -1    0    0  502  501  0.00000000000E+00  0.00000000000E+00  0.65184940480E+03  0.65184940480E+03  0.00000000000E+00 0. -1.
         21   -1    0    0  501  502 -0.00000000000E+00 -0.00000000000E+00 -0.27084110901E+03  0.27084110901E+03  0.00000000000E+00 0. -1.
         25    1    1    2    0    0  0.23406198668E+03 -0.20855661229E+03  0.17282544844E+03  0.37917609335E+03  0.12500000000E+03 0.  0.
         25    1    1    2    0    0 -0.48609260021E+02  0.23021667282E+03  0.56341480782E+02  0.27232689743E+03  0.12500000000E+03 0.  0.
         25    1    1    2    0    0 -0.18545272666E+03 -0.21660060533E+02  0.15184136657E+03  0.27118752303E+03  0.12500000000E+03 0.  0.
</event>
<event>
 5    0  0.5851292E-005  0.4660923E+03  0.7546771E-02  0.1023029E+00
         21   -1    0    0  502  501  0.00000000000E+00  0.00000000000E+00  0.34949945415E+03  0.34949945415E+03  0.00000000000E+00 0. -1.
         21   -1    0    0  501  502 -0.00000000000E+00 -0.00000000000E+00 -0.62158039327E+03  0.62158039327E+03  0.00000000000E+00 0. -1.
         25    1    1    2    0    0  0.13574223466E+03  0.29078638767E+02  0.76303013096E+01  0.18696187580E+03  0.12500000000E+03 0.  0.
         25    1    1    2    0    0  0.25352869573E+03  0.10389967634E+03 -0.91114003735E+02  0.31464059493E+03  0.12500000000E+03 0.  0.
         25    1    1    2    0    0 -0.38927093039E+03 -0.13297831510E+03 -0.18859723670E+03  0.46947737669E+03  0.12500000000E+03 0.  0.
</event>
<event>
 5    0  0.5979471E-005  0.3560185E+03  0.7546771E-02  0.1060172E+00
         21   -1    0    0  502  501  0.00000000000E+00  0.00000000000E+00  0.64024066050E+03  0.64024066050E+03  0.00000000000E+00 0. -1.
         21   -1    0    0  501  502 -0.00000000000E+00 -0.00000000000E+00 -0.19797111572E+03  0.19797111572E+03  0.00000000000E+00 0. -1.
         25    1    1    2    0    0  0.16776571068E+03 -0.14996082311E+03  0.18444909794E+03  0.31667025733E+03  0.12500000000E+03 0.  0.
         25    1    1    2    0    0  0.90348963868E+01  0.14710550897E+03  0.23431149703E+03  0.30372444380E+03  0.12500000000E+03 0.  0.
         25    1    1    2    0    0 -0.17680060706E+03  0.28553141405E+01  0.23508949814E+02  0.21781707508E+03  0.12500000000E+03 0.  0.
</event>
<event>
 5    0  0.5851292E-005  0.2403029E+03  0.7546771E-02  0.1119591E+00
         21   -1    0    0  502  501  0.00000000000E+00  0.00000000000E+00  0.16634049934E+03  0.16634049934E+03  0.00000000000E+00 0. -1.
         21   -1    0    0  501  502 -0.00000000000E+00 -0.00000000000E+00 -0.34715223835E+03  0.34715223835E+03  0.00000000000E+00 0. -1.
         25    1    1    2    0    0  0.10200280000E+03  0.35323662342E+02 -0.13208741158E+03  0.21148148058E+03  0.12500000000E+03 0.  0.
         25    1    1    2    0    0 -0.48148480450E+02 -0.34181807321E+02 -0.83528014484E+02  0.16151966235E+03  0.12500000000E+03 0.  0.
         25    1    1    2    0    0 -0.53854319547E+02 -0.11418550216E+01  0.34803687058E+02  0.14049159476E+03  0.12500000000E+03 0.  0.
</event>
<event>
 5    0  0.5851292E-005  0.2530925E+03  0.7546771E-02  0.1111366E+00
         21   -1    0    0  502  501  0.00000000000E+00  0.00000000000E+00  0.59817836691E+03  0.59817836691E+03  0.00000000000E+00 0.  1.
         21   -1    0    0  501  502 -0.00000000000E+00 -0.00000000000E+00 -0.10708483903E+03  0.10708483903E+03  0.00000000000E+00 0.  1.
         25    1    1    2    0    0  0.37708921458E+02 -0.67476250039E+02  0.15711587178E+03  0.21514042912E+03  0.12500000000E+03 0.  0.
         25    1    1    2    0    0  0.25339282451E+02  0.65590968261E+01  0.54233993151E+01  0.12782610941E+03  0.12500000000E+03 0.  0.
         25    1    1    2    0    0 -0.63048203909E+02  0.60917153213E+02  0.32855425678E+03  0.36229666742E+03  0.12500000000E+03 0.  0.
</event>
<event>
 5    0  0.5851292E-005  0.6320731E+03  0.7546771E-02  0.9841012E-01
         21   -1    0    0  502  501  0.00000000000E+00  0.00000000000E+00  0.69556247649E+03  0.69556247649E+03  0.00000000000E+00 0. -1.
         21   -1    0    0  501  502 -0.00000000000E+00 -0.00000000000E+00 -0.57437888517E+03  0.57437888517E+03  0.00000000000E+00 0. -1.
         25    1    1    2    0    0 -0.47247311970E+03  0.26825496514E+03  0.33006543189E+02  0.55848545823E+03  0.12500000000E+03 0.  0.
         25    1    1    2    0    0  0.42008211549E+03 -0.11489565389E+03  0.17947778875E+03  0.48734717778E+03  0.12500000000E+03 0.  0.
         25    1    1    2    0    0  0.52391004214E+02 -0.15335931125E+03 -0.91300740622E+02  0.22410872564E+03  0.12500000000E+03 0.  0.
</event>
<event>
 5    0  0.5851292E-005  0.3076662E+03  0.7546771E-02  0.1081470E+00
         21   -1    0    0  502  501  0.00000000000E+00  0.00000000000E+00  0.27914129659E+03  0.27914129659E+03  0.00000000000E+00 0.  1.
         21   -1    0    0  501  502 -0.00000000000E+00 -0.00000000000E+00 -0.33910599513E+03  0.33910599513E+03  0.00000000000E+00 0.  1.
         25    1    1    2    0    0  0.10763657243E+03 -0.12800479877E+03 -0.65875728926E+02  0.21894170889E+03  0.12500000000E+03 0.  0.
         25    1    1    2    0    0 -0.73447818464E+02  0.20298423916E+03 -0.61252480808E+00  0.24944449998E+03  0.12500000000E+03 0.  0.
         25    1    1    2    0    0 -0.34188753962E+02 -0.74979440391E+02  0.65235551913E+01  0.14986108284E+03  0.12500000000E+03 0.  0.
</event>
<event>
 5    0  0.5851292E-005  0.2269633E+03  0.7546771E-02  0.1128796E+00
         21   -1    0    0  502  501  0.00000000000E+00  0.00000000000E+00  0.37065410456E+03  0.37065410456E+03  0.00000000000E+00 0.  1.
         21   -1    0    0  501  502 -0.00000000000E+00 -0.00000000000E+00 -0.13897685780E+03  0.13897685780E+03  0.00000000000E+00 0.  1.
         25    1    1    2    0    0  0.10303879844E+01  0.75279073560E+02  0.13201576378E+03  0.19677693590E+03  0.12500000000E+03 0.  0.
         25    1    1    2    0    0 -0.60292604543E+02 -0.25998194609E+02  0.86101235918E+02  0.16537692436E+03  0.12500000000E+03 0.  0.
         25    1    1    2    0    0  0.59262216559E+02 -0.49280878952E+02  0.13560247068E+02  0.14747710209E+03  0.12500000000E+03 0.  0.
</event>
<event>
 5    0  0.5851292E-005  0.2732765E+03  0.7546771E-02  0.1099419E+00
         21   -1    0    0  502  501  0.00000000000E+00  0.00000000000E+00  0.69496283391E+02  0.69496283391E+02  0.00000000000E+00 0.  1.
         21   -1    0    0  501  502 -0.00000000000E+00 -0.00000000000E+00 -0.10745907379E+04  0.10745907379E+04  0.00000000000E+00 0.  1.
         25    1    1    2    0    0 -0.68125805539E+02 -0.12787800427E+03 -0.62072646399E+03  0.64955388726E+03  0.12500000000E+03 0.  0.
         25    1    1    2    0    0  0.14511081165E+02  0.11050400080E+03 -0.16020881364E+03  0.23176188133E+03  0.12500000000E+03 0.  0.
         25    1    1    2    0    0  0.53614724374E+02  0.17374003465E+02 -0.22415917688E+03  0.26277125270E+03  0.12500000000E+03 0.  0.
</event>
<event>
 5    0  0.5851292E-005  0.3299162E+03  0.7546771E-02  0.1071174E+00
         21   -1    0    0  502  501  0.00000000000E+00  0.00000000000E+00  0.11248313541E+04  0.11248313541E+04  0.00000000000E+00 0. -1.
         21   -1    0    0  501  502 -0.00000000000E+00 -0.00000000000E+00 -0.96765375417E+02  0.96765375417E+02  0.00000000000E+00 0. -1.
         25    1    1    2    0    0  0.12991295294E+03 -0.51408702571E+02  0.25414020889E+03  0.31580448986E+03  0.12500000000E+03 0.  0.
         25    1    1    2    0    0 -0.19888955580E+03 -0.72482061467E+02  0.25819692972E+03  0.35651277559E+03  0.12500000000E+03 0.  0.
         25    1    1    2    0    0  0.68976602860E+02  0.12389076404E+03  0.51572884006E+03  0.54927946405E+03  0.12500000000E+03 0.  0.
</event>
<event>
 5    0  0.5851292E-005  0.3525720E+03  0.7546771E-02  0.1061564E+00
         21   -1    0    0  502  501  0.00000000000E+00  0.00000000000E+00  0.90640455901E+03  0.90640455901E+03  0.00000000000E+00 0. -1.
         21   -1    0    0  501  502 -0.00000000000E+00 -0.00000000000E+00 -0.13714293774E+03  0.13714293774E+03  0.00000000000E+00 0. -1.
         25    1    1    2    0    0 -0.59789024044E+01  0.75843638362E+02  0.23073610312E+02  0.14813978617E+03  0.12500000000E+03 0.  0.
         25    1    1    2    0    0 -0.16388158239E+03  0.31197021297E+02  0.54980232607E+03  0.58799491914E+03  0.12500000000E+03 0.  0.
         25    1    1    2    0    0  0.16986048480E+03 -0.10704065966E+03  0.19638568489E+03  0.30741279144E+03  0.12500000000E+03 0.  0.
</event>
<event>
 5    0  0.5851292E-005  0.4464776E+03  0.7546771E-02  0.1028778E+00
         21   -1    0    0  502  501  0.00000000000E+00  0.00000000000E+00  0.54188007500E+03  0.54188007500E+03  0.00000000000E+00 0. -1.
         21   -1    0    0  501  502 -0.00000000000E+00 -0.00000000000E+00 -0.36787153009E+03  0.36787153009E+03  0.00000000000E+00 0. -1.
         25    1    1    2    0    0  0.51918027107E+02  0.19172570905E+03  0.69106209958E+02  0.24465260535E+03  0.12500000000E+03 0.  0.
         25    1    1    2    0    0 -0.15046293227E+03  0.16176334565E+03  0.11180106097E+03  0.27736429334E+03  0.12500000000E+03 0.  0.
         25    1    1    2    0    0  0.98544905165E+02 -0.35348905470E+03 -0.68987260171E+01  0.38773470640E+03  0.12500000000E+03 0.  0.
</event>
<event>
 5    0  0.5851292E-005  0.3355532E+03  0.7546771E-02  0.1068706E+00
         21   -1    0    0  502  501  0.00000000000E+00  0.00000000000E+00  0.17259457301E+03  0.17259457301E+03  0.00000000000E+00 0.  1.
         21   -1    0    0  501  502 -0.00000000000E+00 -0.00000000000E+00 -0.65237244905E+03  0.65237244905E+03  0.00000000000E+00 0.  1.
         25    1    1    2    0    0 -0.23858684883E+03 -0.41721770264E+02 -0.15803719542E+03  0.31506371687E+03  0.12500000000E+03 0.  0.
         25    1    1    2    0    0  0.23348295817E+03  0.83545243825E+01 -0.23393298140E+03  0.35345965770E+03  0.12500000000E+03 0.  0.
         25    1    1    2    0    0  0.51038906647E+01  0.33367245882E+02 -0.87807699228E+02  0.15644364749E+03  0.12500000000E+03 0.  0.
</event>
<event>
 5    0  0.5851292E-005  0.3522595E+03  0.7546771E-02  0.1061691E+00
         21   -1    0    0  502  501  0.00000000000E+00  0.00000000000E+00  0.22245737806E+03  0.22245737806E+03  0.00000000000E+00 0. -1.
         21   -1    0    0  501  502 -0.00000000000E+00 -0.00000000000E+00 -0.55780016821E+03  0.55780016821E+03  0.00000000000E+00 0. -1.
         25    1    1    2    0    0  0.45413955365E+02 -0.54638066527E+02 -0.45099318827E+03  0.47335779440E+03  0.12500000000E+03 0.  0.
         25    1    1    2    0    0 -0.58327579856E+02  0.66391225343E+02  0.91655491142E+02  0.17842541980E+03  0.12500000000E+03 0.  0.
         25    1    1    2    0    0  0.12913624491E+02 -0.11753158816E+02  0.23994906976E+02  0.12847433207E+03  0.12500000000E+03 0.  0.
</event>
<event>
 5    0  0.5851292E-005  0.2446248E+03  0.7546771E-02  0.1116750E+00
         21   -1    0    0  502  501  0.00000000000E+00  0.00000000000E+00  0.23366624373E+03  0.23366624373E+03  0.00000000000E+00 0. -1.
         21   -1    0    0  501  502 -0.00000000000E+00 -0.00000000000E+00 -0.25609727705E+03  0.25609727705E+03  0.00000000000E+00 0. -1.
         25    1    1    2    0    0  0.46137075668E+02  0.35744635229E+02 -0.65405387759E+02  0.15267342089E+03  0.12500000000E+03 0.  0.
         25    1    1    2    0    0 -0.12350918886E+03 -0.25063029185E+02 -0.16238419537E+02  0.17824522836E+03  0.12500000000E+03 0.  0.
         25    1    1    2    0    0  0.77372113193E+02 -0.10681606044E+02  0.59212773974E+02  0.15884487152E+03  0.12500000000E+03 0.  0.
</event>
<event>
 5    0  0.5851292E-005  0.2974338E+03  0.7546771E-02  0.1086530E+00
         21   -1    0    0  502  501  0.00000000000E+00  0.00000000000E+00  0.60003095094E+03  0.60003095094E+03  0.00000000000E+00 0. -1.
         21   -1    0    0  501  502 -0.00000000000E+00 -0.00000000000E+00 -0.14743718501E+03  0.14743718501E+03  0.00000000000E+00 0. -1.
         25    1    1    2    0    0  0.23748645926E+02  0.11479858516E+02  0.47266545886E+03  0.48962579726E+03  0.12500000000E+03 0.  0.
         25    1    1    2    0    0 -0.44463705879E+00 -0.12662513918E+02  0.13395775798E+02  0.12635261679E+03  0.12500000000E+03 0.  0.
         25    1    1    2    0    0 -0.23304008868E+02  0.11826554026E+01 -0.33467468738E+02  0.13148972191E+03  0.12500000000E+03 0.  0.
</event>
<event>
 5    0  0.5851292E-005  0.4799027E+03  0.7546771E-02  0.1019162E+00
         21   -1    0    0  502  501  0.00000000000E+00  0.00000000000E+00  0.21793402208E+04  0.21793402208E+04  0.00000000000E+00 0. -1.
         21   -1    0    0  501  502 -0.00000000000E+00 -0.00000000000E+00 -0.10567723100E+03  0.10567723100E+03  0.00000000000E+00 0. -1.
         25    1    1    2    0    0  0.18046403382E+03 -0.23608179377E+02  0.60073793772E+03  0.64002787709E+03  0.12500000000E+03 0.  0.
         25    1    1    2    0    0  0.94751496877E+02  0.75503604203E+02  0.12591888521E+04  0.12711649011E+04  0.12500000000E+03 0.  0.
         25    1    1    2    0    0 -0.27521553069E+03 -0.51895424826E+02  0.21373619997E+03  0.37382467365E+03  0.12500000000E+03 0.  0.
</event>
<event>
 5    0  0.5851292E-005  0.2162107E+03  0.7546771E-02  0.1136740E+00
         21   -1    0    0  502  501  0.00000000000E+00  0.00000000000E+00  0.68780002049E+03  0.68780002049E+03  0.00000000000E+00 0. -1.
         21   -1    0    0  501  502 -0.00000000000E+00 -0.00000000000E+00 -0.67966043680E+02  0.67966043680E+02  0.00000000000E+00 0. -1.
         25    1    1    2    0    0 -0.37481071359E+01 -0.45973260871E+01  0.26062958062E+03  0.28911582801E+03  0.12500000000E+03 0.  0.
         25    1    1    2    0    0 -0.20557707264E+00  0.85664868856E+01  0.53327010400E+02  0.13616973598E+03  0.12500000000E+03 0.  0.
         25    1    1    2    0    0  0.39536842085E+01 -0.39691607985E+01  0.30587738580E+03  0.33048050018E+03  0.12500000000E+03 0.  0.
</event>
<event>
 5    0  0.5851292E-005  0.3375160E+03  0.7546771E-02  0.1067859E+00
         21   -1    0    0  502  501  0.00000000000E+00  0.00000000000E+00  0.22409688743E+03  0.22409688743E+03  0.00000000000E+00 0. -1.
         21   -1    0    0  501  502 -0.00000000000E+00 -0.00000000000E+00 -0.50833830938E+03  0.50833830938E+03  0.00000000000E+00 0. -1.
         25    1    1    2    0    0  0.44258671961E+02 -0.52896376634E+02 -0.18243229336E+03  0.23165361721E+03  0.12500000000E+03 0.  0.
         25    1    1    2    0    0  0.59646118017E+02 -0.13013400339E+03 -0.16084480034E+03  0.24897503495E+03  0.12500000000E+03 0.  0.
         25    1    1    2    0    0 -0.10390478998E+03  0.18303038002E+03  0.59035671752E+02  0.25180654465E+03  0.12500000000E+03 0.  0.
</event>
<event>
 5    0  0.5851292E-005  0.5780922E+03  0.7546771E-02  0.9951930E-01
         21   -1    0    0  502  501  0.00000000000E+00  0.00000000000E+00  0.10346846635E+04  0.10346846635E+04  0.00000000000E+00 0. -1.
         21   -1    0    0  501  502 -0.00000000000E+00 -0.00000000000E+00 -0.32298781631E+03  0.32298781631E+03  0.00000000000E+00 0. -1.
         25    1    1    2    0    0  0.38664634093E+03 -0.10740133273E+03 -0.66795044357E+02  0.42557845009E+03  0.12500000000E+03 0.  0.
         25    1    1    2    0    0 -0.13771934599E+03  0.10802621472E+03  0.46743938016E+03  0.51454917690E+03  0.12500000000E+03 0.  0.
         25    1    1    2    0    0 -0.24892699494E+03 -0.62488198447E+00  0.31105251141E+03  0.41754485285E+03  0.12500000000E+03 0.  0.
</event>
<event>
 5    0  0.5851292E-005  0.3480871E+03  0.7546771E-02  0.1063403E+00
         21   -1    0    0  502  501  0.00000000000E+00  0.00000000000E+00  0.14440320596E+03  0.14440320596E+03  0.00000000000E+00 0. -1.
         21   -1    0    0  501  502 -0.00000000000E+00 -0.00000000000E+00 -0.83907143065E+03  0.83907143065E+03  0.00000000000E+00 0. -1.
         25    1    1    2    0    0 -0.88777576440E+02 -0.22809885688E+02 -0.28778983262E+03  0.32687877986E+03  0.12500000000E+03 0.  0.
         25    1    1    2    0    0  0.61372643506E+01 -0.82628977957E+02  0.54974294677E+02  0.15972597499E+03  0.12500000000E+03 0.  0.
         25    1    1    2    0    0  0.82640312089E+02  0.10543886365E+03 -0.46185268675E+03  0.49686988176E+03  0.12500000000E+03 0.  0.
</event>
<event>
 5    0  0.5851292E-005  0.1946440E+03  0.7546771E-02  0.1154338E+00
         21   -1    0    0  502  501  0.00000000000E+00  0.00000000000E+00  0.20512723716E+03  0.20512723716E+03  0.00000000000E+00 0. -1.
         21   -1    0    0  501  502 -0.00000000000E+00 -0.00000000000E+00 -0.18469658802E+03  0.18469658802E+03  0.00000000000E+00 0. -1.
         25    1    1    2    0    0 -0.81174613843E+01 -0.25110446069E+02  0.34614164708E+02  0.13236150528E+03  0.12500000000E+03 0.  0.
         25    1    1    2    0    0  0.86820325692E+01 -0.13853645956E+02 -0.10033106623E+02  0.12646329279E+03  0.12500000000E+03 0.  0.
         25    1    1    2    0    0 -0.56457118497E+00  0.38964092025E+02 -0.41504089487E+01  0.13099902710E+03  0.12500000000E+03 0.  0.
</event>
<event>
 5    0  0.5851292E-005  0.2045006E+03  0.7546771E-02  0.1145996E+00
         21   -1    0    0  502  501  0.00000000000E+00  0.00000000000E+00  0.18186103229E+03  0.18186103229E+03  0.00000000000E+00 0. -1.
         21   -1    0    0  501  502 -0.00000000000E+00 -0.00000000000E+00 -0.22995859344E+03  0.22995859344E+03  0.00000000000E+00 0. -1.
         25    1    1    2    0    0  0.31541094526E+01  0.30311022889E+02 -0.20386451839E+02  0.13026631926E+03  0.12500000000E+03 0.  0.
         25    1    1    2    0    0 -0.19500762991E+02  0.40455540200E+02  0.65355226769E+01  0.13298362135E+03  0.12500000000E+03 0.  0.
         25    1    1    2    0    0  0.16346653538E+02 -0.70766563089E+02 -0.34246631986E+02  0.14856968512E+03  0.12500000000E+03 0.  0.
</event>
<event>
 5    0  0.5851292E-005  0.2621837E+03  0.7546771E-02  0.1105838E+00
         21   -1    0    0  502  501  0.00000000000E+00  0.00000000000E+00  0.17834197116E+03  0.17834197116E+03  0.00000000000E+00 0.  1.
         21   -1    0    0  501  502 -0.00000000000E+00 -0.00000000000E+00 -0.38544105985E+03  0.38544105985E+03  0.00000000000E+00 0.  1.
         25    1    1    2    0    0  0.63112923112E+02  0.96669352021E+02 -0.21282284606E+03  0.27248260218E+03  0.12500000000E+03 0.  0.
         25    1    1    2    0    0 -0.34512000064E+02 -0.46536241819E+01 -0.20306383721E+02  0.13133957357E+03  0.12500000000E+03 0.  0.
         25    1    1    2    0    0 -0.28600923048E+02 -0.92015727839E+02  0.26030141092E+02  0.15996085526E+03  0.12500000000E+03 0.  0.
</event>
<event>
 5    0  0.5851292E-005  0.3169911E+03  0.7546771E-02  0.1077042E+00
         21   -1    0    0  502  501  0.00000000000E+00  0.00000000000E+00  0.88597225866E+02  0.88597225866E+02  0.00000000000E+00 0.  1.
         21   -1    0    0  501  502 -0.00000000000E+00 -0.00000000000E+00 -0.11341590528E+04  0.11341590528E+04  0.00000000000E+00 0.  1.
         25    1    1    2    0    0  0.41030529220E+02 -0.61663521660E+02 -0.24408456508E+03  0.28405663017E+03  0.12500000000E+03 0.  0.
         25    1    1    2    0    0 -0.42815119203E+02 -0.17496282227E+03 -0.40120235621E+03  0.45720176535E+03  0.12500000000E+03 0.  0.
         25    1    1    2    0    0  0.17845899834E+01  0.23662634393E+03 -0.40027490569E+03  0.48149788320E+03  0.12500000000E+03 0.  0.
</event>
<event>
 5    0  0.5851292E-005  0.4326454E+03  0.7546771E-02  0.1033028E+00
         21   -1    0    0  502  501  0.00000000000E+00  0.00000000000E+00  0.12372158280E+03  0.12372158280E+03  0.00000000000E+00 0. -1.
         21   -1    0    0  501  502 -0.00000000000E+00 -0.00000000000E+00 -0.15129296734E+04  0.15129296734E+04  0.00000000000E+00 0. -1.
         25    1    1    2    0    0 -0.23630914674E+03  0.26248914681E+03 -0.46213210076E+03  0.59492322495E+03  0.12500000000E+03 0.  0.
         25    1    1    2    0    0  0.21171642304E+03 -0.92790290296E+02 -0.52454393734E+03  0.58669005783E+03  0.12500000000E+03 0.  0.
         25    1    1    2    0    0  0.24592723708E+02 -0.16969885652E+03 -0.40253205252E+03  0.45503797344E+03  0.12500000000E+03 0.  0.
</event>
<event>
 5    0  0.5851292E-005  0.3731982E+03  0.7546771E-02  0.1053477E+00
         21   -1    0    0  502  501  0.00000000000E+00  0.00000000000E+00  0.26340320184E+03  0.26340320184E+03  0.00000000000E+00 0. -1.
         21   -1    0    0  501  502 -0.00000000000E+00 -0.00000000000E+00 -0.52875924093E+03  0.52875924093E+03  0.00000000000E+00 0. -1.
         25    1    1    2    0    0  0.79352047122E+02 -0.46297773632E+01  0.14169184062E+03  0.20498721892E+03  0.12500000000E+03 0.  0.
         25    1    1    2    0    0 -0.66333166938E+02 -0.43379971083E+02  0.10604725774E+02  0.14838925546E+03  0.12500000000E+03 0.  0.
         25    1    1    2    0    0 -0.13018880184E+02  0.48009748446E+02 -0.41765260548E+03  0.43878596839E+03  0.12500000000E+03 0.  0.
</event>
<event>
 5    0  0.5851292E-005  0.2639665E+03  0.7546771E-02  0.1104783E+00
         21   -1    0    0  502  501  0.00000000000E+00  0.00000000000E+00  0.77583343904E+02  0.77583343904E+02  0.00000000000E+00 0. -1.
         21   -1    0    0  501  502 -0.00000000000E+00 -0.00000000000E+00 -0.89810901226E+03  0.89810901226E+03  0.00000000000E+00 0. -1.
         25    1    1    2    0    0  0.12975489947E+02 -0.26244481608E+02 -0.46790684503E+03  0.48519990909E+03  0.12500000000E+03 0.  0.
         25    1    1    2    0    0 -0.72713735121E+02 -0.57319394410E+02 -0.26294223598E+03  0.30551009757E+03  0.12500000000E+03 0.  0.
         25    1    1    2    0    0  0.59738245173E+02  0.83563876018E+02 -0.89676587338E+02  0.18498234950E+03  0.12500000000E+03 0.  0.
</event>
<event>
 5    0  0.5851292E-005  0.3381019E+03  0.7546771E-02  0.1067607E+00
         21   -1    0    0  502  501  0.00000000000E+00  0.00000000000E+00  0.18856909474E+03  0.18856909474E+03  0.00000000000E+00 0. -1.
         21   -1    0    0  501  502 -0.00000000000E+00 -0.00000000000E+00 -0.60621214781E+03  0.60621214781E+03  0.00000000000E+00 0. -1.
         25    1    1    2    0    0  0.31055869340E+02 -0.12267165959E+03 -0.72330278035E+02  0.19201425001E+03  0.12500000000E+03 0.  0.
         25    1    1    2    0    0  0.41529450604E+02 -0.13880014993E+03 -0.98363554256E+02  0.21515242433E+03  0.12500000000E+03 0.  0.
         25    1    1    2    0    0 -0.72585319945E+02  0.26147180953E+03 -0.24694922078E+03  0.38761456821E+03  0.12500000000E+03 0.  0.
</event>
<event>
 5    0  0.5851292E-005  0.4421794E+03  0.7546771E-02  0.1030080E+00
         21   -1    0    0  502  501  0.00000000000E+00  0.00000000000E+00  0.27716015203E+03  0.27716015203E+03  0.00000000000E+00 0. -1.
         21   -1    0    0  501  502 -0.00000000000E+00 -0.00000000000E+00 -0.70545000453E+03  0.70545000453E+03  0.00000000000E+00 0. -1.
         25    1    1    2    0    0  0.13997460845E+03 -0.77907287905E+02 -0.17117238918E+03  0.26568293761E+03  0.12500000000E+03 0.  0.
         25    1    1    2    0    0  0.13719339675E+03 -0.13945403318E+03 -0.25269453770E+03  0.34314571957E+03  0.12500000000E+03 0.  0.
         25    1    1    2    0    0 -0.27716800519E+03  0.21736132108E+03 -0.44229256251E+01  0.37378149937E+03  0.12500000000E+03 0.  0.
</event>
<event>
 5    0  0.6217261E-005  0.3481972E+03  0.7546771E-02  0.1063357E+00
         21   -1    0    0  502  501  0.00000000000E+00  0.00000000000E+00  0.63522448025E+03  0.63522448025E+03  0.00000000000E+00 0. -1.
         21   -1    0    0  501  502 -0.00000000000E+00 -0.00000000000E+00 -0.19086373200E+03  0.19086373200E+03  0.00000000000E+00 0. -1.
         25    1    1    2    0    0  0.17710602533E+02 -0.91970678162E+02 -0.32905768863E+02  0.15962474967E+03  0.12500000000E+03 0.  0.
         25    1    1    2    0    0  0.44121013991E+02  0.22103833128E+03  0.18269538008E+03  0.31592279068E+03  0.12500000000E+03 0.  0.
         25    1    1    2    0    0 -0.61831616524E+02 -0.12906765312E+03  0.29457113703E+03  0.35054067190E+03  0.12500000000E+03 0.  0.
</event>
<event>
 5    0  0.5851292E-005  0.3437768E+03  0.7546771E-02  0.1065199E+00
         21   -1    0    0  502  501  0.00000000000E+00  0.00000000000E+00  0.84953496017E+02  0.84953496017E+02  0.00000000000E+00 0.  1.
         21   -1    0    0  501  502 -0.00000000000E+00 -0.00000000000E+00 -0.13911431660E+04  0.13911431660E+04  0.00000000000E+00 0.  1.
         25    1    1    2    0    0 -0.15823592714E+03 -0.56009612487E+02 -0.85669351566E+03  0.88188687773E+03  0.12500000000E+03 0.  0.
         25    1    1    2    0    0  0.19700725283E+02  0.13012431086E+03 -0.16034874296E+03  0.24219243221E+03  0.12500000000E+03 0.  0.
         25    1    1    2    0    0  0.13853520186E+03 -0.74114698369E+02 -0.28914741137E+03  0.35201735209E+03  0.12500000000E+03 0.  0.
</event>
<event>
 5    0  0.5851292E-005  0.3127825E+03  0.7546771E-02  0.1079020E+00
         21   -1    0    0  502  501  0.00000000000E+00  0.00000000000E+00  0.45311166715E+03  0.45311166715E+03  0.00000000000E+00 0. -1.
         21   -1    0    0  501  502 -0.00000000000E+00 -0.00000000000E+00 -0.21591342187E+03  0.21591342187E+03  0.00000000000E+00 0. -1.
         25    1    1    2    0    0 -0.28218675915E+02  0.26195770089E+02  0.15040760352E+03  0.19932375483E+03  0.12500000000E+03 0.  0.
         25    1    1    2    0    0 -0.15395428720E+03 -0.57147027881E+02  0.12797761672E+03  0.24283940315E+03  0.12500000000E+03 0.  0.
         25    1    1    2    0    0  0.18217296312E+03  0.30951257791E+02 -0.41186974957E+02  0.22686193104E+03  0.12500000000E+03 0.  0.
</event>
<event>
 5    0  0.5851292E-005  0.2340662E+03  0.7546771E-02  0.1123810E+00
         21   -1    0    0  502  501  0.00000000000E+00  0.00000000000E+00  0.53844027408E+03  0.53844027408E+03  0.00000000000E+00 0. -1.
         21   -1    0    0  501  502 -0.00000000000E+00 -0.00000000000E+00 -0.10175128353E+03  0.10175128353E+03  0.00000000000E+00 0. -1.
         25    1    1    2    0    0 -0.56525550802E+02 -0.10184405265E+03  0.19866306704E+03  0.26202931737E+03  0.12500000000E+03 0.  0.
         25    1    1    2    0    0  0.26102933808E+02  0.57469228096E+02  0.18520174210E+03  0.23218260186E+03  0.12500000000E+03 0.  0.
         25    1    1    2    0    0  0.30422616994E+02  0.44374824554E+02  0.52824181421E+02  0.14597963838E+03  0.12500000000E+03 0.  0.
</event>
<event>
 5    0  0.5851292E-005  0.3701814E+03  0.7546771E-02  0.1054624E+00
         21   -1    0    0  502  501  0.00000000000E+00  0.00000000000E+00  0.16190396905E+03  0.16190396905E+03  0.00000000000E+00 0. -1.
         21   -1    0    0  501  502 -0.00000000000E+00 -0.00000000000E+00 -0.84639236480E+03  0.84639236480E+03  0.00000000000E+00 0. -1.
         25    1    1    2    0    0 -0.15992540923E+03 -0.73772480373E+02 -0.25349075588E+03  0.33301813569E+03  0.12500000000E+03 0.  0.
         25    1    1    2    0    0  0.18873918896E+03  0.21958749120E+03 -0.19984095660E+03  0.37336651654E+03  0.12500000000E+03 0.  0.
         25    1    1    2    0    0 -0.28813779726E+02 -0.14581501083E+03 -0.23115668326E+03  0.30191168162E+03  0.12500000000E+03 0.  0.
</event>
<event>
 5    0  0.5851292E-005  0.2870873E+03  0.7546771E-02  0.1091880E+00
         21   -1    0    0  502  501  0.00000000000E+00  0.00000000000E+00  0.11599074145E+04  0.11599074145E+04  0.00000000000E+00 0. -1.
         21   -1    0    0  501  502 -0.00000000000E+00 -0.00000000000E+00 -0.71056626891E+02  0.71056626891E+02  0.00000000000E+00 0. -1.
         25    1    1    2    0    0  0.32941180609E+02 -0.56237546694E+02  0.82941684972E+03  0.84131153186E+03  0.12500000000E+03 0.  0.
         25    1    1    2    0    0  0.37059782573E+02 -0.27239164128E+01  0.15621520245E+03  0.20349210471E+03  0.12500000000E+03 0.  0.
         25    1    1    2    0    0 -0.70000963181E+02  0.58961463107E+02  0.10321873545E+03  0.18616040483E+03  0.12500000000E+03 0.  0.
</event>
<event>
 5    0  0.5851292E-005  0.3486484E+03  0.7546771E-02  0.1063171E+00
         21   -1    0    0  502  501  0.00000000000E+00  0.00000000000E+00  0.57176377188E+02  0.57176377188E+02  0.00000000000E+00 0. -1.
         21   -1    0    0  501  502 -0.00000000000E+00 -0.00000000000E+00 -0.21259775178E+04  0.21259775178E+04  0.00000000000E+00 0. -1.
         25    1    1    2    0    0  0.38248783531E+02 -0.44745669063E+02 -0.13634821179E+04  0.13704647497E+04  0.12500000000E+03 0.  0.
         25    1    1    2    0    0 -0.14116707490E+03  0.66301438563E+02 -0.20470502895E+03  0.28609993476E+03  0.12500000000E+03 0.  0.
         25    1    1    2    0    0  0.10291829137E+03 -0.21555769499E+02 -0.50061399378E+03  0.52658921054E+03  0.12500000000E+03 0.  0.
</event>
<event>
 5    0  0.5851292E-005  0.3028811E+03  0.7546771E-02  0.1083809E+00
         21   -1    0    0  502  501  0.00000000000E+00  0.00000000000E+00  0.14949983393E+04  0.14949983393E+04  0.00000000000E+00 0.  1.
         21   -1    0    0  501  502 -0.00000000000E+00 -0.00000000000E+00 -0.61362571518E+02  0.61362571518E+02  0.00000000000E+00 0.  1.
         25    1    1    2    0    0 -0.66817247080E+02  0.15601124269E+02  0.87635328809E+02  0.16737051843E+03  0.12500000000E+03 0.  0.
         25    1    1    2    0    0 -0.64694167862E+01 -0.91275532748E+00  0.10665005650E+04  0.10738208145E+04  0.12500000000E+03 0.  0.
         25    1    1    2    0    0  0.73286663866E+02 -0.14688368941E+02  0.27949987399E+03  0.31516957791E+03  0.12500000000E+03 0.  0.
</event>
<event>
 5    0  0.5851292E-005  0.5416109E+03  0.7546771E-02  0.1003455E+00
         21   -1    0    0  502  501  0.00000000000E+00  0.00000000000E+00  0.47430744487E+03  0.47430744487E+03  0.00000000000E+00 0. -1.
         21   -1    0    0  501  502 -0.00000000000E+00 -0.00000000000E+00 -0.61846450296E+03  0.61846450296E+03  0.00000000000E+00 0. -1.
         25    1    1    2    0    0 -0.81894892320E+02 -0.17104140491E+03 -0.17445997790E+03  0.28639696135E+03  0.12500000000E+03 0.  0.
         25    1    1    2    0    0  0.38507891234E+02  0.46187098194E+03 -0.30996759933E+02  0.48103374182E+03  0.12500000000E+03 0.  0.
         25    1    1    2    0    0  0.43387001086E+02 -0.29082957703E+03  0.61299679740E+02  0.32534124466E+03  0.12500000000E+03 0.  0.
</event>
<event>
 5    0  0.5851292E-005  0.5917952E+03  0.7546771E-02  0.9922576E-01
         21   -1    0    0  502  501  0.00000000000E+00  0.00000000000E+00  0.42844932102E+03  0.42844932102E+03  0.00000000000E+00 0. -1.
         21   -1    0    0  501  502 -0.00000000000E+00 -0.00000000000E+00 -0.81741649699E+03  0.81741649699E+03  0.00000000000E+00 0. -1.
         25    1    1    2    0    0  0.75328243126E+02 -0.16937425666E+03 -0.57460277838E+03  0.61656738152E+03  0.12500000000E+03 0.  0.
         25    1    1    2    0    0 -0.71056774774E+01 -0.18019711291E+03  0.31909967025E+02  0.22173122502E+03  0.12500000000E+03 0.  0.
         25    1    1    2    0    0 -0.68222565648E+02  0.34957136958E+03  0.15372563538E+03  0.40756721147E+03  0.12500000000E+03 0.  0.
</event>
<event>
 5    0  0.5851292E-005  0.4355014E+03  0.7546771E-02  0.1032136E+00
         21   -1    0    0  502  501  0.00000000000E+00  0.00000000000E+00  0.42506025044E+03  0.42506025044E+03  0.00000000000E+00 0. -1.
         21   -1    0    0  501  502 -0.00000000000E+00 -0.00000000000E+00 -0.44619902073E+03  0.44619902073E+03  0.00000000000E+00 0. -1.
         25    1    1    2    0    0  0.27335442812E+02  0.47057461987E+02 -0.12051225460E+03  0.18196108010E+03  0.12500000000E+03 0.  0.
         25    1    1    2    0    0 -0.27987591705E+03  0.11961397224E+02 -0.11788181560E+03  0.32862551091E+03  0.12500000000E+03 0.  0.
         25    1    1    2    0    0  0.25254047424E+03 -0.59018859211E+02  0.21725529991E+03  0.36067268016E+03  0.12500000000E+03 0.  0.
</event>
<event>
 5    0  0.5851292E-005  0.3507223E+03  0.7546771E-02  0.1062319E+00
         21   -1    0    0  502  501  0.00000000000E+00  0.00000000000E+00  0.17759172160E+03  0.17759172160E+03  0.00000000000E+00 0. -1.
         21   -1    0    0  501  502 -0.00000000000E+00 -0.00000000000E+00 -0.69263444310E+03  0.69263444310E+03  0.00000000000E+00 0. -1.
         25    1    1    2    0    0  0.48028583038E+02  0.56899308439E+02  0.21174029900E+02  0.14702930195E+03  0.12500000000E+03 0.  0.
         25    1    1    2    0    0 -0.64372513415E+02  0.59373118873E+02  0.77658591717E+01  0.15282112517E+03  0.12500000000E+03 0.  0.
         25    1    1    2    0    0  0.16343930377E+02 -0.11627242731E+03 -0.54398261058E+03  0.57037573758E+03  0.12500000000E+03 0.  0.
</event>
<event>
 5    0  0.5851292E-005  0.3472386E+03  0.7546771E-02  0.1063754E+00
         21   -1    0    0  502  501  0.00000000000E+00  0.00000000000E+00  0.12893952007E+04  0.12893952007E+04  0.00000000000E+00 0. -1.
         21   -1    0    0  501  502 -0.00000000000E+00 -0.00000000000E+00 -0.93512578249E+02  0.93512578249E+02  0.00000000000E+00 0. -1.
         25    1    1    2    0    0  0.13471089729E+03 -0.77981338719E+02  0.30675813073E+03  0.36599681120E+03  0.12500000000E+03 0.  0.
         25    1    1    2    0    0 -0.14036587978E+03  0.21126215852E+03  0.36435047463E+03  0.46120553790E+03  0.12500000000E+03 0.  0.
         25    1    1    2    0    0  0.56549824912E+01 -0.13328081980E+03  0.52477401710E+03  0.55570542986E+03  0.12500000000E+03 0.  0.
</event>
<event>
 5    0  0.5851292E-005  0.3243902E+03  0.7546771E-02  0.1073646E+00
         21   -1    0    0  502  501  0.00000000000E+00  0.00000000000E+00  0.17437784141E+03  0.17437784141E+03  0.00000000000E+00 0. -1.
         21   -1    0    0  501  502 -0.00000000000E+00 -0.00000000000E+00 -0.60345384788E+03  0.60345384788E+03  0.00000000000E+00 0. -1.
         25    1    1    2    0    0  0.10585759257E+01  0.67729734448E+02 -0.20610758653E+03  0.25038724955E+03  0.12500000000E+03 0.  0.
         25    1    1    2    0    0  0.77317011412E+01 -0.90999954083E+02 -0.32773623291E+03  0.36245938973E+03  0.12500000000E+03 0.  0.
         25    1    1    2    0    0 -0.87902770668E+01  0.23270219636E+02  0.10476781296E+03  0.16498505001E+03  0.12500000000E+03 0.  0.
</event>
<event>
 5    0  0.5851292E-005  0.3323599E+03  0.7546771E-02  0.1070097E+00
         21   -1    0    0  502  501  0.00000000000E+00  0.00000000000E+00  0.13311067747E+04  0.13311067747E+04  0.00000000000E+00 0.  1.
         21   -1    0    0  501  502 -0.00000000000E+00 -0.00000000000E+00 -0.82985929608E+02  0.82985929608E+02  0.00000000000E+00 0.  1.
         25    1    1    2    0    0 -0.10907271214E+03 -0.11564537720E+02  0.85594171937E+02  0.18703464207E+03  0.12500000000E+03 0.  0.
         25    1    1    2    0    0 -0.34002557539E+02  0.16765067702E+02  0.15939437161E+03  0.20607961354E+03  0.12500000000E+03 0.  0.
         25    1    1    2    0    0  0.14307526968E+03 -0.52005299829E+01  0.10031323016E+04  0.10209784487E+04  0.12500000000E+03 0.  0.
</event>
<event>
 5    0  0.5851292E-005  0.3092274E+03  0.7546771E-02  0.1080717E+00
         21   -1    0    0  502  501  0.00000000000E+00  0.00000000000E+00  0.29076136373E+03  0.29076136373E+03  0.00000000000E+00 0. -1.
         21   -1    0    0  501  502 -0.00000000000E+00 -0.00000000000E+00 -0.32886614828E+03  0.32886614828E+03  0.00000000000E+00 0. -1.
         25    1    1    2    0    0  0.11936943040E+02 -0.17190190776E+03 -0.96782837083E+01  0.21309956752E+03  0.12500000000E+03 0.  0.
         25    1    1    2    0    0  0.92583968594E+02  0.10274754751E+02 -0.73962940202E+02  0.17254819138E+03  0.12500000000E+03 0.  0.
         25    1    1    2    0    0 -0.10452091163E+03  0.16162715301E+03  0.45536439356E+02  0.23397975312E+03  0.12500000000E+03 0.  0.
</event>
<event>
 5    0  0.5851292E-005  0.4142216E+03  0.7546771E-02  0.1038964E+00
         21   -1    0    0  502  501  0.00000000000E+00  0.00000000000E+00  0.10845198471E+03  0.10845198471E+03  0.00000000000E+00 0. -1.
         21   -1    0    0  501  502 -0.00000000000E+00 -0.00000000000E+00 -0.15820780492E+04  0.15820780492E+04  0.00000000000E+00 0. -1.
         25    1    1    2    0    0 -0.11305687673E+03  0.11931126287E+03 -0.62724880826E+03  0.66036588516E+03  0.12500000000E+03 0.  0.
         25    1    1    2    0    0 -0.14896870676E+02 -0.29949615026E+03 -0.56024589359E+03  0.64762668418E+03  0.12500000000E+03 0.  0.
         25    1    1    2    0    0  0.12795374740E+03  0.18018488739E+03 -0.28613136268E+03  0.38253746461E+03  0.12500000000E+03 0.  0.
</event>
<event>
 5    0  0.5851292E-005  0.2849392E+03  0.7546771E-02  0.1093021E+00
         21   -1    0    0  502  501  0.00000000000E+00  0.00000000000E+00  0.34977178459E+03  0.34977178459E+03  0.00000000000E+00 0. -1.
         21   -1    0    0  501  502 -0.00000000000E+00 -0.00000000000E+00 -0.23212375094E+03  0.23212375094E+03  0.00000000000E+00 0. -1.
         25    1    1    2    0    0  0.18642683039E+03 -0.40814331825E+02  0.35817797643E+02  0.23093004872E+03  0.12500000000E+03 0.  0.
         25    1    1    2    0    0 -0.69254681391E+02 -0.43512517861E+02  0.22937401021E+02  0.15113131532E+03  0.12500000000E+03 0.  0.
         25    1    1    2    0    0 -0.11717214900E+03  0.84326849686E+02  0.58892834991E+02  0.19983417149E+03  0.12500000000E+03 0.  0.
</event>
<event>
 5    0  0.5851292E-005  0.3184480E+03  0.7546771E-02  0.1076366E+00
         21   -1    0    0  502  501  0.00000000000E+00  0.00000000000E+00  0.55622339253E+03  0.55622339253E+03  0.00000000000E+00 0.  1.
         21   -1    0    0  501  502 -0.00000000000E+00 -0.00000000000E+00 -0.18231726388E+03  0.18231726388E+03  0.00000000000E+00 0.  1.
         25    1    1    2    0    0  0.39321369935E+02  0.26399637366E+02 -0.88620387296E+02  0.16037981179E+03  0.12500000000E+03 0.  0.
         25    1    1    2    0    0 -0.69796000300E+01 -0.11172728660E+03  0.13305293265E+03  0.21414897682E+03  0.12500000000E+03 0.  0.
         25    1    1    2    0    0 -0.32341769905E+02  0.85327649237E+02  0.32947358330E+03  0.36401186780E+03  0.12500000000E+03 0.  0.
</event>
<event>
 5    0  0.5851292E-005  0.2898268E+03  0.7546771E-02  0.1090440E+00
         21   -1    0    0  502  501  0.00000000000E+00  0.00000000000E+00  0.14695500747E+04  0.14695500747E+04  0.00000000000E+00 0. -1.
         21   -1    0    0  501  502 -0.00000000000E+00 -0.00000000000E+00 -0.57160064475E+02  0.57160064475E+02  0.00000000000E+00 0. -1.
         25    1    1    2    0    0  0.10659065423E+03 -0.48678185154E+02  0.21366208443E+03  0.27387518982E+03  0.12500000000E+03 0.  0.
         25    1    1    2    0    0  0.35423676756E+02  0.72676458403E+02  0.31020939744E+03  0.34408076776E+03  0.12500000000E+03 0.  0.
         25    1    1    2    0    0 -0.14201433099E+03 -0.23998273249E+02  0.88851852836E+03  0.90875418159E+03  0.12500000000E+03 0.  0.
</event>
<event>
 5    0  0.5851292E-005  0.2529784E+03  0.7546771E-02  0.1111437E+00
         21   -1    0    0  502  501  0.00000000000E+00  0.00000000000E+00  0.56812678829E+03  0.56812678829E+03  0.00000000000E+00 0. -1.
         21   -1    0    0  501  502 -0.00000000000E+00 -0.00000000000E+00 -0.11264753610E+03  0.11264753610E+03  0.00000000000E+00 0. -1.
         25    1    1    2    0    0 -0.14067223453E+02  0.97561941224E+02  0.22567789905E+03  0.27617337539E+03  0.12500000000E+03 0.  0.
         25    1    1    2    0    0  0.14173263287E+02 -0.13314894468E+03  0.20010019140E+03  0.27128326425E+03  0.12500000000E+03 0.  0.
         25    1    1    2    0    0 -0.10603983479E+00  0.35587003452E+02  0.29701161737E+02  0.13331768475E+03  0.12500000000E+03 0.  0.
</event>
<event>
 5    0  0.5851292E-005  0.2262365E+03  0.7546771E-02  0.1129317E+00
         21   -1    0    0  502  501  0.00000000000E+00  0.00000000000E+00  0.23023649250E+02  0.23023649250E+02  0.00000000000E+00 0. -1.
         21   -1    0    0  501  502 -0.00000000000E+00 -0.00000000000E+00 -0.22230597457E+04  0.22230597457E+04  0.00000000000E+00 0. -1.
         25    1    1    2    0    0  0.26375087879E+02 -0.14030771741E+02 -0.31775575684E+03  0.34276264210E+03  0.12500000000E+03 0.  0.
         25    1    1    2    0    0  0.41154144927E+02 -0.24808495867E+02 -0.81604004057E+03  0.82695554471E+03  0.12500000000E+03 0.  0.
         25    1    1    2    0    0 -0.67529232806E+02  0.38839267609E+02 -0.10662402990E+04  0.10763652081E+04  0.12500000000E+03 0.  0.
</event>
<event>
 5    0  0.5851292E-005  0.2363568E+03  0.7546771E-02  0.1122244E+00
         21   -1    0    0  502  501  0.00000000000E+00  0.00000000000E+00  0.23378304607E+03  0.23378304607E+03  0.00000000000E+00 0.  1.
         21   -1    0    0  501  502 -0.00000000000E+00 -0.00000000000E+00 -0.23895884822E+03  0.23895884822E+03  0.00000000000E+00 0.  1.
         25    1    1    2    0    0  0.74661627897E+02 -0.14655536607E+01 -0.86123716503E+02  0.16917092266E+03  0.12500000000E+03 0.  0.
         25    1    1    2    0    0 -0.83893109722E+02  0.31955423986E+02  0.52106297337E+01  0.15398491369E+03  0.12500000000E+03 0.  0.
         25    1    1    2    0    0  0.92314818254E+01 -0.30489870326E+02  0.75737284618E+02  0.14958605794E+03  0.12500000000E+03 0.  0.
</event>
<event>
 5    0  0.5851292E-005  0.2915538E+03  0.7546771E-02  0.1089541E+00
         21   -1    0    0  502  501  0.00000000000E+00  0.00000000000E+00  0.31442033511E+03  0.31442033511E+03  0.00000000000E+00 0.  1.
         21   -1    0    0  501  502 -0.00000000000E+00 -0.00000000000E+00 -0.27035018579E+03  0.27035018579E+03  0.00000000000E+00 0.  1.
         25    1    1    2    0    0  0.66731679983E+01  0.12234560620E+03 -0.11473856333E+03  0.20929146290E+03  0.12500000000E+03 0.  0.
         25    1    1    2    0    0  0.12563787088E+02 -0.16224794561E+02  0.16767497073E+03  0.21014516058E+03  0.12500000000E+03 0.  0.
         25    1    1    2    0    0 -0.19236955087E+02 -0.10612081164E+03 -0.88662580800E+01  0.16533389742E+03  0.12500000000E+03 0.  0.
</event>
<event>
 5    0  0.5851292E-005  0.3906335E+03  0.7546771E-02  0.1047072E+00
         21   -1    0    0  502  501  0.00000000000E+00  0.00000000000E+00  0.96361706357E+03  0.96361706357E+03  0.00000000000E+00 0. -1.
         21   -1    0    0  501  502 -0.00000000000E+00 -0.00000000000E+00 -0.15835600669E+03  0.15835600669E+03  0.00000000000E+00 0. -1.
         25    1    1    2    0    0 -0.13834437459E+03 -0.48264931750E+02 -0.24860406878E+02  0.19419502941E+03  0.12500000000E+03 0.  0.
         25    1    1    2    0    0  0.91894423984E+02  0.10820623324E+03  0.72084531004E+03  0.74524904232E+03  0.12500000000E+03 0.  0.
         25    1    1    2    0    0  0.46449950602E+02 -0.59941301488E+02  0.10927615371E+03  0.18252899853E+03  0.12500000000E+03 0.  0.
</event>
<event>
 5    0  0.5851292E-005  0.4291226E+03  0.7546771E-02  0.1034137E+00
         21   -1    0    0  502  501  0.00000000000E+00  0.00000000000E+00  0.13298412273E+03  0.13298412273E+03  0.00000000000E+00 0. -1.
         21   -1    0    0  501  502 -0.00000000000E+00 -0.00000000000E+00 -0.13847235309E+04  0.13847235309E+04  0.00000000000E+00 0. -1.
         25    1    1    2    0    0  0.35212100517E+02  0.16485759562E+03 -0.33325408976E+03  0.39382890599E+03  0.12500000000E+03 0.  0.
         25    1    1    2    0    0  0.18807941671E+03 -0.22699972451E+03 -0.73845010283E+03  0.80488278419E+03  0.12500000000E+03 0.  0.
         25    1    1    2    0    0 -0.22329151723E+03  0.62142128884E+02 -0.18003521560E+03  0.31899596346E+03  0.12500000000E+03 0.  0.
</event>
<event>
 5    0  0.5851292E-005  0.3833305E+03  0.7546771E-02  0.1049710E+00
         21   -1    0    0  502  501  0.00000000000E+00  0.00000000000E+00  0.15632759334E+03  0.15632759334E+03  0.00000000000E+00 0. -1.
         21   -1    0    0  501  502 -0.00000000000E+00 -0.00000000000E+00 -0.93996374954E+03  0.93996374954E+03  0.00000000000E+00 0. -1.
         25    1    1    2    0    0 -0.38305838441E+02  0.20312184068E+02 -0.21810125002E+03  0.25509425188E+03  0.12500000000E+03 0.  0.
         25    1    1    2    0    0  0.11728666558E+03 -0.22215366379E+03 -0.51420300785E+03  0.58577994635E+03  0.12500000000E+03 0.  0.
         25    1    1    2    0    0 -0.78980827139E+02  0.20184147973E+03 -0.51331898329E+02  0.25541714465E+03  0.12500000000E+03 0.  0.
</event>
<event>
 5    0  0.5851292E-005  0.6207482E+03  0.7546771E-02  0.9863271E-01
         21   -1    0    0  502  501  0.00000000000E+00  0.00000000000E+00  0.18891179611E+04  0.18891179611E+04  0.00000000000E+00 0.  1.
         21   -1    0    0  501  502 -0.00000000000E+00 -0.00000000000E+00 -0.20397263202E+03  0.20397263202E+03  0.00000000000E+00 0. -1.
         25    1    1    2    0    0  0.35882227573E+03  0.22434975797E+03  0.58764752237E+03  0.73487471722E+03  0.12500000000E+03 0.  0.
         25    1    1    2    0    0  0.14230645958E+03 -0.64683409961E+02  0.56498167584E+03  0.59938665817E+03  0.12500000000E+03 0.  0.
         25    1    1    2    0    0 -0.50112873531E+03 -0.15966634801E+03  0.53251613086E+03  0.75882921772E+03  0.12500000000E+03 0.  0.
</event>
<event>
 5    0  0.5851292E-005  0.4305185E+03  0.7546771E-02  0.1033696E+00
         21   -1    0    0  502  501  0.00000000000E+00  0.00000000000E+00  0.26619782981E+03  0.26619782981E+03  0.00000000000E+00 0. -1.
         21   -1    0    0  501  502 -0.00000000000E+00 -0.00000000000E+00 -0.69627243822E+03  0.69627243822E+03  0.00000000000E+00 0. -1.
         25    1    1    2    0    0 -0.24091780023E+03 -0.82644134672E+02 -0.46845613942E+03  0.54767471552E+03  0.12500000000E+03 0.  0.
         25    1    1    2    0    0  0.19054118311E+03  0.13272289421E+03  0.57046874733E+02  0.26981596510E+03  0.12500000000E+03 0.  0.
         25    1    1    2    0    0  0.50376617119E+02 -0.50078759533E+02 -0.18665343729E+02  0.14497958741E+03  0.12500000000E+03 0.  0.
</event>
<event>
 5    0  0.5851292E-005  0.3363025E+03  0.7546771E-02  0.1068382E+00
         21   -1    0    0  502  501  0.00000000000E+00  0.00000000000E+00  0.46663249429E+03  0.46663249429E+03  0.00000000000E+00 0. -1.
         21   -1    0    0  501  502 -0.00000000000E+00 -0.00000000000E+00 -0.24237348312E+03  0.24237348312E+03  0.00000000000E+00 0. -1.
         25    1    1    2    0    0 -0.18207804552E+03 -0.37906774836E+02  0.43208270552E+02  0.22821326184E+03  0.12500000000E+03 0.  0.
         25    1    1    2    0    0  0.11855541947E+03  0.17017427698E+03  0.15187308566E+03  0.28584105055E+03  0.12500000000E+03 0.  0.
         25    1    1    2    0    0  0.63522626045E+02 -0.13226750215E+03  0.29177654958E+02  0.19495166502E+03  0.12500000000E+03 0.  0.
</event>
<event>
 5    0  0.5851292E-005  0.3531517E+03  0.7546771E-02  0.1061329E+00
         21   -1    0    0  502  501  0.00000000000E+00  0.00000000000E+00  0.94979448052E+03  0.94979448052E+03  0.00000000000E+00 0.  1.
         21   -1    0    0  501  502 -0.00000000000E+00 -0.00000000000E+00 -0.13130853641E+03  0.13130853641E+03  0.00000000000E+00 0.  1.
         25    1    1    2    0    0 -0.58457921902E+02  0.74282508492E+02  0.91115127615E+02  0.18127930434E+03  0.12500000000E+03 0.  0.
         25    1    1    2    0    0  0.76724318732E+02  0.87177535359E+02  0.30374909247E+02  0.17330371856E+03  0.12500000000E+03 0.  0.
         25    1    1    2    0    0 -0.18266396830E+02 -0.16146004385E+03  0.69699590724E+03  0.72651999403E+03  0.12500000000E+03 0.  0.
</event>
<event>
 5    0  0.5851292E-005  0.2773260E+03  0.7546771E-02  0.1097158E+00
         21   -1    0    0  502  501  0.00000000000E+00  0.00000000000E+00  0.91696928756E+03  0.91696928756E+03  0.00000000000E+00 0. -1.
         21   -1    0    0  501  502 -0.00000000000E+00 -0.00000000000E+00 -0.83873798645E+02  0.83873798645E+02  0.00000000000E+00 0. -1.
         25    1    1    2    0    0 -0.18144961336E+03  0.24773978000E+01  0.46968999320E+03  0.51880997427E+03  0.12500000000E+03 0.  0.
         25    1    1    2    0    0  0.83025646324E+02 -0.31910981734E+02  0.20014496675E+03  0.25217965108E+03  0.12500000000E+03 0.  0.
         25    1    1    2    0    0  0.98423967034E+02  0.29433583934E+02  0.16326052896E+03  0.22985346086E+03  0.12500000000E+03 0.  0.
</event>
<event>
 5    0  0.5851292E-005  0.2522176E+03  0.7546771E-02  0.1111911E+00
         21   -1    0    0  502  501  0.00000000000E+00  0.00000000000E+00  0.35177801856E+03  0.35177801856E+03  0.00000000000E+00 0.  1.
         21   -1    0    0  501  502 -0.00000000000E+00 -0.00000000000E+00 -0.18083480299E+03  0.18083480299E+03  0.00000000000E+00 0.  1.
         25    1    1    2    0    0 -0.75506805842E+01  0.37513643658E+01 -0.27883136834E+02  0.12834934683E+03  0.12500000000E+03 0.  0.
         25    1    1    2    0    0  0.72778792348E+02  0.56119717942E+02  0.19740361592E+03  0.25107640856E+03  0.12500000000E+03 0.  0.
         25    1    1    2    0    0 -0.65228111764E+02 -0.59871082308E+02  0.14227364859E+01  0.15318706616E+03  0.12500000000E+03 0.  0.
</event>
<event>
 5    0  0.5851292E-005  0.3785788E+03  0.7546771E-02  0.1051460E+00
         21   -1    0    0  502  501  0.00000000000E+00  0.00000000000E+00  0.18385529678E+03  0.18385529678E+03  0.00000000000E+00 0. -1.
         21   -1    0    0  501  502 -0.00000000000E+00 -0.00000000000E+00 -0.77953636536E+03  0.77953636536E+03  0.00000000000E+00 0. -1.
         25    1    1    2    0    0  0.34273004833E+02  0.53930988785E+01 -0.30245014760E+03  0.32909697076E+03  0.12500000000E+03 0.  0.
         25    1    1    2    0    0 -0.13112904211E+03  0.20174064948E+03 -0.45877586121E+02  0.27499794226E+03  0.12500000000E+03 0.  0.
         25    1    1    2    0    0  0.96856037274E+02 -0.20713374836E+03 -0.24735333486E+03  0.35929674913E+03  0.12500000000E+03 0.  0.
</event>
<event>
 5    0  0.5851292E-005  0.4359482E+03  0.7546771E-02  0.1031997E+00
         21   -1    0    0  502  501  0.00000000000E+00  0.00000000000E+00  0.11449798553E+03  0.11449798553E+03  0.00000000000E+00 0. -1.
         21   -1    0    0  501  502 -0.00000000000E+00 -0.00000000000E+00 -0.16598616823E+04  0.16598616823E+04  0.00000000000E+00 0. -1.
         25    1    1    2    0    0 -0.20149333955E+02  0.98151012423E+02 -0.29865165683E+03  0.33890622453E+03  0.12500000000E+03 0.  0.
         25    1    1    2    0    0  0.26815879025E+03  0.44945740650E+02 -0.24689161975E+03  0.38795583291E+03  0.12500000000E+03 0.  0.
         25    1    1    2    0    0 -0.24800945629E+03 -0.14309675307E+03 -0.99982042017E+03  0.10474976104E+04  0.12500000000E+03 0.  0.
</event>
<event>
 5    0  0.5851292E-005  0.3208715E+03  0.7546771E-02  0.1075249E+00
         21   -1    0    0  502  501  0.00000000000E+00  0.00000000000E+00  0.31692632940E+03  0.31692632940E+03  0.00000000000E+00 0. -1.
         21   -1    0    0  501  502 -0.00000000000E+00 -0.00000000000E+00 -0.32486583490E+03  0.32486583490E+03  0.00000000000E+00 0. -1.
         25    1    1    2    0    0  0.73541755780E+01  0.12067005728E+03  0.70576130581E+02  0.18767348462E+03  0.12500000000E+03 0.  0.
         25    1    1    2    0    0 -0.68490060665E+02 -0.19981699791E+03  0.47979668276E+02  0.25008952323E+03  0.12500000000E+03 0.  0.
         25    1    1    2    0    0  0.61135885087E+02  0.79146940633E+02 -0.12649530436E+03  0.20402915645E+03  0.12500000000E+03 0.  0.
</event>
<event>
 5    0  0.5851292E-005  0.3445010E+03  0.7546771E-02  0.1064895E+00
         21   -1    0    0  502  501  0.00000000000E+00  0.00000000000E+00  0.41649388355E+02  0.41649388355E+02  0.00000000000E+00 0.  1.
         21   -1    0    0  501  502 -0.00000000000E+00 -0.00000000000E+00 -0.28495242146E+04  0.28495242146E+04  0.00000000000E+00 0.  1.
         25    1    1    2    0    0 -0.28637755270E+00  0.15263790990E+03 -0.16729421683E+04  0.16845352213E+04  0.12500000000E+03 0.  0.
         25    1    1    2    0    0 -0.20587179785E+02 -0.22903422927E+03 -0.73392402143E+03  0.77919829272E+03  0.12500000000E+03 0.  0.
         25    1    1    2    0    0  0.20873557338E+02  0.76396319369E+02 -0.40100863653E+03  0.42744008888E+03  0.12500000000E+03 0.  0.
</event>
<event>
 5    0  0.5851292E-005  0.3922306E+03  0.7546771E-02  0.1046504E+00
         21   -1    0    0  502  501  0.00000000000E+00  0.00000000000E+00  0.20320354243E+03  0.20320354243E+03  0.00000000000E+00 0.  1.
         21   -1    0    0  501  502 -0.00000000000E+00 -0.00000000000E+00 -0.75709707089E+03  0.75709707089E+03  0.00000000000E+00 0.  1.
         25    1    1    2    0    0  0.81364951322E+02 -0.51303322205E+02 -0.40027387900E+03  0.43022838630E+03  0.12500000000E+03 0.  0.
         25    1    1    2    0    0 -0.34448023700E+02 -0.17988222661E+03  0.63448086582E+00  0.22174238285E+03  0.12500000000E+03 0.  0.
         25    1    1    2    0    0 -0.46916927621E+02  0.23118554882E+03 -0.15425413032E+03  0.30832984416E+03  0.12500000000E+03 0.  0.
</event>
<event>
 5    0  0.5851292E-005  0.3731025E+03  0.7546771E-02  0.1053513E+00
         21   -1    0    0  502  501  0.00000000000E+00  0.00000000000E+00  0.24368588828E+04  0.24368588828E+04  0.00000000000E+00 0.  1.
         21   -1    0    0  501  502 -0.00000000000E+00 -0.00000000000E+00 -0.57124951364E+02  0.57124951364E+02  0.00000000000E+00 0.  1.
         25    1    1    2    0    0 -0.21350836990E+03 -0.47104497928E+02  0.84144259593E+03  0.87832528142E+03  0.12500000000E+03 0.  0.
         25    1    1    2    0    0  0.12256154668E+03 -0.42645220540E+02  0.21575075445E+03  0.28109310843E+03  0.12500000000E+03 0.  0.
         25    1    1    2    0    0  0.90946823215E+02  0.89749718468E+02  0.13225405811E+04  0.13345654443E+04  0.12500000000E+03 0.  0.
</event>
<event>
 5    0  0.5851292E-005  0.2475245E+03  0.7546771E-02  0.1114879E+00
         21   -1    0    0  502  501  0.00000000000E+00  0.00000000000E+00  0.12822615836E+04  0.12822615836E+04  0.00000000000E+00 0.  1.
         21   -1    0    0  501  502 -0.00000000000E+00 -0.00000000000E+00 -0.47781492670E+02  0.47781492670E+02  0.00000000000E+00 0.  1.
         25    1    1    2    0    0 -0.13172772684E+01  0.12204361497E+03  0.43050087152E+03  0.46459916008E+03  0.12500000000E+03 0.  0.
         25    1    1    2    0    0 -0.49044144990E+02 -0.11132875435E+03  0.33944002077E+03  0.38163326297E+03  0.12500000000E+03 0.  0.
         25    1    1    2    0    0  0.50361422258E+02 -0.10714860618E+02  0.46453919866E+03  0.48381065324E+03  0.12500000000E+03 0.  0.
</event>
<event>
 5    0  0.5851292E-005  0.5190764E+03  0.7546771E-02  0.1008916E+00
         21   -1    0    0  502  501  0.00000000000E+00  0.00000000000E+00  0.27184836121E+03  0.27184836121E+03  0.00000000000E+00 0.  1.
         21   -1    0    0  501  502 -0.00000000000E+00 -0.00000000000E+00 -0.99114210279E+03  0.99114210279E+03  0.00000000000E+00 0.  1.
         25    1    1    2    0    0  0.26328598734E+03  0.15432130632E+03 -0.26871569604E+03  0.42540298778E+03  0.12500000000E+03 0.  0.
         25    1    1    2    0    0  0.23823184782E+02  0.10024364361E+03  0.72043519280E+02  0.17728959611E+03  0.12500000000E+03 0.  0.
         25    1    1    2    0    0 -0.28710917212E+03 -0.25456494994E+03 -0.52262156483E+03  0.66029788011E+03  0.12500000000E+03 0.  0.
</event>
<event>
 5    0  0.5851292E-005  0.2504386E+03  0.7546771E-02  0.1113028E+00
         21   -1    0    0  502  501  0.00000000000E+00  0.00000000000E+00  0.24846992618E+03  0.24846992618E+03  0.00000000000E+00 0.  1.
         21   -1    0    0  501  502 -0.00000000000E+00 -0.00000000000E+00 -0.25242286376E+03  0.25242286376E+03  0.00000000000E+00 0.  1.
         25    1    1    2    0    0 -0.83484861401E+02 -0.63925786589E+02  0.58126451776E+02  0.17337794747E+03  0.12500000000E+03 0.  0.
         25    1    1    2    0    0  0.51780014489E+02  0.11579586820E+03 -0.76867788244E+01  0.17825246018E+03  0.12500000000E+03 0.  0.
         25    1    1    2    0    0  0.31704846912E+02 -0.51870081610E+02 -0.54392610527E+02  0.14926238228E+03  0.12500000000E+03 0.  0.
</event>
<event>
 5    0  0.5851292E-005  0.3428418E+03  0.7546771E-02  0.1065592E+00
         21   -1    0    0  502  501  0.00000000000E+00  0.00000000000E+00  0.72415080197E+03  0.72415080197E+03  0.00000000000E+00 0. -1.
         21   -1    0    0  501  502 -0.00000000000E+00 -0.00000000000E+00 -0.16231492683E+03  0.16231492683E+03  0.00000000000E+00 0. -1.
         25    1    1    2    0    0 -0.18651641302E+03 -0.85272534492E+01  0.36642588906E+03  0.42983022061E+03  0.12500000000E+03 0.  0.
         25    1    1    2    0    0 -0.14822908332E+02  0.81027487328E+02  0.15729031288E+02  0.15052433272E+03  0.12500000000E+03 0.  0.
         25    1    1    2    0    0  0.20133932135E+03 -0.72500233878E+02  0.17968095480E+03  0.30611117548E+03  0.12500000000E+03 0.  0.
</event>
<event>
 5    0  0.5851292E-005  0.3859206E+03  0.7546771E-02  0.1048767E+00
         21   -1    0    0  502  501  0.00000000000E+00  0.00000000000E+00  0.81334834564E+03  0.81334834564E+03  0.00000000000E+00 0.  1.
         21   -1    0    0  501  502 -0.00000000000E+00 -0.00000000000E+00 -0.18311306354E+03  0.18311306354E+03  0.00000000000E+00 0.  1.
         25    1    1    2    0    0  0.84836218670E+01  0.19251364360E+03  0.13504870247E+02  0.23008880097E+03  0.12500000000E+03 0.  0.
         25    1    1    2    0    0 -0.11411961830E+03 -0.21335764833E+03  0.27569441849E+03  0.38752701295E+03  0.12500000000E+03 0.  0.
         25    1    1    2    0    0  0.10563599643E+03  0.20844004736E+02  0.34103599337E+03  0.37884559526E+03  0.12500000000E+03 0.  0.
</event>
<event>
 5    0  0.5851292E-005  0.4309878E+03  0.7546771E-02  0.1033548E+00
         21   -1    0    0  502  501  0.00000000000E+00  0.00000000000E+00  0.26018350151E+03  0.26018350151E+03  0.00000000000E+00 0. -1.
         21   -1    0    0  501  502 -0.00000000000E+00 -0.00000000000E+00 -0.71392114554E+03  0.71392114554E+03  0.00000000000E+00 0. -1.
         25    1    1    2    0    0  0.10486170757E+03  0.21710979093E+03 -0.42066783240E+03  0.50071854794E+03  0.12500000000E+03 0.  0.
         25    1    1    2    0    0 -0.17872828233E+03 -0.87604926894E+01 -0.14850985247E+02  0.21878321897E+03  0.12500000000E+03 0.  0.
         25    1    1    2    0    0  0.73866574767E+02 -0.20834929824E+03 -0.18218826383E+02  0.25460288015E+03  0.12500000000E+03 0.  0.
</event>
<event>
 5    0  0.5851292E-005  0.3003948E+03  0.7546771E-02  0.1085043E+00
         21   -1    0    0  502  501  0.00000000000E+00  0.00000000000E+00  0.27700430868E+03  0.27700430868E+03  0.00000000000E+00 0.  1.
         21   -1    0    0  501  502 -0.00000000000E+00 -0.00000000000E+00 -0.32576037532E+03  0.32576037532E+03  0.00000000000E+00 0.  1.
         25    1    1    2    0    0  0.97223256782E+02  0.80092892479E+02 -0.40859482076E+02  0.18210362534E+03  0.12500000000E+03 0.  0.
         25    1    1    2    0    0  0.50497618117E+02 -0.67785699982E+02 -0.12343060757E+03  0.19494877646E+03  0.12500000000E+03 0.  0.
         25    1    1    2    0    0 -0.14772087490E+03 -0.12307192497E+02  0.11553402300E+03  0.22571228221E+03  0.12500000000E+03 0.  0.
</event>
<event>
 5    0  0.5851292E-005  0.4118340E+03  0.7546771E-02  0.1039757E+00
         21   -1    0    0  502  501  0.00000000000E+00  0.00000000000E+00  0.71719678827E+03  0.71719678827E+03  0.00000000000E+00 0.  1.
         21   -1    0    0  501  502 -0.00000000000E+00 -0.00000000000E+00 -0.23648637773E+03  0.23648637773E+03  0.00000000000E+00 0.  1.
         25    1    1    2    0    0 -0.26741737376E+03 -0.16682223448E+03  0.24972159540E+03  0.42110281989E+03  0.12500000000E+03 0.  0.
         25    1    1    2    0    0  0.23733266665E+03  0.39999654838E+01  0.16466282279E+03  0.31477236155E+03  0.12500000000E+03 0.  0.
         25    1    1    2    0    0  0.30084707110E+02  0.16282226900E+03  0.66325992345E+02  0.21780798457E+03  0.12500000000E+03 0.  0.
</event>
<event>
 5    0  0.5851292E-005  0.2692569E+03  0.7546771E-02  0.1101706E+00
         21   -1    0    0  502  501  0.00000000000E+00  0.00000000000E+00  0.24274648200E+03  0.24274648200E+03  0.00000000000E+00 0. -1.
         21   -1    0    0  501  502 -0.00000000000E+00 -0.00000000000E+00 -0.29866253890E+03  0.29866253890E+03  0.00000000000E+00 0. -1.
         25    1    1    2    0    0  0.31080814982E+02  0.20982884962E+02 -0.16493475233E+03  0.21032063866E+03  0.12500000000E+03 0.  0.
         25    1    1    2    0    0 -0.52273223497E+02  0.47348310707E+02 -0.10531489112E+02  0.14391061352E+03  0.12500000000E+03 0.  0.
         25    1    1    2    0    0  0.21192408515E+02 -0.68331195669E+02  0.11955018454E+03  0.18717776872E+03  0.12500000000E+03 0.  0.
</event>
<event>
 5    0  0.5851292E-005  0.3011725E+03  0.7546771E-02  0.1084656E+00
         21   -1    0    0  502  501  0.00000000000E+00  0.00000000000E+00  0.44747739804E+03  0.44747739804E+03  0.00000000000E+00 0.  1.
         21   -1    0    0  501  502 -0.00000000000E+00 -0.00000000000E+00 -0.20270269143E+03  0.20270269143E+03  0.00000000000E+00 0.  1.
         25    1    1    2    0    0  0.28186669983E+02 -0.12946254570E+03  0.14774308840E+03  0.23453796979E+03  0.12500000000E+03 0.  0.
         25    1    1    2    0    0 -0.58664091067E+02 -0.78103695017E+02  0.54612770603E+02  0.16777728532E+03  0.12500000000E+03 0.  0.
         25    1    1    2    0    0  0.30477421084E+02  0.20756624071E+03  0.42418847613E+02  0.24786483436E+03  0.12500000000E+03 0.  0.
</event>
<event>
 5    0  0.5851292E-005  0.2263859E+03  0.7546771E-02  0.1129210E+00
         21   -1    0    0  502  501  0.00000000000E+00  0.00000000000E+00  0.13556503101E+03  0.13556503101E+03  0.00000000000E+00 0. -1.
         21   -1    0    0  501  502 -0.00000000000E+00 -0.00000000000E+00 -0.37805164763E+03  0.37805164763E+03  0.00000000000E+00 0. -1.
         25    1    1    2    0    0 -0.62874645259E+02  0.44441484958E+00 -0.84199251722E+02  0.16330319198E+03  0.12500000000E+03 0.  0.
         25    1    1    2    0    0  0.50858700333E+02 -0.82916833126E+01 -0.17739935231E+03  0.22304907444E+03  0.12500000000E+03 0.  0.
         25    1    1    2    0    0  0.12015944926E+02  0.78472684630E+01  0.19111987405E+02  0.12726441222E+03  0.12500000000E+03 0.  0.
</event>
<event>
 5    0  0.5851292E-005  0.5936762E+03  0.7546771E-02  0.9918614E-01
         21   -1    0    0  502  501  0.00000000000E+00  0.00000000000E+00  0.45070745044E+03  0.45070745044E+03  0.00000000000E+00 0.  1.
         21   -1    0    0  501  502 -0.00000000000E+00 -0.00000000000E+00 -0.78199593781E+03  0.78199593781E+03  0.00000000000E+00 0.  1.
         25    1    1    2    0    0  0.40921067742E+03 -0.34839258557E+02 -0.25297925962E+03  0.49828772637E+03  0.12500000000E+03 0.  0.
         25    1    1    2    0    0 -0.30192102050E+02 -0.26017660836E+02 -0.26036412413E+03  0.29155266906E+03  0.12500000000E+03 0.  0.
         25    1    1    2    0    0 -0.37901857537E+03  0.60856919393E+02  0.18205489638E+03  0.44286299282E+03  0.12500000000E+03 0.  0.
</event>
<event>
 5    0  0.5851292E-005  0.3297958E+03  0.7546771E-02  0.1071227E+00
         21   -1    0    0  502  501  0.00000000000E+00  0.00000000000E+00  0.40752199927E+03  0.40752199927E+03  0.00000000000E+00 0. -1.
         21   -1    0    0  501  502 -0.00000000000E+00 -0.00000000000E+00 -0.26689420172E+03  0.26689420172E+03  0.00000000000E+00 0. -1.
         25    1    1    2    0    0  0.69656104192E+02 -0.89252532810E+02 -0.71354052798E+02  0.18312396980E+03  0.12500000000E+03 0.  0.
         25    1    1    2    0    0  0.74359580400E+02 -0.98269505310E+02  0.91657448642E+02  0.19802103616E+03  0.12500000000E+03 0.  0.
         25    1    1    2    0    0 -0.14401568459E+03  0.18752203812E+03  0.12032440170E+03  0.29327119503E+03  0.12500000000E+03 0.  0.
</event>
<event>
 5    0  0.5851292E-005  0.2836215E+03  0.7546771E-02  0.1093727E+00
         21   -1    0    0  502  501  0.00000000000E+00  0.00000000000E+00  0.56769925229E+03  0.56769925229E+03  0.00000000000E+00 0. -1.
         21   -1    0    0  501  502 -0.00000000000E+00 -0.00000000000E+00 -0.14169673973E+03  0.14169673973E+03  0.00000000000E+00 0. -1.
         25    1    1    2    0    0  0.10657121278E+02 -0.43774870946E+02  0.37172775572E+02  0.13797329018E+03  0.12500000000E+03 0.  0.
         25    1    1    2    0    0  0.59500227151E+02  0.16975904826E+03  0.26550819701E+03  0.34420635406E+03  0.12500000000E+03 0.  0.
         25    1    1    2    0    0 -0.70157348428E+02 -0.12598417731E+03  0.12332153997E+03  0.22721634777E+03  0.12500000000E+03 0.  0.
</event>
<event>
 5    0  0.5851292E-005  0.3150950E+03  0.7546771E-02  0.1077929E+00
         21   -1    0    0  502  501  0.00000000000E+00  0.00000000000E+00  0.72362369804E+02  0.72362369804E+02  0.00000000000E+00 0. -1.
         21   -1    0    0  501  502 -0.00000000000E+00 -0.00000000000E+00 -0.13720506656E+04  0.13720506656E+04  0.00000000000E+00 0. -1.
         25    1    1    2    0    0 -0.16505172899E+03  0.12589266516E+03 -0.28729732949E+03  0.37584011483E+03  0.12500000000E+03 0.  0.
         25    1    1    2    0    0  0.11622691952E+03 -0.26833888645E+02 -0.45254137346E+03  0.48440422076E+03  0.12500000000E+03 0.  0.
         25    1    1    2    0    0  0.48824809475E+02 -0.99058776519E+02 -0.55984959289E+03  0.58416869985E+03  0.12500000000E+03 0.  0.
</event>
<event>
 5    0  0.5851292E-005  0.3052055E+03  0.7546771E-02  0.1082667E+00
         21   -1    0    0  502  501  0.00000000000E+00  0.00000000000E+00  0.69011991150E+03  0.69011991150E+03  0.00000000000E+00 0.  1.
         21   -1    0    0  501  502 -0.00000000000E+00 -0.00000000000E+00 -0.13497707668E+03  0.13497707668E+03  0.00000000000E+00 0.  1.
         25    1    1    2    0    0 -0.74173320449E+02  0.17864144304E+02 -0.25003327538E+02  0.14856303546E+03  0.12500000000E+03 0.  0.
         25    1    1    2    0    0 -0.73149415251E+02 -0.34930289522E+02  0.31030910058E+03  0.34422042354E+03  0.12500000000E+03 0.  0.
         25    1    1    2    0    0  0.14732273570E+03  0.17066145218E+02  0.26983706178E+03  0.33231352918E+03  0.12500000000E+03 0.  0.
</event>
<event>
 5    0  0.5851292E-005  0.2812815E+03  0.7546771E-02  0.1094991E+00
         21   -1    0    0  502  501  0.00000000000E+00  0.00000000000E+00  0.10604226961E+03  0.10604226961E+03  0.00000000000E+00 0.  1.
         21   -1    0    0  501  502 -0.00000000000E+00 -0.00000000000E+00 -0.74611090948E+03  0.74611090948E+03  0.00000000000E+00 0.  1.
         25    1    1    2    0    0 -0.11632495966E+03  0.17268757629E+02 -0.27015675517E+03  0.32006152314E+03  0.12500000000E+03 0.  0.
         25    1    1    2    0    0  0.13722496929E+03 -0.13618615050E+02 -0.57291887071E+02  0.19473961897E+03  0.12500000000E+03 0.  0.
         25    1    1    2    0    0 -0.20900009626E+02 -0.36501425782E+01 -0.31261999763E+03  0.33735203699E+03  0.12500000000E+03 0.  0.
</event>
<event>
 5    0  0.5851292E-005  0.3515374E+03  0.7546771E-02  0.1061986E+00
         21   -1    0    0  502  501  0.00000000000E+00  0.00000000000E+00  0.45248744976E+03  0.45248744976E+03  0.00000000000E+00 0. -1.
         21   -1    0    0  501  502 -0.00000000000E+00 -0.00000000000E+00 -0.27310925875E+03  0.27310925875E+03  0.00000000000E+00 0. -1.
         25    1    1    2    0    0  0.72912519707E+02  0.11958950281E+03  0.21452359404E+03  0.28506710984E+03  0.12500000000E+03 0.  0.
         25    1    1    2    0    0  0.60405524289E+02  0.21458535311E+02  0.10054359457E+03  0.17275216500E+03  0.12500000000E+03 0.  0.
         25    1    1    2    0    0 -0.13331804400E+03 -0.14104803812E+03 -0.13568899760E+03  0.26777743367E+03  0.12500000000E+03 0.  0.
</event>
<event>
 5    0  0.5851292E-005  0.3169857E+03  0.7546771E-02  0.1077045E+00
         21   -1    0    0  502  501  0.00000000000E+00  0.00000000000E+00  0.84209644032E+03  0.84209644032E+03  0.00000000000E+00 0. -1.
         21   -1    0    0  501  502 -0.00000000000E+00 -0.00000000000E+00 -0.11932118210E+03  0.11932118210E+03  0.00000000000E+00 0. -1.
         25    1    1    2    0    0  0.50414818799E+02  0.36483329248E+02  0.71805830585E+02  0.15701517307E+03  0.12500000000E+03 0.  0.
         25    1    1    2    0    0 -0.16967142436E+03 -0.13986459804E+03  0.24952274601E+03  0.35529860513E+03  0.12500000000E+03 0.  0.
         25    1    1    2    0    0  0.11925660557E+03  0.10338126879E+03  0.40144668162E+03  0.44910384422E+03  0.12500000000E+03 0.  0.
</event>
<event>
 5    0  0.6108369E-005  0.4141483E+03  0.7546771E-02  0.1038988E+00
         21   -1    0    0  502  501  0.00000000000E+00  0.00000000000E+00  0.24149536860E+03  0.24149536860E+03  0.00000000000E+00 0. -1.
         21   -1    0    0  501  502 -0.00000000000E+00 -0.00000000000E+00 -0.71023650979E+03  0.71023650979E+03  0.00000000000E+00 0. -1.
         25    1    1    2    0    0  0.17342607040E+03  0.18866187374E+03 -0.28614166565E+03  0.40394548805E+03  0.12500000000E+03 0.  0.
         25    1    1    2    0    0  0.50879998885E+02 -0.56488125964E+02  0.71746671209E+02  0.16294866520E+03  0.12500000000E+03 0.  0.
         25    1    1    2    0    0 -0.22430606928E+03 -0.13217374777E+03 -0.25434614675E+03  0.38483772513E+03  0.12500000000E+03 0.  0.
</event>
<event>
 5    0  0.5851292E-005  0.2163046E+03  0.7546771E-02  0.1136668E+00
         21   -1    0    0  502  501  0.00000000000E+00  0.00000000000E+00  0.55411664597E+03  0.55411664597E+03  0.00000000000E+00 0. -1.
         21   -1    0    0  501  502 -0.00000000000E+00 -0.00000000000E+00 -0.84436498088E+02  0.84436498088E+02  0.00000000000E+00 0. -1.
         25    1    1    2    0    0 -0.44377049544E+02 -0.21259020897E+02  0.92659001436E+02  0.16319301162E+03  0.12500000000E+03 0.  0.
         25    1    1    2    0    0  0.85981462147E+02 -0.63256800806E+01  0.16514071612E+03  0.22434188682E+03  0.12500000000E+03 0.  0.
         25    1    1    2    0    0 -0.41604412603E+02  0.27584700978E+02  0.21188043032E+03  0.25101824561E+03  0.12500000000E+03 0.  0.
</event>
<event>
 5    0  0.5851292E-005  0.3197440E+03  0.7546771E-02  0.1075767E+00
         21   -1    0    0  502  501  0.00000000000E+00  0.00000000000E+00  0.59916157806E+02  0.59916157806E+02  0.00000000000E+00 0. -1.
         21   -1    0    0  501  502 -0.00000000000E+00 -0.00000000000E+00 -0.17063212128E+04  0.17063212128E+04  0.00000000000E+00 0. -1.
         25    1    1    2    0    0 -0.18466820618E+01  0.96497640442E+02 -0.84002074222E+03  0.85473683213E+03  0.12500000000E+03 0.  0.
         25    1    1    2    0    0  0.24880728480E+02 -0.13804495852E+03 -0.73754336235E+03  0.76109833305E+03  0.12500000000E+03 0.  0.
         25    1    1    2    0    0 -0.23034046418E+02  0.41547318082E+02 -0.68840950384E+02  0.15040220538E+03  0.12500000000E+03 0.  0.
</event>
<event>
 5    0  0.5851292E-005  0.3822620E+03  0.7546771E-02  0.1050101E+00
         21   -1    0    0  502  501  0.00000000000E+00  0.00000000000E+00  0.85442530150E+03  0.85442530150E+03  0.00000000000E+00 0. -1.
         21   -1    0    0  501  502 -0.00000000000E+00 -0.00000000000E+00 -0.17102053160E+03  0.17102053160E+03  0.00000000000E+00 0. -1.
         25    1    1    2    0    0 -0.72780454067E+02 -0.10429695968E+03  0.41781557540E+02  0.18315443987E+03  0.12500000000E+03 0.  0.
         25    1    1    2    0    0  0.13426857493E+03 -0.14308295340E+03  0.42744970276E+03  0.48666110401E+03  0.12500000000E+03 0.  0.
         25    1    1    2    0    0 -0.61488120863E+02  0.24737991308E+03  0.21417350960E+03  0.35563028923E+03  0.12500000000E+03 0.  0.
</event>
<event>
 5    0  0.5851292E-005  0.5095684E+03  0.7546771E-02  0.1011311E+00
         21   -1    0    0  502  501  0.00000000000E+00  0.00000000000E+00  0.20889007091E+03  0.20889007091E+03  0.00000000000E+00 0.  1.
         21   -1    0    0  501  502 -0.00000000000E+00 -0.00000000000E+00 -0.12430461477E+04  0.12430461477E+04  0.00000000000E+00 0.  1.
         25    1    1    2    0    0 -0.16979922478E+03  0.14566859638E+03 -0.97843409407E+02  0.27431633103E+03  0.12500000000E+03 0.  0.
         25    1    1    2    0    0 -0.15892555458E+03  0.14431323137E+03 -0.42797731924E+03  0.49484666961E+03  0.12500000000E+03 0.  0.
         25    1    1    2    0    0  0.32872477937E+03 -0.28998182775E+03 -0.50833534819E+03  0.68277321800E+03  0.12500000000E+03 0.  0.
</event>
<event>
 5    0  0.5851292E-005  0.2730807E+03  0.7546771E-02  0.1099529E+00
         21   -1    0    0  502  501  0.00000000000E+00  0.00000000000E+00  0.35818021041E+03  0.35818021041E+03  0.00000000000E+00 0. -1.
         21   -1    0    0  501  502 -0.00000000000E+00 -0.00000000000E+00 -0.20819987525E+03  0.20819987525E+03  0.00000000000E+00 0. -1.
         25    1    1    2    0    0  0.12124737060E+03  0.26897668099E+02  0.17573643219E+03  0.24886281969E+03  0.12500000000E+03 0.  0.
         25    1    1    2    0    0 -0.93585140544E+02 -0.50521045208E+02 -0.72194060324E+02  0.17929734210E+03  0.12500000000E+03 0.  0.
         25    1    1    2    0    0 -0.27662230053E+02  0.23623377108E+02  0.46437963303E+02  0.13821992386E+03  0.12500000000E+03 0.  0.
</event>
<event>
 5    0  0.6726903E-005  0.3498879E+03  0.7546771E-02  0.1062661E+00
         21   -1    0    0  502  501  0.00000000000E+00  0.00000000000E+00  0.11071383563E+04  0.11071383563E+04  0.00000000000E+00 0.  1.
         21   -1    0    0  501  502 -0.00000000000E+00 -0.00000000000E+00 -0.11057473354E+03  0.11057473354E+03  0.00000000000E+00 0.  1.
         25    1    1    2    0    0  0.10594219262E+02 -0.18220288784E+02 -0.29342778025E+02  0.13011615975E+03  0.12500000000E+03 0.  0.
         25    1    1    2    0    0  0.57991560762E+02 -0.10280978458E+03  0.55069525638E+03  0.57690825815E+03  0.12500000000E+03 0.  0.
         25    1    1    2    0    0 -0.68585780024E+02  0.12103007336E+03  0.47521114445E+03  0.51068867198E+03  0.12500000000E+03 0.  0.
</event>
<event>
 5    0  0.5851292E-005  0.2653345E+03  0.7546771E-02  0.1103980E+00
         21   -1    0    0  502  501  0.00000000000E+00  0.00000000000E+00  0.27434773310E+03  0.27434773310E+03  0.00000000000E+00 0. -1.
         21   -1    0    0  501  502 -0.00000000000E+00 -0.00000000000E+00 -0.25661731147E+03  0.25661731147E+03  0.00000000000E+00 0. -1.
         25    1    1    2    0    0  0.84438251325E+02  0.36229675901E+02  0.71506747646E+02  0.17082336685E+03  0.12500000000E+03 0.  0.
         25    1    1    2    0    0 -0.40403208325E+02  0.79505146959E+02 -0.93476935769E+02  0.17976769776E+03  0.12500000000E+03 0.  0.
         25    1    1    2    0    0 -0.44035043000E+02 -0.11573482286E+03  0.39700609752E+02  0.18037397997E+03  0.12500000000E+03 0.  0.
</event>
<event>
 5    0  0.5851292E-005  0.3276067E+03  0.7546771E-02  0.1072201E+00
         21   -1    0    0  502  501  0.00000000000E+00  0.00000000000E+00  0.27028355719E+03  0.27028355719E+03  0.00000000000E+00 0.  1.
         21   -1    0    0  501  502 -0.00000000000E+00 -0.00000000000E+00 -0.39708728109E+03  0.39708728109E+03  0.00000000000E+00 0.  1.
         25    1    1    2    0    0 -0.11898621860E+03  0.15477311686E+02  0.38885759545E+02  0.17757919273E+03  0.12500000000E+03 0.  0.
         25    1    1    2    0    0  0.12693996677E+03  0.75046089628E+02 -0.24820217686E+03  0.31460291055E+03  0.12500000000E+03 0.  0.
         25    1    1    2    0    0 -0.79537481715E+01 -0.90523401314E+02  0.82512693419E+02  0.17518873500E+03  0.12500000000E+03 0.  0.
</event>
<event>
 5    0  0.5851292E-005  0.2555817E+03  0.7546771E-02  0.1109827E+00
         21   -1    0    0  502  501  0.00000000000E+00  0.00000000000E+00  0.46646239288E+03  0.46646239288E+03  0.00000000000E+00 0.  1.
         21   -1    0    0  501  502 -0.00000000000E+00 -0.00000000000E+00 -0.14003703868E+03  0.14003703868E+03  0.00000000000E+00 0.  1.
         25    1    1    2    0    0 -0.51062685168E+02 -0.68798077161E+01  0.15622417254E+03  0.20660523144E+03  0.12500000000E+03 0.  0.
         25    1    1    2    0    0  0.10612155008E+03 -0.81884364357E+02  0.14782811772E+03  0.23546758780E+03  0.12500000000E+03 0.  0.
         25    1    1    2    0    0 -0.55058864908E+02  0.88764172073E+02  0.22373063933E+02  0.16442661232E+03  0.12500000000E+03 0.  0.
</event>
<event>
 5    0  0.5851292E-005  0.2453906E+03  0.7546771E-02  0.1116253E+00
         21   -1    0    0  502  501  0.00000000000E+00  0.00000000000E+00  0.14529508020E+04  0.14529508020E+04  0.00000000000E+00 0. -1.
         21   -1    0    0  501  502 -0.00000000000E+00 -0.00000000000E+00 -0.41444328232E+02  0.41444328232E+02  0.00000000000E+00 0. -1.
         25    1    1    2    0    0 -0.32539774466E+02  0.48788706539E+01  0.24954536206E+03  0.28103474523E+03  0.12500000000E+03 0.  0.
         25    1    1    2    0    0  0.91487845291E+02 -0.93779889267E+02  0.51700023130E+03  0.54779460807E+03  0.12500000000E+03 0.  0.
         25    1    1    2    0    0 -0.58948070825E+02  0.88901018613E+02  0.64496088043E+03  0.66556577695E+03  0.12500000000E+03 0.  0.
</event>
<event>
 5    0  0.5851292E-005  0.3439785E+03  0.7546771E-02  0.1065114E+00
         21   -1    0    0  502  501  0.00000000000E+00  0.00000000000E+00  0.71840052774E+03  0.71840052774E+03  0.00000000000E+00 0. -1.
         21   -1    0    0  501  502 -0.00000000000E+00 -0.00000000000E+00 -0.16470089382E+03  0.16470089382E+03  0.00000000000E+00 0. -1.
         25    1    1    2    0    0 -0.68399035750E+02 -0.18375275918E+02  0.37850759904E+03  0.40485686531E+03  0.12500000000E+03 0.  0.
         25    1    1    2    0    0  0.15363671555E+03  0.61624599621E+02 -0.40407929212E+02  0.21132825743E+03  0.12500000000E+03 0.  0.
         25    1    1    2    0    0 -0.85237679800E+02 -0.43249323703E+02  0.21559996410E+03  0.26691629883E+03  0.12500000000E+03 0.  0.
</event>
<event>
 5    0  0.6137573E-005  0.2607011E+03  0.7546771E-02  0.1106723E+00
         21   -1    0    0  502  501  0.00000000000E+00  0.00000000000E+00  0.39169788399E+03  0.39169788399E+03  0.00000000000E+00 0. -1.
         21   -1    0    0  501  502 -0.00000000000E+00 -0.00000000000E+00 -0.17351403901E+03  0.17351403901E+03  0.00000000000E+00 0. -1.
         25    1    1    2    0    0 -0.86746622172E+02  0.10893833666E+03  0.19328277063E+03  0.26902744670E+03  0.12500000000E+03 0.  0.
         25    1    1    2    0    0  0.20021421565E+02 -0.81728454684E+02  0.77016675778E+01  0.15087979755E+03  0.12500000000E+03 0.  0.
         25    1    1    2    0    0  0.66725200607E+02 -0.27209881980E+02  0.17199406764E+02  0.14530467875E+03  0.12500000000E+03 0.  0.
</event>
<event>
 5    0  0.5851292E-005  0.4610378E+03  0.7546771E-02  0.1024481E+00
         21   -1    0    0  502  501  0.00000000000E+00  0.00000000000E+00  0.30359866318E+03  0.30359866318E+03  0.00000000000E+00 0. -1.
         21   -1    0    0  501  502 -0.00000000000E+00 -0.00000000000E+00 -0.70012125991E+03  0.70012125991E+03  0.00000000000E+00 0. -1.
         25    1    1    2    0    0 -0.10839015086E+03 -0.61274355874E+01  0.58943453302E+02  0.17574214337E+03  0.12500000000E+03 0.  0.
         25    1    1    2    0    0 -0.23110173237E+03 -0.75072214936E+02 -0.34697671983E+03  0.44165789053E+03  0.12500000000E+03 0.  0.
         25    1    1    2    0    0  0.33949188322E+03  0.81199650523E+02 -0.10848933019E+03  0.38631988919E+03  0.12500000000E+03 0.  0.
</event>
<event>
 5    0  0.5851292E-005  0.2794908E+03  0.7546771E-02  0.1095967E+00
         21   -1    0    0  502  501  0.00000000000E+00  0.00000000000E+00  0.15468548269E+04  0.15468548269E+04  0.00000000000E+00 0.  1.
         21   -1    0    0  501  502 -0.00000000000E+00 -0.00000000000E+00 -0.50499314487E+02  0.50499314487E+02  0.00000000000E+00 0.  1.
         25    1    1    2    0    0 -0.10680734662E+03 -0.48072797420E+02  0.37774154000E+03  0.41476797633E+03  0.12500000000E+03 0.  0.
         25    1    1    2    0    0  0.40805075244E+02  0.40429274724E+02  0.96074087149E+03  0.97053985110E+03  0.12500000000E+03 0.  0.
         25    1    1    2    0    0  0.66002271374E+02  0.76435226956E+01  0.15787310088E+03  0.21204631392E+03  0.12500000000E+03 0.  0.
</event>
<event>
 5    0  0.5851292E-005  0.2288614E+03  0.7546771E-02  0.1127444E+00
         21   -1    0    0  502  501  0.00000000000E+00  0.00000000000E+00  0.30378666073E+03  0.30378666073E+03  0.00000000000E+00 0.  1.
         21   -1    0    0  501  502 -0.00000000000E+00 -0.00000000000E+00 -0.17241546598E+03  0.17241546598E+03  0.00000000000E+00 0.  1.
         25    1    1    2    0    0 -0.61162664920E+02 -0.13653856393E+02  0.84921032881E+02  0.16359670290E+03  0.12500000000E+03 0.  0.
         25    1    1    2    0    0  0.78997148043E+02  0.78076192891E+02  0.20009672366E+02  0.16840970365E+03  0.12500000000E+03 0.  0.
         25    1    1    2    0    0 -0.17834483124E+02 -0.64422336498E+02  0.26440489503E+02  0.14419572016E+03  0.12500000000E+03 0.  0.
</event>
<event>
 5    0  0.5851292E-005  0.2959635E+03  0.7546771E-02  0.1087276E+00
         21   -1    0    0  502  501  0.00000000000E+00  0.00000000000E+00  0.17521775017E+04  0.17521775017E+04  0.00000000000E+00 0.  1.
         21   -1    0    0  501  502 -0.00000000000E+00 -0.00000000000E+00 -0.49991747496E+02  0.49991747496E+02  0.00000000000E+00 0.  1.
         25    1    1    2    0    0 -0.12391855848E+03  0.10049995851E+03  0.36751226900E+03  0.41969788975E+03  0.12500000000E+03 0.  0.
         25    1    1    2    0    0  0.68014692849E+02 -0.27414968137E+02  0.10339202675E+04  0.10440276330E+04  0.12500000000E+03 0.  0.
         25    1    1    2    0    0  0.55903865632E+02 -0.73084990377E+02  0.30075321771E+03  0.33844372645E+03  0.12500000000E+03 0.  0.
</event>
<event>
 5    0  0.5851292E-005  0.4255134E+03  0.7546771E-02  0.1035287E+00
         21   -1    0    0  502  501  0.00000000000E+00  0.00000000000E+00  0.40727749078E+03  0.40727749078E+03  0.00000000000E+00 0. -1.
         21   -1    0    0  501  502 -0.00000000000E+00 -0.00000000000E+00 -0.44456578035E+03  0.44456578035E+03  0.00000000000E+00 0. -1.
         25    1    1    2    0    0  0.64557202362E+02 -0.33804637823E+02  0.15690703382E+02  0.14553894354E+03  0.12500000000E+03 0.  0.
         25    1    1    2    0    0 -0.16562984423E+02 -0.24076063691E+03  0.17665164170E+03  0.32414629298E+03  0.12500000000E+03 0.  0.
         25    1    1    2    0    0 -0.47994217939E+02  0.27456527473E+03 -0.22963063466E+03  0.38215803461E+03  0.12500000000E+03 0.  0.
</event>
<event>
 5    0  0.5851292E-005  0.2739924E+03  0.7546771E-02  0.1099016E+00
         21   -1    0    0  502  501  0.00000000000E+00  0.00000000000E+00  0.11354960435E+03  0.11354960435E+03  0.00000000000E+00 0. -1.
         21   -1    0    0  501  502 -0.00000000000E+00 -0.00000000000E+00 -0.66113686469E+03  0.66113686469E+03  0.00000000000E+00 0. -1.
         25    1    1    2    0    0  0.39197619053E+02  0.61957392791E+02 -0.24721755353E+03  0.28656009951E+03  0.12500000000E+03 0.  0.
         25    1    1    2    0    0 -0.15918722993E+02 -0.14712252021E+03 -0.26968522948E+03  0.33204452215E+03  0.12500000000E+03 0.  0.
         25    1    1    2    0    0 -0.23278896061E+02  0.85165127417E+02 -0.30684477333E+02  0.15608184737E+03  0.12500000000E+03 0.  0.
</event>
<event>
 5    0  0.5851292E-005  0.4307655E+03  0.7546771E-02  0.1033618E+00
         21   -1    0    0  502  501  0.00000000000E+00  0.00000000000E+00  0.47025673401E+03  0.47025673401E+03  0.00000000000E+00 0.  1.
         21   -1    0    0  501  502 -0.00000000000E+00 -0.00000000000E+00 -0.39459068814E+03  0.39459068814E+03  0.00000000000E+00 0.  1.
         25    1    1    2    0    0  0.27193741671E+02 -0.22210933147E+02  0.11914468296E+03  0.17621941044E+03  0.12500000000E+03 0.  0.
         25    1    1    2    0    0 -0.71229380092E+02 -0.11436941509E+03 -0.31044629632E+03  0.36077124413E+03  0.12500000000E+03 0.  0.
         25    1    1    2    0    0  0.44035638421E+02  0.13658034824E+03  0.26696765922E+03  0.32785676758E+03  0.12500000000E+03 0.  0.
</event>
<event>
 5    0  0.5851292E-005  0.2914131E+03  0.7546771E-02  0.1089614E+00
         21   -1    0    0  502  501  0.00000000000E+00  0.00000000000E+00  0.27984332986E+03  0.27984332986E+03  0.00000000000E+00 0. -1.
         21   -1    0    0  501  502 -0.00000000000E+00 -0.00000000000E+00 -0.30346123704E+03  0.30346123704E+03  0.00000000000E+00 0. -1.
         25    1    1    2    0    0 -0.20769033255E+02 -0.10642428254E+02  0.83122181044E+01  0.12743118532E+03  0.12500000000E+03 0.  0.
         25    1    1    2    0    0 -0.14346738300E+03  0.11057390059E+03 -0.50535332971E+02  0.22580588423E+03  0.12500000000E+03 0.  0.
         25    1    1    2    0    0  0.16423641625E+03 -0.99931472335E+02  0.18605207688E+02  0.23006749736E+03  0.12500000000E+03 0.  0.
</event>
<event>
 5    0  0.5851292E-005  0.2726792E+03  0.7546771E-02  0.1099756E+00
         21   -1    0    0  502  501  0.00000000000E+00  0.00000000000E+00  0.12112655793E+03  0.12112655793E+03  0.00000000000E+00 0. -1.
         21   -1    0    0  501  502 -0.00000000000E+00 -0.00000000000E+00 -0.61385339918E+03  0.61385339918E+03  0.00000000000E+00 0. -1.
         25    1    1    2    0    0 -0.59264581719E+02  0.27997670933E+02 -0.98282715708E+02  0.17199026842E+03  0.12500000000E+03 0.  0.
         25    1    1    2    0    0  0.92256821175E+02 -0.15205956634E+03 -0.17105016940E+03  0.27661632855E+03  0.12500000000E+03 0.  0.
         25    1    1    2    0    0 -0.32992239456E+02  0.12406189541E+03 -0.22339395615E+03  0.28637336014E+03  0.12500000000E+03 0.  0.
</event>
<event>
 5    0  0.5851292E-005  0.2524798E+03  0.7546771E-02  0.1111748E+00
         21   -1    0    0  502  501  0.00000000000E+00  0.00000000000E+00  0.49939212298E+03  0.49939212298E+03  0.00000000000E+00 0. -1.
         21   -1    0    0  501  502 -0.00000000000E+00 -0.00000000000E+00 -0.12764725864E+03  0.12764725864E+03  0.00000000000E+00 0. -1.
         25    1    1    2    0    0 -0.51908043007E+02 -0.45116281640E+02  0.19553748265E+03  0.24205336379E+03  0.12500000000E+03 0.  0.
         25    1    1    2    0    0  0.40300746512E+02  0.13141048620E+03  0.12641282331E+03  0.22471775175E+03  0.12500000000E+03 0.  0.
         25    1    1    2    0    0  0.11607296496E+02 -0.86294204561E+02  0.49794558372E+02  0.16026826609E+03  0.12500000000E+03 0.  0.
</event>
<event>
 5    0  0.5851292E-005  0.3558425E+03  0.7546771E-02  0.1060242E+00
         21   -1    0    0  502  501  0.00000000000E+00  0.00000000000E+00  0.15487576178E+03  0.15487576178E+03  0.00000000000E+00 0. -1.
         21   -1    0    0  501  502 -0.00000000000E+00 -0.00000000000E+00 -0.81758381110E+03  0.81758381110E+03  0.00000000000E+00 0. -1.
         25    1    1    2    0    0 -0.57555472132E+02 -0.41924511382E+02 -0.11144310858E+02  0.14428961394E+03  0.12500000000E+03 0.  0.
         25    1    1    2    0    0  0.78780224973E+02  0.18234051958E+03 -0.58037615420E+03  0.62603184367E+03  0.12500000000E+03 0.  0.
         25    1    1    2    0    0 -0.21224752841E+02 -0.14041600820E+03 -0.71187584266E+02  0.20213811527E+03  0.12500000000E+03 0.  0.
</event>
<event>
 5    0  0.5851292E-005  0.4162479E+03  0.7546771E-02  0.1038294E+00
         21   -1    0    0  502  501  0.00000000000E+00  0.00000000000E+00  0.79386871311E+03  0.79386871311E+03  0.00000000000E+00 0. -1.
         21   -1    0    0  501  502 -0.00000000000E+00 -0.00000000000E+00 -0.21825061715E+03  0.21825061715E+03  0.00000000000E+00 0. -1.
         25    1    1    2    0    0 -0.19814475898E+03  0.22818346869E+03  0.22807381242E+03  0.39871255913E+03  0.12500000000E+03 0.  0.
         25    1    1    2    0    0 -0.23411777167E+02 -0.21209833819E+03  0.20592044442E+03  0.32181057441E+03  0.12500000000E+03 0.  0.
         25    1    1    2    0    0  0.22155653615E+03 -0.16085130501E+02  0.14162383913E+03  0.29159619672E+03  0.12500000000E+03 0.  0.
</event>
<event>
 5    0  0.5851292E-005  0.3265584E+03  0.7546771E-02  0.1072670E+00
         21   -1    0    0  502  501  0.00000000000E+00  0.00000000000E+00  0.84021467046E+03  0.84021467046E+03  0.00000000000E+00 0.  1.
         21   -1    0    0  501  502 -0.00000000000E+00 -0.00000000000E+00 -0.12692037139E+03  0.12692037139E+03  0.00000000000E+00 0.  1.
         25    1    1    2    0    0 -0.50451073653E+02  0.21958849011E+03  0.16634613199E+03  0.30669276393E+03  0.12500000000E+03 0.  0.
         25    1    1    2    0    0 -0.48398097829E+02 -0.70837205467E+02  0.20646683723E+03  0.25615198697E+03  0.12500000000E+03 0.  0.
         25    1    1    2    0    0  0.98849171482E+02 -0.14875128464E+03  0.34048132985E+03  0.40429029096E+03  0.12500000000E+03 0.  0.
</event>
<event>
 5    0  0.5851292E-005  0.3585892E+03  0.7546771E-02  0.1059144E+00
         21   -1    0    0  502  501  0.00000000000E+00  0.00000000000E+00  0.33625285505E+03  0.33625285505E+03  0.00000000000E+00 0. -1.
         21   -1    0    0  501  502 -0.00000000000E+00 -0.00000000000E+00 -0.38240936814E+03  0.38240936814E+03  0.00000000000E+00 0. -1.
         25    1    1    2    0    0  0.25521710749E+02 -0.15941958266E+03  0.12411708002E+03  0.23894771521E+03  0.12500000000E+03 0.  0.
         25    1    1    2    0    0 -0.10306682663E+03  0.15026177004E+03 -0.23158103414E+03  0.32008771557E+03  0.12500000000E+03 0.  0.
         25    1    1    2    0    0  0.77545115884E+02  0.91578126202E+01  0.61307441026E+02  0.15962679241E+03  0.12500000000E+03 0.  0.
</event>
<event>
 5    0  0.6116555E-005  0.3987338E+03  0.7546771E-02  0.1044219E+00
         21   -1    0    0  502  501  0.00000000000E+00  0.00000000000E+00  0.97480391094E+02  0.97480391094E+02  0.00000000000E+00 0.  1.
         21   -1    0    0  501  502 -0.00000000000E+00 -0.00000000000E+00 -0.16309804973E+04  0.16309804973E+04  0.00000000000E+00 0.  1.
         25    1    1    2    0    0  0.77885055119E+02 -0.22397546418E+03 -0.77332624363E+03  0.81846781822E+03  0.12500000000E+03 0.  0.
         25    1    1    2    0    0 -0.60222271491E+02  0.10960808302E+03 -0.55952542450E+02  0.18546250525E+03  0.12500000000E+03 0.  0.
         25    1    1    2    0    0 -0.17662783629E+02  0.11436738117E+03 -0.70422132012E+03  0.72453056493E+03  0.12500000000E+03 0.  0.
</event>
<event>
 5    0  0.5851292E-005  0.5012873E+03  0.7546771E-02  0.1013443E+00
         21   -1    0    0  502  501  0.00000000000E+00  0.00000000000E+00  0.43808162426E+03  0.43808162426E+03  0.00000000000E+00 0.  1.
         21   -1    0    0  501  502 -0.00000000000E+00 -0.00000000000E+00 -0.57361217137E+03  0.57361217137E+03  0.00000000000E+00 0.  1.
         25    1    1    2    0    0 -0.24633696895E+03  0.14209368452E+03 -0.38005229160E+03  0.49085360526E+03  0.12500000000E+03 0.  0.
         25    1    1    2    0    0  0.10030855621E+03 -0.20037258271E+03  0.11048078630E+03  0.27935995148E+03  0.12500000000E+03 0.  0.
         25    1    1    2    0    0  0.14602841273E+03  0.58278898192E+02  0.13404095818E+03  0.24148023888E+03  0.12500000000E+03 0.  0.
</event>
<event>
 5    0  0.5851292E-005  0.2629245E+03  0.7546771E-02  0.1105399E+00
         21   -1    0    0  502  501  0.00000000000E+00  0.00000000000E+00  0.22236462335E+03  0.22236462335E+03  0.00000000000E+00 0. -1.
         21   -1    0    0  501  502 -0.00000000000E+00 -0.00000000000E+00 -0.31088253852E+03  0.31088253852E+03  0.00000000000E+00 0. -1.
         25    1    1    2    0    0  0.53981343254E+02  0.48716890967E+02 -0.85181732528E+02  0.16783399072E+03  0.12500000000E+03 0.  0.
         25    1    1    2    0    0 -0.27211901637E+02  0.70638143509E+02 -0.88546434473E+02  0.17086750998E+03  0.12500000000E+03 0.  0.
         25    1    1    2    0    0 -0.26769441617E+02 -0.11935503448E+03  0.85210251835E+02  0.19454566116E+03  0.12500000000E+03 0.  0.
</event>
<event>
 5    0  0.6230602E-005  0.3760337E+03  0.7546771E-02  0.1052410E+00
         21   -1    0    0  502  501  0.00000000000E+00  0.00000000000E+00  0.33434133232E+03  0.33434133232E+03  0.00000000000E+00 0. -1.
         21   -1    0    0  501  502 -0.00000000000E+00 -0.00000000000E+00 -0.42292510250E+03  0.42292510250E+03  0.00000000000E+00 0. -1.
         25    1    1    2    0    0  0.59934172626E+02 -0.14934853714E+03 -0.96702165437E+02  0.22555132320E+03  0.12500000000E+03 0.  0.
         25    1    1    2    0    0  0.29120832215E+02  0.86815759776E+02 -0.20799688700E+03  0.25936982095E+03  0.12500000000E+03 0.  0.
         25    1    1    2    0    0 -0.89055004841E+02  0.62532777367E+02  0.21611528226E+03  0.27234529069E+03  0.12500000000E+03 0.  0.
</event>
<event>
 5    0  0.6781338E-005  0.4494762E+03  0.7546771E-02  0.1027878E+00
         21   -1    0    0  502  501  0.00000000000E+00  0.00000000000E+00  0.60238346740E+03  0.60238346740E+03  0.00000000000E+00 0. -1.
         21   -1    0    0  501  502 -0.00000000000E+00 -0.00000000000E+00 -0.33538241414E+03  0.33538241414E+03  0.00000000000E+00 0. -1.
         25    1    1    2    0    0 -0.25070839940E+03  0.74324986631E+02  0.12848726811E+03  0.31703766847E+03  0.12500000000E+03 0.  0.
         25    1    1    2    0    0  0.46710372312E+02  0.81246347955E+02  0.26574740421E+03  0.30826856924E+03  0.12500000000E+03 0.  0.
         25    1    1    2    0    0  0.20399802708E+03 -0.15557133459E+03 -0.12723361906E+03  0.31245964382E+03  0.12500000000E+03 0.  0.
</event>
<event>
 5    0  0.5851292E-005  0.3057377E+03  0.7546771E-02  0.1082407E+00
         21   -1    0    0  502  501  0.00000000000E+00  0.00000000000E+00  0.33510539652E+03  0.33510539652E+03  0.00000000000E+00 0.  1.
         21   -1    0    0  501  502 -0.00000000000E+00 -0.00000000000E+00 -0.27894369832E+03  0.27894369832E+03  0.00000000000E+00 0.  1.
         25    1    1    2    0    0 -0.14899278611E+03 -0.22031519840E+02  0.18244603610E+03  0.26757390431E+03  0.12500000000E+03 0.  0.
         25    1    1    2    0    0  0.80947907793E+02  0.40663527500E+02 -0.13158275331E+03  0.20284256756E+03  0.12500000000E+03 0.  0.
         25    1    1    2    0    0  0.68044878316E+02 -0.18632007660E+02  0.52984154115E+01  0.14363262297E+03  0.12500000000E+03 0.  0.
</event>
<event>
 5    0  0.5851292E-005  0.4125897E+03  0.7546771E-02  0.1039505E+00
         21   -1    0    0  502  501  0.00000000000E+00  0.00000000000E+00  0.18898287686E+04  0.18898287686E+04  0.00000000000E+00 0.  1.
         21   -1    0    0  501  502 -0.00000000000E+00 -0.00000000000E+00 -0.90077067657E+02  0.90077067657E+02  0.00000000000E+00 0.  1.
         25    1    1    2    0    0 -0.11334724108E+03  0.11786503284E+03  0.15585661278E+04  0.15720983232E+04  0.12500000000E+03 0.  0.
         25    1    1    2    0    0 -0.56529927987E+01 -0.61362684775E+02  0.14946973035E+03  0.20436128719E+03  0.12500000000E+03 0.  0.
         25    1    1    2    0    0  0.11900023388E+03 -0.56502348063E+02  0.91715842752E+02  0.20344622585E+03  0.12500000000E+03 0.  0.
</event>
<event>
 5    0  0.5851292E-005  0.2992607E+03  0.7546771E-02  0.1085611E+00
         21   -1    0    0  502  501  0.00000000000E+00  0.00000000000E+00  0.36392471668E+03  0.36392471668E+03  0.00000000000E+00 0.  1.
         21   -1    0    0  501  502 -0.00000000000E+00 -0.00000000000E+00 -0.24608657948E+03  0.24608657948E+03  0.00000000000E+00 0.  1.
         25    1    1    2    0    0 -0.11890869708E+03 -0.33322222380E+02  0.20143879530E+03  0.26730551247E+03  0.12500000000E+03 0.  0.
         25    1    1    2    0    0  0.69276358109E+02  0.57006359858E+02 -0.12690021200E+03  0.19944323168E+03  0.12500000000E+03 0.  0.
         25    1    1    2    0    0  0.49632338972E+02 -0.23684137478E+02  0.43299553897E+02  0.14326255201E+03  0.12500000000E+03 0.  0.
</event>
<event>
 5    0  0.5851292E-005  0.3575861E+03  0.7546771E-02  0.1059544E+00
         21   -1    0    0  502  501  0.00000000000E+00  0.00000000000E+00  0.15135408450E+04  0.15135408450E+04  0.00000000000E+00 0.  1.
         21   -1    0    0  501  502 -0.00000000000E+00 -0.00000000000E+00 -0.84482586924E+02  0.84482586924E+02  0.00000000000E+00 0.  1.
         25    1    1    2    0    0 -0.12901190326E+03 -0.18092236389E+03  0.88543556684E+03  0.92141093762E+03  0.12500000000E+03 0.  0.
         25    1    1    2    0    0  0.26516530857E+02  0.40292619185E+02  0.39163588408E+03  0.41392062919E+03  0.12500000000E+03 0.  0.
         25    1    1    2    0    0  0.10249537240E+03  0.14062974470E+03  0.15198680720E+03  0.26269186516E+03  0.12500000000E+03 0.  0.
</event>
<event>
 5    0  0.5851292E-005  0.2433922E+03  0.7546771E-02  0.1117553E+00
         21   -1    0    0  502  501  0.00000000000E+00  0.00000000000E+00  0.84978141990E+02  0.84978141990E+02  0.00000000000E+00 0.  1.
         21   -1    0    0  501  502 -0.00000000000E+00 -0.00000000000E+00 -0.69711736923E+03  0.69711736923E+03  0.00000000000E+00 0.  1.
         25    1    1    2    0    0  0.79896871477E+02 -0.70703361165E+01 -0.87672190417E+02  0.17246713512E+03  0.12500000000E+03 0.  0.
         25    1    1    2    0    0 -0.16061223625E+02  0.37649303774E+02 -0.39472101621E+03  0.41605902660E+03  0.12500000000E+03 0.  0.
         25    1    1    2    0    0 -0.63835647852E+02 -0.30578967658E+02 -0.12974602061E+03  0.19356934950E+03  0.12500000000E+03 0.  0.
</event>
<event>
 5    0  0.5851292E-005  0.2116780E+03  0.7546771E-02  0.1140244E+00
         21   -1    0    0  502  501  0.00000000000E+00  0.00000000000E+00  0.27787618615E+03  0.27787618615E+03  0.00000000000E+00 0. -1.
         21   -1    0    0  501  502 -0.00000000000E+00 -0.00000000000E+00 -0.16125013591E+03  0.16125013591E+03  0.00000000000E+00 0. -1.
         25    1    1    2    0    0  0.60260515673E+02  0.13136761221E+02  0.18613692708E+02  0.14062494018E+03  0.12500000000E+03 0.  0.
         25    1    1    2    0    0 -0.83454930632E+02 -0.30584402993E+02  0.47134574297E+02  0.16045809187E+03  0.12500000000E+03 0.  0.
         25    1    1    2    0    0  0.23194414959E+02  0.17447641772E+02  0.50877783234E+02  0.13804329001E+03  0.12500000000E+03 0.  0.
</event>
<event>
 5    0  0.5851292E-005  0.3898181E+03  0.7546771E-02  0.1047363E+00
         21   -1    0    0  502  501  0.00000000000E+00  0.00000000000E+00  0.19947671804E+03  0.19947671804E+03  0.00000000000E+00 0. -1.
         21   -1    0    0  501  502 -0.00000000000E+00 -0.00000000000E+00 -0.76178405443E+03  0.76178405443E+03  0.00000000000E+00 0. -1.
         25    1    1    2    0    0 -0.44124522376E+02 -0.12391648049E+03 -0.58965600717E+03  0.61694527667E+03  0.12500000000E+03 0.  0.
         25    1    1    2    0    0  0.95792736837E+01 -0.35630723309E+02 -0.23696304323E+02  0.13246820662E+03  0.12500000000E+03 0.  0.
         25    1    1    2    0    0  0.34545248692E+02  0.15954720380E+03  0.51044975108E+02  0.21184728917E+03  0.12500000000E+03 0.  0.
</event>
<event>
 5    0  0.5851292E-005  0.2416059E+03  0.7546771E-02  0.1118728E+00
         21   -1    0    0  502  501  0.00000000000E+00  0.00000000000E+00  0.28360721772E+03  0.28360721772E+03  0.00000000000E+00 0. -1.
         21   -1    0    0  501  502 -0.00000000000E+00 -0.00000000000E+00 -0.20582486316E+03  0.20582486316E+03  0.00000000000E+00 0. -1.
         25    1    1    2    0    0 -0.40765772750E+02  0.12620008018E+03  0.79046670331E+02  0.19864965279E+03  0.12500000000E+03 0.  0.
         25    1    1    2    0    0 -0.12672016210E+02 -0.60852069302E+02  0.64575513255E+01  0.13975068623E+03  0.12500000000E+03 0.  0.
         25    1    1    2    0    0  0.53437788960E+02 -0.65348010876E+02 -0.77218671005E+01  0.15103174185E+03  0.12500000000E+03 0.  0.
</event>
<event>
 5    0  0.5851292E-005  0.4643915E+03  0.7546771E-02  0.1023515E+00
         21   -1    0    0  502  501  0.00000000000E+00  0.00000000000E+00  0.42036027218E+03  0.42036027218E+03  0.00000000000E+00 0. -1.
         21   -1    0    0  501  502 -0.00000000000E+00 -0.00000000000E+00 -0.51303473889E+03  0.51303473889E+03  0.00000000000E+00 0. -1.
         25    1    1    2    0    0 -0.21948123160E+02 -0.39281678171E+03 -0.12631980668E+02  0.41300279786E+03  0.12500000000E+03 0.  0.
         25    1    1    2    0    0 -0.18728960801E+02  0.18985400679E+03  0.66580927124E+02  0.23759911137E+03  0.12500000000E+03 0.  0.
         25    1    1    2    0    0  0.40677083960E+02  0.20296277491E+03 -0.14662341316E+03  0.28279310184E+03  0.12500000000E+03 0.  0.
</event>
<event>
 5    0  0.6371940E-005  0.3906546E+03  0.7546771E-02  0.1047065E+00
         21   -1    0    0  502  501  0.00000000000E+00  0.00000000000E+00  0.17848945809E+03  0.17848945809E+03  0.00000000000E+00 0.  1.
         21   -1    0    0  501  502 -0.00000000000E+00 -0.00000000000E+00 -0.85501436341E+03  0.85501436341E+03  0.00000000000E+00 0.  1.
         25    1    1    2    0    0 -0.16810350630E+03  0.68113289402E+02 -0.34713287998E+02  0.22299825423E+03  0.12500000000E+03 0.  0.
         25    1    1    2    0    0  0.24088071556E+02  0.71649150216E+02 -0.52851632235E+03  0.54833232525E+03  0.12500000000E+03 0.  0.
         25    1    1    2    0    0  0.14401543475E+03 -0.13976243962E+03 -0.11329529497E+03  0.26217324203E+03  0.12500000000E+03 0.  0.
</event>
<event>
 5    0  0.5851292E-005  0.3614128E+03  0.7546771E-02  0.1058026E+00
         21   -1    0    0  502  501  0.00000000000E+00  0.00000000000E+00  0.12124062607E+04  0.12124062607E+04  0.00000000000E+00 0.  1.
         21   -1    0    0  501  502 -0.00000000000E+00 -0.00000000000E+00 -0.10773552066E+03  0.10773552066E+03  0.00000000000E+00 0.  1.
         25    1    1    2    0    0  0.25971146313E+03  0.12054035742E+03  0.39015899752E+03  0.49982903596E+03  0.12500000000E+03 0.  0.
         25    1    1    2    0    0 -0.13932592614E+03 -0.12972263580E+03  0.37051127814E+03  0.43490606246E+03  0.12500000000E+03 0.  0.
         25    1    1    2    0    0 -0.12038553700E+03  0.91822783843E+01  0.34400046438E+03  0.38540668293E+03  0.12500000000E+03 0.  0.
</event>
<event>
 5    0  0.5851292E-005  0.3478340E+03  0.7546771E-02  0.1063508E+00
         21   -1    0    0  502  501  0.00000000000E+00  0.00000000000E+00  0.30416646562E+03  0.30416646562E+03  0.00000000000E+00 0. -1.
         21   -1    0    0  501  502 -0.00000000000E+00 -0.00000000000E+00 -0.39777075967E+03  0.39777075967E+03  0.00000000000E+00 0. -1.
         25    1    1    2    0    0 -0.25333935158E+03 -0.50722260135E+02 -0.65056369336E+02  0.29429730872E+03  0.12500000000E+03 0.  0.
         25    1    1    2    0    0  0.24594186381E+03  0.15777816805E+02 -0.12100065056E+02  0.27660034608E+03  0.12500000000E+03 0.  0.
         25    1    1    2    0    0  0.73974877662E+01  0.34944443329E+02 -0.16447859653E+02  0.13103957048E+03  0.12500000000E+03 0.  0.
</event>
<event>
 5    0  0.5851292E-005  0.3215435E+03  0.7546771E-02  0.1074941E+00
         21   -1    0    0  502  501  0.00000000000E+00  0.00000000000E+00  0.14398928186E+03  0.14398928186E+03  0.00000000000E+00 0.  1.
         21   -1    0    0  501  502 -0.00000000000E+00 -0.00000000000E+00 -0.71804106581E+03  0.71804106581E+03  0.00000000000E+00 0.  1.
         25    1    1    2    0    0 -0.13321422384E+02  0.43849711584E+02 -0.11712577615E+03  0.17732372921E+03  0.12500000000E+03 0.  0.
         25    1    1    2    0    0 -0.23339944910E+02  0.19384249423E+03 -0.15450717193E+03  0.27859851359E+03  0.12500000000E+03 0.  0.
         25    1    1    2    0    0  0.36661367294E+02 -0.23769220581E+03 -0.30241883587E+03  0.40610810487E+03  0.12500000000E+03 0.  0.
</event>
<event>
 5    0  0.5851292E-005  0.2418738E+03  0.7546771E-02  0.1118551E+00
         21   -1    0    0  502  501  0.00000000000E+00  0.00000000000E+00  0.21793193961E+03  0.21793193961E+03  0.00000000000E+00 0. -1.
         21   -1    0    0  501  502 -0.00000000000E+00 -0.00000000000E+00 -0.26844589587E+03  0.26844589587E+03  0.00000000000E+00 0. -1.
         25    1    1    2    0    0  0.22604293445E+02  0.10701717752E+03 -0.60542510124E+00  0.16609935854E+03  0.12500000000E+03 0.  0.
         25    1    1    2    0    0  0.66070180595E+02 -0.57536216995E+02 -0.45059443093E+02  0.15915727581E+03  0.12500000000E+03 0.  0.
         25    1    1    2    0    0 -0.88674474040E+02 -0.49480960529E+02 -0.48490880673E+01  0.16112120114E+03  0.12500000000E+03 0.  0.
</event>
<event>
 5    0  0.5851292E-005  0.4069530E+03  0.7546771E-02  0.1041398E+00
         21   -1    0    0  502  501  0.00000000000E+00  0.00000000000E+00  0.83171080479E+02  0.83171080479E+02  0.00000000000E+00 0.  1.
         21   -1    0    0  501  502 -0.00000000000E+00 -0.00000000000E+00 -0.19912055687E+04  0.19912055687E+04  0.00000000000E+00 0.  1.
         25    1    1    2    0    0  0.11021074464E+03 -0.17416004268E+03 -0.17336116793E+03  0.29691282096E+03  0.12500000000E+03 0.  0.
         25    1    1    2    0    0 -0.14200182836E+03  0.32136152094E+02 -0.99359326147E+03  0.10119534677E+04  0.12500000000E+03 0.  0.
         25    1    1    2    0    0  0.31791083713E+02  0.14202389059E+03 -0.74108005881E+03  0.76551036052E+03  0.12500000000E+03 0.  0.
</event>
<event>
 5    0  0.5851292E-005  0.6494746E+03  0.7546771E-02  0.9807766E-01
         21   -1    0    0  502  501  0.00000000000E+00  0.00000000000E+00  0.22810977617E+03  0.22810977617E+03  0.00000000000E+00 0. -1.
         21   -1    0    0  501  502 -0.00000000000E+00 -0.00000000000E+00 -0.18491854176E+04  0.18491854176E+04  0.00000000000E+00 0. -1.
         25    1    1    2    0    0  0.31303616272E+03  0.65217024123E+02 -0.26424740219E+03  0.43323964381E+03  0.12500000000E+03 0.  0.
         25    1    1    2    0    0  0.15914063022E+03  0.25779187148E+03 -0.35126138009E+03  0.48040810394E+03  0.12500000000E+03 0.  0.
         25    1    1    2    0    0 -0.47217679294E+03 -0.32300889560E+03 -0.10055668592E+04  0.11636474460E+04  0.12500000000E+03 0.  0.
</event>
<event>
 5    0  0.5851292E-005  0.3555702E+03  0.7546771E-02  0.1060352E+00
         21   -1    0    0  502  501  0.00000000000E+00  0.00000000000E+00  0.12736207532E+04  0.12736207532E+04  0.00000000000E+00 0.  1.
         21   -1    0    0  501  502 -0.00000000000E+00 -0.00000000000E+00 -0.99268282968E+02  0.99268282968E+02  0.00000000000E+00 0.  1.
         25    1    1    2    0    0  0.11943605859E+02  0.27274308595E+02  0.14830300990E+03  0.19622772581E+03  0.12500000000E+03 0.  0.
         25    1    1    2    0    0 -0.22443884569E+03 -0.14764209457E+03  0.45261995700E+03  0.54098133888E+03  0.12500000000E+03 0.  0.
         25    1    1    2    0    0  0.21249523984E+03  0.12036778597E+03  0.57342950337E+03  0.63567997152E+03  0.12500000000E+03 0.  0.
</event>
<event>
 5    0  0.5851292E-005  0.4132241E+03  0.7546771E-02  0.1039294E+00
         21   -1    0    0  502  501  0.00000000000E+00  0.00000000000E+00  0.34595932560E+03  0.34595932560E+03  0.00000000000E+00 0.  1.
         21   -1    0    0  501  502 -0.00000000000E+00 -0.00000000000E+00 -0.49356706106E+03  0.49356706106E+03  0.00000000000E+00 0.  1.
         25    1    1    2    0    0  0.17780469105E+03  0.30502326733E+03 -0.97903273539E+01  0.37466592090E+03  0.12500000000E+03 0.  0.
         25    1    1    2    0    0 -0.50284839028E+02 -0.90908196093E+02 -0.26626884183E+02  0.16470232577E+03  0.12500000000E+03 0.  0.
         25    1    1    2    0    0 -0.12751985202E+03 -0.21411507124E+03 -0.11119052393E+03  0.30015813999E+03  0.12500000000E+03 0.  0.
</event>
<event>
 5    0  0.5851292E-005  0.2655700E+03  0.7546771E-02  0.1103842E+00
         21   -1    0    0  502  501  0.00000000000E+00  0.00000000000E+00  0.52129017403E+02  0.52129017403E+02  0.00000000000E+00 0.  1.
         21   -1    0    0  501  502 -0.00000000000E+00 -0.00000000000E+00 -0.13529396125E+04  0.13529396125E+04  0.00000000000E+00 0.  1.
         25    1    1    2    0    0  0.10566547806E+03 -0.10764592299E+02 -0.29470592687E+03  0.33727978450E+03  0.12500000000E+03 0.  0.
         25    1    1    2    0    0 -0.11199828091E+03  0.53893413028E+02 -0.82403727186E+03  0.84268056837E+03  0.12500000000E+03 0.  0.
         25    1    1    2    0    0  0.63328028505E+01 -0.43128820729E+02 -0.18206739639E+03  0.22510827706E+03  0.12500000000E+03 0.  0.
</event>
<event>
 5    0  0.5851292E-005  0.2649284E+03  0.7546771E-02  0.1104218E+00
         21   -1    0    0  502  501  0.00000000000E+00  0.00000000000E+00  0.20319648437E+04  0.20319648437E+04  0.00000000000E+00 0.  1.
         21   -1    0    0  501  502 -0.00000000000E+00 -0.00000000000E+00 -0.34541469346E+02  0.34541469346E+02  0.00000000000E+00 0.  1.
         25    1    1    2    0    0 -0.35442177199E+02  0.76166053369E+00  0.14539347084E+04  0.14597286955E+04  0.12500000000E+03 0.  0.
         25    1    1    2    0    0 -0.15278156145E+02 -0.28462541913E+02  0.21812855833E+03  0.25347308793E+03  0.12500000000E+03 0.  0.
         25    1    1    2    0    0  0.50720333344E+02  0.27700881379E+02  0.32536010765E+03  0.35330452968E+03  0.12500000000E+03 0.  0.
</event>
<event>
 5    0  0.5851292E-005  0.4147852E+03  0.7546771E-02  0.1038777E+00
         21   -1    0    0  502  501  0.00000000000E+00  0.00000000000E+00  0.19047398627E+03  0.19047398627E+03  0.00000000000E+00 0. -1.
         21   -1    0    0  501  502 -0.00000000000E+00 -0.00000000000E+00 -0.90325597198E+03  0.90325597198E+03  0.00000000000E+00 0. -1.
         25    1    1    2    0    0 -0.11574917362E+03  0.20843320220E+03 -0.11804410459E+03  0.29394162958E+03  0.12500000000E+03 0.  0.
         25    1    1    2    0    0  0.13414434952E+03 -0.51695277260E+02 -0.56503773127E+03  0.59628830775E+03  0.12500000000E+03 0.  0.
         25    1    1    2    0    0 -0.18395175899E+02 -0.15673792494E+03 -0.29700149852E+02  0.20350002091E+03  0.12500000000E+03 0.  0.
</event>
<event>
 5    0  0.5851292E-005  0.2551550E+03  0.7546771E-02  0.1110090E+00
         21   -1    0    0  502  501  0.00000000000E+00  0.00000000000E+00  0.24717148125E+03  0.24717148125E+03  0.00000000000E+00 0. -1.
         21   -1    0    0  501  502 -0.00000000000E+00 -0.00000000000E+00 -0.26339638313E+03  0.26339638313E+03  0.00000000000E+00 0. -1.
         25    1    1    2    0    0  0.15122548864E+03 -0.48484778594E+02 -0.26019279037E+02  0.20376929369E+03  0.12500000000E+03 0.  0.
         25    1    1    2    0    0 -0.97232260332E+02  0.61412407944E+01 -0.23905732465E+02  0.16027573532E+03  0.12500000000E+03 0.  0.
         25    1    1    2    0    0 -0.53993228311E+02  0.42343537799E+02  0.33700109617E+02  0.14652283537E+03  0.12500000000E+03 0.  0.
</event>
<event>
 5    0  0.5851292E-005  0.3552408E+03  0.7546771E-02  0.1060484E+00
         21   -1    0    0  502  501  0.00000000000E+00  0.00000000000E+00  0.32264530000E+03  0.32264530000E+03  0.00000000000E+00 0. -1.
         21   -1    0    0  501  502 -0.00000000000E+00 -0.00000000000E+00 -0.39112927702E+03  0.39112927702E+03  0.00000000000E+00 0. -1.
         25    1    1    2    0    0  0.11664516426E+03  0.14376518557E+03 -0.91632145768E+02  0.24144559028E+03  0.12500000000E+03 0.  0.
         25    1    1    2    0    0 -0.22373600877E+03 -0.99784600527E+02 -0.61898903450E+02  0.28190644258E+03  0.12500000000E+03 0.  0.
         25    1    1    2    0    0  0.10709084450E+03 -0.43980585042E+02  0.85047072196E+02  0.19042254416E+03  0.12500000000E+03 0.  0.
</event>
<event>
 5    0  0.5851292E-005  0.3987295E+03  0.7546771E-02  0.1044220E+00
         21   -1    0    0  502  501  0.00000000000E+00  0.00000000000E+00  0.24876513160E+03  0.24876513160E+03  0.00000000000E+00 0. -1.
         21   -1    0    0  501  502 -0.00000000000E+00 -0.00000000000E+00 -0.63909763971E+03  0.63909763971E+03  0.00000000000E+00 0. -1.
         25    1    1    2    0    0 -0.19610650643E+03  0.13263888014E+03  0.19652503324E+02  0.26844376557E+03  0.12500000000E+03 0.  0.
         25    1    1    2    0    0 -0.30021487445E+02 -0.15458416474E+03 -0.21952583032E+03  0.29768127902E+03  0.12500000000E+03 0.  0.
         25    1    1    2    0    0  0.22612799387E+03  0.21945284601E+02 -0.19045918111E+03  0.32173772672E+03  0.12500000000E+03 0.  0.
</event>
<event>
 5    0  0.5851292E-005  0.3634447E+03  0.7546771E-02  0.1057228E+00
         21   -1    0    0  502  501  0.00000000000E+00  0.00000000000E+00  0.36342745861E+03  0.36342745861E+03  0.00000000000E+00 0. -1.
         21   -1    0    0  501  502 -0.00000000000E+00 -0.00000000000E+00 -0.36346199628E+03  0.36346199628E+03  0.00000000000E+00 0. -1.
         25    1    1    2    0    0 -0.74299280390E+01  0.13632287946E+02 -0.17104016688E+03  0.21241652900E+03  0.12500000000E+03 0.  0.
         25    1    1    2    0    0  0.19824483803E+03 -0.38129582366E+02  0.16794772188E+02  0.23803769708E+03  0.12500000000E+03 0.  0.
         25    1    1    2    0    0 -0.19081490999E+03  0.24497294420E+02  0.15421085702E+03  0.27643522882E+03  0.12500000000E+03 0.  0.
</event>
<event>
 5    0  0.5851292E-005  0.4639736E+03  0.7546771E-02  0.1023635E+00
         21   -1    0    0  502  501  0.00000000000E+00  0.00000000000E+00  0.16201211709E+04  0.16201211709E+04  0.00000000000E+00 0.  1.
         21   -1    0    0  501  502 -0.00000000000E+00 -0.00000000000E+00 -0.13287371791E+03  0.13287371791E+03  0.00000000000E+00 0.  1.
         25    1    1    2    0    0 -0.25504799770E+02 -0.12004324889E+03  0.20669608921E+03  0.27094122926E+03  0.12500000000E+03 0.  0.
         25    1    1    2    0    0 -0.84412144237E+01  0.85535029937E+02  0.13304139830E+04  0.13390346753E+04  0.12500000000E+03 0.  0.
         25    1    1    2    0    0  0.33946014193E+02  0.34508218949E+02 -0.49862619255E+02  0.14301898424E+03  0.12500000000E+03 0.  0.
</event>
<event>
 5    0  0.5851292E-005  0.2351625E+03  0.7546771E-02  0.1123058E+00
         21   -1    0    0  502  501  0.00000000000E+00  0.00000000000E+00  0.26942009766E+03  0.26942009766E+03  0.00000000000E+00 0. -1.
         21   -1    0    0  501  502 -0.00000000000E+00 -0.00000000000E+00 -0.20526083911E+03  0.20526083911E+03  0.00000000000E+00 0. -1.
         25    1    1    2    0    0  0.12039173173E+03  0.35576094002E+02  0.45308002648E+02  0.18285962550E+03  0.12500000000E+03 0.  0.
         25    1    1    2    0    0 -0.57204205528E+02 -0.29983953903E+02 -0.29089656178E+02  0.14367521261E+03  0.12500000000E+03 0.  0.
         25    1    1    2    0    0 -0.63187526201E+02 -0.55921400991E+01  0.47940912073E+02  0.14814609866E+03  0.12500000000E+03 0.  0.
</event>
<event>
 5    0  0.5851292E-005  0.2484225E+03  0.7546771E-02  0.1114306E+00
         21   -1    0    0  502  501  0.00000000000E+00  0.00000000000E+00  0.98187196777E+02  0.98187196777E+02  0.00000000000E+00 0.  1.
         21   -1    0    0  501  502 -0.00000000000E+00 -0.00000000000E+00 -0.62853156937E+03  0.62853156937E+03  0.00000000000E+00 0.  1.
         25    1    1    2    0    0 -0.95088478337E+02 -0.93990755207E+02 -0.96539593405E+02  0.20693229296E+03  0.12500000000E+03 0.  0.
         25    1    1    2    0    0  0.66340383868E+02  0.39718307845E+02 -0.21634157816E+03  0.26154783301E+03  0.12500000000E+03 0.  0.
         25    1    1    2    0    0  0.28748094469E+02  0.54272447363E+02 -0.21746320103E+03  0.25823864018E+03  0.12500000000E+03 0.  0.
</event>
<event>
 5    0  0.5851292E-005  0.2956486E+03  0.7546771E-02  0.1087436E+00
         21   -1    0    0  502  501  0.00000000000E+00  0.00000000000E+00  0.31152706826E+04  0.31152706826E+04  0.00000000000E+00 0.  1.
         21   -1    0    0  501  502 -0.00000000000E+00 -0.00000000000E+00 -0.28057947705E+02  0.28057947705E+02  0.00000000000E+00 0.  1.
         25    1    1    2    0    0  0.10291071966E+03 -0.39699973050E+02  0.97471845110E+03  0.98887196492E+03  0.12500000000E+03 0.  0.
         25    1    1    2    0    0  0.16094233527E+01  0.80932300172E+02  0.30759947489E+03  0.34175292890E+03  0.12500000000E+03 0.  0.
         25    1    1    2    0    0 -0.10452014301E+03 -0.41232327122E+02  0.18048948089E+04  0.18127037365E+04  0.12500000000E+03 0.  0.
</event>
<event>
 5    0  0.5851292E-005  0.2205598E+03  0.7546771E-02  0.1133466E+00
         21   -1    0    0  502  501  0.00000000000E+00  0.00000000000E+00  0.23166932738E+03  0.23166932738E+03  0.00000000000E+00 0.  1.
         21   -1    0    0  501  502 -0.00000000000E+00 -0.00000000000E+00 -0.20998298570E+03  0.20998298570E+03  0.00000000000E+00 0.  1.
         25    1    1    2    0    0 -0.23068613537E+02  0.10598352942E+02  0.25554102635E+02  0.13008650267E+03  0.12500000000E+03 0.  0.
         25    1    1    2    0    0 -0.41168552379E+02  0.70466147647E+02 -0.34238937100E+01  0.14932196998E+03  0.12500000000E+03 0.  0.
         25    1    1    2    0    0  0.64237165916E+02 -0.81064500589E+02 -0.44386725012E+00  0.16224384043E+03  0.12500000000E+03 0.  0.
</event>
<event>
 5    0  0.5851292E-005  0.3788075E+03  0.7546771E-02  0.1051375E+00
         21   -1    0    0  502  501  0.00000000000E+00  0.00000000000E+00  0.39226379803E+03  0.39226379803E+03  0.00000000000E+00 0. -1.
         21   -1    0    0  501  502 -0.00000000000E+00 -0.00000000000E+00 -0.36581282136E+03  0.36581282136E+03  0.00000000000E+00 0. -1.
         25    1    1    2    0    0 -0.21626682956E+03 -0.41465493108E+02 -0.15825073179E+03  0.29859508167E+03  0.12500000000E+03 0.  0.
         25    1    1    2    0    0 -0.24756836250E+02 -0.14780458954E+02  0.36564800756E+01  0.12833445661E+03  0.12500000000E+03 0.  0.
         25    1    1    2    0    0  0.24102366582E+03  0.56245952062E+02  0.18104522838E+03  0.33114708111E+03  0.12500000000E+03 0.  0.
</event>
<event>
 5    0  0.5851292E-005  0.2930207E+03  0.7546771E-02  0.1088782E+00
         21   -1    0    0  502  501  0.00000000000E+00  0.00000000000E+00  0.25640570725E+03  0.25640570725E+03  0.00000000000E+00 0.  1.
         21   -1    0    0  501  502 -0.00000000000E+00 -0.00000000000E+00 -0.33486443944E+03  0.33486443944E+03  0.00000000000E+00 0.  1.
         25    1    1    2    0    0  0.12895406081E+03 -0.41897694830E+02 -0.10030198546E+03  0.20992869008E+03  0.12500000000E+03 0.  0.
         25    1    1    2    0    0 -0.16432208977E+03  0.37489364455E+02 -0.71090847505E+02  0.22155385403E+03  0.12500000000E+03 0.  0.
         25    1    1    2    0    0  0.35368028969E+02  0.44083303750E+01  0.92934100783E+02  0.15978760258E+03  0.12500000000E+03 0.  0.
</event>
<event>
 5    0  0.5851292E-005  0.4178386E+03  0.7546771E-02  0.1037772E+00
         21   -1    0    0  502  501  0.00000000000E+00  0.00000000000E+00  0.96280369639E+03  0.96280369639E+03  0.00000000000E+00 0. -1.
         21   -1    0    0  501  502 -0.00000000000E+00 -0.00000000000E+00 -0.18133407871E+03  0.18133407871E+03  0.00000000000E+00 0. -1.
         25    1    1    2    0    0  0.76266211960E+02 -0.77500023903E+02  0.15693490404E+03  0.22820243841E+03  0.12500000000E+03 0.  0.
         25    1    1    2    0    0 -0.39429073873E+02 -0.26773739759E+03  0.32156064997E+03  0.43847943799E+03  0.12500000000E+03 0.  0.
         25    1    1    2    0    0 -0.36837138087E+02  0.34523742149E+03  0.30297406368E+03  0.47745589870E+03  0.12500000000E+03 0.  0.
</event>
<event>
 5    0  0.5851292E-005  0.2154489E+03  0.7546771E-02  0.1137322E+00
         21   -1    0    0  502  501  0.00000000000E+00  0.00000000000E+00  0.40900309271E+03  0.40900309271E+03  0.00000000000E+00 0.  1.
         21   -1    0    0  501  502 -0.00000000000E+00 -0.00000000000E+00 -0.11349109503E+03  0.11349109503E+03  0.00000000000E+00 0.  1.
         25    1    1    2    0    0 -0.16435941302E+02  0.81624260561E+02  0.72457037458E+02  0.16675635627E+03  0.12500000000E+03 0.  0.
         25    1    1    2    0    0  0.29665207144E+01 -0.78110235820E+02  0.14983971974E+03  0.21020692376E+03  0.12500000000E+03 0.  0.
         25    1    1    2    0    0  0.13469420588E+02 -0.35140247410E+01  0.73215240485E+02  0.14553090771E+03  0.12500000000E+03 0.  0.
</event>
<event>
 5    0  0.5851292E-005  0.3194615E+03  0.7546771E-02  0.1075897E+00
         21   -1    0    0  502  501  0.00000000000E+00  0.00000000000E+00  0.16770109020E+04  0.16770109020E+04  0.00000000000E+00 0. -1.
         21   -1    0    0  501  502 -0.00000000000E+00 -0.00000000000E+00 -0.60855686498E+02  0.60855686498E+02  0.00000000000E+00 0. -1.
         25    1    1    2    0    0  0.26807101203E+01 -0.44243750519E+01  0.17532289835E+03  0.21538310051E+03  0.12500000000E+03 0.  0.
         25    1    1    2    0    0 -0.15910125339E+03 -0.97210535308E+02  0.40949488883E+03  0.46698411213E+03  0.12500000000E+03 0.  0.
         25    1    1    2    0    0  0.15642054327E+03  0.10163491036E+03  0.10313374283E+04  0.10554993758E+04  0.12500000000E+03 0.  0.
</event>
<event>
 5    0  0.5851292E-005  0.3075816E+03  0.7546771E-02  0.1081511E+00
         21   -1    0    0  502  501  0.00000000000E+00  0.00000000000E+00  0.20087563573E+03  0.20087563573E+03  0.00000000000E+00 0. -1.
         21   -1    0    0  501  502 -0.00000000000E+00 -0.00000000000E+00 -0.47097034464E+03  0.47097034464E+03  0.00000000000E+00 0. -1.
         25    1    1    2    0    0  0.86788487525E+02  0.22823003264E+02 -0.30622561363E+03  0.34271308334E+03  0.12500000000E+03 0.  0.
         25    1    1    2    0    0  0.48733306141E+02 -0.38331179612E+02 -0.49068007733E+01  0.13961837684E+03  0.12500000000E+03 0.  0.
         25    1    1    2    0    0 -0.13552179367E+03  0.15508176348E+02  0.41037705503E+02  0.18951452020E+03  0.12500000000E+03 0.  0.
</event>
<event>
 5    0  0.8650305E-005  0.7024106E+03  0.7546771E-02  0.9713119E-01
         21   -1    0    0  502  501  0.00000000000E+00  0.00000000000E+00  0.66544154451E+03  0.66544154451E+03  0.00000000000E+00 0.  1.
         21   -1    0    0  501  502 -0.00000000000E+00 -0.00000000000E+00 -0.74143359914E+03  0.74143359914E+03  0.00000000000E+00 0.  1.
         25    1    1    2    0    0  0.63929551155E+02  0.31487379237E+02 -0.37228428008E+03  0.39912282290E+03  0.12500000000E+03 0.  0.
         25    1    1    2    0    0 -0.14831421712E+03  0.41645549279E+03  0.27327139628E+03  0.53454143011E+03  0.12500000000E+03 0.  0.
         25    1    1    2    0    0  0.84384665967E+02 -0.44794287203E+03  0.23020829167E+02  0.47321089064E+03  0.12500000000E+03 0.  0.
</event>
<event>
 5    0  0.5851292E-005  0.2799515E+03  0.7546771E-02  0.1095715E+00
         21   -1    0    0  502  501  0.00000000000E+00  0.00000000000E+00  0.92890372943E+03  0.92890372943E+03  0.00000000000E+00 0. -1.
         21   -1    0    0  501  502 -0.00000000000E+00 -0.00000000000E+00 -0.84371317822E+02  0.84371317822E+02  0.00000000000E+00 0. -1.
         25    1    1    2    0    0 -0.14792123719E+03  0.32890791523E+01  0.47203092957E+03  0.51022515512E+03  0.12500000000E+03 0.  0.
         25    1    1    2    0    0  0.85722833350E+02 -0.24548686598E+02  0.31525626626E+03  0.35066017109E+03  0.12500000000E+03 0.  0.
         25    1    1    2    0    0  0.62198403843E+02  0.21259607446E+02  0.57245215785E+02  0.15238972104E+03  0.12500000000E+03 0.  0.
</event>
<event>
 5    0  0.5851292E-005  0.2475667E+03  0.7546771E-02  0.1114852E+00
         21   -1    0    0  502  501  0.00000000000E+00  0.00000000000E+00  0.45554797459E+02  0.45554797459E+02  0.00000000000E+00 0.  1.
         21   -1    0    0  501  502 -0.00000000000E+00 -0.00000000000E+00 -0.13453962182E+04  0.13453962182E+04  0.00000000000E+00 0.  1.
         25    1    1    2    0    0 -0.12651578777E+01  0.80418608387E+02 -0.21646003840E+03  0.26258084740E+03  0.12500000000E+03 0.  0.
         25    1    1    2    0    0 -0.53664498140E+02  0.21755252611E+02 -0.60546228078E+03  0.62093698781E+03  0.12500000000E+03 0.  0.
         25    1    1    2    0    0  0.54929656018E+02 -0.10217386100E+03 -0.47791910151E+03  0.50743318040E+03  0.12500000000E+03 0.  0.
</event>
<event>
 5    0  0.5851292E-005  0.2627267E+03  0.7546771E-02  0.1105516E+00
         21   -1    0    0  502  501  0.00000000000E+00  0.00000000000E+00  0.13260072123E+03  0.13260072123E+03  0.00000000000E+00 0.  1.
         21   -1    0    0  501  502 -0.00000000000E+00 -0.00000000000E+00 -0.52055005519E+03  0.52055005519E+03  0.00000000000E+00 0.  1.
         25    1    1    2    0    0  0.76298323102E-01 -0.92089998016E+02 -0.18543933251E+03  0.24185392203E+03  0.12500000000E+03 0.  0.
         25    1    1    2    0    0 -0.10951679513E+03  0.94364791050E+02 -0.12131168751E+03  0.22636291156E+03  0.12500000000E+03 0.  0.
         25    1    1    2    0    0  0.10944049681E+03 -0.22747930336E+01 -0.81198313941E+02  0.18493394283E+03  0.12500000000E+03 0.  0.
</event>
<event>
 5    0  0.5851292E-005  0.3485037E+03  0.7546771E-02  0.1063231E+00
         21   -1    0    0  502  501  0.00000000000E+00  0.00000000000E+00  0.46496690843E+03  0.46496690843E+03  0.00000000000E+00 0. -1.
         21   -1    0    0  501  502 -0.00000000000E+00 -0.00000000000E+00 -0.26121172795E+03  0.26121172795E+03  0.00000000000E+00 0. -1.
         25    1    1    2    0    0 -0.32927196977E+02  0.78796247843E+02  0.28676824496E+01  0.15141424166E+03  0.12500000000E+03 0.  0.
         25    1    1    2    0    0  0.13875591389E+03 -0.11308122661E+03  0.30693144631E+03  0.37665963440E+03  0.12500000000E+03 0.  0.
         25    1    1    2    0    0 -0.10582871691E+03  0.34284978770E+02 -0.10604394828E+03  0.19810476032E+03  0.12500000000E+03 0.  0.
</event>
<event>
 5    0  0.5851292E-005  0.2568766E+03  0.7546771E-02  0.1109034E+00
         21   -1    0    0  502  501  0.00000000000E+00  0.00000000000E+00  0.90600033447E+02  0.90600033447E+02  0.00000000000E+00 0.  1.
         21   -1    0    0  501  502 -0.00000000000E+00 -0.00000000000E+00 -0.72831761071E+03  0.72831761071E+03  0.00000000000E+00 0.  1.
         25    1    1    2    0    0  0.95268258184E+01 -0.60043714639E+02 -0.35311509256E+03  0.37948817725E+03  0.12500000000E+03 0.  0.
         25    1    1    2    0    0 -0.44808904206E+02  0.19290645011E+02 -0.27128065184E+03  0.30265187748E+03  0.12500000000E+03 0.  0.
         25    1    1    2    0    0  0.35282078388E+02  0.40753069628E+02 -0.13321832867E+02  0.13677758943E+03  0.12500000000E+03 0.  0.
</event>
<event>
 5    0  0.5851292E-005  0.3329059E+03  0.7546771E-02  0.1069858E+00
         21   -1    0    0  502  501  0.00000000000E+00  0.00000000000E+00  0.11688677909E+03  0.11688677909E+03  0.00000000000E+00 0. -1.
         21   -1    0    0  501  502 -0.00000000000E+00 -0.00000000000E+00 -0.94815110697E+03  0.94815110697E+03  0.00000000000E+00 0. -1.
         25    1    1    2    0    0  0.53614583940E+02 -0.48220987491E+02 -0.12274711036E+03  0.18945089165E+03  0.12500000000E+03 0.  0.
         25    1    1    2    0    0 -0.14026273709E+03 -0.87164403194E+02 -0.61977752783E+03  0.65346801957E+03  0.12500000000E+03 0.  0.
         25    1    1    2    0    0  0.86648153147E+02  0.13538539069E+03 -0.88739689694E+02  0.22211897484E+03  0.12500000000E+03 0.  0.
</event>
<event>
 5    0  0.5851292E-005  0.4296885E+03  0.7546771E-02  0.1033958E+00
         21   -1    0    0  502  501  0.00000000000E+00  0.00000000000E+00  0.10900066122E+03  0.10900066122E+03  0.00000000000E+00 0. -1.
         21   -1    0    0  501  502 -0.00000000000E+00 -0.00000000000E+00 -0.16938631084E+04  0.16938631084E+04  0.00000000000E+00 0. -1.
         25    1    1    2    0    0  0.22816581759E+03 -0.18129907726E+03 -0.76910327760E+03  0.83190975914E+03  0.12500000000E+03 0.  0.
         25    1    1    2    0    0 -0.22457572549E+03 -0.31587135190E+02 -0.28200756647E+03  0.38286455978E+03  0.12500000000E+03 0.  0.
         25    1    1    2    0    0 -0.35900920978E+01  0.21288621245E+03 -0.53375160314E+03  0.58808945074E+03  0.12500000000E+03 0.  0.
</event>
<event>
 5    0  0.5851292E-005  0.2876049E+03  0.7546771E-02  0.1091606E+00
         21   -1    0    0  502  501  0.00000000000E+00  0.00000000000E+00  0.88633297328E+03  0.88633297328E+03  0.00000000000E+00 0.  1.
         21   -1    0    0  501  502 -0.00000000000E+00 -0.00000000000E+00 -0.93324500987E+02  0.93324500987E+02  0.00000000000E+00 0.  1.
         25    1    1    2    0    0  0.91716968453E+02  0.12168821745E+03  0.21126341217E+03  0.28892430478E+03  0.12500000000E+03 0.  0.
         25    1    1    2    0    0 -0.13156978858E+03  0.15588483948E+02  0.30010799579E+03  0.35106042107E+03  0.12500000000E+03 0.  0.
         25    1    1    2    0    0  0.39852820128E+02 -0.13727670140E+03  0.28163706432E+03  0.33967274842E+03  0.12500000000E+03 0.  0.
</event>
<event>
 5    0  0.5851292E-005  0.2695074E+03  0.7546771E-02  0.1101562E+00
         21   -1    0    0  502  501  0.00000000000E+00  0.00000000000E+00  0.56294280044E+03  0.56294280044E+03  0.00000000000E+00 0. -1.
         21   -1    0    0  501  502 -0.00000000000E+00 -0.00000000000E+00 -0.12902593707E+03  0.12902593707E+03  0.00000000000E+00 0. -1.
         25    1    1    2    0    0  0.94646625734E+02  0.21014424634E+00  0.13735382413E+02  0.15739024320E+03  0.12500000000E+03 0.  0.
         25    1    1    2    0    0 -0.61392102477E+02 -0.96283904249E+02  0.22023639133E+03  0.27779245585E+03  0.12500000000E+03 0.  0.
         25    1    1    2    0    0 -0.33254523258E+02  0.96073760002E+02  0.19994508963E+03  0.25678603846E+03  0.12500000000E+03 0.  0.
</event>
<event>
 5    0  0.5851292E-005  0.2720624E+03  0.7546771E-02  0.1100105E+00
         21   -1    0    0  502  501  0.00000000000E+00  0.00000000000E+00  0.36911739127E+03  0.36911739127E+03  0.00000000000E+00 0. -1.
         21   -1    0    0  501  502 -0.00000000000E+00 -0.00000000000E+00 -0.20052685109E+03  0.20052685109E+03  0.00000000000E+00 0. -1.
         25    1    1    2    0    0 -0.13663450671E+03  0.17218200315E+02  0.15164198540E+02  0.18660227159E+03  0.12500000000E+03 0.  0.
         25    1    1    2    0    0  0.16420840579E+03 -0.57461583083E+02  0.11659488235E+03  0.24389670078E+03  0.12500000000E+03 0.  0.
         25    1    1    2    0    0 -0.27573899083E+02  0.40243382767E+02  0.36831459292E+02  0.13914526999E+03  0.12500000000E+03 0.  0.
</event>
<event>
 5    0  0.5851292E-005  0.3231401E+03  0.7546771E-02  0.1074213E+00
         21   -1    0    0  502  501  0.00000000000E+00  0.00000000000E+00  0.41544355849E+03  0.41544355849E+03  0.00000000000E+00 0. -1.
         21   -1    0    0  501  502 -0.00000000000E+00 -0.00000000000E+00 -0.25134459616E+03  0.25134459616E+03  0.00000000000E+00 0. -1.
         25    1    1    2    0    0  0.15278192021E+03 -0.41537380579E+02  0.13914851865E+03  0.24506117475E+03  0.12500000000E+03 0.  0.
         25    1    1    2    0    0 -0.18320875091E+03  0.11033639453E+03 -0.57283952687E+02  0.25425581135E+03  0.12500000000E+03 0.  0.
         25    1    1    2    0    0  0.30426830703E+02 -0.68799013955E+02  0.82234396371E+02  0.16747116855E+03  0.12500000000E+03 0.  0.
</event>
<event>
 5    0  0.5851292E-005  0.2363838E+03  0.7546771E-02  0.1122226E+00
         21   -1    0    0  502  501  0.00000000000E+00  0.00000000000E+00  0.19436744404E+03  0.19436744404E+03  0.00000000000E+00 0. -1.
         21   -1    0    0  501  502 -0.00000000000E+00 -0.00000000000E+00 -0.28748282231E+03  0.28748282231E+03  0.00000000000E+00 0. -1.
         25    1    1    2    0    0 -0.38322370214E+02  0.60012614303E+02 -0.88244629008E+01  0.14412837708E+03  0.12500000000E+03 0.  0.
         25    1    1    2    0    0  0.54259298268E+02 -0.71987153038E+02  0.41151299495E+02  0.15951379596E+03  0.12500000000E+03 0.  0.
         25    1    1    2    0    0 -0.15936928055E+02  0.11974538735E+02 -0.12544221486E+03  0.17820809332E+03  0.12500000000E+03 0.  0.
</event>
<event>
 5    0  0.5851292E-005  0.3469710E+03  0.7546771E-02  0.1063865E+00
         21   -1    0    0  502  501  0.00000000000E+00  0.00000000000E+00  0.23876975893E+03  0.23876975893E+03  0.00000000000E+00 0.  1.
         21   -1    0    0  501  502 -0.00000000000E+00 -0.00000000000E+00 -0.50420488217E+03  0.50420488217E+03  0.00000000000E+00 0.  1.
         25    1    1    2    0    0 -0.44227831610E+02 -0.40132555451E+01  0.79746948408E+02  0.15477978902E+03  0.12500000000E+03 0.  0.
         25    1    1    2    0    0 -0.91361564691E+02 -0.14703245414E+03 -0.25677206800E+03  0.33394965636E+03  0.12500000000E+03 0.  0.
         25    1    1    2    0    0  0.13558939630E+03  0.15104570969E+03 -0.88410003647E+02  0.25424519573E+03  0.12500000000E+03 0.  0.
</event>
<event>
 5    0  0.5851292E-005  0.2450392E+03  0.7546771E-02  0.1116481E+00
         21   -1    0    0  502  501  0.00000000000E+00  0.00000000000E+00  0.10703450692E+04  0.10703450692E+04  0.00000000000E+00 0. -1.
         21   -1    0    0  501  502 -0.00000000000E+00 -0.00000000000E+00 -0.56097996364E+02  0.56097996364E+02  0.00000000000E+00 0. -1.
         25    1    1    2    0    0 -0.10847731702E+02 -0.19001335208E+02  0.11648507266E+03  0.17225706422E+03  0.12500000000E+03 0.  0.
         25    1    1    2    0    0 -0.85426975419E+02  0.48385906034E+02  0.37364640701E+03  0.40604876740E+03  0.12500000000E+03 0.  0.
         25    1    1    2    0    0  0.96274707121E+02 -0.29384570826E+02  0.52411559312E+03  0.54813723390E+03  0.12500000000E+03 0.  0.
</event>
<event>
 5    0  0.5851292E-005  0.3219429E+03  0.7546771E-02  0.1074759E+00
         21   -1    0    0  502  501  0.00000000000E+00  0.00000000000E+00  0.18197855853E+03  0.18197855853E+03  0.00000000000E+00 0.  1.
         21   -1    0    0  501  502 -0.00000000000E+00 -0.00000000000E+00 -0.56955725593E+03  0.56955725593E+03  0.00000000000E+00 0.  1.
         25    1    1    2    0    0 -0.13113755038E+03  0.77063170316E+02 -0.12257378470E+03  0.23191619615E+03  0.12500000000E+03 0.  0.
         25    1    1    2    0    0  0.20568516723E+03  0.50595858641E+02 -0.19458132339E+03  0.31361316991E+03  0.12500000000E+03 0.  0.
         25    1    1    2    0    0 -0.74547616849E+02 -0.12765902896E+03 -0.70423589314E+02  0.20600644840E+03  0.12500000000E+03 0.  0.
</event>
<event>
 5    0  0.5851292E-005  0.4241247E+03  0.7546771E-02  0.1035732E+00
         21   -1    0    0  502  501  0.00000000000E+00  0.00000000000E+00  0.11140743151E+03  0.11140743151E+03  0.00000000000E+00 0.  1.
         21   -1    0    0  501  502 -0.00000000000E+00 -0.00000000000E+00 -0.16146296044E+04  0.16146296044E+04  0.00000000000E+00 0.  1.
         25    1    1    2    0    0 -0.69069212526E+02 -0.17067686009E+03 -0.13442058724E+04  0.13625034217E+04  0.12500000000E+03 0.  0.
         25    1    1    2    0    0  0.18319323605E+02  0.72235040610E+02 -0.12770706637E+03  0.19361713124E+03  0.12500000000E+03 0.  0.
         25    1    1    2    0    0  0.50749888921E+02  0.98441819481E+02 -0.31309234114E+02  0.16991648298E+03  0.12500000000E+03 0.  0.
</event>
<event>
 5    0  0.5851292E-005  0.3387798E+03  0.7546771E-02  0.1067317E+00
         21   -1    0    0  502  501  0.00000000000E+00  0.00000000000E+00  0.49822991378E+03  0.49822991378E+03  0.00000000000E+00 0. -1.
         21   -1    0    0  501  502 -0.00000000000E+00 -0.00000000000E+00 -0.23035901643E+03  0.23035901643E+03  0.00000000000E+00 0.  1.
         25    1    1    2    0    0  0.19156600840E+03 -0.45517208542E+02  0.23082377381E+03  0.32813711525E+03  0.12500000000E+03 0.  0.
         25    1    1    2    0    0 -0.14147299779E+03 -0.51214682643E+02  0.10412092742E+03  0.22159359275E+03  0.12500000000E+03 0.  0.
         25    1    1    2    0    0 -0.50093010610E+02  0.96731891185E+02 -0.67073803885E+02  0.17885822221E+03  0.12500000000E+03 0.  0.
</event>
<event>
 5    0  0.5851292E-005  0.3731357E+03  0.7546771E-02  0.1053500E+00
         21   -1    0    0  502  501  0.00000000000E+00  0.00000000000E+00  0.44790505287E+03  0.44790505287E+03  0.00000000000E+00 0.  1.
         21   -1    0    0  501  502 -0.00000000000E+00 -0.00000000000E+00 -0.31084765013E+03  0.31084765013E+03  0.00000000000E+00 0.  1.
         25    1    1    2    0    0 -0.30519650834E+02  0.98236366421E+02  0.23420653562E+03  0.28470956096E+03  0.12500000000E+03 0.  0.
         25    1    1    2    0    0 -0.17147682419E+03 -0.52238753876E+02 -0.17170473334E+02  0.21920997649E+03  0.12500000000E+03 0.  0.
         25    1    1    2    0    0  0.20199647502E+03 -0.45997612545E+02 -0.79978659550E+02  0.25483316555E+03  0.12500000000E+03 0.  0.
</event>
<event>
 5    0  0.5851292E-005  0.2867384E+03  0.7546771E-02  0.1092064E+00
         21   -1    0    0  502  501  0.00000000000E+00  0.00000000000E+00  0.17202470440E+03  0.17202470440E+03  0.00000000000E+00 0. -1.
         21   -1    0    0  501  502 -0.00000000000E+00 -0.00000000000E+00 -0.47794834875E+03  0.47794834875E+03  0.00000000000E+00 0. -1.
         25    1    1    2    0    0  0.15149205225E+03  0.49963696568E+02 -0.18534275494E+03  0.27463275420E+03  0.12500000000E+03 0.  0.
         25    1    1    2    0    0  0.99908209663E+01 -0.75260469275E+02 -0.24673447435E+02  0.14831633001E+03  0.12500000000E+03 0.  0.
         25    1    1    2    0    0 -0.16148287322E+03  0.25296772707E+02 -0.95907441975E+02  0.22702396895E+03  0.12500000000E+03 0.  0.
</event>
<event>
 5    0  0.5851292E-005  0.3138011E+03  0.7546771E-02  0.1078538E+00
         21   -1    0    0  502  501  0.00000000000E+00  0.00000000000E+00  0.12374968673E+04  0.12374968673E+04  0.00000000000E+00 0. -1.
         21   -1    0    0  501  502 -0.00000000000E+00 -0.00000000000E+00 -0.79572823659E+02  0.79572823659E+02  0.00000000000E+00 0. -1.
         25    1    1    2    0    0  0.10237107219E+03  0.93307197264E+02  0.11362048611E+03  0.21845064510E+03  0.12500000000E+03 0.  0.
         25    1    1    2    0    0 -0.58782530664E+02 -0.10484737184E+03  0.81804438848E+03  0.83622364163E+03  0.12500000000E+03 0.  0.
         25    1    1    2    0    0 -0.43588541521E+02  0.11540174577E+02  0.22625916906E+03  0.26239540424E+03  0.12500000000E+03 0.  0.
</event>
<event>
 5    0  0.5851292E-005  0.2557404E+03  0.7546771E-02  0.1109730E+00
         21   -1    0    0  502  501  0.00000000000E+00  0.00000000000E+00  0.10830609029E+04  0.10830609029E+04  0.00000000000E+00 0. -1.
         21   -1    0    0  501  502 -0.00000000000E+00 -0.00000000000E+00 -0.60387331407E+02  0.60387331407E+02  0.00000000000E+00 0. -1.
         25    1    1    2    0    0  0.13690018074E+03  0.14935137364E+02  0.20905271472E+03  0.27980842615E+03  0.12500000000E+03 0.  0.
         25    1    1    2    0    0 -0.79117921304E+02 -0.29607621735E+02  0.40490777401E+03  0.43210133324E+03  0.12500000000E+03 0.  0.
         25    1    1    2    0    0 -0.57782259441E+02  0.14672484372E+02  0.40871308275E+03  0.43153847489E+03  0.12500000000E+03 0.  0.
</event>
<event>
 5    0  0.7155967E-005  0.3695485E+03  0.7546771E-02  0.1054866E+00
         21   -1    0    0  502  501  0.00000000000E+00  0.00000000000E+00  0.21983808260E+03  0.21983808260E+03  0.00000000000E+00 0. -1.
         21   -1    0    0  501  502 -0.00000000000E+00 -0.00000000000E+00 -0.62121223735E+03  0.62121223735E+03  0.00000000000E+00 0. -1.
         25    1    1    2    0    0 -0.14568651892E+03 -0.14021077172E+03 -0.25647733343E+03  0.34969879162E+03  0.12500000000E+03 0.  0.
         25    1    1    2    0    0  0.77051061382E+02  0.15294317164E+03 -0.23941000760E+03  0.31979779791E+03  0.12500000000E+03 0.  0.
         25    1    1    2    0    0  0.68635457537E+02 -0.12732399915E+02  0.94513186271E+02  0.17155373041E+03  0.12500000000E+03 0.  0.
</event>
<event>
 5    0  0.5851292E-005  0.2590065E+03  0.7546771E-02  0.1107742E+00
         21   -1    0    0  502  501  0.00000000000E+00  0.00000000000E+00  0.27490727670E+03  0.27490727670E+03  0.00000000000E+00 0.  1.
         21   -1    0    0  501  502 -0.00000000000E+00 -0.00000000000E+00 -0.24402545971E+03  0.24402545971E+03  0.00000000000E+00 0.  1.
         25    1    1    2    0    0 -0.81048610746E+02 -0.10305562038E+03  0.30797041892E+01  0.18117346046E+03  0.12500000000E+03 0.  0.
         25    1    1    2    0    0  0.11361507633E+01  0.95634135210E+02 -0.56177969899E+02  0.16711715339E+03  0.12500000000E+03 0.  0.
         25    1    1    2    0    0  0.79912459983E+02  0.74214851714E+01  0.83980082695E+02  0.17064212256E+03  0.12500000000E+03 0.  0.
</event>
<event>
 5    0  0.5851292E-005  0.3966867E+03  0.7546771E-02  0.1044933E+00
         21   -1    0    0  502  501  0.00000000000E+00  0.00000000000E+00  0.44719169516E+03  0.44719169516E+03  0.00000000000E+00 0. -1.
         21   -1    0    0  501  502 -0.00000000000E+00 -0.00000000000E+00 -0.35188558604E+03  0.35188558604E+03  0.00000000000E+00 0. -1.
         25    1    1    2    0    0 -0.82174828087E+02  0.47525484342E+02 -0.17749671921E+03  0.23694189027E+03  0.12500000000E+03 0.  0.
         25    1    1    2    0    0 -0.75993748061E+02  0.45764738318E+02 -0.57816627719E+02  0.16382070522E+03  0.12500000000E+03 0.  0.
         25    1    1    2    0    0  0.15816857615E+03 -0.93290222660E+02  0.33061945605E+03  0.39831468570E+03  0.12500000000E+03 0.  0.
</event>
<event>
 5    0  0.7205217E-005  0.5369889E+03  0.7546771E-02  0.1004551E+00
         21   -1    0    0  502  501  0.00000000000E+00  0.00000000000E+00  0.36822270346E+03  0.36822270346E+03  0.00000000000E+00 0. -1.
         21   -1    0    0  501  502 -0.00000000000E+00 -0.00000000000E+00 -0.78310523329E+03  0.78310523329E+03  0.00000000000E+00 0. -1.
         25    1    1    2    0    0  0.12013285223E+03 -0.13420047226E+03  0.11108815469E+03  0.24577885803E+03  0.12500000000E+03 0.  0.
         25    1    1    2    0    0 -0.30249865905E+03  0.29058923452E+03 -0.19847919235E+03  0.48058977490E+03  0.12500000000E+03 0.  0.
         25    1    1    2    0    0  0.18236580682E+03 -0.15638876226E+03 -0.32749149217E+03  0.42495930382E+03  0.12500000000E+03 0.  0.
</event>
<event>
 5    0  0.6090446E-005  0.2953134E+03  0.7546771E-02  0.1087607E+00
         21   -1    0    0  502  501  0.00000000000E+00  0.00000000000E+00  0.59902428731E+03  0.59902428731E+03  0.00000000000E+00 0. -1.
         21   -1    0    0  501  502 -0.00000000000E+00 -0.00000000000E+00 -0.14558674916E+03  0.14558674916E+03  0.00000000000E+00 0. -1.
         25    1    1    2    0    0  0.12908642696E+03 -0.90180929030E+02  0.79491158383E+02  0.21619377846E+03  0.12500000000E+03 0.  0.
         25    1    1    2    0    0 -0.62895013222E+02  0.37422586088E+02  0.34572045765E+03  0.37483845517E+03  0.12500000000E+03 0.  0.
         25    1    1    2    0    0 -0.66191413734E+02  0.52758342943E+02  0.28225922115E+02  0.15357880284E+03  0.12500000000E+03 0.  0.
</event>
<event>
 5    0  0.5851292E-005  0.2233912E+03  0.7546771E-02  0.1131380E+00
         21   -1    0    0  502  501  0.00000000000E+00  0.00000000000E+00  0.36262952032E+03  0.36262952032E+03  0.00000000000E+00 0. -1.
         21   -1    0    0  501  502 -0.00000000000E+00 -0.00000000000E+00 -0.13761602216E+03  0.13761602216E+03  0.00000000000E+00 0. -1.
         25    1    1    2    0    0  0.67772247601E+02  0.43992487011E+02  0.12183311452E+03  0.19234532552E+03  0.12500000000E+03 0.  0.
         25    1    1    2    0    0 -0.78065068954E+02 -0.56147213353E+02  0.89017806894E+02  0.18109620234E+03  0.12500000000E+03 0.  0.
         25    1    1    2    0    0  0.10292821354E+02  0.12154726343E+02  0.14162576748E+02  0.12680401462E+03  0.12500000000E+03 0.  0.
</event>
<event>
 5    0  0.5851292E-005  0.3606738E+03  0.7546771E-02  0.1058317E+00
         21   -1    0    0  502  501  0.00000000000E+00  0.00000000000E+00  0.96202362711E+03  0.96202362711E+03  0.00000000000E+00 0. -1.
         21   -1    0    0  501  502 -0.00000000000E+00 -0.00000000000E+00 -0.13522080297E+03  0.13522080297E+03  0.00000000000E+00 0. -1.
         25    1    1    2    0    0  0.18843188720E+03 -0.81596264556E+02  0.68073115776E+03  0.72193104633E+03  0.12500000000E+03 0.  0.
         25    1    1    2    0    0 -0.42616363352E+02  0.46478117889E+02  0.10696731678E+03  0.17619130718E+03  0.12500000000E+03 0.  0.
         25    1    1    2    0    0 -0.14581552384E+03  0.35118146667E+02  0.39104349593E+02  0.19912207657E+03  0.12500000000E+03 0.  0.
</event>
<event>
 5    0  0.5851292E-005  0.2739525E+03  0.7546771E-02  0.1099039E+00
         21   -1    0    0  502  501  0.00000000000E+00  0.00000000000E+00  0.73254624801E+03  0.73254624801E+03  0.00000000000E+00 0.  1.
         21   -1    0    0  501  502 -0.00000000000E+00 -0.00000000000E+00 -0.10245079474E+03  0.10245079474E+03  0.00000000000E+00 0.  1.
         25    1    1    2    0    0 -0.16217260188E+03 -0.48905354035E+02  0.17435643214E+03  0.27334383454E+03  0.12500000000E+03 0.  0.
         25    1    1    2    0    0  0.42543903130E+02 -0.16767203862E+02  0.12466775723E+03  0.18236823329E+03  0.12500000000E+03 0.  0.
         25    1    1    2    0    0  0.11962869875E+03  0.65672557897E+02  0.33107126390E+03  0.37928497492E+03  0.12500000000E+03 0.  0.
</event>
<event>
 5    0  0.5851292E-005  0.4834338E+03  0.7546771E-02  0.1018196E+00
         21   -1    0    0  502  501  0.00000000000E+00  0.00000000000E+00  0.93140542568E+03  0.93140542568E+03  0.00000000000E+00 0.  1.
         21   -1    0    0  501  502 -0.00000000000E+00 -0.00000000000E+00 -0.25091997442E+03  0.25091997442E+03  0.00000000000E+00 0.  1.
         25    1    1    2    0    0 -0.19735172521E+03 -0.29861834015E+03  0.78409888764E+02  0.38716111268E+03  0.12500000000E+03 0.  0.
         25    1    1    2    0    0 -0.31843319809E+02  0.19900711845E+03  0.23533131948E+03  0.33410127228E+03  0.12500000000E+03 0.  0.
         25    1    1    2    0    0  0.22919504502E+03  0.99611221704E+02  0.36674424301E+03  0.46106301515E+03  0.12500000000E+03 0.  0.
</event>
<event>
 5    0  0.5851292E-005  0.3494653E+03  0.7546771E-02  0.1062835E+00
         21   -1    0    0  502  501  0.00000000000E+00  0.00000000000E+00  0.20560523308E+03  0.20560523308E+03  0.00000000000E+00 0.  1.
         21   -1    0    0  501  502 -0.00000000000E+00 -0.00000000000E+00 -0.59398283343E+03  0.59398283343E+03  0.00000000000E+00 0.  1.
         25    1    1    2    0    0  0.76700482704E+02  0.13116155227E+03 -0.30260961337E+03  0.36094860430E+03  0.12500000000E+03 0.  0.
         25    1    1    2    0    0  0.12068118214E+03 -0.78561060737E+02 -0.39182396488E+02  0.19466907351E+03  0.12500000000E+03 0.  0.
         25    1    1    2    0    0 -0.19738166484E+03 -0.52600491532E+02 -0.46585590490E+02  0.24397038871E+03  0.12500000000E+03 0.  0.
</event>
<event>
 5    0  0.5851292E-005  0.2715491E+03  0.7546771E-02  0.1100396E+00
         21   -1    0    0  502  501  0.00000000000E+00  0.00000000000E+00  0.22425552607E+03  0.22425552607E+03  0.00000000000E+00 0. -1.
         21   -1    0    0  501  502 -0.00000000000E+00 -0.00000000000E+00 -0.32881641631E+03  0.32881641631E+03  0.00000000000E+00 0. -1.
         25    1    1    2    0    0 -0.43618668236E+02  0.72092698494E+01 -0.14605148843E+03  0.19725769710E+03  0.12500000000E+03 0.  0.
         25    1    1    2    0    0 -0.97718750586E+02 -0.45388537856E+01  0.51426550121E+02  0.16685096783E+03  0.12500000000E+03 0.  0.
         25    1    1    2    0    0  0.14133741882E+03 -0.26704160638E+01 -0.99359519283E+01  0.18896327744E+03  0.12500000000E+03 0.  0.
</event>
<event>
 5    0  0.5851292E-005  0.2384311E+03  0.7546771E-02  0.1120842E+00
         21   -1    0    0  502  501  0.00000000000E+00  0.00000000000E+00  0.23231985439E+03  0.23231985439E+03  0.00000000000E+00 0.  1.
         21   -1    0    0  501  502 -0.00000000000E+00 -0.00000000000E+00 -0.24470304146E+03  0.24470304146E+03  0.00000000000E+00 0.  1.
         25    1    1    2    0    0  0.25047109918E+02 -0.16060143277E+02 -0.10288558530E+03  0.16460780535E+03  0.12500000000E+03 0.  0.
         25    1    1    2    0    0 -0.62315180855E+02 -0.17307251844E+02  0.10696526697E+03  0.17677469013E+03  0.12500000000E+03 0.  0.
         25    1    1    2    0    0  0.37268070938E+02  0.33367395121E+02 -0.16462868741E+02  0.13564040038E+03  0.12500000000E+03 0.  0.
</event>
<event>
 5    0  0.5851292E-005  0.4279872E+03  0.7546771E-02  0.1034498E+00
         21   -1    0    0  502  501  0.00000000000E+00  0.00000000000E+00  0.10586246151E+04  0.10586246151E+04  0.00000000000E+00 0.  1.
         21   -1    0    0  501  502 -0.00000000000E+00 -0.00000000000E+00 -0.17302930737E+03  0.17302930737E+03  0.00000000000E+00 0.  1.
         25    1    1    2    0    0 -0.10658285521E+03 -0.46121440630E+02  0.39603917677E+03  0.43122977848E+03  0.12500000000E+03 0.  0.
         25    1    1    2    0    0  0.34028614231E+03  0.53045385130E+02  0.31319723734E+03  0.48200205499E+03  0.12500000000E+03 0.  0.
         25    1    1    2    0    0 -0.23370328710E+03 -0.69239444993E+01  0.17635889359E+03  0.31842208899E+03  0.12500000000E+03 0.  0.
</event>
<event>
 5    0  0.5851292E-005  0.2638801E+03  0.7546771E-02  0.1104834E+00
         21   -1    0    0  502  501  0.00000000000E+00  0.00000000000E+00  0.29482771768E+03  0.29482771768E+03  0.00000000000E+00 0.  1.
         21   -1    0    0  501  502 -0.00000000000E+00 -0.00000000000E+00 -0.23618102819E+03  0.23618102819E+03  0.00000000000E+00 0.  1.
         25    1    1    2    0    0  0.32316108016E+02  0.76266507354E+02 -0.94946415350E+02  0.17748445782E+03  0.12500000000E+03 0.  0.
         25    1    1    2    0    0 -0.56888609846E+02 -0.37292930723E+02  0.16725503406E+03  0.21960492488E+03  0.12500000000E+03 0.  0.
         25    1    1    2    0    0  0.24572501831E+02 -0.38973576631E+02 -0.13661929226E+02  0.13391936317E+03  0.12500000000E+03 0.  0.
</event>
<event>
 5    0  0.5851292E-005  0.4073302E+03  0.7546771E-02  0.1041271E+00
         21   -1    0    0  502  501  0.00000000000E+00  0.00000000000E+00  0.56164004080E+03  0.56164004080E+03  0.00000000000E+00 0.  1.
         21   -1    0    0  501  502 -0.00000000000E+00 -0.00000000000E+00 -0.29541670877E+03  0.29541670877E+03  0.00000000000E+00 0.  1.
         25    1    1    2    0    0 -0.40113341990E+02 -0.70421491636E+00 -0.44122242992E+02  0.13849674527E+03  0.12500000000E+03 0.  0.
         25    1    1    2    0    0  0.20012283159E+03 -0.22471930920E+03  0.74409756621E+02  0.33423005180E+03  0.12500000000E+03 0.  0.
         25    1    1    2    0    0 -0.16000948960E+03  0.22542352411E+03  0.23593581839E+03  0.38432995250E+03  0.12500000000E+03 0.  0.
</event>
<event>
 5    0  0.5851292E-005  0.4049207E+03  0.7546771E-02  0.1042089E+00
         21   -1    0    0  502  501  0.00000000000E+00  0.00000000000E+00  0.64138688817E+03  0.64138688817E+03  0.00000000000E+00 0. -1.
         21   -1    0    0  501  502 -0.00000000000E+00 -0.00000000000E+00 -0.25563477773E+03  0.25563477773E+03  0.00000000000E+00 0. -1.
         25    1    1    2    0    0 -0.28992353632E+02 -0.16922754155E+03  0.78678024528E+02  0.22648123307E+03  0.12500000000E+03 0.  0.
         25    1    1    2    0    0  0.20945120409E+03  0.61825410160E+02  0.34101949313E+03  0.42380594962E+03  0.12500000000E+03 0.  0.
         25    1    1    2    0    0 -0.18045885046E+03  0.10740213139E+03 -0.33945407218E+02  0.24673448321E+03  0.12500000000E+03 0.  0.
</event>
<event>
 5    0  0.5851292E-005  0.3434395E+03  0.7546771E-02  0.1065340E+00
         21   -1    0    0  502  501  0.00000000000E+00  0.00000000000E+00  0.39873360132E+04  0.39873360132E+04  0.00000000000E+00 0.  1.
         21   -1    0    0  501  502 -0.00000000000E+00 -0.00000000000E+00 -0.29581326470E+02  0.29581326470E+02  0.00000000000E+00 0.  1.
         25    1    1    2    0    0  0.17894660013E+02 -0.11774881959E+03  0.64630252363E+03  0.66896708097E+03  0.12500000000E+03 0.  0.
         25    1    1    2    0    0 -0.76923688103E+02 -0.94007940535E+02  0.60206481093E+03  0.62678687226E+03  0.12500000000E+03 0.  0.
         25    1    1    2    0    0  0.59029028089E+02  0.21175676012E+03  0.27093873522E+04  0.27211633864E+04  0.12500000000E+03 0.  0.
</event>
<event>
 5    0  0.5851292E-005  0.6320273E+03  0.7546771E-02  0.9841101E-01
         21   -1    0    0  502  501  0.00000000000E+00  0.00000000000E+00  0.11797295373E+04  0.11797295373E+04  0.00000000000E+00 0.  1.
         21   -1    0    0  501  502 -0.00000000000E+00 -0.00000000000E+00 -0.33860179179E+03  0.33860179179E+03  0.00000000000E+00 0.  1.
         25    1    1    2    0    0 -0.38153026100E+03 -0.52961531681E+01  0.86615609155E+03  0.95469616331E+03  0.12500000000E+03 0.  0.
         25    1    1    2    0    0  0.63431286990E+02  0.12982549632E+03  0.37053611813E+02  0.19461797916E+03  0.12500000000E+03 0.  0.
         25    1    1    2    0    0  0.31809897401E+03 -0.12452934316E+03 -0.62081957810E+02  0.36901718667E+03  0.12500000000E+03 0.  0.
</event>
<event>
 5    0  0.5851292E-005  0.3431261E+03  0.7546771E-02  0.1065472E+00
         21   -1    0    0  502  501  0.00000000000E+00  0.00000000000E+00  0.14966906904E+03  0.14966906904E+03  0.00000000000E+00 0.  1.
         21   -1    0    0  501  502 -0.00000000000E+00 -0.00000000000E+00 -0.78663913367E+03  0.78663913367E+03  0.00000000000E+00 0.  1.
         25    1    1    2    0    0  0.22811895544E+02  0.11463526577E+03 -0.69552281393E+02  0.18472722209E+03  0.12500000000E+03 0.  0.
         25    1    1    2    0    0  0.41369879000E+02 -0.22750774606E+03 -0.48869420701E+03  0.55490383795E+03  0.12500000000E+03 0.  0.
         25    1    1    2    0    0 -0.64181774544E+02  0.11287248029E+03 -0.78723576221E+02  0.19667714266E+03  0.12500000000E+03 0.  0.
</event>
<event>
 5    0  0.5851292E-005  0.2194269E+03  0.7546771E-02  0.1134311E+00
         21   -1    0    0  502  501  0.00000000000E+00  0.00000000000E+00  0.29389919659E+03  0.29389919659E+03  0.00000000000E+00 0.  1.
         21   -1    0    0  501  502 -0.00000000000E+00 -0.00000000000E+00 -0.16382537751E+03  0.16382537751E+03  0.00000000000E+00 0.  1.
         25    1    1    2    0    0 -0.31481222194E+01  0.21200613094E+02 -0.34052746346E+02  0.13131628308E+03  0.12500000000E+03 0.  0.
         25    1    1    2    0    0  0.28404731682E+02  0.46052912738E+02  0.61558655999E+02  0.14947296639E+03  0.12500000000E+03 0.  0.
         25    1    1    2    0    0 -0.25256609463E+02 -0.67253525832E+02  0.10256790943E+03  0.17693532463E+03  0.12500000000E+03 0.  0.
</event>
<event>
 5    0  0.5851292E-005  0.2805768E+03  0.7546771E-02  0.1095374E+00
         21   -1    0    0  502  501  0.00000000000E+00  0.00000000000E+00  0.13405675359E+04  0.13405675359E+04  0.00000000000E+00 0. -1.
         21   -1    0    0  501  502 -0.00000000000E+00 -0.00000000000E+00 -0.58723891679E+02  0.58723891679E+02  0.00000000000E+00 0. -1.
         25    1    1    2    0    0 -0.28113668708E+02  0.10675319867E+03  0.70931796021E+03  0.72865876271E+03  0.12500000000E+03 0.  0.
         25    1    1    2    0    0  0.81184965635E+02 -0.14465464865E+03  0.35912039928E+03  0.41485952707E+03  0.12500000000E+03 0.  0.
         25    1    1    2    0    0 -0.53071296926E+02  0.37901449984E+02  0.21340528471E+03  0.25577313778E+03  0.12500000000E+03 0.  0.
</event>
<event>
 5    0  0.5851292E-005  0.4326654E+03  0.7546771E-02  0.1033021E+00
         21   -1    0    0  502  501  0.00000000000E+00  0.00000000000E+00  0.83432305208E+03  0.83432305208E+03  0.00000000000E+00 0.  1.
         21   -1    0    0  501  502 -0.00000000000E+00 -0.00000000000E+00 -0.22437272086E+03  0.22437272086E+03  0.00000000000E+00 0.  1.
         25    1    1    2    0    0  0.90735973333E+02 -0.12119845692E+03 -0.14125289657E+03  0.24186662358E+03  0.12500000000E+03 0.  0.
         25    1    1    2    0    0 -0.23942674097E+02  0.97762313210E+02  0.26460381697E+03  0.30946874072E+03  0.12500000000E+03 0.  0.
         25    1    1    2    0    0 -0.66793299235E+02  0.23436143708E+02  0.48659941081E+03  0.50736040864E+03  0.12500000000E+03 0.  0.
</event>
<event>
 5    0  0.5851292E-005  0.3107050E+03  0.7546771E-02  0.1080008E+00
         21   -1    0    0  502  501  0.00000000000E+00  0.00000000000E+00  0.49518615231E+02  0.49518615231E+02  0.00000000000E+00 0.  1.
         21   -1    0    0  501  502 -0.00000000000E+00 -0.00000000000E+00 -0.19495209066E+04  0.19495209066E+04  0.00000000000E+00 0.  1.
         25    1    1    2    0    0  0.15351996829E+03 -0.13206839452E+03 -0.54567393260E+03  0.59531124819E+03  0.12500000000E+03 0.  0.
         25    1    1    2    0    0 -0.13701372464E+02 -0.18716728727E+02 -0.52648471374E+03  0.54161720555E+03  0.12500000000E+03 0.  0.
         25    1    1    2    0    0 -0.13981859583E+03  0.15078512324E+03 -0.82784364508E+03  0.86211106815E+03  0.12500000000E+03 0.  0.
</event>
<event>
 5    0  0.5851292E-005  0.3974314E+03  0.7546771E-02  0.1044673E+00
         21   -1    0    0  502  501  0.00000000000E+00  0.00000000000E+00  0.87223635645E+03  0.87223635645E+03  0.00000000000E+00 0.  1.
         21   -1    0    0  501  502 -0.00000000000E+00 -0.00000000000E+00 -0.18108817308E+03  0.18108817308E+03  0.00000000000E+00 0.  1.
         25    1    1    2    0    0 -0.15873270557E+03 -0.55886706089E+02  0.61492323763E+03  0.64967298229E+03  0.12500000000E+03 0.  0.
         25    1    1    2    0    0  0.71599246428E+02  0.15195297283E+03  0.78210524973E+02  0.22351296217E+03  0.12500000000E+03 0.  0.
         25    1    1    2    0    0  0.87133459141E+02 -0.96066266744E+02 -0.19855792310E+01  0.18013858508E+03  0.12500000000E+03 0.  0.
</event>
<event>
 5    0  0.5851292E-005  0.5487110E+03  0.7546771E-02  0.1001793E+00
         21   -1    0    0  502  501  0.00000000000E+00  0.00000000000E+00  0.15014374449E+04  0.15014374449E+04  0.00000000000E+00 0.  1.
         21   -1    0    0  501  502 -0.00000000000E+00 -0.00000000000E+00 -0.20053032952E+03  0.20053032952E+03  0.00000000000E+00 0. -1.
         25    1    1    2    0    0  0.87797457045E+02 -0.13391787350E+03  0.43725846758E+01  0.20319082116E+03  0.12500000000E+03 0.  0.
         25    1    1    2    0    0 -0.88039746544E+02  0.41606385398E+03  0.75868779178E+03  0.87868782451E+03  0.12500000000E+03 0.  0.
         25    1    1    2    0    0  0.24228949846E+00 -0.28214598048E+03  0.53784673893E+03  0.62008912874E+03  0.12500000000E+03 0.  0.
</event>
<event>
 5    0  0.5851292E-005  0.2698797E+03  0.7546771E-02  0.1101348E+00
         21   -1    0    0  502  501  0.00000000000E+00  0.00000000000E+00  0.94179718713E+02  0.94179718713E+02  0.00000000000E+00 0.  1.
         21   -1    0    0  501  502 -0.00000000000E+00 -0.00000000000E+00 -0.77336240611E+03  0.77336240611E+03  0.00000000000E+00 0.  1.
         25    1    1    2    0    0 -0.97350893830E+02  0.60139704973E+02 -0.28392471655E+03  0.33065423831E+03  0.12500000000E+03 0.  0.
         25    1    1    2    0    0  0.15139024161E+03 -0.94756109990E+02 -0.19656405970E+03  0.29353050132E+03  0.12500000000E+03 0.  0.
         25    1    1    2    0    0 -0.54039347783E+02  0.34616405017E+02 -0.19869391114E+03  0.24335738520E+03  0.12500000000E+03 0.  0.
</event>
<event>
 5    0  0.5851292E-005  0.2311020E+03  0.7546771E-02  0.1125867E+00
         21   -1    0    0  502  501  0.00000000000E+00  0.00000000000E+00  0.15670176032E+03  0.15670176032E+03  0.00000000000E+00 0. -1.
         21   -1    0    0  501  502 -0.00000000000E+00 -0.00000000000E+00 -0.34082658281E+03  0.34082658281E+03  0.00000000000E+00 0. -1.
         25    1    1    2    0    0 -0.71014996241E+02 -0.51524279455E+02 -0.15133289640E+02  0.15346627486E+03  0.12500000000E+03 0.  0.
         25    1    1    2    0    0 -0.63413913727E+01  0.80801412744E+02 -0.97086693062E+02  0.17781987379E+03  0.12500000000E+03 0.  0.
         25    1    1    2    0    0  0.77356387613E+02 -0.29277133289E+02 -0.71904839787E+02  0.16624219447E+03  0.12500000000E+03 0.  0.
</event>
<event>
 5    0  0.5851292E-005  0.2941388E+03  0.7546771E-02  0.1088208E+00
         21   -1    0    0  502  501  0.00000000000E+00  0.00000000000E+00  0.50813350998E+02  0.50813350998E+02  0.00000000000E+00 0.  1.
         21   -1    0    0  501  502 -0.00000000000E+00 -0.00000000000E+00 -0.17026553093E+04  0.17026553093E+04  0.00000000000E+00 0.  1.
         25    1    1    2    0    0  0.56333857255E+01  0.87933889589E+02 -0.62706305858E+03  0.64544340063E+03  0.12500000000E+03 0.  0.
         25    1    1    2    0    0 -0.16858910037E+02 -0.19640265887E+03 -0.41556382937E+03  0.47663038461E+03  0.12500000000E+03 0.  0.
         25    1    1    2    0    0  0.11225524311E+02  0.10846876928E+03 -0.60921507034E+03  0.63139487505E+03  0.12500000000E+03 0.  0.
</event>
<event>
 5    0  0.5851292E-005  0.2639476E+03  0.7546771E-02  0.1104794E+00
         21   -1    0    0  502  501  0.00000000000E+00  0.00000000000E+00  0.70733466862E+02  0.70733466862E+02  0.00000000000E+00 0.  1.
         21   -1    0    0  501  502 -0.00000000000E+00 -0.00000000000E+00 -0.98494160303E+03  0.98494160303E+03  0.00000000000E+00 0.  1.
         25    1    1    2    0    0 -0.16229003887E+02 -0.14952169128E+03 -0.53596477729E+03  0.57052901698E+03  0.12500000000E+03 0.  0.
         25    1    1    2    0    0 -0.33770077186E+01  0.51881955499E+02 -0.23147334673E+03  0.26815676709E+03  0.12500000000E+03 0.  0.
         25    1    1    2    0    0  0.19606011605E+02  0.97639735779E+02 -0.14677001215E+03  0.21698928582E+03  0.12500000000E+03 0.  0.
</event>
<event>
 5    0  0.5851292E-005  0.2554086E+03  0.7546771E-02  0.1109934E+00
         21   -1    0    0  502  501  0.00000000000E+00  0.00000000000E+00  0.18786135083E+04  0.18786135083E+04  0.00000000000E+00 0.  1.
         21   -1    0    0  501  502 -0.00000000000E+00 -0.00000000000E+00 -0.34724320394E+02  0.34724320394E+02  0.00000000000E+00 0.  1.
         25    1    1    2    0    0  0.60226733640E+02 -0.51382873502E+02  0.94477281997E+03  0.95628873281E+03  0.12500000000E+03 0.  0.
         25    1    1    2    0    0 -0.15342985678E+02 -0.71881370008E+02  0.44875310388E+03  0.47160013444E+03  0.12500000000E+03 0.  0.
         25    1    1    2    0    0 -0.44883747962E+02  0.12326424351E+03  0.45036326405E+03  0.48544896144E+03  0.12500000000E+03 0.  0.
</event>
<event>
 5    0  0.5851292E-005  0.2231869E+03  0.7546771E-02  0.1131529E+00
         21   -1    0    0  502  501  0.00000000000E+00  0.00000000000E+00  0.97694403647E+02  0.97694403647E+02  0.00000000000E+00 0. -1.
         21   -1    0    0  501  502 -0.00000000000E+00 -0.00000000000E+00 -0.50987967402E+03  0.50987967402E+03  0.00000000000E+00 0. -1.
         25    1    1    2    0    0  0.56590513856E+02  0.34907304112E+02 -0.20494763834E+03  0.24909745201E+03  0.12500000000E+03 0.  0.
         25    1    1    2    0    0 -0.90367654343E+02 -0.49731411009E+02 -0.11975896349E+03  0.20151113003E+03  0.12500000000E+03 0.  0.
         25    1    1    2    0    0  0.33777140487E+02  0.14824106897E+02 -0.87478668551E+02  0.15696549562E+03  0.12500000000E+03 0.  0.
</event>
<event>
 5    0  0.5851292E-005  0.3196224E+03  0.7546771E-02  0.1075823E+00
         21   -1    0    0  502  501  0.00000000000E+00  0.00000000000E+00  0.43920414806E+03  0.43920414806E+03  0.00000000000E+00 0.  1.
         21   -1    0    0  501  502 -0.00000000000E+00 -0.00000000000E+00 -0.23259907565E+03  0.23259907565E+03  0.00000000000E+00 0.  1.
         25    1    1    2    0    0 -0.14025710072E+03 -0.40785297879E+02  0.96086671575E+02  0.21492590184E+03  0.12500000000E+03 0.  0.
         25    1    1    2    0    0  0.97919054948E+02  0.18264974651E+03  0.19503177221E+02  0.24280536474E+03  0.12500000000E+03 0.  0.
         25    1    1    2    0    0  0.42338045771E+02 -0.14186444863E+03  0.91015223606E+02  0.21407195714E+03  0.12500000000E+03 0.  0.
</event>
<event>
 5    0  0.5851292E-005  0.2572101E+03  0.7546771E-02  0.1108831E+00
         21   -1    0    0  502  501  0.00000000000E+00  0.00000000000E+00  0.18764888966E+03  0.18764888966E+03  0.00000000000E+00 0. -1.
         21   -1    0    0  501  502 -0.00000000000E+00 -0.00000000000E+00 -0.35255762258E+03  0.35255762258E+03  0.00000000000E+00 0. -1.
         25    1    1    2    0    0 -0.11956681134E+02 -0.16028781443E+02 -0.13322766620E+03  0.18377838583E+03  0.12500000000E+03 0.  0.
         25    1    1    2    0    0 -0.88372139307E+02 -0.70496217451E+02  0.12502842709E+02  0.16899903182E+03  0.12500000000E+03 0.  0.
         25    1    1    2    0    0  0.10032882044E+03  0.86524998894E+02 -0.44183909435E+02  0.18742909459E+03  0.12500000000E+03 0.  0.
</event>
<event>
 5    0  0.5851292E-005  0.2612331E+03  0.7546771E-02  0.1106405E+00
         21   -1    0    0  502  501  0.00000000000E+00  0.00000000000E+00  0.15252072794E+03  0.15252072794E+03  0.00000000000E+00 0.  1.
         21   -1    0    0  501  502 -0.00000000000E+00 -0.00000000000E+00 -0.44743237966E+03  0.44743237966E+03  0.00000000000E+00 0.  1.
         25    1    1    2    0    0 -0.52900368044E+02  0.11442581011E+03 -0.66745527243E+02  0.18966201614E+03  0.12500000000E+03 0.  0.
         25    1    1    2    0    0 -0.66162764331E+02 -0.73606905039E+02 -0.76214201234E+02  0.17671754956E+03  0.12500000000E+03 0.  0.
         25    1    1    2    0    0  0.11906313237E+03 -0.40818905068E+02 -0.15195192324E+03  0.23357354190E+03  0.12500000000E+03 0.  0.
</event>
<event>
 5    0  0.5851292E-005  0.3040353E+03  0.7546771E-02  0.1083241E+00
         21   -1    0    0  502  501  0.00000000000E+00  0.00000000000E+00  0.13212324632E+04  0.13212324632E+04  0.00000000000E+00 0.  1.
         21   -1    0    0  501  502 -0.00000000000E+00 -0.00000000000E+00 -0.69963075730E+02  0.69963075730E+02  0.00000000000E+00 0.  1.
         25    1    1    2    0    0 -0.10103877082E+03  0.76078696427E+02  0.16924123964E+03  0.24548808210E+03  0.12500000000E+03 0.  0.
         25    1    1    2    0    0 -0.72055371952E+02 -0.20094582459E+02  0.56616190149E+03  0.58460248680E+03  0.12500000000E+03 0.  0.
         25    1    1    2    0    0  0.17309414277E+03 -0.55984113967E+02  0.51586624629E+03  0.56110496998E+03  0.12500000000E+03 0.  0.
</event>
<event>
 5    0  0.5851292E-005  0.2246854E+03  0.7546771E-02  0.1130437E+00
         21   -1    0    0  502  501  0.00000000000E+00  0.00000000000E+00  0.59740807522E+03  0.59740807522E+03  0.00000000000E+00 0. -1.
         21   -1    0    0  501  502 -0.00000000000E+00 -0.00000000000E+00 -0.84504237757E+02  0.84504237757E+02  0.00000000000E+00 0. -1.
         25    1    1    2    0    0  0.34344177528E+00 -0.14122211713E+02  0.26940295436E+02  0.12864810272E+03  0.12500000000E+03 0.  0.
         25    1    1    2    0    0  0.32199111772E+02  0.10886773789E+02  0.30048881877E+03  0.32722138507E+03  0.12500000000E+03 0.  0.
         25    1    1    2    0    0 -0.32542553547E+02  0.32354379235E+01  0.18547472326E+03  0.22604282519E+03  0.12500000000E+03 0.  0.
</event>
<event>
 5    0  0.5851292E-005  0.2400788E+03  0.7546771E-02  0.1119740E+00
         21   -1    0    0  502  501  0.00000000000E+00  0.00000000000E+00  0.25233668281E+03  0.25233668281E+03  0.00000000000E+00 0.  1.
         21   -1    0    0  501  502 -0.00000000000E+00 -0.00000000000E+00 -0.22841643476E+03  0.22841643476E+03  0.00000000000E+00 0.  1.
         25    1    1    2    0    0 -0.65308726414E+02 -0.66988170984E+02  0.34227448510E+02  0.15984105552E+03  0.12500000000E+03 0.  0.
         25    1    1    2    0    0  0.34214800017E+02 -0.55485754578E+02  0.13336996147E+02  0.14160578013E+03  0.12500000000E+03 0.  0.
         25    1    1    2    0    0  0.31093926397E+02  0.12247392556E+03 -0.23644196611E+02  0.17930628192E+03  0.12500000000E+03 0.  0.
</event>
<event>
 5    0  0.5851292E-005  0.3129410E+03  0.7546771E-02  0.1078945E+00
         21   -1    0    0  502  501  0.00000000000E+00  0.00000000000E+00  0.53833999447E+03  0.53833999447E+03  0.00000000000E+00 0. -1.
         21   -1    0    0  501  502 -0.00000000000E+00 -0.00000000000E+00 -0.18191489742E+03  0.18191489742E+03  0.00000000000E+00 0. -1.
         25    1    1    2    0    0 -0.14135965051E+02  0.30914879865E+02  0.34464044245E+03  0.36818146325E+03  0.12500000000E+03 0.  0.
         25    1    1    2    0    0  0.90499943894E+02 -0.21655522637E+02 -0.83783781403E+02  0.17692914834E+03  0.12500000000E+03 0.  0.
         25    1    1    2    0    0 -0.76363978843E+02 -0.92593572280E+01  0.95568436001E+02  0.17514428030E+03  0.12500000000E+03 0.  0.
</event>
<event>
 5    0  0.5851292E-005  0.2147845E+03  0.7546771E-02  0.1137832E+00
         21   -1    0    0  502  501  0.00000000000E+00  0.00000000000E+00  0.19769099982E+02  0.19769099982E+02  0.00000000000E+00 0. -1.
         21   -1    0    0  501  502 -0.00000000000E+00 -0.00000000000E+00 -0.23335594872E+04  0.23335594872E+04  0.00000000000E+00 0. -1.
         25    1    1    2    0    0  0.68327132428E+02  0.10183437659E+02 -0.10210118234E+04  0.10309522021E+04  0.12500000000E+03 0.  0.
         25    1    1    2    0    0 -0.50436388557E+02 -0.25512661432E+02 -0.87415654369E+03  0.88485557469E+03  0.12500000000E+03 0.  0.
         25    1    1    2    0    0 -0.17890743871E+02  0.15329223773E+02 -0.41862202013E+03  0.43752081043E+03  0.12500000000E+03 0.  0.
</event>
<event>
 5    0  0.5851292E-005  0.4212792E+03  0.7546771E-02  0.1036651E+00
         21   -1    0    0  502  501  0.00000000000E+00  0.00000000000E+00  0.13096338383E+03  0.13096338383E+03  0.00000000000E+00 0. -1.
         21   -1    0    0  501  502 -0.00000000000E+00 -0.00000000000E+00 -0.13551588846E+04  0.13551588846E+04  0.00000000000E+00 0. -1.
         25    1    1    2    0    0  0.91327130951E+02 -0.48916655625E+01 -0.89182629201E+02  0.17872636792E+03  0.12500000000E+03 0.  0.
         25    1    1    2    0    0 -0.94608837283E+02  0.21926293363E+03 -0.97626662396E+03  0.10127924700E+04  0.12500000000E+03 0.  0.
         25    1    1    2    0    0  0.32817063321E+01 -0.21437126807E+03 -0.15874624764E+03  0.29460343058E+03  0.12500000000E+03 0.  0.
</event>
<event>
 5    0  0.5851292E-005  0.2490420E+03  0.7546771E-02  0.1113912E+00
         21   -1    0    0  502  501  0.00000000000E+00  0.00000000000E+00  0.21340430631E+04  0.21340430631E+04  0.00000000000E+00 0. -1.
         21   -1    0    0  501  502 -0.00000000000E+00 -0.00000000000E+00 -0.29063109892E+02  0.29063109892E+02  0.00000000000E+00 0. -1.
         25    1    1    2    0    0 -0.96586850621E+02  0.70456325608E+02  0.11822377267E+04  0.11948239016E+04  0.12500000000E+03 0.  0.
         25    1    1    2    0    0  0.40690576045E+02 -0.12920334261E+02  0.57809602056E+03  0.59299466018E+03  0.12500000000E+03 0.  0.
         25    1    1    2    0    0  0.55896274576E+02 -0.57535991347E+02  0.34464620593E+03  0.37528761114E+03  0.12500000000E+03 0.  0.
</event>
<event>
 5    0  0.5851292E-005  0.3941844E+03  0.7546771E-02  0.1045812E+00
         21   -1    0    0  502  501  0.00000000000E+00  0.00000000000E+00  0.33200127971E+03  0.33200127971E+03  0.00000000000E+00 0. -1.
         21   -1    0    0  501  502 -0.00000000000E+00 -0.00000000000E+00 -0.46801435296E+03  0.46801435296E+03  0.00000000000E+00 0. -1.
         25    1    1    2    0    0 -0.35947176967E+02  0.91757800121E+01  0.58650501706E+02  0.14297298983E+03  0.12500000000E+03 0.  0.
         25    1    1    2    0    0 -0.85410471394E+02 -0.27223710864E+03 -0.83327113027E+02  0.32245371716E+03  0.12500000000E+03 0.  0.
         25    1    1    2    0    0  0.12135764836E+03  0.26306132862E+03 -0.11133646194E+03  0.33458892568E+03  0.12500000000E+03 0.  0.
</event>
<event>
 5    0  0.5851292E-005  0.2342647E+03  0.7546771E-02  0.1123674E+00
         21   -1    0    0  502  501  0.00000000000E+00  0.00000000000E+00  0.12489387491E+03  0.12489387491E+03  0.00000000000E+00 0. -1.
         21   -1    0    0  501  502 -0.00000000000E+00 -0.00000000000E+00 -0.43941260327E+03  0.43941260327E+03  0.00000000000E+00 0. -1.
         25    1    1    2    0    0  0.66387454067E+02  0.47071764633E+02 -0.12176391759E+03  0.19254738822E+03  0.12500000000E+03 0.  0.
         25    1    1    2    0    0  0.57131484432E+02 -0.34481087243E+02 -0.86911721701E+02  0.16622755265E+03  0.12500000000E+03 0.  0.
         25    1    1    2    0    0 -0.12351893850E+03 -0.12590677391E+02 -0.10584308907E+03  0.20553153731E+03  0.12500000000E+03 0.  0.
</event>
<event>
 5    0  0.5851292E-005  0.3050972E+03  0.7546771E-02  0.1082720E+00
         21   -1    0    0  502  501  0.00000000000E+00  0.00000000000E+00  0.21643410609E+02  0.21643410609E+02  0.00000000000E+00 0.  1.
         21   -1    0    0  501  502 -0.00000000000E+00 -0.00000000000E+00 -0.43008157863E+04  0.43008157863E+04  0.00000000000E+00 0.  1.
         25    1    1    2    0    0  0.21719341666E+03  0.47341614122E+02 -0.18578965388E+04  0.18753183084E+04  0.12500000000E+03 0.  0.
         25    1    1    2    0    0 -0.14079405747E+03 -0.23518716206E+02 -0.17132991202E+04  0.17237734689E+04  0.12500000000E+03 0.  0.
         25    1    1    2    0    0 -0.76399359193E+02 -0.23822897917E+02 -0.70797671660E+03  0.72336741964E+03  0.12500000000E+03 0.  0.
</event>
<event>
 5    0  0.5851292E-005  0.2165384E+03  0.7546771E-02  0.1136490E+00
         21   -1    0    0  502  501  0.00000000000E+00  0.00000000000E+00  0.32707540864E+03  0.32707540864E+03  0.00000000000E+00 0. -1.
         21   -1    0    0  501  502 -0.00000000000E+00 -0.00000000000E+00 -0.14335803686E+03  0.14335803686E+03  0.00000000000E+00 0. -1.
         25    1    1    2    0    0  0.27358238463E+02  0.51966687537E+02  0.13056979820E+03  0.19005915402E+03  0.12500000000E+03 0.  0.
         25    1    1    2    0    0 -0.31394242701E+01 -0.74343845330E+02  0.19342940400E+02  0.14675153378E+03  0.12500000000E+03 0.  0.
         25    1    1    2    0    0 -0.24218814193E+02  0.22377157793E+02  0.33804633188E+02  0.13362275771E+03  0.12500000000E+03 0.  0.
</event>
<event>
 5    0  0.6720490E-005  0.6576583E+03  0.7546771E-02  0.9792514E-01
         21   -1    0    0  502  501  0.00000000000E+00  0.00000000000E+00  0.15095011484E+04  0.15095011484E+04  0.00000000000E+00 0.  1.
         21   -1    0    0  501  502 -0.00000000000E+00 -0.00000000000E+00 -0.28652805437E+03  0.28652805437E+03  0.00000000000E+00 0.  1.
         25    1    1    2    0    0  0.23431736257E+03  0.24014193550E+03  0.26370557171E+03  0.44467786559E+03  0.12500000000E+03 0.  0.
         25    1    1    2    0    0  0.17320327446E+03 -0.20814832166E+03  0.86314268871E+03  0.91321706027E+03  0.12500000000E+03 0.  0.
         25    1    1    2    0    0 -0.40752063703E+03 -0.31993613840E+02  0.96124833566E+02  0.43813427686E+03  0.12500000000E+03 0.  0.
</event>
<event>
 5    0  0.5851292E-005  0.5547156E+03  0.7546771E-02  0.1000408E+00
         21   -1    0    0  502  501  0.00000000000E+00  0.00000000000E+00  0.58918849774E+03  0.58918849774E+03  0.00000000000E+00 0.  1.
         21   -1    0    0  501  502 -0.00000000000E+00 -0.00000000000E+00 -0.52225977419E+03  0.52225977419E+03  0.00000000000E+00 0.  1.
         25    1    1    2    0    0 -0.92002338648E+02 -0.30260112081E+03  0.42460543999E+02  0.34272403830E+03  0.12500000000E+03 0.  0.
         25    1    1    2    0    0 -0.11421403821E+02  0.49820576203E+03  0.28451341372E+02  0.51456186082E+03  0.12500000000E+03 0.  0.
         25    1    1    2    0    0  0.10342374247E+03 -0.19560464122E+03 -0.39831618230E+01  0.25416237281E+03  0.12500000000E+03 0.  0.
</event>
<event>
 5    0  0.5851292E-005  0.3048850E+03  0.7546771E-02  0.1082824E+00
         21   -1    0    0  502  501  0.00000000000E+00  0.00000000000E+00  0.23266773656E+04  0.23266773656E+04  0.00000000000E+00 0. -1.
         21   -1    0    0  501  502 -0.00000000000E+00 -0.00000000000E+00 -0.39951773890E+02  0.39951773890E+02  0.00000000000E+00 0. -1.
         25    1    1    2    0    0 -0.14835677556E+03  0.89431001822E+02  0.96824968031E+03  0.99153420534E+03  0.12500000000E+03 0.  0.
         25    1    1    2    0    0  0.20165116345E+03 -0.21974676175E+02  0.84059134066E+03  0.87370754838E+03  0.12500000000E+03 0.  0.
         25    1    1    2    0    0 -0.53294387881E+02 -0.67456325647E+02  0.47788457070E+03  0.50138738572E+03  0.12500000000E+03 0.  0.
</event>
<event>
 5    0  0.5851292E-005  0.3639472E+03  0.7546771E-02  0.1057032E+00
         21   -1    0    0  502  501  0.00000000000E+00  0.00000000000E+00  0.78530223530E+03  0.78530223530E+03  0.00000000000E+00 0.  1.
         21   -1    0    0  501  502 -0.00000000000E+00 -0.00000000000E+00 -0.16867081177E+03  0.16867081177E+03  0.00000000000E+00 0.  1.
         25    1    1    2    0    0 -0.23120449753E+03  0.94558177011E+02  0.14363614606E+03  0.31409092788E+03  0.12500000000E+03 0.  0.
         25    1    1    2    0    0  0.82712964228E+02 -0.67505370816E+02  0.47007686615E+02  0.17097699302E+03  0.12500000000E+03 0.  0.
         25    1    1    2    0    0  0.14849153330E+03 -0.27052806195E+02  0.42598759086E+03  0.46890512618E+03  0.12500000000E+03 0.  0.
</event>
<event>
 5    0  0.5851292E-005  0.4786203E+03  0.7546771E-02  0.1019515E+00
         21   -1    0    0  502  501  0.00000000000E+00  0.00000000000E+00  0.21809480918E+04  0.21809480918E+04  0.00000000000E+00 0.  1.
         21   -1    0    0  501  502 -0.00000000000E+00 -0.00000000000E+00 -0.10503570949E+03  0.10503570949E+03  0.00000000000E+00 0.  1.
         25    1    1    2    0    0  0.66549217646E+02  0.37238433869E+02  0.16444114790E+03  0.22018490060E+03  0.12500000000E+03 0.  0.
         25    1    1    2    0    0 -0.26067142148E+02 -0.38786423594E+03  0.95414570710E+03  0.10378522013E+04  0.12500000000E+03 0.  0.
         25    1    1    2    0    0 -0.40482075499E+02  0.35062580207E+03  0.95732552726E+03  0.10279466993E+04  0.12500000000E+03 0.  0.
</event>
