<event>
 5    0  0.5749909E-005  0.3596815E+03  0.7546771E-02  0.1058710E+00
         21   -1    0    0  502  501  0.00000000000E+00  0.00000000000E+00  0.21971474538E+03  0.21971474538E+03  0.00000000000E+00 0.  1.
         21   -1    0    0  501  502 -0.00000000000E+00 -0.00000000000E+00 -0.58881260681E+03  0.58881260681E+03  0.00000000000E+00 0.  1.
         25    1    1    2    0    0 -0.13367925623E+03 -0.68827860678E+02  0.10799438780E+03  0.22337234777E+03  0.12500000000E+03 0.  0.
         25    1    1    2    0    0  0.88811761113E+02  0.91804987891E+02 -0.37718199426E+03  0.41738105072E+03  0.12500000000E+03 0.  0.
         25    1    1    2    0    0  0.44867495116E+02 -0.22977127212E+02 -0.99910254969E+02  0.16777395370E+03  0.12500000000E+03 0.  0.
</event>
<event>
 5    0  0.5749909E-005  0.2101446E+03  0.7546771E-02  0.1141452E+00
         21   -1    0    0  502  501  0.00000000000E+00  0.00000000000E+00  0.45018224307E+03  0.45018224307E+03  0.00000000000E+00 0.  1.
         21   -1    0    0  501  502 -0.00000000000E+00 -0.00000000000E+00 -0.98095254682E+02  0.98095254682E+02  0.00000000000E+00 0.  1.
         25    1    1    2    0    0  0.16926948235E+02 -0.32072562007E+02  0.14736817995E+03  0.19661523662E+03  0.12500000000E+03 0.  0.
         25    1    1    2    0    0  0.18980505703E+01  0.38146375629E+02  0.18042940263E+03  0.22279703298E+03  0.12500000000E+03 0.  0.
         25    1    1    2    0    0 -0.18824998805E+02 -0.60738136221E+01  0.24289405803E+02  0.12886522815E+03  0.12500000000E+03 0.  0.
</event>
<event>
 5    0  0.5749909E-005  0.2689448E+03  0.7546771E-02  0.1101885E+00
         21   -1    0    0  502  501  0.00000000000E+00  0.00000000000E+00  0.11294183331E+03  0.11294183331E+03  0.00000000000E+00 0. -1.
         21   -1    0    0  501  502 -0.00000000000E+00 -0.00000000000E+00 -0.64042948551E+03  0.64042948551E+03  0.00000000000E+00 0. -1.
         25    1    1    2    0    0  0.15011840305E+03  0.26382870026E+02 -0.18934086889E+03  0.27332499959E+03  0.12500000000E+03 0.  0.
         25    1    1    2    0    0  0.76475189848E+01  0.11367409354E+02 -0.18770921436E+03  0.22593683121E+03  0.12500000000E+03 0.  0.
         25    1    1    2    0    0 -0.15776592204E+03 -0.37750279380E+02 -0.15043756896E+03  0.25410948802E+03  0.12500000000E+03 0.  0.
</event>
<event>
 5    0  0.5749909E-005  0.2719861E+03  0.7546771E-02  0.1100148E+00
         21   -1    0    0  502  501  0.00000000000E+00  0.00000000000E+00  0.75080000764E+02  0.75080000764E+02  0.00000000000E+00 0. -1.
         21   -1    0    0  501  502 -0.00000000000E+00 -0.00000000000E+00 -0.98530142393E+03  0.98530142393E+03  0.00000000000E+00 0. -1.
         25    1    1    2    0    0 -0.10447135947E+02  0.16259070079E+03 -0.29836171074E+03  0.36220103405E+03  0.12500000000E+03 0.  0.
         25    1    1    2    0    0  0.52724815823E+02 -0.17184220107E+02 -0.29931308326E+03  0.32907221917E+03  0.12500000000E+03 0.  0.
         25    1    1    2    0    0 -0.42277679876E+02 -0.14540648068E+03 -0.31254662916E+03  0.36910817146E+03  0.12500000000E+03 0.  0.
</event>
<event>
 5    0  0.5749909E-005  0.2520623E+03  0.7546771E-02  0.1112008E+00
         21   -1    0    0  502  501  0.00000000000E+00  0.00000000000E+00  0.68839107092E+02  0.68839107092E+02  0.00000000000E+00 0.  1.
         21   -1    0    0  501  502 -0.00000000000E+00 -0.00000000000E+00 -0.92295522111E+03  0.92295522111E+03  0.00000000000E+00 0.  1.
         25    1    1    2    0    0  0.10841335400E+03  0.17261429349E+02 -0.36366740912E+03  0.39991298645E+03  0.12500000000E+03 0.  0.
         25    1    1    2    0    0 -0.82436449280E+02  0.72619594027E+02 -0.18497251772E+03  0.24881560626E+03  0.12500000000E+03 0.  0.
         25    1    1    2    0    0 -0.25976904718E+02 -0.89881023376E+02 -0.30547618718E+03  0.34306573550E+03  0.12500000000E+03 0.  0.
</event>
<event>
 5    0  0.5749909E-005  0.2384895E+03  0.7546771E-02  0.1120803E+00
         21   -1    0    0  502  501  0.00000000000E+00  0.00000000000E+00  0.25169954806E+02  0.25169954806E+02  0.00000000000E+00 0.  1.
         21   -1    0    0  501  502 -0.00000000000E+00 -0.00000000000E+00 -0.22597280448E+04  0.22597280448E+04  0.00000000000E+00 0.  1.
         25    1    1    2    0    0  0.20842044271E+02  0.13087290441E+02 -0.13843381308E+04  0.13901880191E+04  0.12500000000E+03 0.  0.
         25    1    1    2    0    0 -0.68463107969E+02 -0.90898805108E+01 -0.49208228095E+03  0.51238637209E+03  0.12500000000E+03 0.  0.
         25    1    1    2    0    0  0.47621063699E+02 -0.39974099299E+01 -0.35813767820E+03  0.38232360840E+03  0.12500000000E+03 0.  0.
</event>
<event>
 5    0  0.6161798E-005  0.2950670E+03  0.7546771E-02  0.1087733E+00
         21   -1    0    0  502  501  0.00000000000E+00  0.00000000000E+00  0.15108082720E+03  0.15108082720E+03  0.00000000000E+00 0. -1.
         21   -1    0    0  501  502 -0.00000000000E+00 -0.00000000000E+00 -0.57627787881E+03  0.57627787881E+03  0.00000000000E+00 0. -1.
         25    1    1    2    0    0 -0.88230038047E+01  0.83830581227E+02 -0.17381452767E+03  0.23009107279E+03  0.12500000000E+03 0.  0.
         25    1    1    2    0    0 -0.40351168523E+02  0.12423240594E+03 -0.11908155290E+03  0.21648862263E+03  0.12500000000E+03 0.  0.
         25    1    1    2    0    0  0.49174172328E+02 -0.20806298717E+03 -0.13230097103E+03  0.28077901059E+03  0.12500000000E+03 0.  0.
</event>
<event>
 5    0  0.5749909E-005  0.2751156E+03  0.7546771E-02  0.1098387E+00
         21   -1    0    0  502  501  0.00000000000E+00  0.00000000000E+00  0.82381161913E+03  0.82381161913E+03  0.00000000000E+00 0.  1.
         21   -1    0    0  501  502 -0.00000000000E+00 -0.00000000000E+00 -0.91876107260E+02  0.91876107260E+02  0.00000000000E+00 0.  1.
         25    1    1    2    0    0  0.14925240184E+03 -0.67784329902E+02  0.38847305037E+03  0.43978097469E+03  0.12500000000E+03 0.  0.
         25    1    1    2    0    0 -0.26379970976E+02  0.62448292855E+02  0.92100021701E+02  0.16941991071E+03  0.12500000000E+03 0.  0.
         25    1    1    2    0    0 -0.12287243086E+03  0.53360370472E+01  0.25136243980E+03  0.30648684099E+03  0.12500000000E+03 0.  0.
</event>
<event>
 5    0  0.8022974E-005  0.3522547E+03  0.7546771E-02  0.1061693E+00
         21   -1    0    0  502  501  0.00000000000E+00  0.00000000000E+00  0.15238412027E+03  0.15238412027E+03  0.00000000000E+00 0. -1.
         21   -1    0    0  501  502 -0.00000000000E+00 -0.00000000000E+00 -0.81428043709E+03  0.81428043709E+03  0.00000000000E+00 0. -1.
         25    1    1    2    0    0 -0.28187159498E+02  0.89357372623E+02  0.14448867866E+02  0.15688539060E+03  0.12500000000E+03 0.  0.
         25    1    1    2    0    0 -0.11415890294E+03  0.79340281653E+02 -0.34597780188E+03  0.39325917002E+03  0.12500000000E+03 0.  0.
         25    1    1    2    0    0  0.14234606244E+03 -0.16869765428E+03 -0.33036738281E+03  0.41651999673E+03  0.12500000000E+03 0.  0.
</event>
<event>
 5    0  0.7143278E-005  0.2882964E+03  0.7546771E-02  0.1091242E+00
         21   -1    0    0  502  501  0.00000000000E+00  0.00000000000E+00  0.14302309002E+03  0.14302309002E+03  0.00000000000E+00 0. -1.
         21   -1    0    0  501  502 -0.00000000000E+00 -0.00000000000E+00 -0.58112844826E+03  0.58112844826E+03  0.00000000000E+00 0. -1.
         25    1    1    2    0    0  0.10089531708E+03  0.15690515019E+03 -0.19123037960E+03  0.29494601073E+03  0.12500000000E+03 0.  0.
         25    1    1    2    0    0 -0.50198554623E+02 -0.12652739480E+03 -0.22176552754E+03  0.28867633385E+03  0.12500000000E+03 0.  0.
         25    1    1    2    0    0 -0.50696762460E+02 -0.30377755391E+02 -0.25109451100E+02  0.14052919370E+03  0.12500000000E+03 0.  0.
</event>
<event>
 5    0  0.5749909E-005  0.3361664E+03  0.7546771E-02  0.1068441E+00
         21   -1    0    0  502  501  0.00000000000E+00  0.00000000000E+00  0.57942016865E+03  0.57942016865E+03  0.00000000000E+00 0. -1.
         21   -1    0    0  501  502 -0.00000000000E+00 -0.00000000000E+00 -0.19503611068E+03  0.19503611068E+03  0.00000000000E+00 0.  1.
         25    1    1    2    0    0  0.48668829725E+02  0.30895275379E+02  0.12621242465E+03  0.18675585443E+03  0.12500000000E+03 0.  0.
         25    1    1    2    0    0  0.30121349114E+02  0.20543587174E+03  0.16748646868E+03  0.29459787892E+03  0.12500000000E+03 0.  0.
         25    1    1    2    0    0 -0.78790178839E+02 -0.23633114712E+03  0.90685164631E+02  0.29310254599E+03  0.12500000000E+03 0.  0.
</event>
<event>
 5    0  0.5749909E-005  0.2534460E+03  0.7546771E-02  0.1111146E+00
         21   -1    0    0  502  501  0.00000000000E+00  0.00000000000E+00  0.16572622775E+03  0.16572622775E+03  0.00000000000E+00 0. -1.
         21   -1    0    0  501  502 -0.00000000000E+00 -0.00000000000E+00 -0.38759635835E+03  0.38759635835E+03  0.00000000000E+00 0. -1.
         25    1    1    2    0    0  0.12137581636E+03 -0.14393510631E+02 -0.52344929975E+02  0.18249453044E+03  0.12500000000E+03 0.  0.
         25    1    1    2    0    0 -0.69500810669E+01 -0.47380571501E+02 -0.17624308567E+02  0.13501421568E+03  0.12500000000E+03 0.  0.
         25    1    1    2    0    0 -0.11442573530E+03  0.61774082132E+02 -0.15190089205E+03  0.23581383998E+03  0.12500000000E+03 0.  0.
</event>
<event>
 5    0  0.5749909E-005  0.5276549E+03  0.7546771E-02  0.1006802E+00
         21   -1    0    0  502  501  0.00000000000E+00  0.00000000000E+00  0.93890428938E+03  0.93890428938E+03  0.00000000000E+00 0. -1.
         21   -1    0    0  501  502 -0.00000000000E+00 -0.00000000000E+00 -0.29653682555E+03  0.29653682555E+03  0.00000000000E+00 0. -1.
         25    1    1    2    0    0 -0.68403959802E+02  0.30740554892E+02 -0.38946044020E+02  0.15088365643E+03  0.12500000000E+03 0.  0.
         25    1    1    2    0    0 -0.33390183996E+03  0.14722020032E+03  0.33516687832E+03  0.51100495344E+03  0.12500000000E+03 0.  0.
         25    1    1    2    0    0  0.40230579977E+03 -0.17796075522E+03  0.34614662953E+03  0.57355250506E+03  0.12500000000E+03 0.  0.
</event>
<event>
 5    0  0.5749909E-005  0.2637375E+03  0.7546771E-02  0.1104918E+00
         21   -1    0    0  502  501  0.00000000000E+00  0.00000000000E+00  0.44377560400E+03  0.44377560400E+03  0.00000000000E+00 0. -1.
         21   -1    0    0  501  502 -0.00000000000E+00 -0.00000000000E+00 -0.15674023939E+03  0.15674023939E+03  0.00000000000E+00 0. -1.
         25    1    1    2    0    0  0.95420593220E+02 -0.41189135850E+02  0.25136405136E+03  0.29935016426E+03  0.12500000000E+03 0.  0.
         25    1    1    2    0    0  0.47815654725E+01 -0.15254157039E+02 -0.63853501750E+01  0.12617973440E+03  0.12500000000E+03 0.  0.
         25    1    1    2    0    0 -0.10020215869E+03  0.56443292890E+02  0.42056663415E+02  0.17498594474E+03  0.12500000000E+03 0.  0.
</event>
<event>
 5    0  0.5749909E-005  0.3375201E+03  0.7546771E-02  0.1067857E+00
         21   -1    0    0  502  501  0.00000000000E+00  0.00000000000E+00  0.58913267384E+03  0.58913267384E+03  0.00000000000E+00 0. -1.
         21   -1    0    0  501  502 -0.00000000000E+00 -0.00000000000E+00 -0.19336868050E+03  0.19336868050E+03  0.00000000000E+00 0. -1.
         25    1    1    2    0    0 -0.58652768018E+02  0.90268397441E+01  0.13664461916E+02  0.13904441215E+03  0.12500000000E+03 0.  0.
         25    1    1    2    0    0  0.18489123507E+03 -0.15078042004E+03  0.29655996848E+03  0.40061492580E+03  0.12500000000E+03 0.  0.
         25    1    1    2    0    0 -0.12623846705E+03  0.14175358029E+03  0.85539562950E+02  0.24284201638E+03  0.12500000000E+03 0.  0.
</event>
<event>
 5    0  0.5749909E-005  0.2447007E+03  0.7546771E-02  0.1116700E+00
         21   -1    0    0  502  501  0.00000000000E+00  0.00000000000E+00  0.16462577331E+04  0.16462577331E+04  0.00000000000E+00 0.  1.
         21   -1    0    0  501  502 -0.00000000000E+00 -0.00000000000E+00 -0.36372447406E+02  0.36372447406E+02  0.00000000000E+00 0.  1.
         25    1    1    2    0    0  0.13224976952E+03 -0.54034985015E+02  0.58807257347E+03  0.61795156186E+03  0.12500000000E+03 0.  0.
         25    1    1    2    0    0 -0.46505131312E+02  0.51276373006E+02  0.40358233343E+03  0.42813046320E+03  0.12500000000E+03 0.  0.
         25    1    1    2    0    0 -0.85744638213E+02  0.27586120094E+01  0.61823037878E+03  0.63654815542E+03  0.12500000000E+03 0.  0.
</event>
<event>
 5    0  0.5749909E-005  0.3876725E+03  0.7546771E-02  0.1048134E+00
         21   -1    0    0  502  501  0.00000000000E+00  0.00000000000E+00  0.64223823770E+03  0.64223823770E+03  0.00000000000E+00 0.  1.
         21   -1    0    0  501  502 -0.00000000000E+00 -0.00000000000E+00 -0.23400969921E+03  0.23400969921E+03  0.00000000000E+00 0.  1.
         25    1    1    2    0    0 -0.23700205919E+02  0.32667300075E+02 -0.12745987865E+03  0.18302970502E+03  0.12500000000E+03 0.  0.
         25    1    1    2    0    0 -0.28845878993E+02 -0.60684900752E+02  0.20705674641E+01  0.14192966273E+03  0.12500000000E+03 0.  0.
         25    1    1    2    0    0  0.52546084912E+02  0.28017600677E+02  0.53361784968E+03  0.55128856916E+03  0.12500000000E+03 0.  0.
</event>
<event>
 5    0  0.5749909E-005  0.2793397E+03  0.7546771E-02  0.1096050E+00
         21   -1    0    0  502  501  0.00000000000E+00  0.00000000000E+00  0.14169109415E+03  0.14169109415E+03  0.00000000000E+00 0. -1.
         21   -1    0    0  501  502 -0.00000000000E+00 -0.00000000000E+00 -0.55070990466E+03  0.55070990466E+03  0.00000000000E+00 0. -1.
         25    1    1    2    0    0  0.35443861789E+02 -0.57706386950E+02 -0.15331889216E+03  0.20908844331E+03  0.12500000000E+03 0.  0.
         25    1    1    2    0    0  0.89625990770E+02 -0.51164777642E+02 -0.11131974002E+02  0.16247945574E+03  0.12500000000E+03 0.  0.
         25    1    1    2    0    0 -0.12506985256E+03  0.10887116459E+03 -0.24456794434E+03  0.32083309976E+03  0.12500000000E+03 0.  0.
</event>
<event>
 5    0  0.5749909E-005  0.2201165E+03  0.7546771E-02  0.1133796E+00
         21   -1    0    0  502  501  0.00000000000E+00  0.00000000000E+00  0.67787847180E+02  0.67787847180E+02  0.00000000000E+00 0.  1.
         21   -1    0    0  501  502 -0.00000000000E+00 -0.00000000000E+00 -0.71474872146E+03  0.71474872146E+03  0.00000000000E+00 0.  1.
         25    1    1    2    0    0  0.75737255869E+02 -0.18993964824E+02 -0.14284379680E+03  0.20524680974E+03  0.12500000000E+03 0.  0.
         25    1    1    2    0    0 -0.23786975554E+01  0.22002746677E+02 -0.31024463288E+03  0.33521114435E+03  0.12500000000E+03 0.  0.
         25    1    1    2    0    0 -0.73358558313E+02 -0.30087818535E+01 -0.19387244460E+03  0.24207861455E+03  0.12500000000E+03 0.  0.
</event>
<event>
 5    0  0.5749909E-005  0.3003446E+03  0.7546771E-02  0.1085068E+00
         21   -1    0    0  502  501  0.00000000000E+00  0.00000000000E+00  0.13993312372E+03  0.13993312372E+03  0.00000000000E+00 0.  1.
         21   -1    0    0  501  502 -0.00000000000E+00 -0.00000000000E+00 -0.64464291271E+03  0.64464291271E+03  0.00000000000E+00 0.  1.
         25    1    1    2    0    0 -0.41875248807E+02 -0.14023920378E+03 -0.69845678501E+02  0.20475348482E+03  0.12500000000E+03 0.  0.
         25    1    1    2    0    0  0.13280633634E+03  0.10294003253E+03 -0.32469350539E+03  0.38637423013E+03  0.12500000000E+03 0.  0.
         25    1    1    2    0    0 -0.90931087534E+02  0.37299171247E+02 -0.11017060510E+03  0.19344832148E+03  0.12500000000E+03 0.  0.
</event>
<event>
 5    0  0.5749909E-005  0.3534146E+03  0.7546771E-02  0.1061222E+00
         21   -1    0    0  502  501  0.00000000000E+00  0.00000000000E+00  0.17983763849E+04  0.17983763849E+04  0.00000000000E+00 0. -1.
         21   -1    0    0  501  502 -0.00000000000E+00 -0.00000000000E+00 -0.69452583183E+02  0.69452583183E+02  0.00000000000E+00 0. -1.
         25    1    1    2    0    0 -0.87560961050E+02  0.12704836604E+03  0.70142661745E+03  0.72899417616E+03  0.12500000000E+03 0.  0.
         25    1    1    2    0    0  0.44703758357E+02 -0.23687692281E+03  0.84773119719E+03  0.89015857310E+03  0.12500000000E+03 0.  0.
         25    1    1    2    0    0  0.42857202692E+02  0.10982855677E+03  0.17976598713E+03  0.24867621888E+03  0.12500000000E+03 0.  0.
</event>
<event>
 5    0  0.5749909E-005  0.3513193E+03  0.7546771E-02  0.1062075E+00
         21   -1    0    0  502  501  0.00000000000E+00  0.00000000000E+00  0.11477960271E+04  0.11477960271E+04  0.00000000000E+00 0. -1.
         21   -1    0    0  501  502 -0.00000000000E+00 -0.00000000000E+00 -0.10753240207E+03  0.10753240207E+03  0.00000000000E+00 0. -1.
         25    1    1    2    0    0  0.52826185912E+02  0.24045590755E+03  0.34012295387E+03  0.43808477849E+03  0.12500000000E+03 0.  0.
         25    1    1    2    0    0 -0.58367907237E+02 -0.11914668765E+03  0.57361669967E+03  0.60188359664E+03  0.12500000000E+03 0.  0.
         25    1    1    2    0    0  0.55417213257E+01 -0.12130921990E+03  0.12652397145E+03  0.21536005400E+03  0.12500000000E+03 0.  0.
</event>
<event>
 5    0  0.5749909E-005  0.3423598E+03  0.7546771E-02  0.1065795E+00
         21   -1    0    0  502  501  0.00000000000E+00  0.00000000000E+00  0.50354480206E+03  0.50354480206E+03  0.00000000000E+00 0.  1.
         21   -1    0    0  501  502 -0.00000000000E+00 -0.00000000000E+00 -0.23277022162E+03  0.23277022162E+03  0.00000000000E+00 0.  1.
         25    1    1    2    0    0 -0.65874351477E+01  0.15952000238E+03 -0.88066034271E+02  0.22106707546E+03  0.12500000000E+03 0.  0.
         25    1    1    2    0    0  0.52964763649E+02 -0.18560509960E+02  0.26803165363E+03  0.30102446091E+03  0.12500000000E+03 0.  0.
         25    1    1    2    0    0 -0.46377328501E+02 -0.14095949242E+03  0.90808961080E+02  0.21422348731E+03  0.12500000000E+03 0.  0.
</event>
<event>
 5    0  0.7010151E-005  0.2955858E+03  0.7546771E-02  0.1087468E+00
         21   -1    0    0  502  501  0.00000000000E+00  0.00000000000E+00  0.41662445640E+03  0.41662445640E+03  0.00000000000E+00 0.  1.
         21   -1    0    0  501  502 -0.00000000000E+00 -0.00000000000E+00 -0.20971152199E+03  0.20971152199E+03  0.00000000000E+00 0.  1.
         25    1    1    2    0    0  0.93942522263E+02  0.96759852634E+02  0.10576601509E+03  0.21212995196E+03  0.12500000000E+03 0.  0.
         25    1    1    2    0    0 -0.46640024998E+02 -0.12771052394E+02  0.19042111498E+03  0.23285959877E+03  0.12500000000E+03 0.  0.
         25    1    1    2    0    0 -0.47302497265E+02 -0.83988800240E+02 -0.89274195656E+02  0.18134642765E+03  0.12500000000E+03 0.  0.
</event>
<event>
 5    0  0.5749909E-005  0.2478736E+03  0.7546771E-02  0.1114656E+00
         21   -1    0    0  502  501  0.00000000000E+00  0.00000000000E+00  0.11365159704E+03  0.11365159704E+03  0.00000000000E+00 0. -1.
         21   -1    0    0  501  502 -0.00000000000E+00 -0.00000000000E+00 -0.54061095928E+03  0.54061095928E+03  0.00000000000E+00 0. -1.
         25    1    1    2    0    0  0.27209685475E+02  0.11154191842E+03 -0.25937134959E+03  0.30996848798E+03  0.12500000000E+03 0.  0.
         25    1    1    2    0    0  0.25487895373E+02 -0.91982940529E+02 -0.54003995062E+02  0.16628868164E+03  0.12500000000E+03 0.  0.
         25    1    1    2    0    0 -0.52697580848E+02 -0.19558977895E+02 -0.11358401759E+03  0.17800538670E+03  0.12500000000E+03 0.  0.
</event>
<event>
 5    0  0.6360986E-005  0.3043040E+03  0.7546771E-02  0.1083109E+00
         21   -1    0    0  502  501  0.00000000000E+00  0.00000000000E+00  0.51952406532E+03  0.51952406532E+03  0.00000000000E+00 0. -1.
         21   -1    0    0  501  502 -0.00000000000E+00 -0.00000000000E+00 -0.17824183217E+03  0.17824183217E+03  0.00000000000E+00 0. -1.
         25    1    1    2    0    0 -0.12838407292E+03 -0.77141840896E+02  0.21734292517E+03  0.29205527031E+03  0.12500000000E+03 0.  0.
         25    1    1    2    0    0  0.12759167350E+03  0.14936003017E+02  0.18113150154E+03  0.25482609793E+03  0.12500000000E+03 0.  0.
         25    1    1    2    0    0  0.79239941248E+00  0.62205837879E+02 -0.57192193566E+02  0.15088452925E+03  0.12500000000E+03 0.  0.
</event>
<event>
 5    0  0.5749909E-005  0.2978445E+03  0.7546771E-02  0.1086323E+00
         21   -1    0    0  502  501  0.00000000000E+00  0.00000000000E+00  0.91495405258E+02  0.91495405258E+02  0.00000000000E+00 0. -1.
         21   -1    0    0  501  502 -0.00000000000E+00 -0.00000000000E+00 -0.96957136737E+03  0.96957136737E+03  0.00000000000E+00 0. -1.
         25    1    1    2    0    0 -0.32698733573E+01  0.18447988804E+02 -0.28536387586E+03  0.31210344761E+03  0.12500000000E+03 0.  0.
         25    1    1    2    0    0 -0.79747590115E+02 -0.18274005266E+03 -0.30032408433E+03  0.38154050978E+03  0.12500000000E+03 0.  0.
         25    1    1    2    0    0  0.83017463472E+02  0.16429206386E+03 -0.29238800193E+03  0.36742281524E+03  0.12500000000E+03 0.  0.
</event>
<event>
 5    0  0.5749909E-005  0.4503521E+03  0.7546771E-02  0.1027617E+00
         21   -1    0    0  502  501  0.00000000000E+00  0.00000000000E+00  0.13326343625E+04  0.13326343625E+04  0.00000000000E+00 0.  1.
         21   -1    0    0  501  502 -0.00000000000E+00 -0.00000000000E+00 -0.15219256949E+03  0.15219256949E+03  0.00000000000E+00 0.  1.
         25    1    1    2    0    0 -0.58493971511E+02  0.32775833134E+03  0.69023617743E+03  0.77646509844E+03  0.12500000000E+03 0.  0.
         25    1    1    2    0    0  0.87782741191E+02 -0.34893860561E+03  0.37615223938E+03  0.53533117537E+03  0.12500000000E+03 0.  0.
         25    1    1    2    0    0 -0.29288769680E+02  0.21180274268E+02  0.11405337623E+03  0.17303065820E+03  0.12500000000E+03 0.  0.
</event>
<event>
 5    0  0.5749909E-005  0.2308951E+03  0.7546771E-02  0.1126011E+00
         21   -1    0    0  502  501  0.00000000000E+00  0.00000000000E+00  0.40948099656E+03  0.40948099656E+03  0.00000000000E+00 0.  1.
         21   -1    0    0  501  502 -0.00000000000E+00 -0.00000000000E+00 -0.13019536952E+03  0.13019536952E+03  0.00000000000E+00 0.  1.
         25    1    1    2    0    0  0.26897922154E+02  0.30985756137E+02  0.17995848952E+03  0.22292077797E+03  0.12500000000E+03 0.  0.
         25    1    1    2    0    0 -0.37435396721E+02  0.62008405879E+02  0.52834812865E+02  0.15382772435E+03  0.12500000000E+03 0.  0.
         25    1    1    2    0    0  0.10537474566E+02 -0.92994162016E+02  0.46492324651E+02  0.16292786376E+03  0.12500000000E+03 0.  0.
</event>
<event>
 5    0  0.5749909E-005  0.3587777E+03  0.7546771E-02  0.1059069E+00
         21   -1    0    0  502  501  0.00000000000E+00  0.00000000000E+00  0.56807621494E+03  0.56807621494E+03  0.00000000000E+00 0.  1.
         21   -1    0    0  501  502 -0.00000000000E+00 -0.00000000000E+00 -0.22659180819E+03  0.22659180819E+03  0.00000000000E+00 0.  1.
         25    1    1    2    0    0 -0.20255350469E+03 -0.14171790399E+03  0.14272055754E+03  0.31161842712E+03  0.12500000000E+03 0.  0.
         25    1    1    2    0    0  0.23898982302E+03  0.10309727427E+03  0.19263907507E+03  0.34710228566E+03  0.12500000000E+03 0.  0.
         25    1    1    2    0    0 -0.36436318327E+02  0.38620629715E+02  0.61247741483E+01  0.13594731035E+03  0.12500000000E+03 0.  0.
</event>
<event>
 5    0  0.5749909E-005  0.3639103E+03  0.7546771E-02  0.1057046E+00
         21   -1    0    0  502  501  0.00000000000E+00  0.00000000000E+00  0.18765195822E+04  0.18765195822E+04  0.00000000000E+00 0.  1.
         21   -1    0    0  501  502 -0.00000000000E+00 -0.00000000000E+00 -0.70572531041E+02  0.70572531041E+02  0.00000000000E+00 0.  1.
         25    1    1    2    0    0 -0.27617528962E+02  0.17499719404E+03  0.17970660771E+03  0.28161358398E+03  0.12500000000E+03 0.  0.
         25    1    1    2    0    0 -0.26610365432E+02 -0.91139180326E+02  0.11995816286E+04  0.12098080614E+04  0.12500000000E+03 0.  0.
         25    1    1    2    0    0  0.54227894394E+02 -0.83858013714E+02  0.42665881478E+03  0.45567046780E+03  0.12500000000E+03 0.  0.
</event>
<event>
 5    0  0.5749909E-005  0.3786908E+03  0.7546771E-02  0.1051419E+00
         21   -1    0    0  502  501  0.00000000000E+00  0.00000000000E+00  0.21524153892E+03  0.21524153892E+03  0.00000000000E+00 0. -1.
         21   -1    0    0  501  502 -0.00000000000E+00 -0.00000000000E+00 -0.66625962000E+03  0.66625962000E+03  0.00000000000E+00 0. -1.
         25    1    1    2    0    0 -0.10529795403E+03 -0.87416678712E+02 -0.98328394159E+02  0.20981612888E+03  0.12500000000E+03 0.  0.
         25    1    1    2    0    0 -0.16661812020E+03 -0.36592772096E+02 -0.28522570021E+02  0.21339907673E+03  0.12500000000E+03 0.  0.
         25    1    1    2    0    0  0.27191607424E+03  0.12400945081E+03 -0.32416711689E+03  0.45828595330E+03  0.12500000000E+03 0.  0.
</event>
<event>
 5    0  0.5749909E-005  0.2007803E+03  0.7546771E-02  0.1149082E+00
         21   -1    0    0  502  501  0.00000000000E+00  0.00000000000E+00  0.29917107199E+03  0.29917107199E+03  0.00000000000E+00 0.  1.
         21   -1    0    0  501  502 -0.00000000000E+00 -0.00000000000E+00 -0.13474803071E+03  0.13474803071E+03  0.00000000000E+00 0.  1.
         25    1    1    2    0    0 -0.23634174448E+02 -0.33450284268E+02  0.11034294012E+03  0.17169175913E+03  0.12500000000E+03 0.  0.
         25    1    1    2    0    0  0.19177165974E+02  0.37396247291E+01  0.41041891036E+02  0.13300821519E+03  0.12500000000E+03 0.  0.
         25    1    1    2    0    0  0.44570084740E+01  0.29710659539E+02  0.13038210115E+02  0.12921912837E+03  0.12500000000E+03 0.  0.
</event>
<event>
 5    0  0.5749909E-005  0.2738089E+03  0.7546771E-02  0.1099119E+00
         21   -1    0    0  502  501  0.00000000000E+00  0.00000000000E+00  0.16665599210E+03  0.16665599210E+03  0.00000000000E+00 0.  1.
         21   -1    0    0  501  502 -0.00000000000E+00 -0.00000000000E+00 -0.44985662756E+03  0.44985662756E+03  0.00000000000E+00 0.  1.
         25    1    1    2    0    0 -0.67134767578E+02 -0.10395926476E+03 -0.17464830411E+03  0.24787423399E+03  0.12500000000E+03 0.  0.
         25    1    1    2    0    0  0.13052507433E+03  0.10625971532E+02 -0.32753866659E+02  0.18397696073E+03  0.12500000000E+03 0.  0.
         25    1    1    2    0    0 -0.63390306748E+02  0.93333293224E+02 -0.75798464685E+02  0.18466142494E+03  0.12500000000E+03 0.  0.
</event>
<event>
 5    0  0.5749909E-005  0.3298551E+03  0.7546771E-02  0.1071201E+00
         21   -1    0    0  502  501  0.00000000000E+00  0.00000000000E+00  0.33261227525E+03  0.33261227525E+03  0.00000000000E+00 0. -1.
         21   -1    0    0  501  502 -0.00000000000E+00 -0.00000000000E+00 -0.32712082304E+03  0.32712082304E+03  0.00000000000E+00 0. -1.
         25    1    1    2    0    0  0.73485311269E+02  0.12847849723E+03 -0.27260069943E+02  0.19563978797E+03  0.12500000000E+03 0.  0.
         25    1    1    2    0    0 -0.11290014221E+03 -0.34316706514E+01  0.16807754473E+03  0.23797747691E+03  0.12500000000E+03 0.  0.
         25    1    1    2    0    0  0.39414830944E+02 -0.12504682658E+03 -0.13532602257E+03  0.22611583341E+03  0.12500000000E+03 0.  0.
</event>
<event>
 5    0  0.5749909E-005  0.3727799E+03  0.7546771E-02  0.1053635E+00
         21   -1    0    0  502  501  0.00000000000E+00  0.00000000000E+00  0.20323685027E+03  0.20323685027E+03  0.00000000000E+00 0.  1.
         21   -1    0    0  501  502 -0.00000000000E+00 -0.00000000000E+00 -0.68375802385E+03  0.68375802385E+03  0.00000000000E+00 0.  1.
         25    1    1    2    0    0 -0.48301308932E+02  0.91412211501E+02 -0.86204598573E+02  0.18369932409E+03  0.12500000000E+03 0.  0.
         25    1    1    2    0    0  0.41181591826E+02 -0.30226068046E+03 -0.28091848483E+03  0.43312542938E+03  0.12500000000E+03 0.  0.
         25    1    1    2    0    0  0.71197171062E+01  0.21084846896E+03 -0.11339809017E+03  0.27017012065E+03  0.12500000000E+03 0.  0.
</event>
<event>
 5    0  0.5749909E-005  0.3161222E+03  0.7546771E-02  0.1077448E+00
         21   -1    0    0  502  501  0.00000000000E+00  0.00000000000E+00  0.13333187987E+03  0.13333187987E+03  0.00000000000E+00 0.  1.
         21   -1    0    0  501  502 -0.00000000000E+00 -0.00000000000E+00 -0.74950732945E+03  0.74950732945E+03  0.00000000000E+00 0.  1.
         25    1    1    2    0    0  0.70502941864E+02 -0.42566105494E+02 -0.79781099524E+02  0.16962476821E+03  0.12500000000E+03 0.  0.
         25    1    1    2    0    0 -0.21426515381E+03  0.10406271824E+03 -0.32882703660E+03  0.42484211828E+03  0.12500000000E+03 0.  0.
         25    1    1    2    0    0  0.14376221195E+03 -0.61496612747E+02 -0.20756731346E+03  0.28837232284E+03  0.12500000000E+03 0.  0.
</event>
<event>
 5    0  0.5749909E-005  0.2573231E+03  0.7546771E-02  0.1108762E+00
         21   -1    0    0  502  501  0.00000000000E+00  0.00000000000E+00  0.63432684598E+02  0.63432684598E+02  0.00000000000E+00 0.  1.
         21   -1    0    0  501  502 -0.00000000000E+00 -0.00000000000E+00 -0.10438653381E+04  0.10438653381E+04  0.00000000000E+00 0.  1.
         25    1    1    2    0    0 -0.36232529545E+02  0.24519692619E+02 -0.22981381936E+03  0.26524215934E+03  0.12500000000E+03 0.  0.
         25    1    1    2    0    0  0.82003449860E+01  0.12973480636E+03 -0.38202338831E+03  0.42245145858E+03  0.12500000000E+03 0.  0.
         25    1    1    2    0    0  0.28032184559E+02 -0.15425449898E+03 -0.36859544587E+03  0.41960440482E+03  0.12500000000E+03 0.  0.
</event>
<event>
 5    0  0.5749909E-005  0.2097209E+03  0.7546771E-02  0.1141787E+00
         21   -1    0    0  502  501  0.00000000000E+00  0.00000000000E+00  0.12827704341E+04  0.12827704341E+04  0.00000000000E+00 0.  1.
         21   -1    0    0  501  502 -0.00000000000E+00 -0.00000000000E+00 -0.34287407898E+02  0.34287407898E+02  0.00000000000E+00 0.  1.
         25    1    1    2    0    0 -0.27125538901E+02  0.18499486576E+02  0.45599983164E+03  0.47396083416E+03  0.12500000000E+03 0.  0.
         25    1    1    2    0    0 -0.18989752494E+02  0.26073622464E+02  0.52869947326E+03  0.54423209894E+03  0.12500000000E+03 0.  0.
         25    1    1    2    0    0  0.46115291395E+02 -0.44573109040E+02  0.26378372134E+03  0.29886490894E+03  0.12500000000E+03 0.  0.
</event>
<event>
 5    0  0.5749909E-005  0.7421097E+03  0.7546771E-02  0.9647811E-01
         21   -1    0    0  502  501  0.00000000000E+00  0.00000000000E+00  0.64670761667E+03  0.64670761667E+03  0.00000000000E+00 0.  1.
         21   -1    0    0  501  502 -0.00000000000E+00 -0.00000000000E+00 -0.85158539391E+03  0.85158539391E+03  0.00000000000E+00 0.  1.
         25    1    1    2    0    0 -0.17058185281E+03  0.13534851726E+03 -0.45031931267E+03  0.51558692089E+03  0.12500000000E+03 0.  0.
         25    1    1    2    0    0  0.12045849072E+03 -0.59891013812E+02 -0.33503061502E+03  0.38205718750E+03  0.12500000000E+03 0.  0.
         25    1    1    2    0    0  0.50123362090E+02 -0.75457503448E+02  0.58047215044E+03  0.60064890218E+03  0.12500000000E+03 0.  0.
</event>
<event>
 5    0  0.5749909E-005  0.3968863E+03  0.7546771E-02  0.1044863E+00
         21   -1    0    0  502  501  0.00000000000E+00  0.00000000000E+00  0.30198533912E+03  0.30198533912E+03  0.00000000000E+00 0.  1.
         21   -1    0    0  501  502 -0.00000000000E+00 -0.00000000000E+00 -0.52161064127E+03  0.52161064127E+03  0.00000000000E+00 0.  1.
         25    1    1    2    0    0  0.15211475205E+03 -0.17872680163E+03 -0.15200902130E+03  0.30629056461E+03  0.12500000000E+03 0.  0.
         25    1    1    2    0    0  0.46530456820E+02  0.13690724183E+03 -0.17192749087E+03  0.25708508007E+03  0.12500000000E+03 0.  0.
         25    1    1    2    0    0 -0.19864520887E+03  0.41819559799E+02  0.10431121001E+03  0.26022033572E+03  0.12500000000E+03 0.  0.
</event>
<event>
 5    0  0.5749909E-005  0.2607273E+03  0.7546771E-02  0.1106707E+00
         21   -1    0    0  502  501  0.00000000000E+00  0.00000000000E+00  0.11729513885E+03  0.11729513885E+03  0.00000000000E+00 0. -1.
         21   -1    0    0  501  502 -0.00000000000E+00 -0.00000000000E+00 -0.57955267667E+03  0.57955267667E+03  0.00000000000E+00 0. -1.
         25    1    1    2    0    0  0.10839025762E+03 -0.10845075134E+03 -0.15576684581E+03  0.25179023743E+03  0.12500000000E+03 0.  0.
         25    1    1    2    0    0 -0.34487833740E+02  0.13151823074E+02 -0.59912484224E+02  0.14344646002E+03  0.12500000000E+03 0.  0.
         25    1    1    2    0    0 -0.73902423884E+02  0.95298928270E+02 -0.24657820779E+03  0.30161111806E+03  0.12500000000E+03 0.  0.
</event>
<event>
 5    0  0.5749909E-005  0.3711694E+03  0.7546771E-02  0.1054247E+00
         21   -1    0    0  502  501  0.00000000000E+00  0.00000000000E+00  0.10679547677E+03  0.10679547677E+03  0.00000000000E+00 0. -1.
         21   -1    0    0  501  502 -0.00000000000E+00 -0.00000000000E+00 -0.12900054585E+04  0.12900054585E+04  0.00000000000E+00 0. -1.
         25    1    1    2    0    0  0.11421287168E+03  0.10628585589E+03 -0.24717309514E+03  0.31790061683E+03  0.12500000000E+03 0.  0.
         25    1    1    2    0    0 -0.73790785349E+02 -0.38240425217E+02 -0.91761088398E+03  0.92980758468E+03  0.12500000000E+03 0.  0.
         25    1    1    2    0    0 -0.40422086328E+02 -0.68045430673E+02 -0.18426002642E+02  0.14909273380E+03  0.12500000000E+03 0.  0.
</event>
<event>
 5    0  0.5749909E-005  0.3175196E+03  0.7546771E-02  0.1076797E+00
         21   -1    0    0  502  501  0.00000000000E+00  0.00000000000E+00  0.93524382262E+02  0.93524382262E+02  0.00000000000E+00 0.  1.
         21   -1    0    0  501  502 -0.00000000000E+00 -0.00000000000E+00 -0.10779936448E+04  0.10779936448E+04  0.00000000000E+00 0.  1.
         25    1    1    2    0    0 -0.51827864241E+02 -0.13034594857E+03 -0.91158110121E+02  0.20883245644E+03  0.12500000000E+03 0.  0.
         25    1    1    2    0    0 -0.49669952698E+02  0.14032514538E+03 -0.42433651265E+03  0.46673839203E+03  0.12500000000E+03 0.  0.
         25    1    1    2    0    0  0.10149781694E+03 -0.99791968137E+01 -0.46897463977E+03  0.49594717860E+03  0.12500000000E+03 0.  0.
</event>
<event>
 5    0  0.5749909E-005  0.5135745E+03  0.7546771E-02  0.1010295E+00
         21   -1    0    0  502  501  0.00000000000E+00  0.00000000000E+00  0.39108376729E+03  0.39108376729E+03  0.00000000000E+00 0. -1.
         21   -1    0    0  501  502 -0.00000000000E+00 -0.00000000000E+00 -0.67443040014E+03  0.67443040014E+03  0.00000000000E+00 0. -1.
         25    1    1    2    0    0 -0.21784544567E+03  0.13329239613E+03 -0.28548528615E+02  0.28576829697E+03  0.12500000000E+03 0.  0.
         25    1    1    2    0    0  0.30333536209E+03  0.67092438418E+02  0.95943350568E+02  0.34834446128E+03  0.12500000000E+03 0.  0.
         25    1    1    2    0    0 -0.85489916412E+02 -0.20038483455E+03 -0.35074145481E+03  0.43140140918E+03  0.12500000000E+03 0.  0.
</event>
<event>
 5    0  0.5749909E-005  0.4158343E+03  0.7546771E-02  0.1038431E+00
         21   -1    0    0  502  501  0.00000000000E+00  0.00000000000E+00  0.51799828955E+03  0.51799828955E+03  0.00000000000E+00 0.  1.
         21   -1    0    0  501  502 -0.00000000000E+00 -0.00000000000E+00 -0.33381996118E+03  0.33381996118E+03  0.00000000000E+00 0.  1.
         25    1    1    2    0    0  0.93033606611E+02 -0.23529289473E+02 -0.52397016051E+02  0.16607024632E+03  0.12500000000E+03 0.  0.
         25    1    1    2    0    0 -0.27315603187E+03 -0.17175701249E+03  0.89798153667E+02  0.35749601045E+03  0.12500000000E+03 0.  0.
         25    1    1    2    0    0  0.18012242526E+03  0.19528630196E+03  0.14677719075E+03  0.32825199396E+03  0.12500000000E+03 0.  0.
</event>
<event>
 5    0  0.5749909E-005  0.3716913E+03  0.7546771E-02  0.1054048E+00
         21   -1    0    0  502  501  0.00000000000E+00  0.00000000000E+00  0.27083788708E+03  0.27083788708E+03  0.00000000000E+00 0. -1.
         21   -1    0    0  501  502 -0.00000000000E+00 -0.00000000000E+00 -0.51010006224E+03  0.51010006224E+03  0.00000000000E+00 0. -1.
         25    1    1    2    0    0 -0.21876787595E+03 -0.10077194307E+03  0.25480702036E+02  0.27255941413E+03  0.12500000000E+03 0.  0.
         25    1    1    2    0    0 -0.71149826914E+01 -0.49973075628E+02 -0.90254243001E+02  0.16223057556E+03  0.12500000000E+03 0.  0.
         25    1    1    2    0    0  0.22588285864E+03  0.15074501870E+03 -0.17448863420E+03  0.34614795962E+03  0.12500000000E+03 0.  0.
</event>
<event>
 5    0  0.5749909E-005  0.2998620E+03  0.7546771E-02  0.1085310E+00
         21   -1    0    0  502  501  0.00000000000E+00  0.00000000000E+00  0.81085751047E+02  0.81085751047E+02  0.00000000000E+00 0.  1.
         21   -1    0    0  501  502 -0.00000000000E+00 -0.00000000000E+00 -0.11089152684E+04  0.11089152684E+04  0.00000000000E+00 0.  1.
         25    1    1    2    0    0 -0.18708354227E+03 -0.63560082313E+02 -0.53846270148E+03  0.58703255168E+03  0.12500000000E+03 0.  0.
         25    1    1    2    0    0  0.84218481182E+02  0.10381776667E+03 -0.22052744557E+03  0.28658024268E+03  0.12500000000E+03 0.  0.
         25    1    1    2    0    0  0.10286506109E+03 -0.40257684354E+02 -0.26883937032E+03  0.31638822509E+03  0.12500000000E+03 0.  0.
</event>
<event>
 5    0  0.5749909E-005  0.2934323E+03  0.7546771E-02  0.1088571E+00
         21   -1    0    0  502  501  0.00000000000E+00  0.00000000000E+00  0.42407189520E+03  0.42407189520E+03  0.00000000000E+00 0. -1.
         21   -1    0    0  501  502 -0.00000000000E+00 -0.00000000000E+00 -0.20303747398E+03  0.20303747398E+03  0.00000000000E+00 0. -1.
         25    1    1    2    0    0  0.54999518275E+02 -0.15108195718E+03  0.16242473688E+03  0.26049472153E+03  0.12500000000E+03 0.  0.
         25    1    1    2    0    0  0.38961715903E+02  0.14965707758E+03 -0.21059738632E+01  0.19885847053E+03  0.12500000000E+03 0.  0.
         25    1    1    2    0    0 -0.93961234179E+02  0.14248796071E+01  0.60715658203E+02  0.16775617712E+03  0.12500000000E+03 0.  0.
</event>
<event>
 5    0  0.5749909E-005  0.3317627E+03  0.7546771E-02  0.1070360E+00
         21   -1    0    0  502  501  0.00000000000E+00  0.00000000000E+00  0.28862321801E+03  0.28862321801E+03  0.00000000000E+00 0.  1.
         21   -1    0    0  501  502 -0.00000000000E+00 -0.00000000000E+00 -0.38135019872E+03  0.38135019872E+03  0.00000000000E+00 0.  1.
         25    1    1    2    0    0  0.79270091109E+02  0.15080600177E+03 -0.16065044953E+03  0.26544258221E+03  0.12500000000E+03 0.  0.
         25    1    1    2    0    0 -0.72071124311E+02 -0.19135019823E+03 -0.28552531256E+02  0.24134910889E+03  0.12500000000E+03 0.  0.
         25    1    1    2    0    0 -0.71989667981E+01  0.40544196456E+02  0.96476000074E+02  0.16318172563E+03  0.12500000000E+03 0.  0.
</event>
<event>
 5    0  0.5749909E-005  0.2729785E+03  0.7546771E-02  0.1099587E+00
         21   -1    0    0  502  501  0.00000000000E+00  0.00000000000E+00  0.14205661565E+04  0.14205661565E+04  0.00000000000E+00 0.  1.
         21   -1    0    0  501  502 -0.00000000000E+00 -0.00000000000E+00 -0.52456012240E+02  0.52456012240E+02  0.00000000000E+00 0.  1.
         25    1    1    2    0    0 -0.11711752977E+03  0.86069594408E+02  0.41720644229E+03  0.45914127058E+03  0.12500000000E+03 0.  0.
         25    1    1    2    0    0  0.50104493659E+02  0.33770578173E+02  0.22316775545E+03  0.26283028613E+03  0.12500000000E+03 0.  0.
         25    1    1    2    0    0  0.67013036108E+02 -0.11984017258E+03  0.72773594651E+03  0.75105061202E+03  0.12500000000E+03 0.  0.
</event>
<event>
 5    0  0.5749909E-005  0.2621851E+03  0.7546771E-02  0.1105837E+00
         21   -1    0    0  502  501  0.00000000000E+00  0.00000000000E+00  0.42373090557E+02  0.42373090557E+02  0.00000000000E+00 0.  1.
         21   -1    0    0  501  502 -0.00000000000E+00 -0.00000000000E+00 -0.16222799533E+04  0.16222799533E+04  0.00000000000E+00 0.  1.
         25    1    1    2    0    0 -0.67319001934E+02 -0.88562214324E+02 -0.67085092353E+03  0.69140514565E+03  0.12500000000E+03 0.  0.
         25    1    1    2    0    0 -0.36845448018E+02  0.34284962448E+02 -0.64099609429E+03  0.65500689964E+03  0.12500000000E+03 0.  0.
         25    1    1    2    0    0  0.10416444995E+03  0.54277251876E+02 -0.26805984492E+03  0.31824099856E+03  0.12500000000E+03 0.  0.
</event>
<event>
 5    0  0.5761891E-005  0.2843187E+03  0.7546771E-02  0.1093353E+00
         21   -1    0    0  502  501  0.00000000000E+00  0.00000000000E+00  0.11725593611E+03  0.11725593611E+03  0.00000000000E+00 0.  1.
         21   -1    0    0  501  502 -0.00000000000E+00 -0.00000000000E+00 -0.68940735233E+03  0.68940735233E+03  0.00000000000E+00 0.  1.
         25    1    1    2    0    0  0.59967968596E+02 -0.20195209632E+02 -0.25990491324E+03  0.29526186288E+03  0.12500000000E+03 0.  0.
         25    1    1    2    0    0  0.10235345979E+03 -0.22795827457E+02 -0.23948137400E+03  0.28977958688E+03  0.12500000000E+03 0.  0.
         25    1    1    2    0    0 -0.16232142839E+03  0.42991037088E+02 -0.72765128989E+02  0.22162183868E+03  0.12500000000E+03 0.  0.
</event>
<event>
 5    0  0.5749909E-005  0.5244677E+03  0.7546771E-02  0.1007583E+00
         21   -1    0    0  502  501  0.00000000000E+00  0.00000000000E+00  0.41060552297E+03  0.41060552297E+03  0.00000000000E+00 0.  1.
         21   -1    0    0  501  502 -0.00000000000E+00 -0.00000000000E+00 -0.66990427901E+03  0.66990427901E+03  0.00000000000E+00 0.  1.
         25    1    1    2    0    0 -0.22710112895E+03 -0.29864640017E+03 -0.29757747002E+03  0.49491609972E+03  0.12500000000E+03 0.  0.
         25    1    1    2    0    0  0.12481665093E+03 -0.46254331213E+02  0.85870741638E+02  0.20178563818E+03  0.12500000000E+03 0.  0.
         25    1    1    2    0    0  0.10228447802E+03  0.34490073138E+03 -0.47592027666E+02  0.38380806407E+03  0.12500000000E+03 0.  0.
</event>
<event>
 5    0  0.5749909E-005  0.5011885E+03  0.7546771E-02  0.1013469E+00
         21   -1    0    0  502  501  0.00000000000E+00  0.00000000000E+00  0.19444866911E+03  0.19444866911E+03  0.00000000000E+00 0. -1.
         21   -1    0    0  501  502 -0.00000000000E+00 -0.00000000000E+00 -0.12918058641E+04  0.12918058641E+04  0.00000000000E+00 0. -1.
         25    1    1    2    0    0  0.30656772767E+02 -0.56998783451E+02 -0.13530160614E+03  0.19524401055E+03  0.12500000000E+03 0.  0.
         25    1    1    2    0    0 -0.60209329610E+02 -0.37981681565E+03 -0.41815622586E+03  0.58169201993E+03  0.12500000000E+03 0.  0.
         25    1    1    2    0    0  0.29552556842E+02  0.43681559910E+03 -0.54389936295E+03  0.70931850269E+03  0.12500000000E+03 0.  0.
</event>
<event>
 5    0  0.5749909E-005  0.3749711E+03  0.7546771E-02  0.1052808E+00
         21   -1    0    0  502  501  0.00000000000E+00  0.00000000000E+00  0.73151082998E+03  0.73151082998E+03  0.00000000000E+00 0. -1.
         21   -1    0    0  501  502 -0.00000000000E+00 -0.00000000000E+00 -0.19220948541E+03  0.19220948541E+03  0.00000000000E+00 0. -1.
         25    1    1    2    0    0  0.18771687587E+02 -0.77763353483E+02  0.83478584345E+02  0.17027386600E+03  0.12500000000E+03 0.  0.
         25    1    1    2    0    0 -0.12173425131E+03  0.12277732009E+03 -0.51098867808E+02  0.21938457685E+03  0.12500000000E+03 0.  0.
         25    1    1    2    0    0  0.10296256372E+03 -0.45013966606E+02  0.50692162803E+03  0.53406187253E+03  0.12500000000E+03 0.  0.
</event>
<event>
 5    0  0.5749909E-005  0.3760909E+03  0.7546771E-02  0.1052388E+00
         21   -1    0    0  502  501  0.00000000000E+00  0.00000000000E+00  0.84927499063E+02  0.84927499063E+02  0.00000000000E+00 0.  1.
         21   -1    0    0  501  502 -0.00000000000E+00 -0.00000000000E+00 -0.16654721781E+04  0.16654721781E+04  0.00000000000E+00 0.  1.
         25    1    1    2    0    0 -0.97152112091E+02  0.29920763835E+02 -0.43237394055E+03  0.46141739181E+03  0.12500000000E+03 0.  0.
         25    1    1    2    0    0 -0.14689512812E+03 -0.42656767760E+02 -0.89169715818E+03  0.91331626527E+03  0.12500000000E+03 0.  0.
         25    1    1    2    0    0  0.24404724021E+03  0.12736003926E+02 -0.25647358030E+03  0.37566602008E+03  0.12500000000E+03 0.  0.
</event>
<event>
 5    0  0.5749909E-005  0.2719533E+03  0.7546771E-02  0.1100167E+00
         21   -1    0    0  502  501  0.00000000000E+00  0.00000000000E+00  0.26861644276E+03  0.26861644276E+03  0.00000000000E+00 0. -1.
         21   -1    0    0  501  502 -0.00000000000E+00 -0.00000000000E+00 -0.27533159020E+03  0.27533159020E+03  0.00000000000E+00 0. -1.
         25    1    1    2    0    0 -0.19402228545E+02  0.12533132816E+03  0.52463205992E+02  0.18563883288E+03  0.12500000000E+03 0.  0.
         25    1    1    2    0    0  0.81899809305E+02  0.91083581132E+00 -0.78824414085E+02  0.16895767707E+03  0.12500000000E+03 0.  0.
         25    1    1    2    0    0 -0.62497580760E+02 -0.12624216397E+03  0.19646060651E+02  0.18935152300E+03  0.12500000000E+03 0.  0.
</event>
<event>
 5    0  0.5749909E-005  0.2561208E+03  0.7546771E-02  0.1109497E+00
         21   -1    0    0  502  501  0.00000000000E+00  0.00000000000E+00  0.17572743658E+03  0.17572743658E+03  0.00000000000E+00 0. -1.
         21   -1    0    0  501  502 -0.00000000000E+00 -0.00000000000E+00 -0.37329321152E+03  0.37329321152E+03  0.00000000000E+00 0. -1.
         25    1    1    2    0    0 -0.32995114051E+02 -0.40417062300E+02 -0.19840056420E+03  0.24022905809E+03  0.12500000000E+03 0.  0.
         25    1    1    2    0    0  0.30927222354E+01  0.54320705191E+02  0.79154525073E+02  0.15764118365E+03  0.12500000000E+03 0.  0.
         25    1    1    2    0    0  0.29902391816E+02 -0.13903642891E+02 -0.78319735810E+02  0.15115040635E+03  0.12500000000E+03 0.  0.
</event>
<event>
 5    0  0.5749909E-005  0.4329793E+03  0.7546771E-02  0.1032923E+00
         21   -1    0    0  502  501  0.00000000000E+00  0.00000000000E+00  0.88602004678E+03  0.88602004678E+03  0.00000000000E+00 0. -1.
         21   -1    0    0  501  502 -0.00000000000E+00 -0.00000000000E+00 -0.21158785085E+03  0.21158785085E+03  0.00000000000E+00 0. -1.
         25    1    1    2    0    0 -0.25079041913E+03  0.99509528919E+02  0.39385308261E+03  0.49350099428E+03  0.12500000000E+03 0.  0.
         25    1    1    2    0    0  0.42802055016E+02 -0.16756828217E+03  0.28004597679E+03  0.35208222650E+03  0.12500000000E+03 0.  0.
         25    1    1    2    0    0  0.20798836412E+03  0.68058753255E+02  0.53313653483E+00  0.25202467684E+03  0.12500000000E+03 0.  0.
</event>
<event>
 5    0  0.5749909E-005  0.3479191E+03  0.7546771E-02  0.1063472E+00
         21   -1    0    0  502  501  0.00000000000E+00  0.00000000000E+00  0.40960393556E+03  0.40960393556E+03  0.00000000000E+00 0.  1.
         21   -1    0    0  501  502 -0.00000000000E+00 -0.00000000000E+00 -0.29552373412E+03  0.29552373412E+03  0.00000000000E+00 0.  1.
         25    1    1    2    0    0 -0.26232008269E+03  0.73813797822E+02 -0.28020416350E+02  0.30111533715E+03  0.12500000000E+03 0.  0.
         25    1    1    2    0    0  0.13292854161E+03 -0.55259431979E+02  0.35066555084E+02  0.19385114207E+03  0.12500000000E+03 0.  0.
         25    1    1    2    0    0  0.12939154109E+03 -0.18554365843E+02  0.10703406271E+03  0.21016119046E+03  0.12500000000E+03 0.  0.
</event>
<event>
 5    0  0.6287134E-005  0.3319671E+03  0.7546771E-02  0.1070270E+00
         21   -1    0    0  502  501  0.00000000000E+00  0.00000000000E+00  0.35976022763E+03  0.35976022763E+03  0.00000000000E+00 0. -1.
         21   -1    0    0  501  502 -0.00000000000E+00 -0.00000000000E+00 -0.30632115835E+03  0.30632115835E+03  0.00000000000E+00 0. -1.
         25    1    1    2    0    0 -0.74859257771E+02  0.26549225992E+02 -0.15379393387E+03  0.21350958754E+03  0.12500000000E+03 0.  0.
         25    1    1    2    0    0 -0.25214528643E+02  0.10892845900E+03  0.15545858309E+02  0.16842759674E+03  0.12500000000E+03 0.  0.
         25    1    1    2    0    0  0.10007378641E+03 -0.13547768499E+03  0.19168714485E+03  0.28414420169E+03  0.12500000000E+03 0.  0.
</event>
<event>
 5    0  0.5749909E-005  0.2690331E+03  0.7546771E-02  0.1101834E+00
         21   -1    0    0  502  501  0.00000000000E+00  0.00000000000E+00  0.85898939511E+03  0.85898939511E+03  0.00000000000E+00 0. -1.
         21   -1    0    0  501  502 -0.00000000000E+00 -0.00000000000E+00 -0.84260426474E+02  0.84260426474E+02  0.00000000000E+00 0. -1.
         25    1    1    2    0    0  0.58988294377E+01 -0.71878567095E+02  0.58626201606E+02  0.15576699301E+03  0.12500000000E+03 0.  0.
         25    1    1    2    0    0 -0.90562225828E+02  0.77726212793E+02  0.44039508293E+03  0.47309165071E+03  0.12500000000E+03 0.  0.
         25    1    1    2    0    0  0.84663396390E+02 -0.58476456981E+01  0.27570768410E+03  0.31439117786E+03  0.12500000000E+03 0.  0.
</event>
<event>
 5    0  0.5749909E-005  0.4976601E+03  0.7546771E-02  0.1014391E+00
         21   -1    0    0  502  501  0.00000000000E+00  0.00000000000E+00  0.36537680965E+03  0.36537680965E+03  0.00000000000E+00 0.  1.
         21   -1    0    0  501  502 -0.00000000000E+00 -0.00000000000E+00 -0.67783613669E+03  0.67783613669E+03  0.00000000000E+00 0.  1.
         25    1    1    2    0    0  0.12228883972E+03 -0.55530090439E+01 -0.35986958267E+02  0.17862098811E+03  0.12500000000E+03 0.  0.
         25    1    1    2    0    0  0.26819864910E+03  0.33240767763E+02  0.93034744377E+02  0.31195500907E+03  0.12500000000E+03 0.  0.
         25    1    1    2    0    0 -0.39048748882E+03 -0.27687758719E+02 -0.36950711315E+03  0.55263694916E+03  0.12500000000E+03 0.  0.
</event>
<event>
 5    0  0.5749909E-005  0.3430775E+03  0.7546771E-02  0.1065493E+00
         21   -1    0    0  502  501  0.00000000000E+00  0.00000000000E+00  0.78744018538E+02  0.78744018538E+02  0.00000000000E+00 0. -1.
         21   -1    0    0  501  502 -0.00000000000E+00 -0.00000000000E+00 -0.14947439693E+04  0.14947439693E+04  0.00000000000E+00 0. -1.
         25    1    1    2    0    0 -0.17222975970E+03  0.49265927111E+02 -0.38574061349E+03  0.44329566047E+03  0.12500000000E+03 0.  0.
         25    1    1    2    0    0  0.17623377306E+03  0.24806136553E+02 -0.22884653488E+03  0.31570464632E+03  0.12500000000E+03 0.  0.
         25    1    1    2    0    0 -0.40040133613E+01 -0.74072063664E+02 -0.80141280243E+03  0.81448768108E+03  0.12500000000E+03 0.  0.
</event>
<event>
 5    0  0.5749909E-005  0.3034273E+03  0.7546771E-02  0.1083540E+00
         21   -1    0    0  502  501  0.00000000000E+00  0.00000000000E+00  0.68612552700E+03  0.68612552700E+03  0.00000000000E+00 0.  1.
         21   -1    0    0  501  502 -0.00000000000E+00 -0.00000000000E+00 -0.13418552981E+03  0.13418552981E+03  0.00000000000E+00 0.  1.
         25    1    1    2    0    0 -0.13044630937E+03  0.11679953945E+03  0.15275848087E+03  0.26385322723E+03  0.12500000000E+03 0.  0.
         25    1    1    2    0    0  0.12073469186E+03  0.47193286725E+02  0.16447251872E+03  0.24388579612E+03  0.12500000000E+03 0.  0.
         25    1    1    2    0    0  0.97116175010E+01 -0.16399282618E+03  0.23470899760E+03  0.31257203347E+03  0.12500000000E+03 0.  0.
</event>
<event>
 5    0  0.5749909E-005  0.3009104E+03  0.7546771E-02  0.1084786E+00
         21   -1    0    0  502  501  0.00000000000E+00  0.00000000000E+00  0.25596272066E+04  0.25596272066E+04  0.00000000000E+00 0. -1.
         21   -1    0    0  501  502 -0.00000000000E+00 -0.00000000000E+00 -0.35375104571E+02  0.35375104571E+02  0.00000000000E+00 0. -1.
         25    1    1    2    0    0 -0.15197219517E+03  0.93873127804E+02  0.81651783272E+03  0.84512370892E+03  0.12500000000E+03 0.  0.
         25    1    1    2    0    0 -0.39178994237E+02 -0.43001500978E+01  0.74092028407E+03  0.75242365209E+03  0.12500000000E+03 0.  0.
         25    1    1    2    0    0  0.19115118940E+03 -0.89572977706E+02  0.96681398523E+03  0.99745495015E+03  0.12500000000E+03 0.  0.
</event>
<event>
 5    0  0.5749909E-005  0.2604312E+03  0.7546771E-02  0.1106884E+00
         21   -1    0    0  502  501  0.00000000000E+00  0.00000000000E+00  0.24207210889E+03  0.24207210889E+03  0.00000000000E+00 0.  1.
         21   -1    0    0  501  502 -0.00000000000E+00 -0.00000000000E+00 -0.28018261516E+03  0.28018261516E+03  0.00000000000E+00 0.  1.
         25    1    1    2    0    0 -0.62960902887E+02  0.11765646077E+03  0.25451458475E+02  0.18460740719E+03  0.12500000000E+03 0.  0.
         25    1    1    2    0    0  0.61975373295E+02 -0.14573929078E+03 -0.55613241025E+02  0.20928143814E+03  0.12500000000E+03 0.  0.
         25    1    1    2    0    0  0.98552959230E+00  0.28082830009E+02 -0.79487237168E+01  0.12836587872E+03  0.12500000000E+03 0.  0.
</event>
<event>
 5    0  0.5749909E-005  0.2649931E+03  0.7546771E-02  0.1104180E+00
         21   -1    0    0  502  501  0.00000000000E+00  0.00000000000E+00  0.16903661571E+03  0.16903661571E+03  0.00000000000E+00 0.  1.
         21   -1    0    0  501  502 -0.00000000000E+00 -0.00000000000E+00 -0.41542078735E+03  0.41542078735E+03  0.00000000000E+00 0.  1.
         25    1    1    2    0    0  0.12933639030E+03  0.66220277073E+02 -0.69626420098E+02  0.20392612713E+03  0.12500000000E+03 0.  0.
         25    1    1    2    0    0  0.24903113342E+02 -0.52181444667E+02 -0.65316084067E+02  0.15242788150E+03  0.12500000000E+03 0.  0.
         25    1    1    2    0    0 -0.15423950364E+03 -0.14038832405E+02 -0.11144166748E+03  0.22810339443E+03  0.12500000000E+03 0.  0.
</event>
<event>
 5    0  0.5749909E-005  0.1970692E+03  0.7546771E-02  0.1152236E+00
         21   -1    0    0  502  501  0.00000000000E+00  0.00000000000E+00  0.89720942034E+02  0.89720942034E+02  0.00000000000E+00 0. -1.
         21   -1    0    0  501  502 -0.00000000000E+00 -0.00000000000E+00 -0.43285605440E+03  0.43285605440E+03  0.00000000000E+00 0. -1.
         25    1    1    2    0    0  0.30685207422E+02 -0.27967396912E+01 -0.75497784551E+02  0.14924583471E+03  0.12500000000E+03 0.  0.
         25    1    1    2    0    0  0.10952186137E+02  0.45192875599E+01 -0.15871777889E+03  0.20237763631E+03  0.12500000000E+03 0.  0.
         25    1    1    2    0    0 -0.41637393559E+02 -0.17225478687E+01 -0.10891954892E+03  0.17095352541E+03  0.12500000000E+03 0.  0.
</event>
<event>
 5    0  0.5749909E-005  0.2438387E+03  0.7546771E-02  0.1117262E+00
         21   -1    0    0  502  501  0.00000000000E+00  0.00000000000E+00  0.28568988619E+03  0.28568988619E+03  0.00000000000E+00 0. -1.
         21   -1    0    0  501  502 -0.00000000000E+00 -0.00000000000E+00 -0.20811833019E+03  0.20811833019E+03  0.00000000000E+00 0. -1.
         25    1    1    2    0    0  0.12891394337E+03  0.16608458644E+02  0.47998112961E+02  0.18661046204E+03  0.12500000000E+03 0.  0.
         25    1    1    2    0    0 -0.61150487398E+02 -0.14639957097E+02 -0.44541874256E+02  0.14684239516E+03  0.12500000000E+03 0.  0.
         25    1    1    2    0    0 -0.67763455971E+02 -0.19685015474E+01  0.74115317296E+02  0.16035535919E+03  0.12500000000E+03 0.  0.
</event>
<event>
 5    0  0.5749909E-005  0.2551596E+03  0.7546771E-02  0.1110087E+00
         21   -1    0    0  502  501  0.00000000000E+00  0.00000000000E+00  0.89682676334E+02  0.89682676334E+02  0.00000000000E+00 0.  1.
         21   -1    0    0  501  502 -0.00000000000E+00 -0.00000000000E+00 -0.72596410341E+03  0.72596410341E+03  0.00000000000E+00 0.  1.
         25    1    1    2    0    0  0.11646205930E+03 -0.35575264257E+02 -0.10866487816E+03  0.20557739766E+03  0.12500000000E+03 0.  0.
         25    1    1    2    0    0 -0.75264697979E+02 -0.16861009665E+02 -0.16579573181E+03  0.22150009728E+03  0.12500000000E+03 0.  0.
         25    1    1    2    0    0 -0.41197361319E+02  0.52436273922E+02 -0.36182081710E+03  0.38856928480E+03  0.12500000000E+03 0.  0.
</event>
<event>
 5    0  0.5749909E-005  0.4001878E+03  0.7546771E-02  0.1043715E+00
         21   -1    0    0  502  501  0.00000000000E+00  0.00000000000E+00  0.26802738652E+03  0.26802738652E+03  0.00000000000E+00 0. -1.
         21   -1    0    0  501  502 -0.00000000000E+00 -0.00000000000E+00 -0.59751445679E+03  0.59751445679E+03  0.00000000000E+00 0. -1.
         25    1    1    2    0    0  0.28845165540E+03  0.51850162761E+02 -0.23499586377E+03  0.39590510589E+03  0.12500000000E+03 0.  0.
         25    1    1    2    0    0 -0.27742041188E+03 -0.40442494902E+01 -0.12972895128E+03  0.33080665302E+03  0.12500000000E+03 0.  0.
         25    1    1    2    0    0 -0.11031243524E+02 -0.47805913271E+02  0.35237744785E+02  0.13883008440E+03  0.12500000000E+03 0.  0.
</event>
<event>
 5    0  0.5749909E-005  0.2711863E+03  0.7546771E-02  0.1100603E+00
         21   -1    0    0  502  501  0.00000000000E+00  0.00000000000E+00  0.17112441488E+04  0.17112441488E+04  0.00000000000E+00 0.  1.
         21   -1    0    0  501  502 -0.00000000000E+00 -0.00000000000E+00 -0.42975749064E+02  0.42975749064E+02  0.00000000000E+00 0.  1.
         25    1    1    2    0    0  0.11850184760E+03 -0.44010437136E+01  0.46449330882E+03  0.49542011566E+03  0.12500000000E+03 0.  0.
         25    1    1    2    0    0 -0.79180090684E+02  0.11538600912E+03  0.49104981197E+03  0.52567892834E+03  0.12500000000E+03 0.  0.
         25    1    1    2    0    0 -0.39321756918E+02 -0.11098496541E+03  0.71272527898E+03  0.73312085389E+03  0.12500000000E+03 0.  0.
</event>
<event>
 5    0  0.5749909E-005  0.3355528E+03  0.7546771E-02  0.1068706E+00
         21   -1    0    0  502  501  0.00000000000E+00  0.00000000000E+00  0.43402133954E+03  0.43402133954E+03  0.00000000000E+00 0.  1.
         21   -1    0    0  501  502 -0.00000000000E+00 -0.00000000000E+00 -0.25942426607E+03  0.25942426607E+03  0.00000000000E+00 0.  1.
         25    1    1    2    0    0 -0.78744304207E+02 -0.86798177271E+02 -0.11777471980E+03  0.20791939219E+03  0.12500000000E+03 0.  0.
         25    1    1    2    0    0  0.59202041027E+02  0.10021802810E+03  0.45778680998E+01  0.17086395669E+03  0.12500000000E+03 0.  0.
         25    1    1    2    0    0  0.19542263179E+02 -0.13419850833E+02  0.28779392518E+03  0.31466225674E+03  0.12500000000E+03 0.  0.
</event>
<event>
 5    0  0.5749909E-005  0.2512518E+03  0.7546771E-02  0.1112516E+00
         21   -1    0    0  502  501  0.00000000000E+00  0.00000000000E+00  0.10148850058E+03  0.10148850058E+03  0.00000000000E+00 0. -1.
         21   -1    0    0  501  502 -0.00000000000E+00 -0.00000000000E+00 -0.62201603640E+03  0.62201603640E+03  0.00000000000E+00 0. -1.
         25    1    1    2    0    0  0.93134167254E+02 -0.23864769150E+02 -0.62736187842E+02  0.16971838316E+03  0.12500000000E+03 0.  0.
         25    1    1    2    0    0  0.21525679810E+02 -0.11114532189E+02 -0.12395610815E+03  0.17769919658E+03  0.12500000000E+03 0.  0.
         25    1    1    2    0    0 -0.11465984706E+03  0.34979301339E+02 -0.33383523983E+03  0.37608695723E+03  0.12500000000E+03 0.  0.
</event>
<event>
 5    0  0.5749909E-005  0.3250529E+03  0.7546771E-02  0.1073347E+00
         21   -1    0    0  502  501  0.00000000000E+00  0.00000000000E+00  0.55964134934E+03  0.55964134934E+03  0.00000000000E+00 0.  1.
         21   -1    0    0  501  502 -0.00000000000E+00 -0.00000000000E+00 -0.18879845080E+03  0.18879845080E+03  0.00000000000E+00 0.  1.
         25    1    1    2    0    0  0.14734274092E+03  0.56826590835E+02  0.31634095588E+03  0.37501432652E+03  0.12500000000E+03 0.  0.
         25    1    1    2    0    0 -0.11381716371E+02  0.65080345164E+02  0.56139894689E+02  0.15212390532E+03  0.12500000000E+03 0.  0.
         25    1    1    2    0    0 -0.13596102455E+03 -0.12190693600E+03 -0.16379520347E+01  0.22130156829E+03  0.12500000000E+03 0.  0.
</event>
<event>
 5    0  0.5749909E-005  0.2672198E+03  0.7546771E-02  0.1102881E+00
         21   -1    0    0  502  501  0.00000000000E+00  0.00000000000E+00  0.12385179219E+03  0.12385179219E+03  0.00000000000E+00 0. -1.
         21   -1    0    0  501  502 -0.00000000000E+00 -0.00000000000E+00 -0.57654755307E+03  0.57654755307E+03  0.00000000000E+00 0. -1.
         25    1    1    2    0    0  0.45987692190E+02  0.35888076491E+02 -0.13018220418E+03  0.18967136882E+03  0.12500000000E+03 0.  0.
         25    1    1    2    0    0  0.66714420013E+02 -0.13868650646E+03 -0.14845178768E+03  0.24768466682E+03  0.12500000000E+03 0.  0.
         25    1    1    2    0    0 -0.11270211220E+03  0.10279842997E+03 -0.17406176903E+03  0.26304330962E+03  0.12500000000E+03 0.  0.
</event>
<event>
 5    0  0.5749909E-005  0.2986266E+03  0.7546771E-02  0.1085929E+00
         21   -1    0    0  502  501  0.00000000000E+00  0.00000000000E+00  0.28046901968E+03  0.28046901968E+03  0.00000000000E+00 0.  1.
         21   -1    0    0  501  502 -0.00000000000E+00 -0.00000000000E+00 -0.31795967412E+03  0.31795967412E+03  0.00000000000E+00 0.  1.
         25    1    1    2    0    0 -0.78598631513E+02 -0.64031983042E+01  0.79045163396E+01  0.14800752414E+03  0.12500000000E+03 0.  0.
         25    1    1    2    0    0 -0.10888079438E+03 -0.68681518762E+02  0.61882759927E+02  0.18980688707E+03  0.12500000000E+03 0.  0.
         25    1    1    2    0    0  0.18747942589E+03  0.75084717066E+02 -0.10727793071E+03  0.26061428258E+03  0.12500000000E+03 0.  0.
</event>
<event>
 5    0  0.5749909E-005  0.2474553E+03  0.7546771E-02  0.1114924E+00
         21   -1    0    0  502  501  0.00000000000E+00  0.00000000000E+00  0.10184986375E+04  0.10184986375E+04  0.00000000000E+00 0.  1.
         21   -1    0    0  501  502 -0.00000000000E+00 -0.00000000000E+00 -0.60121951729E+02  0.60121951729E+02  0.00000000000E+00 0.  1.
         25    1    1    2    0    0 -0.11231786838E+02 -0.97943637704E+02  0.48319933685E+03  0.50874916052E+03  0.12500000000E+03 0.  0.
         25    1    1    2    0    0 -0.32953406848E+02  0.20470194837E+02  0.34349562111E+03  0.36758563305E+03  0.12500000000E+03 0.  0.
         25    1    1    2    0    0  0.44185193685E+02  0.77473442867E+02  0.13168172784E+03  0.20228579569E+03  0.12500000000E+03 0.  0.
</event>
<event>
 5    0  0.5749909E-005  0.3924557E+03  0.7546771E-02  0.1046424E+00
         21   -1    0    0  502  501  0.00000000000E+00  0.00000000000E+00  0.26248847669E+03  0.26248847669E+03  0.00000000000E+00 0.  1.
         21   -1    0    0  501  502 -0.00000000000E+00 -0.00000000000E+00 -0.58677412527E+03  0.58677412527E+03  0.00000000000E+00 0.  1.
         25    1    1    2    0    0  0.19940277759E+03 -0.57028913710E+02 -0.75398216949E+02  0.25362108711E+03  0.12500000000E+03 0.  0.
         25    1    1    2    0    0 -0.30507357955E+02  0.73938961598E+02 -0.33618379152E+03  0.36748089830E+03  0.12500000000E+03 0.  0.
         25    1    1    2    0    0 -0.16889541963E+03 -0.16910047888E+02  0.87296359888E+02  0.22816061655E+03  0.12500000000E+03 0.  0.
</event>
<event>
 5    0  0.5749909E-005  0.4218739E+03  0.7546771E-02  0.1036458E+00
         21   -1    0    0  502  501  0.00000000000E+00  0.00000000000E+00  0.55603445679E+03  0.55603445679E+03  0.00000000000E+00 0.  1.
         21   -1    0    0  501  502 -0.00000000000E+00 -0.00000000000E+00 -0.32008377225E+03  0.32008377225E+03  0.00000000000E+00 0.  1.
         25    1    1    2    0    0 -0.26580257638E+02 -0.24735938710E+02  0.10511167938E+03  0.16730762655E+03  0.12500000000E+03 0.  0.
         25    1    1    2    0    0  0.13574030394E+03  0.29111538674E+03 -0.47349499059E+02  0.34790885814E+03  0.12500000000E+03 0.  0.
         25    1    1    2    0    0 -0.10916004630E+03 -0.26637944803E+03  0.17818850421E+03  0.36090174435E+03  0.12500000000E+03 0.  0.
</event>
<event>
 5    0  0.5749909E-005  0.2444450E+03  0.7546771E-02  0.1116867E+00
         21   -1    0    0  502  501  0.00000000000E+00  0.00000000000E+00  0.74511475680E+02  0.74511475680E+02  0.00000000000E+00 0. -1.
         21   -1    0    0  501  502 -0.00000000000E+00 -0.00000000000E+00 -0.80193501382E+03  0.80193501382E+03  0.00000000000E+00 0. -1.
         25    1    1    2    0    0  0.10605661641E+02 -0.88567804498E+02 -0.12220943591E+03  0.19625718402E+03  0.12500000000E+03 0.  0.
         25    1    1    2    0    0 -0.79884689218E+02  0.51421782322E+02 -0.37679105222E+03  0.40819390038E+03  0.12500000000E+03 0.  0.
         25    1    1    2    0    0  0.69279027578E+02  0.37146022176E+02 -0.22842305000E+03  0.27199540510E+03  0.12500000000E+03 0.  0.
</event>
<event>
 5    0  0.5749909E-005  0.2683826E+03  0.7546771E-02  0.1102209E+00
         21   -1    0    0  502  501  0.00000000000E+00  0.00000000000E+00  0.73624177614E+03  0.73624177614E+03  0.00000000000E+00 0.  1.
         21   -1    0    0  501  502 -0.00000000000E+00 -0.00000000000E+00 -0.97833648641E+02  0.97833648641E+02  0.00000000000E+00 0.  1.
         25    1    1    2    0    0  0.13062561567E+03 -0.88048470471E+01  0.15316287021E+03  0.23711693658E+03  0.12500000000E+03 0.  0.
         25    1    1    2    0    0 -0.47093732882E+02 -0.92332550306E+02  0.18387968516E+03  0.24531583344E+03  0.12500000000E+03 0.  0.
         25    1    1    2    0    0 -0.83531882785E+02  0.10113739735E+03  0.30136557212E+03  0.35164265476E+03  0.12500000000E+03 0.  0.
</event>
<event>
 5    0  0.5749909E-005  0.2069038E+03  0.7546771E-02  0.1144042E+00
         21   -1    0    0  502  501  0.00000000000E+00  0.00000000000E+00  0.63840976536E+03  0.63840976536E+03  0.00000000000E+00 0.  1.
         21   -1    0    0  501  502 -0.00000000000E+00 -0.00000000000E+00 -0.67055957534E+02  0.67055957534E+02  0.00000000000E+00 0.  1.
         25    1    1    2    0    0  0.38394472497E+02 -0.16577237425E+02  0.20034279485E+03  0.23981487812E+03  0.12500000000E+03 0.  0.
         25    1    1    2    0    0 -0.44214238816E+01 -0.42424592043E+02  0.12742176190E+03  0.18352302418E+03  0.12500000000E+03 0.  0.
         25    1    1    2    0    0 -0.33973048616E+02  0.59001829468E+02  0.24358925108E+03  0.28212782059E+03  0.12500000000E+03 0.  0.
</event>
<event>
 5    0  0.5749909E-005  0.3951230E+03  0.7546771E-02  0.1045482E+00
         21   -1    0    0  502  501  0.00000000000E+00  0.00000000000E+00  0.53386410405E+03  0.53386410405E+03  0.00000000000E+00 0.  1.
         21   -1    0    0  501  502 -0.00000000000E+00 -0.00000000000E+00 -0.29243804629E+03  0.29243804629E+03  0.00000000000E+00 0.  1.
         25    1    1    2    0    0 -0.45981011211E+02  0.27622099590E+03  0.19830244945E+03  0.36518646391E+03  0.12500000000E+03 0.  0.
         25    1    1    2    0    0 -0.10441529038E+03 -0.15532660721E+03  0.52148128461E+02  0.23102669775E+03  0.12500000000E+03 0.  0.
         25    1    1    2    0    0  0.15039630159E+03 -0.12089438869E+03 -0.90245201495E+01  0.23008898868E+03  0.12500000000E+03 0.  0.
</event>
<event>
 5    0  0.5749909E-005  0.2072175E+03  0.7546771E-02  0.1143789E+00
         21   -1    0    0  502  501  0.00000000000E+00  0.00000000000E+00  0.17113408542E+02  0.17113408542E+02  0.00000000000E+00 0.  1.
         21   -1    0    0  501  502 -0.00000000000E+00 -0.00000000000E+00 -0.25090906038E+04  0.25090906038E+04  0.00000000000E+00 0.  1.
         25    1    1    2    0    0 -0.51432750211E+02  0.51366663802E+02 -0.74180657192E+03  0.75576838522E+03  0.12500000000E+03 0.  0.
         25    1    1    2    0    0  0.48706143777E+02 -0.34012541439E+02 -0.10347662690E+04  0.10439805423E+04  0.12500000000E+03 0.  0.
         25    1    1    2    0    0  0.27266064348E+01 -0.17354122363E+02 -0.71540435440E+03  0.72645508481E+03  0.12500000000E+03 0.  0.
</event>
<event>
 5    0  0.5749909E-005  0.2771943E+03  0.7546771E-02  0.1097231E+00
         21   -1    0    0  502  501  0.00000000000E+00  0.00000000000E+00  0.12871301164E+03  0.12871301164E+03  0.00000000000E+00 0.  1.
         21   -1    0    0  501  502 -0.00000000000E+00 -0.00000000000E+00 -0.59696110794E+03  0.59696110794E+03  0.00000000000E+00 0.  1.
         25    1    1    2    0    0 -0.33725222047E+02 -0.25453902150E+01 -0.30919137774E+02  0.13313475389E+03  0.12500000000E+03 0.  0.
         25    1    1    2    0    0 -0.39003253332E+02 -0.85971851747E+02 -0.41688899582E+02  0.16209681493E+03  0.12500000000E+03 0.  0.
         25    1    1    2    0    0  0.72728475378E+02  0.88517241962E+02 -0.39564005894E+03  0.43044255075E+03  0.12500000000E+03 0.  0.
</event>
<event>
 5    0  0.5923659E-005  0.2813401E+03  0.7546771E-02  0.1094959E+00
         21   -1    0    0  502  501  0.00000000000E+00  0.00000000000E+00  0.11931151300E+03  0.11931151300E+03  0.00000000000E+00 0.  1.
         21   -1    0    0  501  502 -0.00000000000E+00 -0.00000000000E+00 -0.66340839564E+03  0.66340839564E+03  0.00000000000E+00 0.  1.
         25    1    1    2    0    0  0.11102692679E+03 -0.84715422288E+02 -0.12332889778E+03  0.22436287187E+03  0.12500000000E+03 0.  0.
         25    1    1    2    0    0 -0.49402865130E+01 -0.65227763576E+02 -0.20335511414E+03  0.24750226265E+03  0.12500000000E+03 0.  0.
         25    1    1    2    0    0 -0.10608664028E+03  0.14994318586E+03 -0.21741287073E+03  0.31085477412E+03  0.12500000000E+03 0.  0.
</event>
<event>
 5    0  0.5749909E-005  0.3025714E+03  0.7546771E-02  0.1083962E+00
         21   -1    0    0  502  501  0.00000000000E+00  0.00000000000E+00  0.10063715628E+03  0.10063715628E+03  0.00000000000E+00 0. -1.
         21   -1    0    0  501  502 -0.00000000000E+00 -0.00000000000E+00 -0.90969818441E+03  0.90969818441E+03  0.00000000000E+00 0. -1.
         25    1    1    2    0    0 -0.33056833470E+02 -0.64443791450E+02 -0.57236317463E+02  0.15539225377E+03  0.12500000000E+03 0.  0.
         25    1    1    2    0    0  0.11971649322E+03 -0.10594951243E+02 -0.60901823962E+03  0.63322390031E+03  0.12500000000E+03 0.  0.
         25    1    1    2    0    0 -0.86659659749E+02  0.75038742693E+02 -0.14280647105E+03  0.22171918660E+03  0.12500000000E+03 0.  0.
</event>
<event>
 5    0  0.5749909E-005  0.1958371E+03  0.7546771E-02  0.1153300E+00
         21   -1    0    0  502  501  0.00000000000E+00  0.00000000000E+00  0.22508949801E+03  0.22508949801E+03  0.00000000000E+00 0.  1.
         21   -1    0    0  501  502 -0.00000000000E+00 -0.00000000000E+00 -0.17038628108E+03  0.17038628108E+03  0.00000000000E+00 0.  1.
         25    1    1    2    0    0  0.46324321515E+02  0.11238599454E+02  0.15335679836E+02  0.13465671895E+03  0.12500000000E+03 0.  0.
         25    1    1    2    0    0 -0.19005470660E+02 -0.50605698333E+01  0.40027578418E+02  0.13271783722E+03  0.12500000000E+03 0.  0.
         25    1    1    2    0    0 -0.27318850855E+02 -0.61780296210E+01 -0.66004132262E+00  0.12810122293E+03  0.12500000000E+03 0.  0.
</event>
<event>
 5    0  0.5749909E-005  0.3688963E+03  0.7546771E-02  0.1055116E+00
         21   -1    0    0  502  501  0.00000000000E+00  0.00000000000E+00  0.21335370949E+03  0.21335370949E+03  0.00000000000E+00 0.  1.
         21   -1    0    0  501  502 -0.00000000000E+00 -0.00000000000E+00 -0.63783518007E+03  0.63783518007E+03  0.00000000000E+00 0.  1.
         25    1    1    2    0    0  0.13307878579E+03  0.81279046317E+02 -0.24842169529E+02  0.20139111198E+03  0.12500000000E+03 0.  0.
         25    1    1    2    0    0 -0.12483298210E+03  0.95017406607E+02 -0.60247508921E+01  0.20068103698E+03  0.12500000000E+03 0.  0.
         25    1    1    2    0    0 -0.82458036887E+01 -0.17629645292E+03 -0.39361455015E+03  0.44911674060E+03  0.12500000000E+03 0.  0.
</event>
<event>
 5    0  0.5749909E-005  0.3332243E+03  0.7546771E-02  0.1069719E+00
         21   -1    0    0  502  501  0.00000000000E+00  0.00000000000E+00  0.12696958396E+03  0.12696958396E+03  0.00000000000E+00 0. -1.
         21   -1    0    0  501  502 -0.00000000000E+00 -0.00000000000E+00 -0.87452785425E+03  0.87452785425E+03  0.00000000000E+00 0. -1.
         25    1    1    2    0    0 -0.12792699325E+02  0.53372075688E+02 -0.46411031581E+02  0.14419159293E+03  0.12500000000E+03 0.  0.
         25    1    1    2    0    0  0.13738415727E+03  0.13906274373E+03 -0.31835790647E+03  0.39394112501E+03  0.12500000000E+03 0.  0.
         25    1    1    2    0    0 -0.12459145794E+03 -0.19243481941E+03 -0.38278933224E+03  0.46336472027E+03  0.12500000000E+03 0.  0.
</event>
<event>
 5    0  0.5749909E-005  0.3495004E+03  0.7546771E-02  0.1062820E+00
         21   -1    0    0  502  501  0.00000000000E+00  0.00000000000E+00  0.17786083923E+04  0.17786083923E+04  0.00000000000E+00 0.  1.
         21   -1    0    0  501  502 -0.00000000000E+00 -0.00000000000E+00 -0.68677593438E+02  0.68677593438E+02  0.00000000000E+00 0.  1.
         25    1    1    2    0    0 -0.20030436902E+03  0.12435921328E+03  0.41069218859E+03  0.48977558937E+03  0.12500000000E+03 0.  0.
         25    1    1    2    0    0  0.30223362972E+02 -0.26468760531E+02  0.74394230192E+03  0.75543973653E+03  0.12500000000E+03 0.  0.
         25    1    1    2    0    0  0.17008100605E+03 -0.97890452748E+02  0.55529630833E+03  0.60207065981E+03  0.12500000000E+03 0.  0.
</event>
<event>
 5    0  0.5749909E-005  0.2731689E+03  0.7546771E-02  0.1099480E+00
         21   -1    0    0  502  501  0.00000000000E+00  0.00000000000E+00  0.34142503576E+02  0.34142503576E+02  0.00000000000E+00 0.  1.
         21   -1    0    0  501  502 -0.00000000000E+00 -0.00000000000E+00 -0.21855820942E+04  0.21855820942E+04  0.00000000000E+00 0.  1.
         25    1    1    2    0    0  0.10757911101E+03  0.59726069980E+01 -0.55399285174E+03  0.57805018548E+03  0.12500000000E+03 0.  0.
         25    1    1    2    0    0 -0.58644846040E+02  0.82318559967E+02 -0.12323207676E+04  0.12427610541E+04  0.12500000000E+03 0.  0.
         25    1    1    2    0    0 -0.48934264965E+02 -0.88291166965E+02 -0.36512597127E+03  0.39891335819E+03  0.12500000000E+03 0.  0.
</event>
<event>
 5    0  0.5749909E-005  0.2294517E+03  0.7546771E-02  0.1127026E+00
         21   -1    0    0  502  501  0.00000000000E+00  0.00000000000E+00  0.10706810969E+03  0.10706810969E+03  0.00000000000E+00 0. -1.
         21   -1    0    0  501  502 -0.00000000000E+00 -0.00000000000E+00 -0.49172504756E+03  0.49172504756E+03  0.00000000000E+00 0. -1.
         25    1    1    2    0    0 -0.30777099034E+02 -0.42354159116E+02 -0.13127116435E+03  0.18867491409E+03  0.12500000000E+03 0.  0.
         25    1    1    2    0    0  0.30593496855E+02  0.23609481506E+01 -0.24723477296E+03  0.27873207401E+03  0.12500000000E+03 0.  0.
         25    1    1    2    0    0  0.18360217863E+00  0.39993210965E+02 -0.61510005732E+01  0.13138616914E+03  0.12500000000E+03 0.  0.
</event>
<event>
 5    0  0.6408796E-005  0.4931505E+03  0.7546771E-02  0.1015582E+00
         21   -1    0    0  502  501  0.00000000000E+00  0.00000000000E+00  0.10389215361E+04  0.10389215361E+04  0.00000000000E+00 0.  1.
         21   -1    0    0  501  502 -0.00000000000E+00 -0.00000000000E+00 -0.23408639216E+03  0.23408639216E+03  0.00000000000E+00 0.  1.
         25    1    1    2    0    0  0.24871877993E+03 -0.17569039070E+03  0.33511916256E+03  0.46974248050E+03  0.12500000000E+03 0.  0.
         25    1    1    2    0    0 -0.73785365124E+02  0.33848390952E+03  0.18885443529E+03  0.41389205699E+03  0.12500000000E+03 0.  0.
         25    1    1    2    0    0 -0.17493341480E+03 -0.16279351881E+03  0.28086154612E+03  0.38937339081E+03  0.12500000000E+03 0.  0.
</event>
<event>
 5    0  0.5749909E-005  0.2888421E+03  0.7546771E-02  0.1090955E+00
         21   -1    0    0  502  501  0.00000000000E+00  0.00000000000E+00  0.41434050130E+03  0.41434050130E+03  0.00000000000E+00 0. -1.
         21   -1    0    0  501  502 -0.00000000000E+00 -0.00000000000E+00 -0.20135553899E+03  0.20135553899E+03  0.00000000000E+00 0. -1.
         25    1    1    2    0    0  0.63229756155E+02  0.29913679256E+02  0.21452890651E+03  0.25795441845E+03  0.12500000000E+03 0.  0.
         25    1    1    2    0    0 -0.44655137787E+02  0.96803798558E+02 -0.51091264424E+02  0.17204759239E+03  0.12500000000E+03 0.  0.
         25    1    1    2    0    0 -0.18574618368E+02 -0.12671747781E+03  0.49547320233E+02  0.18569402945E+03  0.12500000000E+03 0.  0.
</event>
<event>
 5    0  0.5749909E-005  0.2558772E+03  0.7546771E-02  0.1109646E+00
         21   -1    0    0  502  501  0.00000000000E+00  0.00000000000E+00  0.23729774422E+03  0.23729774422E+03  0.00000000000E+00 0.  1.
         21   -1    0    0  501  502 -0.00000000000E+00 -0.00000000000E+00 -0.27591133946E+03  0.27591133946E+03  0.00000000000E+00 0.  1.
         25    1    1    2    0    0  0.29049796323E+02  0.33515361616E+01  0.10214183145E+03  0.16405205635E+03  0.12500000000E+03 0.  0.
         25    1    1    2    0    0  0.60220436897E+02  0.62776170187E+02 -0.68038756347E+02  0.16679814426E+03  0.12500000000E+03 0.  0.
         25    1    1    2    0    0 -0.89270233220E+02 -0.66127706349E+02 -0.72716670350E+02  0.18235888307E+03  0.12500000000E+03 0.  0.
</event>
<event>
 5    0  0.5793090E-005  0.3595976E+03  0.7546771E-02  0.1058743E+00
         21   -1    0    0  502  501  0.00000000000E+00  0.00000000000E+00  0.54338988677E+03  0.54338988677E+03  0.00000000000E+00 0. -1.
         21   -1    0    0  501  502 -0.00000000000E+00 -0.00000000000E+00 -0.23796992869E+03  0.23796992869E+03  0.00000000000E+00 0. -1.
         25    1    1    2    0    0 -0.49025466187E+02 -0.13013476923E+03  0.13557425916E+03  0.23096305818E+03  0.12500000000E+03 0.  0.
         25    1    1    2    0    0  0.22830104700E+03  0.41286253974E+02  0.17158078911E+03  0.31446921951E+03  0.12500000000E+03 0.  0.
         25    1    1    2    0    0 -0.17927558082E+03  0.88848515257E+02 -0.17350901921E+01  0.23592753777E+03  0.12500000000E+03 0.  0.
</event>
<event>
 5    0  0.5749909E-005  0.2330214E+03  0.7546771E-02  0.1124531E+00
         21   -1    0    0  502  501  0.00000000000E+00  0.00000000000E+00  0.45045308039E+03  0.45045308039E+03  0.00000000000E+00 0.  1.
         21   -1    0    0  501  502 -0.00000000000E+00 -0.00000000000E+00 -0.12054296902E+03  0.12054296902E+03  0.00000000000E+00 0.  1.
         25    1    1    2    0    0 -0.57892673038E+02 -0.50475765138E+00  0.13364261335E+03  0.19193010310E+03  0.12500000000E+03 0.  0.
         25    1    1    2    0    0  0.10906460708E+03 -0.23520491167E+02  0.42224747462E+02  0.17278955790E+03  0.12500000000E+03 0.  0.
         25    1    1    2    0    0 -0.51171934042E+02  0.24025248819E+02  0.15404275056E+03  0.20627638841E+03  0.12500000000E+03 0.  0.
</event>
<event>
 5    0  0.5749909E-005  0.3217503E+03  0.7546771E-02  0.1074847E+00
         21   -1    0    0  502  501  0.00000000000E+00  0.00000000000E+00  0.42299103708E+02  0.42299103708E+02  0.00000000000E+00 0.  1.
         21   -1    0    0  501  502 -0.00000000000E+00 -0.00000000000E+00 -0.24474106456E+04  0.24474106456E+04  0.00000000000E+00 0.  1.
         25    1    1    2    0    0 -0.69386538273E+02 -0.11817692955E+02 -0.47918033772E+03  0.50019290841E+03  0.12500000000E+03 0.  0.
         25    1    1    2    0    0  0.54907164671E+02  0.17789135421E+03 -0.14849705118E+04  0.15018064294E+04  0.12500000000E+03 0.  0.
         25    1    1    2    0    0  0.14479373602E+02 -0.16607366125E+03 -0.44096069240E+03  0.48771041148E+03  0.12500000000E+03 0.  0.
</event>
<event>
 5    0  0.5749909E-005  0.4097178E+03  0.7546771E-02  0.1040466E+00
         21   -1    0    0  502  501  0.00000000000E+00  0.00000000000E+00  0.98238067842E+03  0.98238067842E+03  0.00000000000E+00 0.  1.
         21   -1    0    0  501  502 -0.00000000000E+00 -0.00000000000E+00 -0.17087949528E+03  0.17087949528E+03  0.00000000000E+00 0.  1.
         25    1    1    2    0    0 -0.27490897123E+03 -0.42526570527E+02  0.39752375015E+03  0.50103251750E+03  0.12500000000E+03 0.  0.
         25    1    1    2    0    0 -0.36126030833E+01 -0.74229334926E+02  0.24342413387E+03  0.28355485186E+03  0.12500000000E+03 0.  0.
         25    1    1    2    0    0  0.27852157431E+03  0.11675590545E+03  0.17055329913E+03  0.36867280434E+03  0.12500000000E+03 0.  0.
</event>
<event>
 5    0  0.5749909E-005  0.4061030E+03  0.7546771E-02  0.1041687E+00
         21   -1    0    0  502  501  0.00000000000E+00  0.00000000000E+00  0.19142172709E+03  0.19142172709E+03  0.00000000000E+00 0. -1.
         21   -1    0    0  501  502 -0.00000000000E+00 -0.00000000000E+00 -0.86155144300E+03  0.86155144300E+03  0.00000000000E+00 0. -1.
         25    1    1    2    0    0 -0.87200786019E+02  0.19456670293E+03 -0.28880328891E+03  0.38012171558E+03  0.12500000000E+03 0.  0.
         25    1    1    2    0    0 -0.14671774079E+03 -0.20981389914E+03 -0.15796453879E+03  0.32576949404E+03  0.12500000000E+03 0.  0.
         25    1    1    2    0    0  0.23391852681E+03  0.15247196212E+02 -0.22336188822E+03  0.34708196047E+03  0.12500000000E+03 0.  0.
</event>
<event>
 5    0  0.5749909E-005  0.3295656E+03  0.7546771E-02  0.1071329E+00
         21   -1    0    0  502  501  0.00000000000E+00  0.00000000000E+00  0.90909681617E+03  0.90909681617E+03  0.00000000000E+00 0.  1.
         21   -1    0    0  501  502 -0.00000000000E+00 -0.00000000000E+00 -0.11947405071E+03  0.11947405071E+03  0.00000000000E+00 0.  1.
         25    1    1    2    0    0  0.70518239221E+02  0.68377304829E+02  0.26637059590E+02  0.16119184478E+03  0.12500000000E+03 0.  0.
         25    1    1    2    0    0 -0.16589919831E+02 -0.34683317425E+02  0.48853192377E+02  0.13960584641E+03  0.12500000000E+03 0.  0.
         25    1    1    2    0    0 -0.53928319391E+02 -0.33693987404E+02  0.71413251350E+03  0.72777317569E+03  0.12500000000E+03 0.  0.
</event>
<event>
 5    0  0.5749909E-005  0.3137402E+03  0.7546771E-02  0.1078567E+00
         21   -1    0    0  502  501  0.00000000000E+00  0.00000000000E+00  0.65002031156E+03  0.65002031156E+03  0.00000000000E+00 0.  1.
         21   -1    0    0  501  502 -0.00000000000E+00 -0.00000000000E+00 -0.15143049417E+03  0.15143049417E+03  0.00000000000E+00 0.  1.
         25    1    1    2    0    0 -0.68976739428E+02  0.11882249124E+03  0.20047529129E+03  0.27329822068E+03  0.12500000000E+03 0.  0.
         25    1    1    2    0    0  0.18990199506E+03 -0.61526064154E+01  0.13546991029E+03  0.26472196525E+03  0.12500000000E+03 0.  0.
         25    1    1    2    0    0 -0.12092525563E+03 -0.11266988483E+03  0.16264461580E+03  0.26343061980E+03  0.12500000000E+03 0.  0.
</event>
<event>
 5    0  0.6527779E-005  0.2547866E+03  0.7546771E-02  0.1110317E+00
         21   -1    0    0  502  501  0.00000000000E+00  0.00000000000E+00  0.42208710204E+03  0.42208710204E+03  0.00000000000E+00 0. -1.
         21   -1    0    0  501  502 -0.00000000000E+00 -0.00000000000E+00 -0.15379812612E+03  0.15379812612E+03  0.00000000000E+00 0. -1.
         25    1    1    2    0    0  0.79751993540E+01 -0.11016656914E+03  0.12739527013E+03  0.20989242867E+03  0.12500000000E+03 0.  0.
         25    1    1    2    0    0  0.45261388351E+02  0.13190198383E+03  0.30829911197E+02  0.18979517918E+03  0.12500000000E+03 0.  0.
         25    1    1    2    0    0 -0.53236587705E+02 -0.21735414696E+02  0.11006379459E+03  0.17619762031E+03  0.12500000000E+03 0.  0.
</event>
<event>
 5    0  0.5749909E-005  0.4127665E+03  0.7546771E-02  0.1039447E+00
         21   -1    0    0  502  501  0.00000000000E+00  0.00000000000E+00  0.79510573945E+03  0.79510573945E+03  0.00000000000E+00 0.  1.
         21   -1    0    0  501  502 -0.00000000000E+00 -0.00000000000E+00 -0.21428118157E+03  0.21428118157E+03  0.00000000000E+00 0.  1.
         25    1    1    2    0    0 -0.25716276485E+02  0.15610826456E+03  0.44676956773E+02  0.20652396376E+03  0.12500000000E+03 0.  0.
         25    1    1    2    0    0  0.12398888314E+03  0.15570891635E+03  0.13727147715E+03  0.27218921399E+03  0.12500000000E+03 0.  0.
         25    1    1    2    0    0 -0.98272606660E+02 -0.31181718091E+03  0.39887612396E+03  0.53067374327E+03  0.12500000000E+03 0.  0.
</event>
<event>
 5    0  0.5749909E-005  0.2519289E+03  0.7546771E-02  0.1112092E+00
         21   -1    0    0  502  501  0.00000000000E+00  0.00000000000E+00  0.90912336272E+02  0.90912336272E+02  0.00000000000E+00 0. -1.
         21   -1    0    0  501  502 -0.00000000000E+00 -0.00000000000E+00 -0.69812508948E+03  0.69812508948E+03  0.00000000000E+00 0. -1.
         25    1    1    2    0    0  0.68190160666E+02  0.17223602537E+02 -0.43157422370E+03  0.45478331220E+03  0.12500000000E+03 0.  0.
         25    1    1    2    0    0 -0.36188531821E+02  0.48730616678E+02 -0.75881751318E+02  0.15832663396E+03  0.12500000000E+03 0.  0.
         25    1    1    2    0    0 -0.32001628845E+02 -0.65954219215E+02 -0.99756778189E+02  0.17592747959E+03  0.12500000000E+03 0.  0.
</event>
<event>
 5    0  0.5749909E-005  0.2311425E+03  0.7546771E-02  0.1125838E+00
         21   -1    0    0  502  501  0.00000000000E+00  0.00000000000E+00  0.65639614759E+02  0.65639614759E+02  0.00000000000E+00 0.  1.
         21   -1    0    0  501  502 -0.00000000000E+00 -0.00000000000E+00 -0.81394220129E+03  0.81394220129E+03  0.00000000000E+00 0.  1.
         25    1    1    2    0    0 -0.19463370474E+02 -0.26330051810E+02 -0.27047675425E+03  0.29975785062E+03  0.12500000000E+03 0.  0.
         25    1    1    2    0    0  0.64596117871E+02  0.94487343436E+02 -0.18365689717E+03  0.24991072884E+03  0.12500000000E+03 0.  0.
         25    1    1    2    0    0 -0.45132747397E+02 -0.68157291626E+02 -0.29416893511E+03  0.32991323658E+03  0.12500000000E+03 0.  0.
</event>
<event>
 5    0  0.5749909E-005  0.4033687E+03  0.7546771E-02  0.1042619E+00
         21   -1    0    0  502  501  0.00000000000E+00  0.00000000000E+00  0.17954311562E+03  0.17954311562E+03  0.00000000000E+00 0.  1.
         21   -1    0    0  501  502 -0.00000000000E+00 -0.00000000000E+00 -0.90622437375E+03  0.90622437375E+03  0.00000000000E+00 0.  1.
         25    1    1    2    0    0  0.20030110181E+03  0.68336091658E+02 -0.41684462622E+03  0.48391610350E+03  0.12500000000E+03 0.  0.
         25    1    1    2    0    0  0.24461585063E+02 -0.12350577496E+03 -0.28754481237E+03  0.33787433273E+03  0.12500000000E+03 0.  0.
         25    1    1    2    0    0 -0.22476268687E+03  0.55169683305E+02 -0.22291819534E+02  0.26397705314E+03  0.12500000000E+03 0.  0.
</event>
<event>
 5    0  0.6810773E-005  0.3326802E+03  0.7546771E-02  0.1069957E+00
         21   -1    0    0  502  501  0.00000000000E+00  0.00000000000E+00  0.11316189159E+04  0.11316189159E+04  0.00000000000E+00 0.  1.
         21   -1    0    0  501  502 -0.00000000000E+00 -0.00000000000E+00 -0.97803368882E+02  0.97803368882E+02  0.00000000000E+00 0.  1.
         25    1    1    2    0    0  0.64342132202E+02  0.17219170393E+03  0.21646646162E+03  0.31027829748E+03  0.12500000000E+03 0.  0.
         25    1    1    2    0    0 -0.16267266909E+03 -0.94504865826E+02  0.32364676221E+03  0.39467175428E+03  0.12500000000E+03 0.  0.
         25    1    1    2    0    0  0.98330536893E+02 -0.77686838103E+02  0.49370232323E+03  0.52447223307E+03  0.12500000000E+03 0.  0.
</event>
<event>
 5    0  0.5749909E-005  0.3438018E+03  0.7546771E-02  0.1065188E+00
         21   -1    0    0  502  501  0.00000000000E+00  0.00000000000E+00  0.52989986986E+03  0.52989986986E+03  0.00000000000E+00 0.  1.
         21   -1    0    0  501  502 -0.00000000000E+00 -0.00000000000E+00 -0.22306039337E+03  0.22306039337E+03  0.00000000000E+00 0.  1.
         25    1    1    2    0    0  0.20500510506E+03 -0.13648594710E+03  0.21080743385E+03  0.34744824222E+03  0.12500000000E+03 0.  0.
         25    1    1    2    0    0 -0.12686073794E+03  0.76041115272E+02  0.14148190360E+03  0.23982916230E+03  0.12500000000E+03 0.  0.
         25    1    1    2    0    0 -0.78144367120E+02  0.60444831833E+02 -0.45449860961E+02  0.16568285871E+03  0.12500000000E+03 0.  0.
</event>
<event>
 5    0  0.5749909E-005  0.5005460E+03  0.7546771E-02  0.1013636E+00
         21   -1    0    0  502  501  0.00000000000E+00  0.00000000000E+00  0.81044205399E+03  0.81044205399E+03  0.00000000000E+00 0.  1.
         21   -1    0    0  501  502 -0.00000000000E+00 -0.00000000000E+00 -0.30914774480E+03  0.30914774480E+03  0.00000000000E+00 0.  1.
         25    1    1    2    0    0 -0.18338115145E+03 -0.38485660809E+02  0.58280796553E+02  0.23266165142E+03  0.12500000000E+03 0.  0.
         25    1    1    2    0    0  0.33419855035E+03  0.13464158718E+03 -0.12789990549E+02  0.38158303410E+03  0.12500000000E+03 0.  0.
         25    1    1    2    0    0 -0.15081739890E+03 -0.96155926374E+02  0.45580350319E+03  0.50534511327E+03  0.12500000000E+03 0.  0.
</event>
<event>
 5    0  0.5749909E-005  0.2681704E+03  0.7546771E-02  0.1102331E+00
         21   -1    0    0  502  501  0.00000000000E+00  0.00000000000E+00  0.18609981664E+03  0.18609981664E+03  0.00000000000E+00 0. -1.
         21   -1    0    0  501  502 -0.00000000000E+00 -0.00000000000E+00 -0.38643442297E+03  0.38643442297E+03  0.00000000000E+00 0. -1.
         25    1    1    2    0    0  0.27658998034E+02 -0.60542228982E+02  0.60947837153E+01  0.14174811481E+03  0.12500000000E+03 0.  0.
         25    1    1    2    0    0 -0.89888954249E+02  0.29308180133E+02 -0.23732263231E+03  0.28440468584E+03  0.12500000000E+03 0.  0.
         25    1    1    2    0    0  0.62229956215E+02  0.31234048849E+02  0.30893242260E+02  0.14638143897E+03  0.12500000000E+03 0.  0.
</event>
<event>
 5    0  0.5749909E-005  0.2699121E+03  0.7546771E-02  0.1101330E+00
         21   -1    0    0  502  501  0.00000000000E+00  0.00000000000E+00  0.34228964793E+02  0.34228964793E+02  0.00000000000E+00 0. -1.
         21   -1    0    0  501  502 -0.00000000000E+00 -0.00000000000E+00 -0.21283887890E+04  0.21283887890E+04  0.00000000000E+00 0. -1.
         25    1    1    2    0    0 -0.83394628416E+02  0.17064097256E+02 -0.22392992089E+03  0.27021372454E+03  0.12500000000E+03 0.  0.
         25    1    1    2    0    0  0.66676154302E+02 -0.49020732800E+02 -0.12290009345E+04  0.12381102692E+04  0.12500000000E+03 0.  0.
         25    1    1    2    0    0  0.16718474114E+02  0.31956635544E+02 -0.64122896890E+03  0.65429376009E+03  0.12500000000E+03 0.  0.
</event>
<event>
 5    0  0.5749909E-005  0.3215342E+03  0.7546771E-02  0.1074945E+00
         21   -1    0    0  502  501  0.00000000000E+00  0.00000000000E+00  0.34459308504E+03  0.34459308504E+03  0.00000000000E+00 0.  1.
         21   -1    0    0  501  502 -0.00000000000E+00 -0.00000000000E+00 -0.30001839744E+03  0.30001839744E+03  0.00000000000E+00 0.  1.
         25    1    1    2    0    0 -0.27598671371E+02  0.11817950670E+03  0.11682639244E+03  0.20976531753E+03  0.12500000000E+03 0.  0.
         25    1    1    2    0    0  0.15371559981E+03 -0.12565373219E+03  0.18409569730E+02  0.23533222961E+03  0.12500000000E+03 0.  0.
         25    1    1    2    0    0 -0.12611692844E+03  0.74742254848E+01 -0.90661274570E+02  0.19951393533E+03  0.12500000000E+03 0.  0.
</event>
<event>
 5    0  0.5749909E-005  0.3243058E+03  0.7546771E-02  0.1073685E+00
         21   -1    0    0  502  501  0.00000000000E+00  0.00000000000E+00  0.17871805656E+03  0.17871805656E+03  0.00000000000E+00 0. -1.
         21   -1    0    0  501  502 -0.00000000000E+00 -0.00000000000E+00 -0.58849270158E+03  0.58849270158E+03  0.00000000000E+00 0. -1.
         25    1    1    2    0    0  0.21647021647E+03  0.10633839476E+02 -0.99481149188E+02  0.26924697251E+03  0.12500000000E+03 0.  0.
         25    1    1    2    0    0 -0.15941368660E+03  0.68526522382E+02 -0.24830122591E+03  0.32769972007E+03  0.12500000000E+03 0.  0.
         25    1    1    2    0    0 -0.57056529872E+02 -0.79160361858E+02 -0.61992269923E+02  0.17026406556E+03  0.12500000000E+03 0.  0.
</event>
<event>
 5    0  0.6023001E-005  0.3641648E+03  0.7546771E-02  0.1056947E+00
         21   -1    0    0  502  501  0.00000000000E+00  0.00000000000E+00  0.58216130224E+03  0.58216130224E+03  0.00000000000E+00 0. -1.
         21   -1    0    0  501  502 -0.00000000000E+00 -0.00000000000E+00 -0.22779939581E+03  0.22779939581E+03  0.00000000000E+00 0. -1.
         25    1    1    2    0    0  0.14033124286E+03  0.43059615989E+02 -0.49642400235E+02  0.19908881474E+03  0.12500000000E+03 0.  0.
         25    1    1    2    0    0 -0.11769963469E+02 -0.26601635066E+02  0.41109845845E+03  0.43066590482E+03  0.12500000000E+03 0.  0.
         25    1    1    2    0    0 -0.12856127939E+03 -0.16457980923E+02 -0.70941517912E+01  0.18020597849E+03  0.12500000000E+03 0.  0.
</event>
<event>
 5    0  0.5749909E-005  0.3605750E+03  0.7546771E-02  0.1058356E+00
         21   -1    0    0  502  501  0.00000000000E+00  0.00000000000E+00  0.51523966211E+03  0.51523966211E+03  0.00000000000E+00 0.  1.
         21   -1    0    0  501  502 -0.00000000000E+00 -0.00000000000E+00 -0.25233752006E+03  0.25233752006E+03  0.00000000000E+00 0.  1.
         25    1    1    2    0    0  0.11843822503E+03  0.11401184307E+03  0.44962132583E+02  0.21135966236E+03  0.12500000000E+03 0.  0.
         25    1    1    2    0    0 -0.25308677233E+03 -0.15369992837E+03  0.11142827810E+03  0.34017325508E+03  0.12500000000E+03 0.  0.
         25    1    1    2    0    0  0.13464854730E+03  0.39688085300E+02  0.10651173137E+03  0.21604426473E+03  0.12500000000E+03 0.  0.
</event>
<event>
 5    0  0.5749909E-005  0.3567543E+03  0.7546771E-02  0.1059876E+00
         21   -1    0    0  502  501  0.00000000000E+00  0.00000000000E+00  0.15586563851E+04  0.15586563851E+04  0.00000000000E+00 0. -1.
         21   -1    0    0  501  502 -0.00000000000E+00 -0.00000000000E+00 -0.81655997369E+02  0.81655997369E+02  0.00000000000E+00 0. -1.
         25    1    1    2    0    0  0.83530298084E+02 -0.19126225820E+03  0.26770128751E+03  0.36172854663E+03  0.12500000000E+03 0.  0.
         25    1    1    2    0    0 -0.10071622654E+03  0.10930802163E+03  0.30311218973E+03  0.35999166858E+03  0.12500000000E+03 0.  0.
         25    1    1    2    0    0  0.17185928451E+02  0.81954236562E+02  0.90618691048E+03  0.91859216726E+03  0.12500000000E+03 0.  0.
</event>
<event>
 5    0  0.5749909E-005  0.4175802E+03  0.7546771E-02  0.1037857E+00
         21   -1    0    0  502  501  0.00000000000E+00  0.00000000000E+00  0.53862509064E+03  0.53862509064E+03  0.00000000000E+00 0. -1.
         21   -1    0    0  501  502 -0.00000000000E+00 -0.00000000000E+00 -0.32373759949E+03  0.32373759949E+03  0.00000000000E+00 0. -1.
         25    1    1    2    0    0 -0.92596202800E+02  0.18015800098E+03  0.17054545402E+02  0.23863532766E+03  0.12500000000E+03 0.  0.
         25    1    1    2    0    0  0.15480887233E+03  0.33596973906E+01  0.30915536917E+03  0.36766712772E+03  0.12500000000E+03 0.  0.
         25    1    1    2    0    0 -0.62212669532E+02 -0.18351769837E+03 -0.11132242343E+03  0.25606023475E+03  0.12500000000E+03 0.  0.
</event>
<event>
 5    0  0.5749909E-005  0.3169804E+03  0.7546771E-02  0.1077047E+00
         21   -1    0    0  502  501  0.00000000000E+00  0.00000000000E+00  0.25590322099E+03  0.25590322099E+03  0.00000000000E+00 0.  1.
         21   -1    0    0  501  502 -0.00000000000E+00 -0.00000000000E+00 -0.39263501544E+03  0.39263501544E+03  0.00000000000E+00 0.  1.
         25    1    1    2    0    0 -0.20214227933E+02 -0.75786407768E+02  0.52996717135E+02  0.15679874566E+03  0.12500000000E+03 0.  0.
         25    1    1    2    0    0  0.18122867867E+01 -0.69826330839E+02 -0.25140767739E+03  0.28932649569E+03  0.12500000000E+03 0.  0.
         25    1    1    2    0    0  0.18401941147E+02  0.14561273861E+03  0.61679165801E+02  0.20241299508E+03  0.12500000000E+03 0.  0.
</event>
<event>
 5    0  0.5749909E-005  0.3724781E+03  0.7546771E-02  0.1053749E+00
         21   -1    0    0  502  501  0.00000000000E+00  0.00000000000E+00  0.24095791771E+03  0.24095791771E+03  0.00000000000E+00 0. -1.
         21   -1    0    0  501  502 -0.00000000000E+00 -0.00000000000E+00 -0.57578496690E+03  0.57578496690E+03  0.00000000000E+00 0. -1.
         25    1    1    2    0    0  0.11469554317E+01  0.20214373463E+02  0.29555119897E+02  0.13003246331E+03  0.12500000000E+03 0.  0.
         25    1    1    2    0    0 -0.34840087816E+02  0.72044314198E+02  0.11107353938E+03  0.18538216224E+03  0.12500000000E+03 0.  0.
         25    1    1    2    0    0  0.33693132385E+02 -0.92258687661E+02 -0.47545570846E+03  0.50132825906E+03  0.12500000000E+03 0.  0.
</event>
<event>
 5    0  0.5749909E-005  0.3450568E+03  0.7546771E-02  0.1064662E+00
         21   -1    0    0  502  501  0.00000000000E+00  0.00000000000E+00  0.12389226359E+03  0.12389226359E+03  0.00000000000E+00 0.  1.
         21   -1    0    0  501  502 -0.00000000000E+00 -0.00000000000E+00 -0.96103020169E+03  0.96103020169E+03  0.00000000000E+00 0.  1.
         25    1    1    2    0    0 -0.37471254256E+02  0.23088272094E+03 -0.18570360133E+03  0.32376187742E+03  0.12500000000E+03 0.  0.
         25    1    1    2    0    0 -0.69282071629E+02 -0.13921533845E+03 -0.26891834410E+03  0.33484771419E+03  0.12500000000E+03 0.  0.
         25    1    1    2    0    0  0.10675332589E+03 -0.91667382493E+02 -0.38251599268E+03  0.42631287367E+03  0.12500000000E+03 0.  0.
</event>
<event>
 5    0  0.5749909E-005  0.2707685E+03  0.7546771E-02  0.1100841E+00
         21   -1    0    0  502  501  0.00000000000E+00  0.00000000000E+00  0.65242597597E+03  0.65242597597E+03  0.00000000000E+00 0. -1.
         21   -1    0    0  501  502 -0.00000000000E+00 -0.00000000000E+00 -0.11237382425E+03  0.11237382425E+03  0.00000000000E+00 0. -1.
         25    1    1    2    0    0  0.12330208938E+03 -0.29455742180E+02  0.35834758127E+03  0.40013627054E+03  0.12500000000E+03 0.  0.
         25    1    1    2    0    0 -0.26436447936E+02  0.67057103046E+02  0.41872041583E+02  0.15024582761E+03  0.12500000000E+03 0.  0.
         25    1    1    2    0    0 -0.96865641446E+02 -0.37601360866E+02  0.13983252886E+03  0.21441770207E+03  0.12500000000E+03 0.  0.
</event>
<event>
 5    0  0.5749909E-005  0.3295982E+03  0.7546771E-02  0.1071315E+00
         21   -1    0    0  502  501  0.00000000000E+00  0.00000000000E+00  0.13797981286E+03  0.13797981286E+03  0.00000000000E+00 0. -1.
         21   -1    0    0  501  502 -0.00000000000E+00 -0.00000000000E+00 -0.78732529830E+03  0.78732529830E+03  0.00000000000E+00 0. -1.
         25    1    1    2    0    0 -0.20394804323E+02 -0.25091903768E+03 -0.27157176352E+03  0.39083568703E+03  0.12500000000E+03 0.  0.
         25    1    1    2    0    0  0.52286118940E+02  0.15812266082E+03 -0.27607035285E+03  0.34579828487E+03  0.12500000000E+03 0.  0.
         25    1    1    2    0    0 -0.31891314617E+02  0.92796376869E+02 -0.10170336906E+03  0.18867113925E+03  0.12500000000E+03 0.  0.
</event>
<event>
 5    0  0.5749909E-005  0.2194265E+03  0.7546771E-02  0.1134311E+00
         21   -1    0    0  502  501  0.00000000000E+00  0.00000000000E+00  0.16448782603E+03  0.16448782603E+03  0.00000000000E+00 0.  1.
         21   -1    0    0  501  502 -0.00000000000E+00 -0.00000000000E+00 -0.29271466300E+03  0.29271466300E+03  0.00000000000E+00 0.  1.
         25    1    1    2    0    0  0.50227596493E+02 -0.71410031228E+00 -0.83999643970E+02  0.15875850080E+03  0.12500000000E+03 0.  0.
         25    1    1    2    0    0 -0.75995966807E+02 -0.52511620584E+02 -0.38081704098E+02  0.16002522756E+03  0.12500000000E+03 0.  0.
         25    1    1    2    0    0  0.25768370314E+02  0.53225720896E+02 -0.61454889070E+01  0.13841876068E+03  0.12500000000E+03 0.  0.
</event>
<event>
 5    0  0.5749909E-005  0.3053875E+03  0.7546771E-02  0.1082578E+00
         21   -1    0    0  502  501  0.00000000000E+00  0.00000000000E+00  0.30105909846E+04  0.30105909846E+04  0.00000000000E+00 0. -1.
         21   -1    0    0  501  502 -0.00000000000E+00 -0.00000000000E+00 -0.30977812399E+02  0.30977812399E+02  0.00000000000E+00 0. -1.
         25    1    1    2    0    0  0.64636157417E+02 -0.10759235901E+03  0.19751578140E+04  0.19830853080E+04  0.12500000000E+03 0.  0.
         25    1    1    2    0    0 -0.95965692726E+02 -0.62684587665E+01  0.56442979720E+03  0.58605008636E+03  0.12500000000E+03 0.  0.
         25    1    1    2    0    0  0.31329535309E+02  0.11386081778E+03  0.44002556106E+03  0.47243340270E+03  0.12500000000E+03 0.  0.
</event>
<event>
 5    0  0.5749909E-005  0.3454148E+03  0.7546771E-02  0.1064513E+00
         21   -1    0    0  502  501  0.00000000000E+00  0.00000000000E+00  0.89485786840E+02  0.89485786840E+02  0.00000000000E+00 0.  1.
         21   -1    0    0  501  502 -0.00000000000E+00 -0.00000000000E+00 -0.13332996444E+04  0.13332996444E+04  0.00000000000E+00 0.  1.
         25    1    1    2    0    0  0.24527394947E+02 -0.73800963603E+02 -0.46317328379E+02  0.15433233699E+03  0.12500000000E+03 0.  0.
         25    1    1    2    0    0 -0.61454724038E+02 -0.12055706738E+03 -0.53880557085E+03  0.56942702147E+03  0.12500000000E+03 0.  0.
         25    1    1    2    0    0  0.36927329091E+02  0.19435803098E+03 -0.65869095831E+03  0.69902607276E+03  0.12500000000E+03 0.  0.
</event>
<event>
 5    0  0.5930025E-005  0.6838038E+03  0.7546771E-02  0.9745338E-01
         21   -1    0    0  502  501  0.00000000000E+00  0.00000000000E+00  0.61806870947E+03  0.61806870947E+03  0.00000000000E+00 0. -1.
         21   -1    0    0  501  502 -0.00000000000E+00 -0.00000000000E+00 -0.75653021966E+03  0.75653021966E+03  0.00000000000E+00 0. -1.
         25    1    1    2    0    0 -0.15435276602E+03  0.48329585825E+03 -0.50295211147E+02  0.52493263496E+03  0.12500000000E+03 0.  0.
         25    1    1    2    0    0 -0.15578343027E+03 -0.44594456442E+03  0.38521018039E+02  0.49014681526E+03  0.12500000000E+03 0.  0.
         25    1    1    2    0    0  0.31013619629E+03 -0.37351293834E+02 -0.12668731709E+03  0.35951947890E+03  0.12500000000E+03 0.  0.
</event>
<event>
 5    0  0.5749909E-005  0.3845222E+03  0.7546771E-02  0.1049275E+00
         21   -1    0    0  502  501  0.00000000000E+00  0.00000000000E+00  0.12197545277E+03  0.12197545277E+03  0.00000000000E+00 0.  1.
         21   -1    0    0  501  502 -0.00000000000E+00 -0.00000000000E+00 -0.12121889426E+04  0.12121889426E+04  0.00000000000E+00 0.  1.
         25    1    1    2    0    0 -0.10241275010E+03  0.68750650775E+02 -0.15039077171E+03  0.23120858025E+03  0.12500000000E+03 0.  0.
         25    1    1    2    0    0 -0.14475334841E+03 -0.15502321402E+03 -0.64018831434E+03  0.68589489471E+03  0.12500000000E+03 0.  0.
         25    1    1    2    0    0  0.24716609851E+03  0.86272563247E+02 -0.29963440381E+03  0.41706092045E+03  0.12500000000E+03 0.  0.
</event>
<event>
 5    0  0.5749909E-005  0.5628976E+03  0.7546771E-02  0.9985519E-01
         21   -1    0    0  502  501  0.00000000000E+00  0.00000000000E+00  0.34192131623E+03  0.34192131623E+03  0.00000000000E+00 0.  1.
         21   -1    0    0  501  502 -0.00000000000E+00 -0.00000000000E+00 -0.92668616919E+03  0.92668616919E+03  0.00000000000E+00 0.  1.
         25    1    1    2    0    0 -0.37370097856E+03  0.66536508998E+02 -0.59554915756E+03  0.71720521992E+03  0.12500000000E+03 0.  0.
         25    1    1    2    0    0  0.34871558892E+03 -0.68555408402E+02 -0.91811477599E+02  0.38775862776E+03  0.12500000000E+03 0.  0.
         25    1    1    2    0    0  0.24985389640E+02  0.20188994040E+01  0.10259578220E+03  0.16364363775E+03  0.12500000000E+03 0.  0.
</event>
<event>
 5    0  0.5749909E-005  0.2610783E+03  0.7546771E-02  0.1106497E+00
         21   -1    0    0  502  501  0.00000000000E+00  0.00000000000E+00  0.24977625651E+03  0.24977625651E+03  0.00000000000E+00 0.  1.
         21   -1    0    0  501  502 -0.00000000000E+00 -0.00000000000E+00 -0.27289183385E+03  0.27289183385E+03  0.00000000000E+00 0.  1.
         25    1    1    2    0    0  0.47191005565E+02  0.25229835774E+02  0.60485076399E+02  0.14881861472E+03  0.12500000000E+03 0.  0.
         25    1    1    2    0    0  0.26127963587E+02 -0.13248609827E+03 -0.46153264319E+02  0.18971125566E+03  0.12500000000E+03 0.  0.
         25    1    1    2    0    0 -0.73318969152E+02  0.10725626250E+03 -0.37447389424E+02  0.18413821998E+03  0.12500000000E+03 0.  0.
</event>
<event>
 5    0  0.5749909E-005  0.3252035E+03  0.7546771E-02  0.1073279E+00
         21   -1    0    0  502  501  0.00000000000E+00  0.00000000000E+00  0.23871194039E+03  0.23871194039E+03  0.00000000000E+00 0. -1.
         21   -1    0    0  501  502 -0.00000000000E+00 -0.00000000000E+00 -0.44303313057E+03  0.44303313057E+03  0.00000000000E+00 0. -1.
         25    1    1    2    0    0 -0.16136206580E+03  0.47021968410E+02 -0.27331782454E+03  0.34434926311E+03  0.12500000000E+03 0.  0.
         25    1    1    2    0    0  0.47735381940E+02  0.37180141442E+02  0.82752651990E+01  0.13912048599E+03  0.12500000000E+03 0.  0.
         25    1    1    2    0    0  0.11362668386E+03 -0.84202109852E+02  0.60721369160E+02  0.19827532187E+03  0.12500000000E+03 0.  0.
</event>
<event>
 5    0  0.5749909E-005  0.6840196E+03  0.7546771E-02  0.9744958E-01
         21   -1    0    0  502  501  0.00000000000E+00  0.00000000000E+00  0.50512280933E+03  0.50512280933E+03  0.00000000000E+00 0.  1.
         21   -1    0    0  501  502 -0.00000000000E+00 -0.00000000000E+00 -0.92627548168E+03  0.92627548168E+03  0.00000000000E+00 0.  1.
         25    1    1    2    0    0  0.14360186410E+03 -0.37284303840E+03 -0.64532236701E+03  0.76921998416E+03  0.12500000000E+03 0.  0.
         25    1    1    2    0    0 -0.24597344488E+03  0.87315019514E+02  0.60953018875E+02  0.29574840444E+03  0.12500000000E+03 0.  0.
         25    1    1    2    0    0  0.10237158079E+03  0.28552801889E+03  0.16321667578E+03  0.36642990241E+03  0.12500000000E+03 0.  0.
</event>
<event>
 5    0  0.5749909E-005  0.3005064E+03  0.7546771E-02  0.1084988E+00
         21   -1    0    0  502  501  0.00000000000E+00  0.00000000000E+00  0.79276839503E+03  0.79276839503E+03  0.00000000000E+00 0. -1.
         21   -1    0    0  501  502 -0.00000000000E+00 -0.00000000000E+00 -0.11390982889E+03  0.11390982889E+03  0.00000000000E+00 0. -1.
         25    1    1    2    0    0 -0.90277386059E+01  0.19738033547E+03  0.16262764626E+03  0.28480387677E+03  0.12500000000E+03 0.  0.
         25    1    1    2    0    0 -0.48332995810E+02 -0.91548243527E+02  0.32734170556E+03  0.36536933585E+03  0.12500000000E+03 0.  0.
         25    1    1    2    0    0  0.57360734416E+02 -0.10583209195E+03  0.18888921431E+03  0.25650501130E+03  0.12500000000E+03 0.  0.
</event>
<event>
 5    0  0.5749909E-005  0.3398445E+03  0.7546771E-02  0.1066862E+00
         21   -1    0    0  502  501  0.00000000000E+00  0.00000000000E+00  0.28891226120E+02  0.28891226120E+02  0.00000000000E+00 0. -1.
         21   -1    0    0  501  502 -0.00000000000E+00 -0.00000000000E+00 -0.39975566340E+04  0.39975566340E+04  0.00000000000E+00 0. -1.
         25    1    1    2    0    0  0.69038863388E+02 -0.13621526204E+03 -0.10775370999E+04  0.10954597957E+04  0.12500000000E+03 0.  0.
         25    1    1    2    0    0  0.15800829189E+03  0.62896737091E+02 -0.11635741822E+04  0.11825618366E+04  0.12500000000E+03 0.  0.
         25    1    1    2    0    0 -0.22704715528E+03  0.73318524949E+02 -0.17275541258E+04  0.17484262279E+04  0.12500000000E+03 0.  0.
</event>
<event>
 5    0  0.5749909E-005  0.2349615E+03  0.7546771E-02  0.1123196E+00
         21   -1    0    0  502  501  0.00000000000E+00  0.00000000000E+00  0.11297638714E+04  0.11297638714E+04  0.00000000000E+00 0.  1.
         21   -1    0    0  501  502 -0.00000000000E+00 -0.00000000000E+00 -0.48865867154E+02  0.48865867154E+02  0.00000000000E+00 0.  1.
         25    1    1    2    0    0 -0.50257629628E+02  0.19659424224E+02  0.68157240207E+03  0.69503831661E+03  0.12500000000E+03 0.  0.
         25    1    1    2    0    0  0.53450936793E+02 -0.47904615531E+02  0.19776972426E+03  0.24472375992E+03  0.12500000000E+03 0.  0.
         25    1    1    2    0    0 -0.31933071655E+01  0.28245191307E+02  0.20155587796E+03  0.23886766207E+03  0.12500000000E+03 0.  0.
</event>
<event>
 5    0  0.5749909E-005  0.5435027E+03  0.7546771E-02  0.1003009E+00
         21   -1    0    0  502  501  0.00000000000E+00  0.00000000000E+00  0.48246990336E+03  0.48246990336E+03  0.00000000000E+00 0.  1.
         21   -1    0    0  501  502 -0.00000000000E+00 -0.00000000000E+00 -0.61225614175E+03  0.61225614175E+03  0.00000000000E+00 0.  1.
         25    1    1    2    0    0  0.64320556056E+02  0.13512995021E+03 -0.15611999488E+03  0.24979129324E+03  0.12500000000E+03 0.  0.
         25    1    1    2    0    0  0.35378723989E+03 -0.14279633152E+03  0.65253764673E+02  0.40674224911E+03  0.12500000000E+03 0.  0.
         25    1    1    2    0    0 -0.41810779595E+03  0.76663813085E+01 -0.38920008184E+02  0.43819250276E+03  0.12500000000E+03 0.  0.
</event>
<event>
 5    0  0.5749909E-005  0.2686611E+03  0.7546771E-02  0.1102048E+00
         21   -1    0    0  502  501  0.00000000000E+00  0.00000000000E+00  0.19719983088E+03  0.19719983088E+03  0.00000000000E+00 0. -1.
         21   -1    0    0  501  502 -0.00000000000E+00 -0.00000000000E+00 -0.36601842124E+03  0.36601842124E+03  0.00000000000E+00 0. -1.
         25    1    1    2    0    0 -0.11811729219E+03 -0.72403534769E+02 -0.41120899821E+02  0.19107562630E+03  0.12500000000E+03 0.  0.
         25    1    1    2    0    0  0.43891896650E+02  0.55154415223E+02  0.40546319309E+02  0.14912247356E+03  0.12500000000E+03 0.  0.
         25    1    1    2    0    0  0.74225395543E+02  0.17249119547E+02 -0.16824400985E+03  0.22302015227E+03  0.12500000000E+03 0.  0.
</event>
<event>
 5    0  0.5749909E-005  0.2419570E+03  0.7546771E-02  0.1118496E+00
         21   -1    0    0  502  501  0.00000000000E+00  0.00000000000E+00  0.21286868622E+03  0.21286868622E+03  0.00000000000E+00 0.  1.
         21   -1    0    0  501  502 -0.00000000000E+00 -0.00000000000E+00 -0.27502021281E+03  0.27502021281E+03  0.00000000000E+00 0.  1.
         25    1    1    2    0    0 -0.68031901756E+02  0.67746187443E+02  0.64988741438E+02  0.17048877407E+03  0.12500000000E+03 0.  0.
         25    1    1    2    0    0 -0.20163532895E+02 -0.51347735855E+02 -0.67395167348E+02  0.15234916021E+03  0.12500000000E+03 0.  0.
         25    1    1    2    0    0  0.88195434651E+02 -0.16398451588E+02 -0.59745100688E+02  0.16505096475E+03  0.12500000000E+03 0.  0.
</event>
<event>
 5    0  0.5749909E-005  0.3805264E+03  0.7546771E-02  0.1050739E+00
         21   -1    0    0  502  501  0.00000000000E+00  0.00000000000E+00  0.58546990661E+02  0.58546990661E+02  0.00000000000E+00 0. -1.
         21   -1    0    0  501  502 -0.00000000000E+00 -0.00000000000E+00 -0.24732329311E+04  0.24732329311E+04  0.00000000000E+00 0. -1.
         25    1    1    2    0    0  0.24907925177E+02  0.23402619664E+02 -0.14702983568E+04  0.14759980845E+04  0.12500000000E+03 0.  0.
         25    1    1    2    0    0 -0.18203727942E+03  0.25270934717E+02 -0.70683384842E+03  0.74095565354E+03  0.12500000000E+03 0.  0.
         25    1    1    2    0    0  0.15712935424E+03 -0.48673554381E+02 -0.23755373522E+03  0.31482618375E+03  0.12500000000E+03 0.  0.
</event>
<event>
 5    0  0.5749909E-005  0.5408654E+03  0.7546771E-02  0.1003631E+00
         21   -1    0    0  502  501  0.00000000000E+00  0.00000000000E+00  0.33380194394E+03  0.33380194394E+03  0.00000000000E+00 0.  1.
         21   -1    0    0  501  502 -0.00000000000E+00 -0.00000000000E+00 -0.87637421869E+03  0.87637421869E+03  0.00000000000E+00 0.  1.
         25    1    1    2    0    0 -0.36068698479E+02  0.19715596061E+03 -0.28025000251E+02  0.23786934324E+03  0.12500000000E+03 0.  0.
         25    1    1    2    0    0  0.38412743750E+03 -0.31861632590E+02 -0.34869661321E+03  0.53458711165E+03  0.12500000000E+03 0.  0.
         25    1    1    2    0    0 -0.34805873902E+03 -0.16529432802E+03 -0.16585066129E+03  0.43771970773E+03  0.12500000000E+03 0.  0.
</event>
<event>
 5    0  0.5749909E-005  0.4926835E+03  0.7546771E-02  0.1015706E+00
         21   -1    0    0  502  501  0.00000000000E+00  0.00000000000E+00  0.70792481413E+03  0.70792481413E+03  0.00000000000E+00 0. -1.
         21   -1    0    0  501  502 -0.00000000000E+00 -0.00000000000E+00 -0.34288539398E+03  0.34288539398E+03  0.00000000000E+00 0. -1.
         25    1    1    2    0    0 -0.23039217301E+03 -0.68661619070E+02  0.14381502308E+03  0.30676168630E+03  0.12500000000E+03 0.  0.
         25    1    1    2    0    0 -0.10647082002E+02  0.31352949478E+03  0.53979405887E+02  0.34198374334E+03  0.12500000000E+03 0.  0.
         25    1    1    2    0    0  0.24103925501E+03 -0.24486787571E+03  0.16724499119E+03  0.40206477847E+03  0.12500000000E+03 0.  0.
</event>
<event>
 5    0  0.5749909E-005  0.4460300E+03  0.7546771E-02  0.1028913E+00
         21   -1    0    0  502  501  0.00000000000E+00  0.00000000000E+00  0.55639350853E+03  0.55639350853E+03  0.00000000000E+00 0. -1.
         21   -1    0    0  501  502 -0.00000000000E+00 -0.00000000000E+00 -0.35755759555E+03  0.35755759555E+03  0.00000000000E+00 0. -1.
         25    1    1    2    0    0  0.46301246081E+02  0.17065707990E+03  0.29975523392E+03  0.36979162317E+03  0.12500000000E+03 0.  0.
         25    1    1    2    0    0  0.10867257984E+03  0.10338882011E+03 -0.23262537932E+02  0.19663449190E+03  0.12500000000E+03 0.  0.
         25    1    1    2    0    0 -0.15497382592E+03 -0.27404590001E+03 -0.77656783010E+02  0.34752498900E+03  0.12500000000E+03 0.  0.
</event>
<event>
 5    0  0.5749909E-005  0.3033225E+03  0.7546771E-02  0.1083591E+00
         21   -1    0    0  502  501  0.00000000000E+00  0.00000000000E+00  0.39352032793E+03  0.39352032793E+03  0.00000000000E+00 0.  1.
         21   -1    0    0  501  502 -0.00000000000E+00 -0.00000000000E+00 -0.23379862255E+03  0.23379862255E+03  0.00000000000E+00 0. -1.
         25    1    1    2    0    0 -0.26964101890E+02 -0.94211842894E+02  0.10008162769E+03  0.18773456350E+03  0.12500000000E+03 0.  0.
         25    1    1    2    0    0  0.70776242246E+02 -0.11265032804E+03  0.65319258192E+02  0.19388393013E+03  0.12500000000E+03 0.  0.
         25    1    1    2    0    0 -0.43812140357E+02  0.20686217093E+03 -0.56791804974E+01  0.24570045685E+03  0.12500000000E+03 0.  0.
</event>
<event>
 5    0  0.5749909E-005  0.2299912E+03  0.7546771E-02  0.1126646E+00
         21   -1    0    0  502  501  0.00000000000E+00  0.00000000000E+00  0.59754225902E+03  0.59754225902E+03  0.00000000000E+00 0. -1.
         21   -1    0    0  501  502 -0.00000000000E+00 -0.00000000000E+00 -0.88522567418E+02  0.88522567418E+02  0.00000000000E+00 0. -1.
         25    1    1    2    0    0 -0.30792059959E+01  0.75636055052E+02  0.33466945941E+03  0.36518343527E+03  0.12500000000E+03 0.  0.
         25    1    1    2    0    0  0.43168186780E+01 -0.75999338947E+01  0.63453833707E+02  0.14045562620E+03  0.12500000000E+03 0.  0.
         25    1    1    2    0    0 -0.12376126821E+01 -0.68036121157E+02  0.11089639848E+03  0.18042576496E+03  0.12500000000E+03 0.  0.
</event>
<event>
 5    0  0.5749909E-005  0.2179375E+03  0.7546771E-02  0.1135430E+00
         21   -1    0    0  502  501  0.00000000000E+00  0.00000000000E+00  0.18105258754E+03  0.18105258754E+03  0.00000000000E+00 0. -1.
         21   -1    0    0  501  502 -0.00000000000E+00 -0.00000000000E+00 -0.26233676144E+03  0.26233676144E+03  0.00000000000E+00 0. -1.
         25    1    1    2    0    0 -0.88632264032E+02  0.11562864135E+02 -0.35870882860E+02  0.15780081841E+03  0.12500000000E+03 0.  0.
         25    1    1    2    0    0  0.17901850881E+02 -0.32299872645E+02 -0.51988272049E+02  0.14032654228E+03  0.12500000000E+03 0.  0.
         25    1    1    2    0    0  0.70730413150E+02  0.20737008510E+02  0.65749810141E+01  0.14526198829E+03  0.12500000000E+03 0.  0.
</event>
<event>
 5    0  0.6622710E-005  0.3193376E+03  0.7546771E-02  0.1075955E+00
         21   -1    0    0  502  501  0.00000000000E+00  0.00000000000E+00  0.19086303872E+03  0.19086303872E+03  0.00000000000E+00 0. -1.
         21   -1    0    0  501  502 -0.00000000000E+00 -0.00000000000E+00 -0.53429151289E+03  0.53429151289E+03  0.00000000000E+00 0. -1.
         25    1    1    2    0    0 -0.62255158828E+02  0.24633892467E+02  0.57679035912E+02  0.15308299919E+03  0.12500000000E+03 0.  0.
         25    1    1    2    0    0 -0.24647330406E+01 -0.15475646180E+03 -0.12166915600E+03  0.23320381836E+03  0.12500000000E+03 0.  0.
         25    1    1    2    0    0  0.64719891869E+02  0.13012256933E+03 -0.27943835408E+03  0.33886773405E+03  0.12500000000E+03 0.  0.
</event>
<event>
 5    0  0.5749909E-005  0.4857443E+03  0.7546771E-02  0.1017568E+00
         21   -1    0    0  502  501  0.00000000000E+00  0.00000000000E+00  0.10459132278E+04  0.10459132278E+04  0.00000000000E+00 0.  1.
         21   -1    0    0  501  502 -0.00000000000E+00 -0.00000000000E+00 -0.22558998926E+03  0.22558998926E+03  0.00000000000E+00 0.  1.
         25    1    1    2    0    0 -0.16168202014E+03 -0.44095815083E+02  0.29249705662E+03  0.35953448329E+03  0.12500000000E+03 0.  0.
         25    1    1    2    0    0  0.21013572708E+03  0.24238845131E+03  0.13360837395E+02  0.34454708981E+03  0.12500000000E+03 0.  0.
         25    1    1    2    0    0 -0.48453706938E+02 -0.19829263623E+03  0.51446534450E+03  0.56742164392E+03  0.12500000000E+03 0.  0.
</event>
<event>
 5    0  0.5749909E-005  0.3091977E+03  0.7546771E-02  0.1080731E+00
         21   -1    0    0  502  501  0.00000000000E+00  0.00000000000E+00  0.19024827033E+03  0.19024827033E+03  0.00000000000E+00 0.  1.
         21   -1    0    0  501  502 -0.00000000000E+00 -0.00000000000E+00 -0.50251831119E+03  0.50251831119E+03  0.00000000000E+00 0.  1.
         25    1    1    2    0    0 -0.32324347440E+01  0.74605892594E+02 -0.25095077055E+03  0.29013406743E+03  0.12500000000E+03 0.  0.
         25    1    1    2    0    0  0.62729169640E+02 -0.11735265709E+03  0.80826199295E+02  0.19966088586E+03  0.12500000000E+03 0.  0.
         25    1    1    2    0    0 -0.59496734896E+02  0.42746764500E+02 -0.14214546959E+03  0.20297162823E+03  0.12500000000E+03 0.  0.
</event>
<event>
 5    0  0.5749909E-005  0.2074603E+03  0.7546771E-02  0.1143593E+00
         21   -1    0    0  502  501  0.00000000000E+00  0.00000000000E+00  0.30448442410E+02  0.30448442410E+02  0.00000000000E+00 0. -1.
         21   -1    0    0  501  502 -0.00000000000E+00 -0.00000000000E+00 -0.14135302737E+04  0.14135302737E+04  0.00000000000E+00 0. -1.
         25    1    1    2    0    0 -0.28535016898E+02 -0.40901128361E+02 -0.58316591822E+03  0.59849364046E+03  0.12500000000E+03 0.  0.
         25    1    1    2    0    0  0.18813060464E+02  0.59208948368E+02 -0.31990956680E+03  0.34903690599E+03  0.12500000000E+03 0.  0.
         25    1    1    2    0    0  0.97219564337E+01 -0.18307820007E+02 -0.48000634632E+03  0.49644816972E+03  0.12500000000E+03 0.  0.
</event>
<event>
 5    0  0.5749909E-005  0.3816528E+03  0.7546771E-02  0.1050325E+00
         21   -1    0    0  502  501  0.00000000000E+00  0.00000000000E+00  0.70378059398E+03  0.70378059398E+03  0.00000000000E+00 0. -1.
         21   -1    0    0  501  502 -0.00000000000E+00 -0.00000000000E+00 -0.20696626050E+03  0.20696626050E+03  0.00000000000E+00 0. -1.
         25    1    1    2    0    0 -0.14107643511E+03  0.20325978291E+03  0.17448751996E+03  0.32754846132E+03  0.12500000000E+03 0.  0.
         25    1    1    2    0    0 -0.10146800080E+03 -0.11445952446E+03  0.15444625605E+03  0.25074964394E+03  0.12500000000E+03 0.  0.
         25    1    1    2    0    0  0.24254443591E+03 -0.88800258449E+02  0.16788055746E+03  0.33244874923E+03  0.12500000000E+03 0.  0.
</event>
<event>
 5    0  0.5749909E-005  0.3757627E+03  0.7546771E-02  0.1052511E+00
         21   -1    0    0  502  501  0.00000000000E+00  0.00000000000E+00  0.15363105804E+03  0.15363105804E+03  0.00000000000E+00 0.  1.
         21   -1    0    0  501  502 -0.00000000000E+00 -0.00000000000E+00 -0.91906950582E+03  0.91906950582E+03  0.00000000000E+00 0.  1.
         25    1    1    2    0    0 -0.49915840498E+02  0.68411431713E+02  0.42999260652E+02  0.15698933575E+03  0.12500000000E+03 0.  0.
         25    1    1    2    0    0  0.10107802503E+03  0.11734712033E+03 -0.41187341108E+03  0.45744051039E+03  0.12500000000E+03 0.  0.
         25    1    1    2    0    0 -0.51162184532E+02 -0.18575855204E+03 -0.39656429736E+03  0.45827071773E+03  0.12500000000E+03 0.  0.
</event>
<event>
 5    0  0.5749909E-005  0.4157494E+03  0.7546771E-02  0.1038459E+00
         21   -1    0    0  502  501  0.00000000000E+00  0.00000000000E+00  0.26903118688E+03  0.26903118688E+03  0.00000000000E+00 0.  1.
         21   -1    0    0  501  502 -0.00000000000E+00 -0.00000000000E+00 -0.64248141000E+03  0.64248141000E+03  0.00000000000E+00 0.  1.
         25    1    1    2    0    0  0.58721949403E+02  0.54821926852E+02 -0.16030807785E+03  0.21858039901E+03  0.12500000000E+03 0.  0.
         25    1    1    2    0    0 -0.73155323759E+02 -0.65853460621E+02  0.20307045890E+03  0.25797478743E+03  0.12500000000E+03 0.  0.
         25    1    1    2    0    0  0.14433374356E+02  0.11031533769E+02 -0.41621260417E+03  0.43495741045E+03  0.12500000000E+03 0.  0.
</event>
<event>
 5    0  0.5749909E-005  0.2499111E+03  0.7546771E-02  0.1113361E+00
         21   -1    0    0  502  501  0.00000000000E+00  0.00000000000E+00  0.13636292319E+04  0.13636292319E+04  0.00000000000E+00 0. -1.
         21   -1    0    0  501  502 -0.00000000000E+00 -0.00000000000E+00 -0.45800997943E+02  0.45800997943E+02  0.00000000000E+00 0. -1.
         25    1    1    2    0    0  0.45364520711E+02 -0.30067613319E+02  0.13216658487E+03  0.18988156115E+03  0.12500000000E+03 0.  0.
         25    1    1    2    0    0 -0.16585059599E+02  0.13843025501E+02  0.85755764648E+03  0.86688915704E+03  0.12500000000E+03 0.  0.
         25    1    1    2    0    0 -0.28779461112E+02  0.16224587819E+02  0.32810400266E+03  0.35265951170E+03  0.12500000000E+03 0.  0.
</event>
<event>
 5    0  0.5749909E-005  0.4460262E+03  0.7546771E-02  0.1028914E+00
         21   -1    0    0  502  501  0.00000000000E+00  0.00000000000E+00  0.20437038108E+03  0.20437038108E+03  0.00000000000E+00 0.  1.
         21   -1    0    0  501  502 -0.00000000000E+00 -0.00000000000E+00 -0.97342576261E+03  0.97342576261E+03  0.00000000000E+00 0.  1.
         25    1    1    2    0    0 -0.28578185158E+03 -0.22113606822E+01 -0.57407475400E+02  0.31716994662E+03  0.12500000000E+03 0.  0.
         25    1    1    2    0    0  0.22902155181E+03  0.13085207302E+03 -0.48510125805E+03  0.56614606487E+03  0.12500000000E+03 0.  0.
         25    1    1    2    0    0  0.56760299766E+02 -0.12864071234E+03 -0.22654664808E+03  0.29448013220E+03  0.12500000000E+03 0.  0.
</event>
<event>
 5    0  0.5749909E-005  0.3603057E+03  0.7546771E-02  0.1058463E+00
         21   -1    0    0  502  501  0.00000000000E+00  0.00000000000E+00  0.58990297111E+03  0.58990297111E+03  0.00000000000E+00 0. -1.
         21   -1    0    0  501  502 -0.00000000000E+00 -0.00000000000E+00 -0.22007048488E+03  0.22007048488E+03  0.00000000000E+00 0. -1.
         25    1    1    2    0    0 -0.16310505159E+03 -0.68057924189E+02 -0.50357615878E+02  0.22225217294E+03  0.12500000000E+03 0.  0.
         25    1    1    2    0    0  0.20561658302E+03  0.11558909424E+03  0.31140171076E+03  0.41016465399E+03  0.12500000000E+03 0.  0.
         25    1    1    2    0    0 -0.42511531424E+02 -0.47531170050E+02  0.10878839134E+03  0.17755662905E+03  0.12500000000E+03 0.  0.
</event>
<event>
 5    0  0.5749909E-005  0.3905647E+03  0.7546771E-02  0.1047097E+00
         21   -1    0    0  502  501  0.00000000000E+00  0.00000000000E+00  0.44880233884E+03  0.44880233884E+03  0.00000000000E+00 0. -1.
         21   -1    0    0  501  502 -0.00000000000E+00 -0.00000000000E+00 -0.33988409227E+03  0.33988409227E+03  0.00000000000E+00 0. -1.
         25    1    1    2    0    0  0.16996488361E+02 -0.18479788060E+03  0.46155625724E+02  0.22846111065E+03  0.12500000000E+03 0.  0.
         25    1    1    2    0    0 -0.16490044539E+03 -0.67176686476E+02  0.10152604413E+03  0.24007790763E+03  0.12500000000E+03 0.  0.
         25    1    1    2    0    0  0.14790395703E+03  0.25197456708E+03 -0.38763423279E+02  0.32014741283E+03  0.12500000000E+03 0.  0.
</event>
<event>
 5    0  0.5749909E-005  0.2862816E+03  0.7546771E-02  0.1092307E+00
         21   -1    0    0  502  501  0.00000000000E+00  0.00000000000E+00  0.15290877782E+03  0.15290877782E+03  0.00000000000E+00 0.  1.
         21   -1    0    0  501  502 -0.00000000000E+00 -0.00000000000E+00 -0.53598741194E+03  0.53598741194E+03  0.00000000000E+00 0.  1.
         25    1    1    2    0    0 -0.35151538311E+01  0.17628599350E+03 -0.46253809449E+02  0.22102833008E+03  0.12500000000E+03 0.  0.
         25    1    1    2    0    0  0.49437089360E+02 -0.61336078912E+02 -0.13505947869E+03  0.20018042653E+03  0.12500000000E+03 0.  0.
         25    1    1    2    0    0 -0.45921935529E+02 -0.11494991459E+03 -0.20176534598E+03  0.26768743315E+03  0.12500000000E+03 0.  0.
</event>
<event>
 5    0  0.5749909E-005  0.2780257E+03  0.7546771E-02  0.1096772E+00
         21   -1    0    0  502  501  0.00000000000E+00  0.00000000000E+00  0.58554540358E+03  0.58554540358E+03  0.00000000000E+00 0.  1.
         21   -1    0    0  501  502 -0.00000000000E+00 -0.00000000000E+00 -0.13201079210E+03  0.13201079210E+03  0.00000000000E+00 0.  1.
         25    1    1    2    0    0 -0.15413808449E+03 -0.53351466236E+02  0.20977353979E+03  0.29365773622E+03  0.12500000000E+03 0.  0.
         25    1    1    2    0    0  0.11869752357E+03 -0.46766738555E+02  0.15966330356E+03  0.23956961502E+03  0.12500000000E+03 0.  0.
         25    1    1    2    0    0  0.35440560924E+02  0.10011820479E+03  0.84097768130E+02  0.18432884444E+03  0.12500000000E+03 0.  0.
</event>
<event>
 5    0  0.5749909E-005  0.2559542E+03  0.7546771E-02  0.1109599E+00
         21   -1    0    0  502  501  0.00000000000E+00  0.00000000000E+00  0.11431372093E+04  0.11431372093E+04  0.00000000000E+00 0. -1.
         21   -1    0    0  501  502 -0.00000000000E+00 -0.00000000000E+00 -0.57309443154E+02  0.57309443154E+02  0.00000000000E+00 0. -1.
         25    1    1    2    0    0 -0.20286489363E+02  0.33930925516E+02  0.28408972710E+03  0.31288148299E+03  0.12500000000E+03 0.  0.
         25    1    1    2    0    0  0.42613493210E+02 -0.15490139892E+03  0.38695472457E+03  0.43722912993E+03  0.12500000000E+03 0.  0.
         25    1    1    2    0    0 -0.22327003847E+02  0.12097047340E+03  0.41478331450E+03  0.45033603956E+03  0.12500000000E+03 0.  0.
</event>
<event>
 5    0  0.5749909E-005  0.3991760E+03  0.7546771E-02  0.1044065E+00
         21   -1    0    0  502  501  0.00000000000E+00  0.00000000000E+00  0.19445238566E+03  0.19445238566E+03  0.00000000000E+00 0. -1.
         21   -1    0    0  501  502 -0.00000000000E+00 -0.00000000000E+00 -0.81943702734E+03  0.81943702734E+03  0.00000000000E+00 0.  1.
         25    1    1    2    0    0 -0.16945190328E+03 -0.28464586928E+03 -0.22054806570E+03  0.41713746859E+03  0.12500000000E+03 0.  0.
         25    1    1    2    0    0  0.73037952685E+02  0.19920236393E+03 -0.30342897898E+03  0.39078161371E+03  0.12500000000E+03 0.  0.
         25    1    1    2    0    0  0.96413950593E+02  0.85443505345E+02 -0.10100759701E+03  0.20597033070E+03  0.12500000000E+03 0.  0.
</event>
<event>
 5    0  0.5749909E-005  0.3184315E+03  0.7546771E-02  0.1076373E+00
         21   -1    0    0  502  501  0.00000000000E+00  0.00000000000E+00  0.11057354003E+04  0.11057354003E+04  0.00000000000E+00 0.  1.
         21   -1    0    0  501  502 -0.00000000000E+00 -0.00000000000E+00 -0.91702447563E+02  0.91702447563E+02  0.00000000000E+00 0.  1.
         25    1    1    2    0    0 -0.13935101924E+03  0.71278593704E+02  0.77867756615E+03  0.80402928834E+03  0.12500000000E+03 0.  0.
         25    1    1    2    0    0  0.12101887543E+03 -0.12628972119E+02  0.11160325818E+03  0.20708777459E+03  0.12500000000E+03 0.  0.
         25    1    1    2    0    0  0.18332143809E+02 -0.58649621585E+02  0.12375212837E+03  0.18632078490E+03  0.12500000000E+03 0.  0.
</event>
<event>
 5    0  0.5749909E-005  0.4334102E+03  0.7546771E-02  0.1032788E+00
         21   -1    0    0  502  501  0.00000000000E+00  0.00000000000E+00  0.18315540374E+03  0.18315540374E+03  0.00000000000E+00 0.  1.
         21   -1    0    0  501  502 -0.00000000000E+00 -0.00000000000E+00 -0.10256012020E+04  0.10256012020E+04  0.00000000000E+00 0.  1.
         25    1    1    2    0    0  0.23473269963E+03 -0.30399836284E+02 -0.37102634037E+03  0.45750315361E+03  0.12500000000E+03 0.  0.
         25    1    1    2    0    0 -0.34906573356E+02  0.22839619729E+03 -0.30058536383E+03  0.39919901397E+03  0.12500000000E+03 0.  0.
         25    1    1    2    0    0 -0.19982612627E+03 -0.19799636101E+03 -0.17083409402E+03  0.35205443811E+03  0.12500000000E+03 0.  0.
</event>
<event>
 5    0  0.5749909E-005  0.4540943E+03  0.7546771E-02  0.1026508E+00
         21   -1    0    0  502  501  0.00000000000E+00  0.00000000000E+00  0.20558967612E+03  0.20558967612E+03  0.00000000000E+00 0.  1.
         21   -1    0    0  501  502 -0.00000000000E+00 -0.00000000000E+00 -0.10029767553E+04  0.10029767553E+04  0.00000000000E+00 0.  1.
         25    1    1    2    0    0 -0.14976745920E+02  0.34562857187E+02 -0.19748996352E+03  0.23674074366E+03  0.12500000000E+03 0.  0.
         25    1    1    2    0    0 -0.67579605606E+02  0.31737891070E+03 -0.14308986439E+03  0.37602670828E+03  0.12500000000E+03 0.  0.
         25    1    1    2    0    0  0.82556351525E+02 -0.35194176788E+03 -0.45680725129E+03  0.59579897951E+03  0.12500000000E+03 0.  0.
</event>
<event>
 5    0  0.5749909E-005  0.5378921E+03  0.7546771E-02  0.1004336E+00
         21   -1    0    0  502  501  0.00000000000E+00  0.00000000000E+00  0.25675977988E+03  0.25675977988E+03  0.00000000000E+00 0. -1.
         21   -1    0    0  501  502 -0.00000000000E+00 -0.00000000000E+00 -0.11268426302E+04  0.11268426302E+04  0.00000000000E+00 0. -1.
         25    1    1    2    0    0  0.70503474860E+01  0.27000342679E+03  0.84719904008E+02  0.30944146460E+03  0.12500000000E+03 0.  0.
         25    1    1    2    0    0  0.60052995206E+02 -0.29113410317E+03 -0.80289396320E+03  0.86523357794E+03  0.12500000000E+03 0.  0.
         25    1    1    2    0    0 -0.67103342692E+02  0.21130676380E+02 -0.15190879118E+03  0.20892736757E+03  0.12500000000E+03 0.  0.
</event>
<event>
 5    0  0.5749909E-005  0.3753465E+03  0.7546771E-02  0.1052667E+00
         21   -1    0    0  502  501  0.00000000000E+00  0.00000000000E+00  0.28442506650E+03  0.28442506650E+03  0.00000000000E+00 0.  1.
         21   -1    0    0  501  502 -0.00000000000E+00 -0.00000000000E+00 -0.49533246401E+03  0.49533246401E+03  0.00000000000E+00 0.  1.
         25    1    1    2    0    0  0.99146425104E+02 -0.26109961689E+03 -0.11822619462E+03  0.32803270667E+03  0.12500000000E+03 0.  0.
         25    1    1    2    0    0 -0.95036435272E+02  0.83574392444E+01 -0.58015046946E+02  0.16760822322E+03  0.12500000000E+03 0.  0.
         25    1    1    2    0    0 -0.41099898319E+01  0.25274217764E+03 -0.34666155941E+02  0.28411660061E+03  0.12500000000E+03 0.  0.
</event>
<event>
 5    0  0.5749909E-005  0.3451105E+03  0.7546771E-02  0.1064640E+00
         21   -1    0    0  502  501  0.00000000000E+00  0.00000000000E+00  0.35872758543E+03  0.35872758543E+03  0.00000000000E+00 0. -1.
         21   -1    0    0  501  502 -0.00000000000E+00 -0.00000000000E+00 -0.33201024696E+03  0.33201024696E+03  0.00000000000E+00 0. -1.
         25    1    1    2    0    0  0.12644763290E+03  0.15071778234E+03 -0.15838734906E+03  0.28180916615E+03  0.12500000000E+03 0.  0.
         25    1    1    2    0    0 -0.79066362983E+02 -0.15437404162E+03  0.17231249759E+03  0.27458956882E+03  0.12500000000E+03 0.  0.
         25    1    1    2    0    0 -0.47381269918E+02  0.36562592724E+01  0.12792189946E+02  0.13433909742E+03  0.12500000000E+03 0.  0.
</event>
<event>
 5    0  0.5749909E-005  0.3443141E+03  0.7546771E-02  0.1064973E+00
         21   -1    0    0  502  501  0.00000000000E+00  0.00000000000E+00  0.68336604251E+02  0.68336604251E+02  0.00000000000E+00 0. -1.
         21   -1    0    0  501  502 -0.00000000000E+00 -0.00000000000E+00 -0.17348271395E+04  0.17348271395E+04  0.00000000000E+00 0. -1.
         25    1    1    2    0    0  0.20709555352E+03 -0.12129474557E+03 -0.91952428501E+03  0.95851494215E+03  0.12500000000E+03 0.  0.
         25    1    1    2    0    0 -0.79993846286E+02  0.45322990041E+01 -0.15117502839E+03  0.21189253500E+03  0.12500000000E+03 0.  0.
         25    1    1    2    0    0 -0.12710170723E+03  0.11676244657E+03 -0.59579122189E+03  0.63275626666E+03  0.12500000000E+03 0.  0.
</event>
<event>
 5    0  0.5749909E-005  0.2458625E+03  0.7546771E-02  0.1115948E+00
         21   -1    0    0  502  501  0.00000000000E+00  0.00000000000E+00  0.45445870890E+02  0.45445870890E+02  0.00000000000E+00 0. -1.
         21   -1    0    0  501  502 -0.00000000000E+00 -0.00000000000E+00 -0.13301175703E+04  0.13301175703E+04  0.00000000000E+00 0. -1.
         25    1    1    2    0    0 -0.39932838914E+02  0.12579054901E+03 -0.40733810210E+03  0.44605742149E+03  0.12500000000E+03 0.  0.
         25    1    1    2    0    0  0.20881651537E+02 -0.12109394017E+03 -0.59134658189E+03  0.61677837642E+03  0.12500000000E+03 0.  0.
         25    1    1    2    0    0  0.19051187377E+02 -0.46966088449E+01 -0.28598701539E+03  0.31272764324E+03  0.12500000000E+03 0.  0.
</event>
<event>
 5    0  0.5749909E-005  0.2892133E+03  0.7546771E-02  0.1090761E+00
         21   -1    0    0  502  501  0.00000000000E+00  0.00000000000E+00  0.12063834328E+03  0.12063834328E+03  0.00000000000E+00 0. -1.
         21   -1    0    0  501  502 -0.00000000000E+00 -0.00000000000E+00 -0.69334790574E+03  0.69334790574E+03  0.00000000000E+00 0. -1.
         25    1    1    2    0    0  0.39506897544E+02 -0.13589115332E+03 -0.15364453889E+03  0.24343139657E+03  0.12500000000E+03 0.  0.
         25    1    1    2    0    0 -0.11644714480E+03  0.11770275128E+03 -0.35103476364E+03  0.40775517222E+03  0.12500000000E+03 0.  0.
         25    1    1    2    0    0  0.76940247260E+02  0.18188402041E+02 -0.68030259923E+02  0.16279968023E+03  0.12500000000E+03 0.  0.
</event>
<event>
 5    0  0.5749909E-005  0.3080890E+03  0.7546771E-02  0.1081265E+00
         21   -1    0    0  502  501  0.00000000000E+00  0.00000000000E+00  0.11628617216E+03  0.11628617216E+03  0.00000000000E+00 0. -1.
         21   -1    0    0  501  502 -0.00000000000E+00 -0.00000000000E+00 -0.81625203076E+03  0.81625203076E+03  0.00000000000E+00 0. -1.
         25    1    1    2    0    0 -0.12613118962E+03 -0.98085920143E+02 -0.35723163507E+03  0.41081548878E+03  0.12500000000E+03 0.  0.
         25    1    1    2    0    0  0.13180849614E+03  0.64440705704E+02 -0.34150479955E+03  0.39214361186E+03  0.12500000000E+03 0.  0.
         25    1    1    2    0    0 -0.56773065207E+01  0.33645214439E+02 -0.12294239839E+01  0.12957910228E+03  0.12500000000E+03 0.  0.
</event>
<event>
 5    0  0.5749909E-005  0.2270637E+03  0.7546771E-02  0.1128724E+00
         21   -1    0    0  502  501  0.00000000000E+00  0.00000000000E+00  0.11684902359E+03  0.11684902359E+03  0.00000000000E+00 0.  1.
         21   -1    0    0  501  502 -0.00000000000E+00 -0.00000000000E+00 -0.44123544872E+03  0.44123544872E+03  0.00000000000E+00 0.  1.
         25    1    1    2    0    0 -0.11229561595E+02 -0.44836687014E+02 -0.18841290123E+03  0.23078312959E+03  0.12500000000E+03 0.  0.
         25    1    1    2    0    0 -0.49869540499E+02  0.72639777037E+02 -0.47702807159E+02  0.16020008142E+03  0.12500000000E+03 0.  0.
         25    1    1    2    0    0  0.61099102094E+02 -0.27803090022E+02 -0.88270716750E+02  0.16710126130E+03  0.12500000000E+03 0.  0.
</event>
<event>
 5    0  0.2370430E-004  0.6304396E+03  0.7546771E-02  0.9844191E-01
         21   -1    0    0  502  501  0.00000000000E+00  0.00000000000E+00  0.10902096177E+04  0.10902096177E+04  0.00000000000E+00 0. -1.
         21   -1    0    0  501  502 -0.00000000000E+00 -0.00000000000E+00 -0.36456662704E+03  0.36456662704E+03  0.00000000000E+00 0. -1.
         25    1    1    2    0    0 -0.36434587659E+03  0.19603988768E+03 -0.37759911362E+02  0.43385523652E+03  0.12500000000E+03 0.  0.
         25    1    1    2    0    0 -0.87835371995E+02 -0.29575606335E+02  0.31325115493E+03  0.34977286220E+03  0.12500000000E+03 0.  0.
         25    1    1    2    0    0  0.45218124858E+03 -0.16646428135E+03  0.45015174713E+03  0.67114814607E+03  0.12500000000E+03 0.  0.
</event>
<event>
 5    0  0.5749909E-005  0.3095905E+03  0.7546771E-02  0.1080542E+00
         21   -1    0    0  502  501  0.00000000000E+00  0.00000000000E+00  0.71763879829E+02  0.71763879829E+02  0.00000000000E+00 0. -1.
         21   -1    0    0  501  502 -0.00000000000E+00 -0.00000000000E+00 -0.13355782541E+04  0.13355782541E+04  0.00000000000E+00 0. -1.
         25    1    1    2    0    0  0.28344705621E+02  0.88405533833E+02 -0.52863018920E+02  0.16443375419E+03  0.12500000000E+03 0.  0.
         25    1    1    2    0    0 -0.14997154108E+02 -0.15432215134E+02 -0.71224198208E+03  0.72344779281E+03  0.12500000000E+03 0.  0.
         25    1    1    2    0    0 -0.13347551513E+02 -0.72973318699E+02 -0.49870937330E+03  0.51946058695E+03  0.12500000000E+03 0.  0.
</event>
<event>
 5    0  0.5749909E-005  0.3636150E+03  0.7546771E-02  0.1057162E+00
         21   -1    0    0  502  501  0.00000000000E+00  0.00000000000E+00  0.38187387990E+03  0.38187387990E+03  0.00000000000E+00 0. -1.
         21   -1    0    0  501  502 -0.00000000000E+00 -0.00000000000E+00 -0.34622910889E+03  0.34622910889E+03  0.00000000000E+00 0. -1.
         25    1    1    2    0    0 -0.19481162358E+03 -0.22169132179E+02 -0.11881800376E+03  0.26112402632E+03  0.12500000000E+03 0.  0.
         25    1    1    2    0    0 -0.38217531322E+02 -0.83327061734E+02  0.39715156774E+02  0.16001960066E+03  0.12500000000E+03 0.  0.
         25    1    1    2    0    0  0.23302915490E+03  0.10549619391E+03  0.11474761800E+03  0.30695936181E+03  0.12500000000E+03 0.  0.
</event>
<event>
 5    0  0.5749909E-005  0.4019918E+03  0.7546771E-02  0.1043092E+00
         21   -1    0    0  502  501  0.00000000000E+00  0.00000000000E+00  0.56238245405E+03  0.56238245405E+03  0.00000000000E+00 0.  1.
         21   -1    0    0  501  502 -0.00000000000E+00 -0.00000000000E+00 -0.28734431189E+03  0.28734431189E+03  0.00000000000E+00 0.  1.
         25    1    1    2    0    0  0.19767130256E+03  0.29183065939E+02 -0.90416172401E+02  0.25243945695E+03  0.12500000000E+03 0.  0.
         25    1    1    2    0    0 -0.27677409754E+02  0.23856776923E+02 -0.40773616216E+02  0.13646491342E+03  0.12500000000E+03 0.  0.
         25    1    1    2    0    0 -0.16999389280E+03 -0.53039842862E+02  0.40622793077E+03  0.46082239557E+03  0.12500000000E+03 0.  0.
</event>
<event>
 5    0  0.5749909E-005  0.2675427E+03  0.7546771E-02  0.1102694E+00
         21   -1    0    0  502  501  0.00000000000E+00  0.00000000000E+00  0.40469265919E+03  0.40469265919E+03  0.00000000000E+00 0. -1.
         21   -1    0    0  501  502 -0.00000000000E+00 -0.00000000000E+00 -0.17687273893E+03  0.17687273893E+03  0.00000000000E+00 0. -1.
         25    1    1    2    0    0 -0.10281935424E+03  0.23031992814E+02 -0.38592614384E+02  0.16797821937E+03  0.12500000000E+03 0.  0.
         25    1    1    2    0    0  0.39925195263E+02  0.69542213441E+02  0.12914258971E+03  0.19680688287E+03  0.12500000000E+03 0.  0.
         25    1    1    2    0    0  0.62894158976E+02 -0.92574206255E+02  0.13726994494E+03  0.21678029588E+03  0.12500000000E+03 0.  0.
</event>
<event>
 5    0  0.5749909E-005  0.4198715E+03  0.7546771E-02  0.1037108E+00
         21   -1    0    0  502  501  0.00000000000E+00  0.00000000000E+00  0.15687268847E+04  0.15687268847E+04  0.00000000000E+00 0. -1.
         21   -1    0    0  501  502 -0.00000000000E+00 -0.00000000000E+00 -0.11237905588E+03  0.11237905588E+03  0.00000000000E+00 0. -1.
         25    1    1    2    0    0  0.34665980594E+03 -0.76308045437E+02  0.46320048589E+03  0.59680451488E+03  0.12500000000E+03 0.  0.
         25    1    1    2    0    0 -0.16981696225E+03  0.37180089421E+02  0.52620731708E+03  0.56810148765E+03  0.12500000000E+03 0.  0.
         25    1    1    2    0    0 -0.17684284368E+03  0.39127956017E+02  0.46694002582E+03  0.51619993803E+03  0.12500000000E+03 0.  0.
</event>
<event>
 5    0  0.5749909E-005  0.3740741E+03  0.7546771E-02  0.1053146E+00
         21   -1    0    0  502  501  0.00000000000E+00  0.00000000000E+00  0.17399113134E+04  0.17399113134E+04  0.00000000000E+00 0.  1.
         21   -1    0    0  501  502 -0.00000000000E+00 -0.00000000000E+00 -0.80424470588E+02  0.80424470588E+02  0.00000000000E+00 0.  1.
         25    1    1    2    0    0  0.24046126005E+03 -0.10412255771E+03  0.85572769793E+03  0.90363599840E+03  0.12500000000E+03 0.  0.
         25    1    1    2    0    0 -0.79053794189E+02 -0.77662249025E+02  0.28610786588E+03  0.33130595862E+03  0.12500000000E+03 0.  0.
         25    1    1    2    0    0 -0.16140746586E+03  0.18178480673E+03  0.51765127899E+03  0.58539382696E+03  0.12500000000E+03 0.  0.
</event>
<event>
 5    0  0.5749909E-005  0.2307567E+03  0.7546771E-02  0.1126108E+00
         21   -1    0    0  502  501  0.00000000000E+00  0.00000000000E+00  0.17464397921E+03  0.17464397921E+03  0.00000000000E+00 0.  1.
         21   -1    0    0  501  502 -0.00000000000E+00 -0.00000000000E+00 -0.30489830444E+03  0.30489830444E+03  0.00000000000E+00 0.  1.
         25    1    1    2    0    0 -0.21167664232E+02  0.55321857820E+01 -0.38011086154E+02  0.13247081852E+03  0.12500000000E+03 0.  0.
         25    1    1    2    0    0  0.23793255980E+02  0.84521016947E+02 -0.11514816301E+03  0.19129563712E+03  0.12500000000E+03 0.  0.
         25    1    1    2    0    0 -0.26255917483E+01 -0.90053202729E+02  0.22904923933E+02  0.15577582802E+03  0.12500000000E+03 0.  0.
</event>
<event>
 5    0  0.5749909E-005  0.3303921E+03  0.7546771E-02  0.1070963E+00
         21   -1    0    0  502  501  0.00000000000E+00  0.00000000000E+00  0.14009520367E+04  0.14009520367E+04  0.00000000000E+00 0. -1.
         21   -1    0    0  501  502 -0.00000000000E+00 -0.00000000000E+00 -0.77917697922E+02  0.77917697922E+02  0.00000000000E+00 0. -1.
         25    1    1    2    0    0 -0.84359419060E+02  0.15454814039E+03  0.42598141845E+03  0.47758434663E+03  0.12500000000E+03 0.  0.
         25    1    1    2    0    0  0.12695533391E+03 -0.21626297542E+03  0.44085676961E+03  0.52236675110E+03  0.12500000000E+03 0.  0.
         25    1    1    2    0    0 -0.42595914852E+02  0.61714835030E+02  0.45619615067E+03  0.47891863684E+03  0.12500000000E+03 0.  0.
</event>
<event>
 5    0  0.5749909E-005  0.2460279E+03  0.7546771E-02  0.1115841E+00
         21   -1    0    0  502  501  0.00000000000E+00  0.00000000000E+00  0.51119009306E+02  0.51119009306E+02  0.00000000000E+00 0. -1.
         21   -1    0    0  501  502 -0.00000000000E+00 -0.00000000000E+00 -0.11840943396E+04  0.11840943396E+04  0.00000000000E+00 0. -1.
         25    1    1    2    0    0  0.28859631072E+02  0.38123513575E+02 -0.19968471267E+03  0.24038565903E+03  0.12500000000E+03 0.  0.
         25    1    1    2    0    0  0.10755160988E+02  0.84954329844E+02 -0.56514055559E+03  0.58509978569E+03  0.12500000000E+03 0.  0.
         25    1    1    2    0    0 -0.39614792060E+02 -0.12307784342E+03 -0.36815006205E+03  0.40972790419E+03  0.12500000000E+03 0.  0.
</event>
<event>
 5    0  0.5749909E-005  0.3610901E+03  0.7546771E-02  0.1058153E+00
         21   -1    0    0  502  501  0.00000000000E+00  0.00000000000E+00  0.26853143869E+03  0.26853143869E+03  0.00000000000E+00 0.  1.
         21   -1    0    0  501  502 -0.00000000000E+00 -0.00000000000E+00 -0.48555224962E+03  0.48555224962E+03  0.00000000000E+00 0.  1.
         25    1    1    2    0    0 -0.17505877805E+01 -0.37963872348E+02 -0.16679425682E+03  0.21187176374E+03  0.12500000000E+03 0.  0.
         25    1    1    2    0    0 -0.48072833119E+02 -0.13846403909E+03  0.14936957047E+03  0.24376126843E+03  0.12500000000E+03 0.  0.
         25    1    1    2    0    0  0.49823420900E+02  0.17642791144E+03 -0.19959612457E+03  0.29845065614E+03  0.12500000000E+03 0.  0.
</event>
<event>
 5    0  0.5749909E-005  0.3062958E+03  0.7546771E-02  0.1082135E+00
         21   -1    0    0  502  501  0.00000000000E+00  0.00000000000E+00  0.47902302054E+03  0.47902302054E+03  0.00000000000E+00 0.  1.
         21   -1    0    0  501  502 -0.00000000000E+00 -0.00000000000E+00 -0.19585092519E+03  0.19585092519E+03  0.00000000000E+00 0.  1.
         25    1    1    2    0    0 -0.42474837011E+02  0.39922300504E+01 -0.14787445506E+02  0.13290492175E+03  0.12500000000E+03 0.  0.
         25    1    1    2    0    0  0.90499747352E+02 -0.15245826472E+03  0.48517402646E+02  0.22228959740E+03  0.12500000000E+03 0.  0.
         25    1    1    2    0    0 -0.48024910341E+02  0.14846603467E+03  0.24944213821E+03  0.31967942658E+03  0.12500000000E+03 0.  0.
</event>
<event>
 5    0  0.5749909E-005  0.2332302E+03  0.7546771E-02  0.1124387E+00
         21   -1    0    0  502  501  0.00000000000E+00  0.00000000000E+00  0.16327884305E+04  0.16327884305E+04  0.00000000000E+00 0. -1.
         21   -1    0    0  501  502 -0.00000000000E+00 -0.00000000000E+00 -0.33314983295E+02  0.33314983295E+02  0.00000000000E+00 0. -1.
         25    1    1    2    0    0  0.11113540406E+02 -0.57189294810E+02  0.97461745979E+03  0.98432632757E+03  0.12500000000E+03 0.  0.
         25    1    1    2    0    0  0.83401368901E+01  0.48412081478E+02  0.22231706868E+03  0.25973672544E+03  0.12500000000E+03 0.  0.
         25    1    1    2    0    0 -0.19453677296E+02  0.87772133321E+01  0.40253891876E+03  0.42204036080E+03  0.12500000000E+03 0.  0.
</event>
<event>
 5    0  0.5749909E-005  0.2495173E+03  0.7546771E-02  0.1113610E+00
         21   -1    0    0  502  501  0.00000000000E+00  0.00000000000E+00  0.63124359258E+02  0.63124359258E+02  0.00000000000E+00 0.  1.
         21   -1    0    0  501  502 -0.00000000000E+00 -0.00000000000E+00 -0.98628971035E+03  0.98628971035E+03  0.00000000000E+00 0.  1.
         25    1    1    2    0    0 -0.16617022569E+02  0.93815060043E+02 -0.30248450777E+03  0.34088013783E+03  0.12500000000E+03 0.  0.
         25    1    1    2    0    0  0.23041411273E+02  0.62179879308E+02 -0.26984716503E+03  0.30469613797E+03  0.12500000000E+03 0.  0.
         25    1    1    2    0    0 -0.64243887046E+01 -0.15599493935E+03 -0.35083367830E+03  0.40383779380E+03  0.12500000000E+03 0.  0.
</event>
<event>
 5    0  0.5749909E-005  0.2249253E+03  0.7546771E-02  0.1130263E+00
         21   -1    0    0  502  501  0.00000000000E+00  0.00000000000E+00  0.19187942114E+03  0.19187942114E+03  0.00000000000E+00 0. -1.
         21   -1    0    0  501  502 -0.00000000000E+00 -0.00000000000E+00 -0.26366244449E+03  0.26366244449E+03  0.00000000000E+00 0. -1.
         25    1    1    2    0    0  0.84181392665E+02  0.60790764961E+02 -0.71943913363E+02  0.17771592682E+03  0.12500000000E+03 0.  0.
         25    1    1    2    0    0 -0.56874594497E+02 -0.57609694018E+02  0.11311105879E+02  0.14935373266E+03  0.12500000000E+03 0.  0.
         25    1    1    2    0    0 -0.27306798168E+02 -0.31810709428E+01 -0.11150215863E+02  0.12847220615E+03  0.12500000000E+03 0.  0.
</event>
<event>
 5    0  0.5749909E-005  0.2984067E+03  0.7546771E-02  0.1086040E+00
         21   -1    0    0  502  501  0.00000000000E+00  0.00000000000E+00  0.12826469295E+03  0.12826469295E+03  0.00000000000E+00 0.  1.
         21   -1    0    0  501  502 -0.00000000000E+00 -0.00000000000E+00 -0.69424045089E+03  0.69424045089E+03  0.00000000000E+00 0.  1.
         25    1    1    2    0    0  0.14788663439E+03 -0.13013514381E+03 -0.21624574685E+03  0.31810821322E+03  0.12500000000E+03 0.  0.
         25    1    1    2    0    0 -0.43628771272E+02  0.73792802644E+02 -0.51652763930E+02  0.16013074479E+03  0.12500000000E+03 0.  0.
         25    1    1    2    0    0 -0.10425786312E+03  0.56342341171E+02 -0.29807724716E+03  0.34426618583E+03  0.12500000000E+03 0.  0.
</event>
<event>
 5    0  0.6335916E-005  0.3651790E+03  0.7546771E-02  0.1056552E+00
         21   -1    0    0  502  501  0.00000000000E+00  0.00000000000E+00  0.80646914096E+03  0.80646914096E+03  0.00000000000E+00 0. -1.
         21   -1    0    0  501  502 -0.00000000000E+00 -0.00000000000E+00 -0.16535743853E+03  0.16535743853E+03  0.00000000000E+00 0. -1.
         25    1    1    2    0    0  0.19177945291E+02 -0.21707113874E+03  0.23914271518E+03  0.34684565888E+03  0.12500000000E+03 0.  0.
         25    1    1    2    0    0 -0.98751426135E+02  0.14364165829E+03  0.28306892394E+02  0.21635861508E+03  0.12500000000E+03 0.  0.
         25    1    1    2    0    0  0.79573480844E+02  0.73429480448E+02  0.37366209485E+03  0.40862230553E+03  0.12500000000E+03 0.  0.
</event>
<event>
 5    0  0.5749909E-005  0.2561509E+03  0.7546771E-02  0.1109478E+00
         21   -1    0    0  502  501  0.00000000000E+00  0.00000000000E+00  0.37288781744E+04  0.37288781744E+04  0.00000000000E+00 0. -1.
         21   -1    0    0  501  502 -0.00000000000E+00 -0.00000000000E+00 -0.17595991328E+02  0.17595991328E+02  0.00000000000E+00 0. -1.
         25    1    1    2    0    0  0.10606130234E+03  0.86400291326E+01  0.78068554883E+03  0.79775846978E+03  0.12500000000E+03 0.  0.
         25    1    1    2    0    0  0.41068501572E+02  0.11352066443E+02  0.11325836763E+04  0.11402571092E+04  0.12500000000E+03 0.  0.
         25    1    1    2    0    0 -0.14712980391E+03 -0.19992095576E+02  0.17980129579E+04  0.18084585868E+04  0.12500000000E+03 0.  0.
</event>
<event>
 5    0  0.6252474E-005  0.3140456E+03  0.7546771E-02  0.1078423E+00
         21   -1    0    0  502  501  0.00000000000E+00  0.00000000000E+00  0.18245965781E+03  0.18245965781E+03  0.00000000000E+00 0.  1.
         21   -1    0    0  501  502 -0.00000000000E+00 -0.00000000000E+00 -0.54052844059E+03  0.54052844059E+03  0.00000000000E+00 0.  1.
         25    1    1    2    0    0  0.13826617496E+01 -0.68843755141E+02  0.31796660923E+02  0.14621012968E+03  0.12500000000E+03 0.  0.
         25    1    1    2    0    0  0.41772098319E+02 -0.60917306610E+02 -0.36121712040E+03  0.38930532300E+03  0.12500000000E+03 0.  0.
         25    1    1    2    0    0 -0.43154760069E+02  0.12976106175E+03 -0.28648323294E+02  0.18747264571E+03  0.12500000000E+03 0.  0.
</event>
<event>
 5    0  0.5749909E-005  0.3361623E+03  0.7546771E-02  0.1068442E+00
         21   -1    0    0  502  501  0.00000000000E+00  0.00000000000E+00  0.43266566310E+03  0.43266566310E+03  0.00000000000E+00 0.  1.
         21   -1    0    0  501  502 -0.00000000000E+00 -0.00000000000E+00 -0.26118346310E+03  0.26118346310E+03  0.00000000000E+00 0.  1.
         25    1    1    2    0    0 -0.34799325467E+02  0.85187082423E+02  0.68499449152E+02  0.16966144700E+03  0.12500000000E+03 0.  0.
         25    1    1    2    0    0 -0.20583829990E+01 -0.12513735788E+03  0.26113305238E+03  0.31540302206E+03  0.12500000000E+03 0.  0.
         25    1    1    2    0    0  0.36857708466E+02  0.39950275461E+02 -0.15815030153E+03  0.20878465714E+03  0.12500000000E+03 0.  0.
</event>
<event>
 5    0  0.5749909E-005  0.3184236E+03  0.7546771E-02  0.1076377E+00
         21   -1    0    0  502  501  0.00000000000E+00  0.00000000000E+00  0.84577925130E+03  0.84577925130E+03  0.00000000000E+00 0. -1.
         21   -1    0    0  501  502 -0.00000000000E+00 -0.00000000000E+00 -0.11988186757E+03  0.11988186757E+03  0.00000000000E+00 0. -1.
         25    1    1    2    0    0  0.71022786148E+02 -0.18400118756E+03  0.32602366029E+03  0.40102007461E+03  0.12500000000E+03 0.  0.
         25    1    1    2    0    0  0.13584779187E+02  0.20363117157E+03  0.19103510605E+03  0.30621824244E+03  0.12500000000E+03 0.  0.
         25    1    1    2    0    0 -0.84607565335E+02 -0.19629984003E+02  0.20883861739E+03  0.25842280181E+03  0.12500000000E+03 0.  0.
</event>
<event>
 5    0  0.5749909E-005  0.3242769E+03  0.7546771E-02  0.1073698E+00
         21   -1    0    0  502  501  0.00000000000E+00  0.00000000000E+00  0.32145267576E+03  0.32145267576E+03  0.00000000000E+00 0.  1.
         21   -1    0    0  501  502 -0.00000000000E+00 -0.00000000000E+00 -0.32712600465E+03  0.32712600465E+03  0.00000000000E+00 0.  1.
         25    1    1    2    0    0  0.31343648237E+02 -0.50075269229E+02  0.12468351164E+03  0.18617447448E+03  0.12500000000E+03 0.  0.
         25    1    1    2    0    0 -0.10272099608E+03  0.63520543502E+02  0.92398372854E+02  0.19684745817E+03  0.12500000000E+03 0.  0.
         25    1    1    2    0    0  0.71377347844E+02 -0.13445274273E+02 -0.22275521339E+03  0.26555674776E+03  0.12500000000E+03 0.  0.
</event>
<event>
 5    0  0.5749909E-005  0.2097976E+03  0.7546771E-02  0.1141726E+00
         21   -1    0    0  502  501  0.00000000000E+00  0.00000000000E+00  0.25350522254E+03  0.25350522254E+03  0.00000000000E+00 0. -1.
         21   -1    0    0  501  502 -0.00000000000E+00 -0.00000000000E+00 -0.17362568207E+03  0.17362568207E+03  0.00000000000E+00 0. -1.
         25    1    1    2    0    0 -0.38254530549E+01 -0.57042112976E+02  0.12431988862E+02  0.13801445972E+03  0.12500000000E+03 0.  0.
         25    1    1    2    0    0  0.19328158460E+02  0.21580595056E+02  0.89464070336E+02  0.15642288731E+03  0.12500000000E+03 0.  0.
         25    1    1    2    0    0 -0.15502705406E+02  0.35461517920E+02 -0.22016518734E+02  0.13269355759E+03  0.12500000000E+03 0.  0.
</event>
<event>
 5    0  0.5749909E-005  0.3379033E+03  0.7546771E-02  0.1067692E+00
         21   -1    0    0  502  501  0.00000000000E+00  0.00000000000E+00  0.56202528670E+02  0.56202528670E+02  0.00000000000E+00 0.  1.
         21   -1    0    0  501  502 -0.00000000000E+00 -0.00000000000E+00 -0.20315564627E+04  0.20315564627E+04  0.00000000000E+00 0.  1.
         25    1    1    2    0    0 -0.22411633140E+02  0.94121303365E+02 -0.11809175254E+04  0.11914496644E+04  0.12500000000E+03 0.  0.
         25    1    1    2    0    0  0.40843470728E+02  0.94345551040E+02 -0.49386965887E+03  0.51971291311E+03  0.12500000000E+03 0.  0.
         25    1    1    2    0    0 -0.18431837589E+02 -0.18846685441E+03 -0.30056674970E+03  0.37659641378E+03  0.12500000000E+03 0.  0.
</event>
<event>
 5    0  0.5749909E-005  0.3904454E+03  0.7546771E-02  0.1047139E+00
         21   -1    0    0  502  501  0.00000000000E+00  0.00000000000E+00  0.13047864962E+04  0.13047864962E+04  0.00000000000E+00 0. -1.
         21   -1    0    0  501  502 -0.00000000000E+00 -0.00000000000E+00 -0.11683717914E+03  0.11683717914E+03  0.00000000000E+00 0. -1.
         25    1    1    2    0    0 -0.19072941617E+03 -0.91449384985E+02  0.23255479969E+03  0.33830080560E+03  0.12500000000E+03 0.  0.
         25    1    1    2    0    0  0.17452543776E+03 -0.12700890302E+03  0.37361074227E+03  0.44922196808E+03  0.12500000000E+03 0.  0.
         25    1    1    2    0    0  0.16203978414E+02  0.21845828800E+03  0.58178377512E+03  0.63410090167E+03  0.12500000000E+03 0.  0.
</event>
<event>
 5    0  0.5749909E-005  0.3138598E+03  0.7546771E-02  0.1078510E+00
         21   -1    0    0  502  501  0.00000000000E+00  0.00000000000E+00  0.27950788037E+03  0.27950788037E+03  0.00000000000E+00 0.  1.
         21   -1    0    0  501  502 -0.00000000000E+00 -0.00000000000E+00 -0.35243362692E+03  0.35243362692E+03  0.00000000000E+00 0.  1.
         25    1    1    2    0    0  0.78008806910E+02 -0.15069019099E+03 -0.11170520874E+03  0.23852874308E+03  0.12500000000E+03 0.  0.
         25    1    1    2    0    0 -0.11053853873E+03  0.18191810467E+03  0.70635003891E+02  0.25676306028E+03  0.12500000000E+03 0.  0.
         25    1    1    2    0    0  0.32529731824E+02 -0.31227913681E+02 -0.31855541701E+02  0.13664970392E+03  0.12500000000E+03 0.  0.
</event>
<event>
 5    0  0.6832743E-005  0.3449938E+03  0.7546771E-02  0.1064689E+00
         21   -1    0    0  502  501  0.00000000000E+00  0.00000000000E+00  0.18427517436E+03  0.18427517436E+03  0.00000000000E+00 0.  1.
         21   -1    0    0  501  502 -0.00000000000E+00 -0.00000000000E+00 -0.64588574504E+03  0.64588574504E+03  0.00000000000E+00 0.  1.
         25    1    1    2    0    0 -0.91688417028E+02 -0.93951673319E+02 -0.28882564510E+03  0.34099697360E+03  0.12500000000E+03 0.  0.
         25    1    1    2    0    0  0.20393300849E+03  0.65807475100E+02 -0.19742504304E+03  0.31705037983E+03  0.12500000000E+03 0.  0.
         25    1    1    2    0    0 -0.11224459146E+03  0.28144198220E+02  0.24640117453E+02  0.17211356598E+03  0.12500000000E+03 0.  0.
</event>
<event>
 5    0  0.5749909E-005  0.2686827E+03  0.7546771E-02  0.1102036E+00
         21   -1    0    0  502  501  0.00000000000E+00  0.00000000000E+00  0.58562003638E+03  0.58562003638E+03  0.00000000000E+00 0.  1.
         21   -1    0    0  501  502 -0.00000000000E+00 -0.00000000000E+00 -0.12327171288E+03  0.12327171288E+03  0.00000000000E+00 0.  1.
         25    1    1    2    0    0  0.99495227086E+02  0.10099804626E+01  0.31614935256E+03  0.35422554030E+03  0.12500000000E+03 0.  0.
         25    1    1    2    0    0 -0.42721234865E+02 -0.54614110364E+02 -0.56484803286E+01  0.14305492053E+03  0.12500000000E+03 0.  0.
         25    1    1    2    0    0 -0.56773992221E+02  0.53604129901E+02  0.15184745126E+03  0.21161128843E+03  0.12500000000E+03 0.  0.
</event>
<event>
 5    0  0.5749909E-005  0.3126622E+03  0.7546771E-02  0.1079077E+00
         21   -1    0    0  502  501  0.00000000000E+00  0.00000000000E+00  0.82591246881E+03  0.82591246881E+03  0.00000000000E+00 0.  1.
         21   -1    0    0  501  502 -0.00000000000E+00 -0.00000000000E+00 -0.11836320474E+03  0.11836320474E+03  0.00000000000E+00 0.  1.
         25    1    1    2    0    0  0.57161925203E+02  0.11987716081E+03  0.10704528606E+03  0.21147508753E+03  0.12500000000E+03 0.  0.
         25    1    1    2    0    0 -0.57157127530E+01 -0.63945051487E+02  0.56507259262E+03  0.58228315613E+03  0.12500000000E+03 0.  0.
         25    1    1    2    0    0 -0.51446212450E+02 -0.55932109326E+02  0.35431385387E+02  0.15051742989E+03  0.12500000000E+03 0.  0.
</event>
<event>
 5    0  0.5749909E-005  0.2786585E+03  0.7546771E-02  0.1096424E+00
         21   -1    0    0  502  501  0.00000000000E+00  0.00000000000E+00  0.22714024369E+03  0.22714024369E+03  0.00000000000E+00 0.  1.
         21   -1    0    0  501  502 -0.00000000000E+00 -0.00000000000E+00 -0.34186174089E+03  0.34186174089E+03  0.00000000000E+00 0.  1.
         25    1    1    2    0    0  0.24957827857E+00  0.10823726854E+03 -0.12112254802E+03  0.20496594895E+03  0.12500000000E+03 0.  0.
         25    1    1    2    0    0  0.71481519698E+02 -0.12765890432E+03 -0.63559856641E+02  0.20266045220E+03  0.12500000000E+03 0.  0.
         25    1    1    2    0    0 -0.71731097976E+02  0.19421635784E+02  0.69960907458E+02  0.16137558342E+03  0.12500000000E+03 0.  0.
</event>
<event>
 5    0  0.5749909E-005  0.2869991E+03  0.7546771E-02  0.1091926E+00
         21   -1    0    0  502  501  0.00000000000E+00  0.00000000000E+00  0.69298098586E+03  0.69298098586E+03  0.00000000000E+00 0. -1.
         21   -1    0    0  501  502 -0.00000000000E+00 -0.00000000000E+00 -0.11886106757E+03  0.11886106757E+03  0.00000000000E+00 0. -1.
         25    1    1    2    0    0  0.34757559252E+02 -0.44858631348E+02  0.39783587800E+03  0.42085480936E+03  0.12500000000E+03 0.  0.
         25    1    1    2    0    0 -0.86545059489E+00  0.14043041872E+03  0.92579080599E+02  0.20956463841E+03  0.12500000000E+03 0.  0.
         25    1    1    2    0    0 -0.33892108657E+02 -0.95571787372E+02  0.83704959681E+02  0.18142260566E+03  0.12500000000E+03 0.  0.
</event>
<event>
 5    0  0.5749909E-005  0.2726921E+03  0.7546771E-02  0.1099749E+00
         21   -1    0    0  502  501  0.00000000000E+00  0.00000000000E+00  0.15280778842E+03  0.15280778842E+03  0.00000000000E+00 0. -1.
         21   -1    0    0  501  502 -0.00000000000E+00 -0.00000000000E+00 -0.48663080601E+03  0.48663080601E+03  0.00000000000E+00 0. -1.
         25    1    1    2    0    0  0.38735841604E+02  0.29689190316E+02 -0.17687836361E+03  0.22201997423E+03  0.12500000000E+03 0.  0.
         25    1    1    2    0    0 -0.73702271296E+02  0.11627025492E+03 -0.41473545403E+02  0.19051470269E+03  0.12500000000E+03 0.  0.
         25    1    1    2    0    0  0.34966429692E+02 -0.14595944524E+03 -0.11547110858E+03  0.22690391750E+03  0.12500000000E+03 0.  0.
</event>
<event>
 5    0  0.5749909E-005  0.6184850E+03  0.7546771E-02  0.9867781E-01
         21   -1    0    0  502  501  0.00000000000E+00  0.00000000000E+00  0.11689132930E+04  0.11689132930E+04  0.00000000000E+00 0. -1.
         21   -1    0    0  501  502 -0.00000000000E+00 -0.00000000000E+00 -0.32724724281E+03  0.32724724281E+03  0.00000000000E+00 0.  1.
         25    1    1    2    0    0  0.29900801194E+03 -0.44082961099E+03  0.41250225409E+03  0.68521503687E+03  0.12500000000E+03 0.  0.
         25    1    1    2    0    0 -0.12363993756E+03  0.12581930554E+03 -0.25129905213E+02  0.21765533291E+03  0.12500000000E+03 0.  0.
         25    1    1    2    0    0 -0.17536807438E+03  0.31501030545E+03  0.45429370132E+03  0.59329016603E+03  0.12500000000E+03 0.  0.
</event>
<event>
 5    0  0.5749909E-005  0.3397173E+03  0.7546771E-02  0.1066916E+00
         21   -1    0    0  502  501  0.00000000000E+00  0.00000000000E+00  0.19206723456E+04  0.19206723456E+04  0.00000000000E+00 0. -1.
         21   -1    0    0  501  502 -0.00000000000E+00 -0.00000000000E+00 -0.60087215292E+02  0.60087215292E+02  0.00000000000E+00 0. -1.
         25    1    1    2    0    0  0.15079518061E+03  0.11732061210E+03  0.55515002570E+03  0.60026649377E+03  0.12500000000E+03 0.  0.
         25    1    1    2    0    0 -0.15542777197E+03 -0.19269556398E+03  0.10524881963E+04  0.10884143403E+04  0.12500000000E+03 0.  0.
         25    1    1    2    0    0  0.46325913610E+01  0.75374951880E+02  0.25294690831E+03  0.29207872688E+03  0.12500000000E+03 0.  0.
</event>
<event>
 5    0  0.5749909E-005  0.2768652E+03  0.7546771E-02  0.1097414E+00
         21   -1    0    0  502  501  0.00000000000E+00  0.00000000000E+00  0.32652613970E+02  0.32652613970E+02  0.00000000000E+00 0. -1.
         21   -1    0    0  501  502 -0.00000000000E+00 -0.00000000000E+00 -0.23475715732E+04  0.23475715732E+04  0.00000000000E+00 0. -1.
         25    1    1    2    0    0 -0.15819563413E+02 -0.24223170601E+02 -0.16801930675E+03  0.21140602645E+03  0.12500000000E+03 0.  0.
         25    1    1    2    0    0  0.91635090254E+02 -0.13684752886E+02 -0.10046895306E+04  0.10166662752E+04  0.12500000000E+03 0.  0.
         25    1    1    2    0    0 -0.75815526840E+02  0.37907923486E+02 -0.11422101219E+04  0.11521518855E+04  0.12500000000E+03 0.  0.
</event>
<event>
 5    0  0.5749909E-005  0.2579881E+03  0.7546771E-02  0.1108358E+00
         21   -1    0    0  502  501  0.00000000000E+00  0.00000000000E+00  0.83595738593E+02  0.83595738593E+02  0.00000000000E+00 0.  1.
         21   -1    0    0  501  502 -0.00000000000E+00 -0.00000000000E+00 -0.79618720995E+03  0.79618720995E+03  0.00000000000E+00 0.  1.
         25    1    1    2    0    0  0.65678955478E+02  0.14419089316E+03 -0.37538998489E+03  0.42620110232E+03  0.12500000000E+03 0.  0.
         25    1    1    2    0    0 -0.50004569133E+01 -0.77221630950E+02 -0.19128599601E+03  0.24125405100E+03  0.12500000000E+03 0.  0.
         25    1    1    2    0    0 -0.60678498565E+02 -0.66969262208E+02 -0.14591549047E+03  0.21232779523E+03  0.12500000000E+03 0.  0.
</event>
<event>
 5    0  0.5749909E-005  0.3075834E+03  0.7546771E-02  0.1081510E+00
         21   -1    0    0  502  501  0.00000000000E+00  0.00000000000E+00  0.45934243623E+03  0.45934243623E+03  0.00000000000E+00 0. -1.
         21   -1    0    0  501  502 -0.00000000000E+00 -0.00000000000E+00 -0.20596296103E+03  0.20596296103E+03  0.00000000000E+00 0. -1.
         25    1    1    2    0    0 -0.81165699956E+02  0.39111320406E+02 -0.67080134475E+01  0.15423217459E+03  0.12500000000E+03 0.  0.
         25    1    1    2    0    0  0.17369991447E+03  0.63185522507E+02  0.46824188862E+02  0.22799468240E+03  0.12500000000E+03 0.  0.
         25    1    1    2    0    0 -0.92534214511E+02 -0.10229684291E+03  0.21326329979E+03  0.28307854027E+03  0.12500000000E+03 0.  0.
</event>
<event>
 5    0  0.5749909E-005  0.3047712E+03  0.7546771E-02  0.1082880E+00
         21   -1    0    0  502  501  0.00000000000E+00  0.00000000000E+00  0.17317431265E+03  0.17317431265E+03  0.00000000000E+00 0. -1.
         21   -1    0    0  501  502 -0.00000000000E+00 -0.00000000000E+00 -0.53637003205E+03  0.53637003205E+03  0.00000000000E+00 0. -1.
         25    1    1    2    0    0 -0.22412620648E+03  0.42045588172E+02 -0.15599345586E+03  0.30324799453E+03  0.12500000000E+03 0.  0.
         25    1    1    2    0    0  0.99638575912E+02 -0.29804930094E+02 -0.51189656220E+02  0.17047451590E+03  0.12500000000E+03 0.  0.
         25    1    1    2    0    0  0.12448763056E+03 -0.12240658078E+02 -0.15601260732E+03  0.23582183427E+03  0.12500000000E+03 0.  0.
</event>
<event>
 5    0  0.5749909E-005  0.2928547E+03  0.7546771E-02  0.1088868E+00
         21   -1    0    0  502  501  0.00000000000E+00  0.00000000000E+00  0.14446238778E+04  0.14446238778E+04  0.00000000000E+00 0.  1.
         21   -1    0    0  501  502 -0.00000000000E+00 -0.00000000000E+00 -0.59367630394E+02  0.59367630394E+02  0.00000000000E+00 0.  1.
         25    1    1    2    0    0 -0.86245748213E+02 -0.92205821102E+02  0.54526682217E+03  0.57348160379E+03  0.12500000000E+03 0.  0.
         25    1    1    2    0    0 -0.40986120824E+02  0.15756224228E+03  0.50993010801E+03  0.54969031040E+03  0.12500000000E+03 0.  0.
         25    1    1    2    0    0  0.12723186904E+03 -0.65356421182E+02  0.33005931724E+03  0.38081959401E+03  0.12500000000E+03 0.  0.
</event>
<event>
 5    0  0.5749909E-005  0.3364494E+03  0.7546771E-02  0.1068318E+00
         21   -1    0    0  502  501  0.00000000000E+00  0.00000000000E+00  0.20174688017E+03  0.20174688017E+03  0.00000000000E+00 0. -1.
         21   -1    0    0  501  502 -0.00000000000E+00 -0.00000000000E+00 -0.56109016955E+03  0.56109016955E+03  0.00000000000E+00 0. -1.
         25    1    1    2    0    0  0.16791547723E+03 -0.94368830032E+02 -0.11537702443E+03  0.25697848420E+03  0.12500000000E+03 0.  0.
         25    1    1    2    0    0 -0.21030731563E+03  0.15190718204E+03 -0.21400191096E+03  0.35878514024E+03  0.12500000000E+03 0.  0.
         25    1    1    2    0    0  0.42391838401E+02 -0.57538352006E+02 -0.29964353992E+02  0.14707342528E+03  0.12500000000E+03 0.  0.
</event>
<event>
 5    0  0.5749909E-005  0.3394882E+03  0.7546771E-02  0.1067014E+00
         21   -1    0    0  502  501  0.00000000000E+00  0.00000000000E+00  0.88845439276E+03  0.88845439276E+03  0.00000000000E+00 0. -1.
         21   -1    0    0  501  502 -0.00000000000E+00 -0.00000000000E+00 -0.12972214644E+03  0.12972214644E+03  0.00000000000E+00 0. -1.
         25    1    1    2    0    0 -0.41101527318E+01  0.26738247370E+03  0.33692799523E+03  0.44794615141E+03  0.12500000000E+03 0.  0.
         25    1    1    2    0    0 -0.42570519950E+01 -0.69212456944E+02  0.11135796636E+03  0.18120177527E+03  0.12500000000E+03 0.  0.
         25    1    1    2    0    0  0.83672047267E+01 -0.19817001675E+03  0.31044628474E+03  0.38902861252E+03  0.12500000000E+03 0.  0.
</event>
<event>
 5    0  0.5749909E-005  0.3066567E+03  0.7546771E-02  0.1081960E+00
         21   -1    0    0  502  501  0.00000000000E+00  0.00000000000E+00  0.88168718948E+02  0.88168718948E+02  0.00000000000E+00 0. -1.
         21   -1    0    0  501  502 -0.00000000000E+00 -0.00000000000E+00 -0.10665723471E+04  0.10665723471E+04  0.00000000000E+00 0. -1.
         25    1    1    2    0    0  0.80462129469E+02  0.84261498173E+02 -0.26300812062E+03  0.31364378818E+03  0.12500000000E+03 0.  0.
         25    1    1    2    0    0 -0.38958843310E+02 -0.15634987622E+02 -0.67419946515E+03  0.68697318952E+03  0.12500000000E+03 0.  0.
         25    1    1    2    0    0 -0.41503286160E+02 -0.68626510551E+02 -0.41196042435E+02  0.15412408840E+03  0.12500000000E+03 0.  0.
</event>
<event>
 5    0  0.5749909E-005  0.2567757E+03  0.7546771E-02  0.1109096E+00
         21   -1    0    0  502  501  0.00000000000E+00  0.00000000000E+00  0.34826309260E+03  0.34826309260E+03  0.00000000000E+00 0.  1.
         21   -1    0    0  501  502 -0.00000000000E+00 -0.00000000000E+00 -0.18932171783E+03  0.18932171783E+03  0.00000000000E+00 0.  1.
         25    1    1    2    0    0 -0.56869523947E+02  0.39548419170E+02  0.82944025877E+02  0.16523598773E+03  0.12500000000E+03 0.  0.
         25    1    1    2    0    0 -0.61871035705E+02 -0.18640105240E+02 -0.58798396938E+02  0.15250485260E+03  0.12500000000E+03 0.  0.
         25    1    1    2    0    0  0.11874055965E+03 -0.20908313930E+02  0.13479574583E+03  0.21984397011E+03  0.12500000000E+03 0.  0.
</event>
<event>
 5    0  0.5749909E-005  0.5238222E+03  0.7546771E-02  0.1007741E+00
         21   -1    0    0  502  501  0.00000000000E+00  0.00000000000E+00  0.12085127435E+04  0.12085127435E+04  0.00000000000E+00 0.  1.
         21   -1    0    0  501  502 -0.00000000000E+00 -0.00000000000E+00 -0.22704741910E+03  0.22704741910E+03  0.00000000000E+00 0.  1.
         25    1    1    2    0    0 -0.47031582030E+02  0.60310117439E+02  0.56618958250E+03  0.58484606804E+03  0.12500000000E+03 0.  0.
         25    1    1    2    0    0  0.30220209739E+03 -0.23984910321E+03  0.24666224436E+03  0.47467985292E+03  0.12500000000E+03 0.  0.
         25    1    1    2    0    0 -0.25517051536E+03  0.17953898577E+03  0.16861349750E+03  0.37603424161E+03  0.12500000000E+03 0.  0.
</event>
<event>
 5    0  0.5749909E-005  0.3610455E+03  0.7546771E-02  0.1058171E+00
         21   -1    0    0  502  501  0.00000000000E+00  0.00000000000E+00  0.77739017715E+02  0.77739017715E+02  0.00000000000E+00 0. -1.
         21   -1    0    0  501  502 -0.00000000000E+00 -0.00000000000E+00 -0.16768136012E+04  0.16768136012E+04  0.00000000000E+00 0. -1.
         25    1    1    2    0    0  0.17446952293E+02 -0.13563125233E+03 -0.67899676563E+03  0.70381946584E+03  0.12500000000E+03 0.  0.
         25    1    1    2    0    0  0.18334552893E+03 -0.83000174229E+01 -0.50643367299E+03  0.55297788238E+03  0.12500000000E+03 0.  0.
         25    1    1    2    0    0 -0.20079248122E+03  0.14393126975E+03 -0.41364414489E+03  0.49775527072E+03  0.12500000000E+03 0.  0.
</event>
<event>
 5    0  0.5749909E-005  0.2474792E+03  0.7546771E-02  0.1114908E+00
         21   -1    0    0  502  501  0.00000000000E+00  0.00000000000E+00  0.11954023065E+04  0.11954023065E+04  0.00000000000E+00 0. -1.
         21   -1    0    0  501  502 -0.00000000000E+00 -0.00000000000E+00 -0.51234576023E+02  0.51234576023E+02  0.00000000000E+00 0. -1.
         25    1    1    2    0    0  0.13922226141E+03  0.13028544877E+02  0.31444239481E+03  0.36613057876E+03  0.12500000000E+03 0.  0.
         25    1    1    2    0    0 -0.76934892830E+02 -0.83014089058E+00  0.52402232006E+03  0.54419119691E+03  0.12500000000E+03 0.  0.
         25    1    1    2    0    0 -0.62287368580E+02 -0.12198403986E+02  0.30570301560E+03  0.33631510684E+03  0.12500000000E+03 0.  0.
</event>
<event>
 5    0  0.5756159E-005  0.3541925E+03  0.7546771E-02  0.1060907E+00
         21   -1    0    0  502  501  0.00000000000E+00  0.00000000000E+00  0.46179713060E+03  0.46179713060E+03  0.00000000000E+00 0. -1.
         21   -1    0    0  501  502 -0.00000000000E+00 -0.00000000000E+00 -0.27166111141E+03  0.27166111141E+03  0.00000000000E+00 0. -1.
         25    1    1    2    0    0 -0.10507921631E+03 -0.12511475072E+02 -0.59790333896E+01  0.16388693526E+03  0.12500000000E+03 0.  0.
         25    1    1    2    0    0  0.10456802547E+03  0.31453628077E+02  0.33980773118E+03  0.37817733517E+03  0.12500000000E+03 0.  0.
         25    1    1    2    0    0  0.51119084575E+00 -0.18942153005E+02 -0.14369267859E+03  0.19139397158E+03  0.12500000000E+03 0.  0.
</event>
<event>
 5    0  0.5749909E-005  0.3396714E+03  0.7546771E-02  0.1066936E+00
         21   -1    0    0  502  501  0.00000000000E+00  0.00000000000E+00  0.10773106109E+03  0.10773106109E+03  0.00000000000E+00 0.  1.
         21   -1    0    0  501  502 -0.00000000000E+00 -0.00000000000E+00 -0.10709691785E+04  0.10709691785E+04  0.00000000000E+00 0.  1.
         25    1    1    2    0    0  0.13206927919E+03 -0.50330586722E+02 -0.55933585337E+02  0.19679692181E+03  0.12500000000E+03 0.  0.
         25    1    1    2    0    0  0.10963665165E+02 -0.71620481998E+02 -0.43629484362E+03  0.45959535024E+03  0.12500000000E+03 0.  0.
         25    1    1    2    0    0 -0.14303294435E+03  0.12195106872E+03 -0.47100968844E+03  0.52230796752E+03  0.12500000000E+03 0.  0.
</event>
<event>
 5    0  0.5749909E-005  0.4176478E+03  0.7546771E-02  0.1037835E+00
         21   -1    0    0  502  501  0.00000000000E+00  0.00000000000E+00  0.10305354533E+03  0.10305354533E+03  0.00000000000E+00 0.  1.
         21   -1    0    0  501  502 -0.00000000000E+00 -0.00000000000E+00 -0.16926119614E+04  0.16926119614E+04  0.00000000000E+00 0.  1.
         25    1    1    2    0    0  0.99195248162E+02 -0.58426456306E+02 -0.21694387271E+02  0.17131548235E+03  0.12500000000E+03 0.  0.
         25    1    1    2    0    0  0.96520756398E+02  0.11064947992E+02 -0.35729913352E+03  0.39080220100E+03  0.12500000000E+03 0.  0.
         25    1    1    2    0    0 -0.19571600456E+03  0.47361508313E+02 -0.12105648953E+04  0.12335478234E+04  0.12500000000E+03 0.  0.
</event>
<event>
 5    0  0.5749909E-005  0.2508911E+03  0.7546771E-02  0.1112743E+00
         21   -1    0    0  502  501  0.00000000000E+00  0.00000000000E+00  0.44888098824E+03  0.44888098824E+03  0.00000000000E+00 0. -1.
         21   -1    0    0  501  502 -0.00000000000E+00 -0.00000000000E+00 -0.14022952354E+03  0.14022952354E+03  0.00000000000E+00 0. -1.
         25    1    1    2    0    0 -0.47659441855E+01 -0.95085159688E+02  0.11575902555E+03  0.19516417144E+03  0.12500000000E+03 0.  0.
         25    1    1    2    0    0 -0.82221612243E+02  0.96135324296E+02  0.15758674625E+03  0.23761518616E+03  0.12500000000E+03 0.  0.
         25    1    1    2    0    0  0.86987556428E+02 -0.10501646080E+01  0.35305692889E+02  0.15633115419E+03  0.12500000000E+03 0.  0.
</event>
<event>
 5    0  0.5749909E-005  0.3287855E+03  0.7546771E-02  0.1071676E+00
         21   -1    0    0  502  501  0.00000000000E+00  0.00000000000E+00  0.22395327696E+04  0.22395327696E+04  0.00000000000E+00 0.  1.
         21   -1    0    0  501  502 -0.00000000000E+00 -0.00000000000E+00 -0.48268958720E+02  0.48268958720E+02  0.00000000000E+00 0.  1.
         25    1    1    2    0    0 -0.58334756579E+02  0.52219511551E+02  0.11113225455E+04  0.11210676257E+04  0.12500000000E+03 0.  0.
         25    1    1    2    0    0  0.18416514004E+03 -0.37455368450E+02  0.82838163559E+03  0.85858071118E+03  0.12500000000E+03 0.  0.
         25    1    1    2    0    0 -0.12583038346E+03 -0.14764143101E+02  0.25155962975E+03  0.30815339141E+03  0.12500000000E+03 0.  0.
</event>
<event>
 5    0  0.5749909E-005  0.3235057E+03  0.7546771E-02  0.1074047E+00
         21   -1    0    0  502  501  0.00000000000E+00  0.00000000000E+00  0.44440812950E+03  0.44440812950E+03  0.00000000000E+00 0.  1.
         21   -1    0    0  501  502 -0.00000000000E+00 -0.00000000000E+00 -0.23549517411E+03  0.23549517411E+03  0.00000000000E+00 0.  1.
         25    1    1    2    0    0  0.12255131897E+03 -0.49754894851E+02  0.42745270134E+01  0.18203748769E+03  0.12500000000E+03 0.  0.
         25    1    1    2    0    0 -0.10626914663E+03  0.16022010750E+03 -0.51055818681E+01  0.22937890343E+03  0.12500000000E+03 0.  0.
         25    1    1    2    0    0 -0.16282172346E+02 -0.11046521265E+03  0.20974401025E+03  0.26848691249E+03  0.12500000000E+03 0.  0.
</event>
<event>
 5    0  0.5749909E-005  0.2634871E+03  0.7546771E-02  0.1105066E+00
         21   -1    0    0  502  501  0.00000000000E+00  0.00000000000E+00  0.99655668654E+02  0.99655668654E+02  0.00000000000E+00 0. -1.
         21   -1    0    0  501  502 -0.00000000000E+00 -0.00000000000E+00 -0.69665352001E+03  0.69665352001E+03  0.00000000000E+00 0. -1.
         25    1    1    2    0    0 -0.17403957130E+02  0.88141308356E+02 -0.41051534055E+02  0.15931734498E+03  0.12500000000E+03 0.  0.
         25    1    1    2    0    0  0.32225869172E+02 -0.99931454750E+02 -0.42358122302E+03  0.45395027788E+03  0.12500000000E+03 0.  0.
         25    1    1    2    0    0 -0.14821912042E+02  0.11790146395E+02 -0.13236509427E+03  0.18304156580E+03  0.12500000000E+03 0.  0.
</event>
<event>
 5    0  0.7299860E-005  0.3077754E+03  0.7546771E-02  0.1081417E+00
         21   -1    0    0  502  501  0.00000000000E+00  0.00000000000E+00  0.63586784643E+03  0.63586784643E+03  0.00000000000E+00 0. -1.
         21   -1    0    0  501  502 -0.00000000000E+00 -0.00000000000E+00 -0.14897076490E+03  0.14897076490E+03  0.00000000000E+00 0. -1.
         25    1    1    2    0    0 -0.16893876438E+00 -0.11730166041E+03  0.15328029952E+03  0.22995555722E+03  0.12500000000E+03 0.  0.
         25    1    1    2    0    0 -0.12297066164E+03  0.17185140586E+03  0.25809073851E+03  0.35621695443E+03  0.12500000000E+03 0.  0.
         25    1    1    2    0    0  0.12313960041E+03 -0.54549745448E+02  0.75526043495E+02  0.19866609968E+03  0.12500000000E+03 0.  0.
</event>
<event>
 5    0  0.5749909E-005  0.2889925E+03  0.7546771E-02  0.1090876E+00
         21   -1    0    0  502  501  0.00000000000E+00  0.00000000000E+00  0.62405581183E+03  0.62405581183E+03  0.00000000000E+00 0. -1.
         21   -1    0    0  501  502 -0.00000000000E+00 -0.00000000000E+00 -0.13382879566E+03  0.13382879566E+03  0.00000000000E+00 0. -1.
         25    1    1    2    0    0  0.12073365161E+03  0.80189467228E+02  0.10735588443E+03  0.21944760470E+03  0.12500000000E+03 0.  0.
         25    1    1    2    0    0 -0.79951467836E+02  0.11733182951E+02  0.34184420247E+03  0.37284361809E+03  0.12500000000E+03 0.  0.
         25    1    1    2    0    0 -0.40782183772E+02 -0.91922650179E+02  0.41026929269E+02  0.16559338469E+03  0.12500000000E+03 0.  0.
</event>
<event>
 5    0  0.5749909E-005  0.2217570E+03  0.7546771E-02  0.1132580E+00
         21   -1    0    0  502  501  0.00000000000E+00  0.00000000000E+00  0.14052471885E+03  0.14052471885E+03  0.00000000000E+00 0. -1.
         21   -1    0    0  501  502 -0.00000000000E+00 -0.00000000000E+00 -0.34994684317E+03  0.34994684317E+03  0.00000000000E+00 0. -1.
         25    1    1    2    0    0  0.58189370645E+02 -0.32315577937E+02 -0.80990873989E+02  0.16314049498E+03  0.12500000000E+03 0.  0.
         25    1    1    2    0    0 -0.10412779191E+03  0.21861267378E+02 -0.46447264813E+02  0.17059560507E+03  0.12500000000E+03 0.  0.
         25    1    1    2    0    0  0.45938421263E+02  0.10454310559E+02 -0.81983985514E+02  0.15673546197E+03  0.12500000000E+03 0.  0.
</event>
<event>
 5    0  0.5749909E-005  0.4312183E+03  0.7546771E-02  0.1033476E+00
         21   -1    0    0  502  501  0.00000000000E+00  0.00000000000E+00  0.19488322810E+03  0.19488322810E+03  0.00000000000E+00 0.  1.
         21   -1    0    0  501  502 -0.00000000000E+00 -0.00000000000E+00 -0.95415731089E+03  0.95415731089E+03  0.00000000000E+00 0.  1.
         25    1    1    2    0    0 -0.21388646607E+03 -0.25861222900E+03 -0.44869211188E+03  0.57408824811E+03  0.12500000000E+03 0.  0.
         25    1    1    2    0    0  0.31827136289E+02  0.11372222612E+01 -0.15531180698E+03  0.20189357906E+03  0.12500000000E+03 0.  0.
         25    1    1    2    0    0  0.18205932978E+03  0.25747500674E+03 -0.15527016394E+03  0.37305871182E+03  0.12500000000E+03 0.  0.
</event>
<event>
 5    0  0.5749909E-005  0.3602322E+03  0.7546771E-02  0.1058492E+00
         21   -1    0    0  502  501  0.00000000000E+00  0.00000000000E+00  0.18706158381E+04  0.18706158381E+04  0.00000000000E+00 0. -1.
         21   -1    0    0  501  502 -0.00000000000E+00 -0.00000000000E+00 -0.69371388249E+02  0.69371388249E+02  0.00000000000E+00 0. -1.
         25    1    1    2    0    0 -0.13357741081E+03  0.23200230457E+03  0.62966116942E+03  0.69553302027E+03  0.12500000000E+03 0.  0.
         25    1    1    2    0    0 -0.31880851409E+02 -0.59658218896E+02  0.52507676007E+03  0.54397251377E+03  0.12500000000E+03 0.  0.
         25    1    1    2    0    0  0.16545826222E+03 -0.17234408568E+03  0.64650652038E+03  0.70048169233E+03  0.12500000000E+03 0.  0.
</event>
<event>
 5    0  0.5749909E-005  0.2525932E+03  0.7546771E-02  0.1111677E+00
         21   -1    0    0  502  501  0.00000000000E+00  0.00000000000E+00  0.22453658216E+03  0.22453658216E+03  0.00000000000E+00 0.  1.
         21   -1    0    0  501  502 -0.00000000000E+00 -0.00000000000E+00 -0.28415551149E+03  0.28415551149E+03  0.00000000000E+00 0.  1.
         25    1    1    2    0    0 -0.74178811120E+02 -0.31909067933E+02 -0.34926602723E+02  0.15285794783E+03  0.12500000000E+03 0.  0.
         25    1    1    2    0    0 -0.78963123002E+02  0.54440398116E+01  0.25591767732E+02  0.15014909570E+03  0.12500000000E+03 0.  0.
         25    1    1    2    0    0  0.15314193412E+03  0.26465028121E+02 -0.50284094345E+02  0.20568505012E+03  0.12500000000E+03 0.  0.
</event>
<event>
 5    0  0.5749909E-005  0.3594135E+03  0.7546771E-02  0.1058816E+00
         21   -1    0    0  502  501  0.00000000000E+00  0.00000000000E+00  0.51490613118E+03  0.51490613118E+03  0.00000000000E+00 0. -1.
         21   -1    0    0  501  502 -0.00000000000E+00 -0.00000000000E+00 -0.25087694149E+03  0.25087694149E+03  0.00000000000E+00 0. -1.
         25    1    1    2    0    0  0.11780625765E+02  0.77816448849E+02  0.31766474883E+02  0.15109034311E+03  0.12500000000E+03 0.  0.
         25    1    1    2    0    0  0.21303264256E+03 -0.62461677647E+02 -0.18094569391E+02  0.25541492011E+03  0.12500000000E+03 0.  0.
         25    1    1    2    0    0 -0.22481326833E+03 -0.15354771202E+02  0.25035728420E+03  0.35927780946E+03  0.12500000000E+03 0.  0.
</event>
<event>
 5    0  0.5749909E-005  0.2188602E+03  0.7546771E-02  0.1134736E+00
         21   -1    0    0  502  501  0.00000000000E+00  0.00000000000E+00  0.78999730378E+03  0.78999730378E+03  0.00000000000E+00 0. -1.
         21   -1    0    0  501  502 -0.00000000000E+00 -0.00000000000E+00 -0.60632847787E+02  0.60632847787E+02  0.00000000000E+00 0. -1.
         25    1    1    2    0    0 -0.21831039508E+01 -0.64259334641E+01  0.85242726709E+02  0.15145091951E+03  0.12500000000E+03 0.  0.
         25    1    1    2    0    0 -0.29403903962E+02  0.46630581419E+02  0.33991132298E+03  0.36633824286E+03  0.12500000000E+03 0.  0.
         25    1    1    2    0    0  0.31587007913E+02 -0.40204647955E+02  0.30421040630E+03  0.33284098919E+03  0.12500000000E+03 0.  0.
</event>
<event>
 5    0  0.5749909E-005  0.2643533E+03  0.7546771E-02  0.1104556E+00
         21   -1    0    0  502  501  0.00000000000E+00  0.00000000000E+00  0.36705600080E+03  0.36705600080E+03  0.00000000000E+00 0.  1.
         21   -1    0    0  501  502 -0.00000000000E+00 -0.00000000000E+00 -0.19038698973E+03  0.19038698973E+03  0.00000000000E+00 0.  1.
         25    1    1    2    0    0 -0.91661882982E+02 -0.11322939504E+03  0.72819255698E+02  0.20530572494E+03  0.12500000000E+03 0.  0.
         25    1    1    2    0    0  0.12985241405E+03  0.67284730128E+02  0.28684036047E+02  0.19451647299E+03  0.12500000000E+03 0.  0.
         25    1    1    2    0    0 -0.38190531065E+02  0.45944664914E+02  0.75165719324E+02  0.15762079260E+03  0.12500000000E+03 0.  0.
</event>
<event>
 5    0  0.5749909E-005  0.3059263E+03  0.7546771E-02  0.1082315E+00
         21   -1    0    0  502  501  0.00000000000E+00  0.00000000000E+00  0.16695485731E+03  0.16695485731E+03  0.00000000000E+00 0. -1.
         21   -1    0    0  501  502 -0.00000000000E+00 -0.00000000000E+00 -0.56057609795E+03  0.56057609795E+03  0.00000000000E+00 0. -1.
         25    1    1    2    0    0 -0.11038290841E+03 -0.14313085728E+03 -0.34009780639E+03  0.40492264284E+03  0.12500000000E+03 0.  0.
         25    1    1    2    0    0  0.75221230153E+02  0.40232610585E+02 -0.12019600379E+02  0.15181030009E+03  0.12500000000E+03 0.  0.
         25    1    1    2    0    0  0.35161678257E+02  0.10289824670E+03 -0.41503833869E+02  0.17079801233E+03  0.12500000000E+03 0.  0.
</event>
<event>
 5    0  0.5749909E-005  0.2643072E+03  0.7546771E-02  0.1104583E+00
         21   -1    0    0  502  501  0.00000000000E+00  0.00000000000E+00  0.82527930557E+03  0.82527930557E+03  0.00000000000E+00 0.  1.
         21   -1    0    0  501  502 -0.00000000000E+00 -0.00000000000E+00 -0.84648069419E+02  0.84648069419E+02  0.00000000000E+00 0.  1.
         25    1    1    2    0    0 -0.82428576224E+02  0.23133009991E+01  0.92397001151E+02  0.17596030053E+03  0.12500000000E+03 0.  0.
         25    1    1    2    0    0  0.96263080226E+02 -0.40829720104E+02  0.53866970025E+03  0.56278210048E+03  0.12500000000E+03 0.  0.
         25    1    1    2    0    0 -0.13834504002E+02  0.38516419105E+02  0.10956453476E+03  0.17118497398E+03  0.12500000000E+03 0.  0.
</event>
<event>
 5    0  0.5749909E-005  0.3631216E+03  0.7546771E-02  0.1057355E+00
         21   -1    0    0  502  501  0.00000000000E+00  0.00000000000E+00  0.33667093679E+03  0.33667093679E+03  0.00000000000E+00 0. -1.
         21   -1    0    0  501  502 -0.00000000000E+00 -0.00000000000E+00 -0.39165043519E+03  0.39165043519E+03  0.00000000000E+00 0. -1.
         25    1    1    2    0    0 -0.50379941996E+02  0.11621009581E+03 -0.23260896327E+03  0.29287344488E+03  0.12500000000E+03 0.  0.
         25    1    1    2    0    0 -0.97074056957E+02  0.15688971157E+02  0.10436698261E+03  0.19022876599E+03  0.12500000000E+03 0.  0.
         25    1    1    2    0    0  0.14745399895E+03 -0.13189906697E+03  0.73262482262E+02  0.24521916112E+03  0.12500000000E+03 0.  0.
</event>
<event>
 5    0  0.5749909E-005  0.2751326E+03  0.7546771E-02  0.1098377E+00
         21   -1    0    0  502  501  0.00000000000E+00  0.00000000000E+00  0.10816617668E+04  0.10816617668E+04  0.00000000000E+00 0.  1.
         21   -1    0    0  501  502 -0.00000000000E+00 -0.00000000000E+00 -0.69983029843E+02  0.69983029843E+02  0.00000000000E+00 0.  1.
         25    1    1    2    0    0  0.48699600072E+02  0.25912341006E+01  0.23369338944E+03  0.26947349742E+03  0.12500000000E+03 0.  0.
         25    1    1    2    0    0  0.11186600858E+03 -0.90798123842E+02  0.41604360097E+03  0.45768502388E+03  0.12500000000E+03 0.  0.
         25    1    1    2    0    0 -0.16056560865E+03  0.88206889742E+02  0.36194174659E+03  0.42448627540E+03  0.12500000000E+03 0.  0.
</event>
<event>
 5    0  0.5749909E-005  0.4306551E+03  0.7546771E-02  0.1033653E+00
         21   -1    0    0  502  501  0.00000000000E+00  0.00000000000E+00  0.21479265430E+03  0.21479265430E+03  0.00000000000E+00 0.  1.
         21   -1    0    0  501  502 -0.00000000000E+00 -0.00000000000E+00 -0.86345511729E+03  0.86345511729E+03  0.00000000000E+00 0.  1.
         25    1    1    2    0    0 -0.28403539311E+03 -0.38908239210E+02 -0.90951748332E+02  0.32571026410E+03  0.12500000000E+03 0.  0.
         25    1    1    2    0    0  0.25391509649E+03  0.56188732007E+02 -0.55177956580E+03  0.62266824158E+03  0.12500000000E+03 0.  0.
         25    1    1    2    0    0  0.30120296623E+02 -0.17280492797E+02 -0.59311488578E+01  0.12986926591E+03  0.12500000000E+03 0.  0.
</event>
<event>
 5    0  0.5749909E-005  0.2701835E+03  0.7546771E-02  0.1101175E+00
         21   -1    0    0  502  501  0.00000000000E+00  0.00000000000E+00  0.69182323655E+03  0.69182323655E+03  0.00000000000E+00 0. -1.
         21   -1    0    0  501  502 -0.00000000000E+00 -0.00000000000E+00 -0.10551701951E+03  0.10551701951E+03  0.00000000000E+00 0. -1.
         25    1    1    2    0    0 -0.57326689027E+02  0.92411091431E+02  0.90695022027E+02  0.18888288995E+03  0.12500000000E+03 0.  0.
         25    1    1    2    0    0  0.33275490820E+02  0.64635793521E+02  0.15203972245E+03  0.20982402459E+03  0.12500000000E+03 0.  0.
         25    1    1    2    0    0  0.24051198207E+02 -0.15704688495E+03  0.34357147257E+03  0.39863334152E+03  0.12500000000E+03 0.  0.
</event>
<event>
 5    0  0.5749909E-005  0.3793164E+03  0.7546771E-02  0.1051187E+00
         21   -1    0    0  502  501  0.00000000000E+00  0.00000000000E+00  0.16450803358E+03  0.16450803358E+03  0.00000000000E+00 0. -1.
         21   -1    0    0  501  502 -0.00000000000E+00 -0.00000000000E+00 -0.87461339604E+03  0.87461339604E+03  0.00000000000E+00 0. -1.
         25    1    1    2    0    0  0.83610553756E+02  0.13759750353E+03 -0.26782176157E+03  0.33656692299E+03  0.12500000000E+03 0.  0.
         25    1    1    2    0    0 -0.12126990429E+02 -0.28037422310E+03 -0.13775114786E+03  0.33668553223E+03  0.12500000000E+03 0.  0.
         25    1    1    2    0    0 -0.71483563327E+02  0.14277671957E+03 -0.30453245303E+03  0.36586897440E+03  0.12500000000E+03 0.  0.
</event>
<event>
 5    0  0.5749909E-005  0.4162118E+03  0.7546771E-02  0.1038306E+00
         21   -1    0    0  502  501  0.00000000000E+00  0.00000000000E+00  0.18742845434E+03  0.18742845434E+03  0.00000000000E+00 0.  1.
         21   -1    0    0  501  502 -0.00000000000E+00 -0.00000000000E+00 -0.92425823898E+03  0.92425823898E+03  0.00000000000E+00 0.  1.
         25    1    1    2    0    0 -0.49529726041E+02 -0.55416692840E+02  0.77720543762E+02  0.16489295476E+03  0.12500000000E+03 0.  0.
         25    1    1    2    0    0  0.12633360774E+03  0.15215859305E+03 -0.69738000577E+03  0.73557888111E+03  0.12500000000E+03 0.  0.
         25    1    1    2    0    0 -0.76803881696E+02 -0.96741900214E+02 -0.11717032263E+03  0.21121485745E+03  0.12500000000E+03 0.  0.
</event>
<event>
 5    0  0.5749909E-005  0.4263798E+03  0.7546771E-02  0.1035010E+00
         21   -1    0    0  502  501  0.00000000000E+00  0.00000000000E+00  0.35353084231E+03  0.35353084231E+03  0.00000000000E+00 0. -1.
         21   -1    0    0  501  502 -0.00000000000E+00 -0.00000000000E+00 -0.51424012072E+03  0.51424012072E+03  0.00000000000E+00 0. -1.
         25    1    1    2    0    0  0.13022819992E+03  0.29307463451E+03  0.33275834014E+02  0.34580978381E+03  0.12500000000E+03 0.  0.
         25    1    1    2    0    0  0.59267919618E+02 -0.40394983788E+02 -0.71470541924E+02  0.16086478600E+03  0.12500000000E+03 0.  0.
         25    1    1    2    0    0 -0.18949611954E+03 -0.25267965073E+03 -0.12251457051E+03  0.36109639322E+03  0.12500000000E+03 0.  0.
</event>
<event>
 5    0  0.5749909E-005  0.3697996E+03  0.7546771E-02  0.1054770E+00
         21   -1    0    0  502  501  0.00000000000E+00  0.00000000000E+00  0.26489767362E+03  0.26489767362E+03  0.00000000000E+00 0. -1.
         21   -1    0    0  501  502 -0.00000000000E+00 -0.00000000000E+00 -0.51624359207E+03  0.51624359207E+03  0.00000000000E+00 0. -1.
         25    1    1    2    0    0 -0.22730151943E+03  0.63726016735E+02  0.23754312129E+02  0.26817205911E+03  0.12500000000E+03 0.  0.
         25    1    1    2    0    0  0.17344830464E+03 -0.20495991293E+02 -0.13836110532E+02  0.21522276366E+03  0.12500000000E+03 0.  0.
         25    1    1    2    0    0  0.53853214785E+02 -0.43230025442E+02 -0.26126412005E+03  0.29774644291E+03  0.12500000000E+03 0.  0.
</event>
<event>
 5    0  0.5749909E-005  0.2702016E+03  0.7546771E-02  0.1101164E+00
         21   -1    0    0  502  501  0.00000000000E+00  0.00000000000E+00  0.34562061471E+03  0.34562061471E+03  0.00000000000E+00 0. -1.
         21   -1    0    0  501  502 -0.00000000000E+00 -0.00000000000E+00 -0.21123999555E+03  0.21123999555E+03  0.00000000000E+00 0. -1.
         25    1    1    2    0    0  0.11606305360E+03  0.13937721361E+03  0.47858962560E+02  0.22541543954E+03  0.12500000000E+03 0.  0.
         25    1    1    2    0    0 -0.68355795290E+02 -0.61033660573E+02  0.23147032045E+01  0.15500961365E+03  0.12500000000E+03 0.  0.
         25    1    1    2    0    0 -0.47707258305E+02 -0.78343553041E+02  0.84206953400E+02  0.17643555707E+03  0.12500000000E+03 0.  0.
</event>
<event>
 5    0  0.5749909E-005  0.2399914E+03  0.7546771E-02  0.1119799E+00
         21   -1    0    0  502  501  0.00000000000E+00  0.00000000000E+00  0.44782197089E+02  0.44782197089E+02  0.00000000000E+00 0. -1.
         21   -1    0    0  501  502 -0.00000000000E+00 -0.00000000000E+00 -0.12861336052E+04  0.12861336052E+04  0.00000000000E+00 0. -1.
         25    1    1    2    0    0 -0.55041944977E+02 -0.10562777588E+02 -0.54586099298E+03  0.56278806991E+03  0.12500000000E+03 0.  0.
         25    1    1    2    0    0  0.13525132187E+02  0.12272796374E+02 -0.57791771565E+03  0.59156355262E+03  0.12500000000E+03 0.  0.
         25    1    1    2    0    0  0.41516812790E+02 -0.17100187868E+01 -0.11757269948E+03  0.17656417975E+03  0.12500000000E+03 0.  0.
</event>
<event>
 5    0  0.5749909E-005  0.3452661E+03  0.7546771E-02  0.1064575E+00
         21   -1    0    0  502  501  0.00000000000E+00  0.00000000000E+00  0.23393264059E+04  0.23393264059E+04  0.00000000000E+00 0. -1.
         21   -1    0    0  501  502 -0.00000000000E+00 -0.00000000000E+00 -0.50958551116E+02  0.50958551116E+02  0.00000000000E+00 0. -1.
         25    1    1    2    0    0 -0.11064199795E+03 -0.69912451774E+02  0.54311633574E+03  0.57247686134E+03  0.12500000000E+03 0.  0.
         25    1    1    2    0    0  0.53552224945E+02  0.11996512186E+03  0.16048789715E+04  0.16150916334E+04  0.12500000000E+03 0.  0.
         25    1    1    2    0    0  0.57089773006E+02 -0.50052670086E+02  0.14037254762E+03  0.20271646231E+03  0.12500000000E+03 0.  0.
</event>
<event>
 5    0  0.5749909E-005  0.4248330E+03  0.7546771E-02  0.1035505E+00
         21   -1    0    0  502  501  0.00000000000E+00  0.00000000000E+00  0.17318276429E+03  0.17318276429E+03  0.00000000000E+00 0. -1.
         21   -1    0    0  501  502 -0.00000000000E+00 -0.00000000000E+00 -0.10421536968E+04  0.10421536968E+04  0.00000000000E+00 0. -1.
         25    1    1    2    0    0  0.13442215602E+03 -0.32546838051E+03 -0.24659143156E+03  0.44769556269E+03  0.12500000000E+03 0.  0.
         25    1    1    2    0    0 -0.13323891779E+03  0.21668663679E+03 -0.40410565518E+03  0.49359101321E+03  0.12500000000E+03 0.  0.
         25    1    1    2    0    0 -0.11832382237E+01  0.10878174372E+03 -0.21827384574E+03  0.27404988515E+03  0.12500000000E+03 0.  0.
</event>
<event>
 5    0  0.5876297E-005  0.3051850E+03  0.7546771E-02  0.1082677E+00
         21   -1    0    0  502  501  0.00000000000E+00  0.00000000000E+00  0.29481903882E+03  0.29481903882E+03  0.00000000000E+00 0.  1.
         21   -1    0    0  501  502 -0.00000000000E+00 -0.00000000000E+00 -0.31591553122E+03  0.31591553122E+03  0.00000000000E+00 0.  1.
         25    1    1    2    0    0  0.64051926704E+02 -0.13122660906E+02 -0.12923621665E+03  0.19131610815E+03  0.12500000000E+03 0.  0.
         25    1    1    2    0    0 -0.97965283186E+02 -0.12541099679E+03  0.10882730538E+03  0.22976835557E+03  0.12500000000E+03 0.  0.
         25    1    1    2    0    0  0.33913356482E+02  0.13853365770E+03 -0.68758112576E+00  0.18965010633E+03  0.12500000000E+03 0.  0.
</event>
<event>
 5    0  0.5749909E-005  0.4704572E+03  0.7546771E-02  0.1021791E+00
         21   -1    0    0  502  501  0.00000000000E+00  0.00000000000E+00  0.99048750645E+02  0.99048750645E+02  0.00000000000E+00 0. -1.
         21   -1    0    0  501  502 -0.00000000000E+00 -0.00000000000E+00 -0.22345559610E+04  0.22345559610E+04  0.00000000000E+00 0. -1.
         25    1    1    2    0    0 -0.26433232005E+02  0.12070636365E+03 -0.48647029633E+03  0.51724954440E+03  0.12500000000E+03 0.  0.
         25    1    1    2    0    0 -0.50679488433E+02 -0.16219896622E+03 -0.59054626963E+02  0.21906474878E+03  0.12500000000E+03 0.  0.
         25    1    1    2    0    0  0.77112720438E+02  0.41492602572E+02 -0.15899822871E+04  0.15972904184E+04  0.12500000000E+03 0.  0.
</event>
<event>
 5    0  0.5749909E-005  0.3718248E+03  0.7546771E-02  0.1053997E+00
         21   -1    0    0  502  501  0.00000000000E+00  0.00000000000E+00  0.27674913382E+03  0.27674913382E+03  0.00000000000E+00 0.  1.
         21   -1    0    0  501  502 -0.00000000000E+00 -0.00000000000E+00 -0.49956306476E+03  0.49956306476E+03  0.00000000000E+00 0.  1.
         25    1    1    2    0    0 -0.21953766541E+03 -0.13590551185E+03 -0.43587644343E+02  0.29015853843E+03  0.12500000000E+03 0.  0.
         25    1    1    2    0    0  0.23410360913E+03  0.65703293547E+02 -0.20244619737E+03  0.34019242411E+03  0.12500000000E+03 0.  0.
         25    1    1    2    0    0 -0.14565943719E+02  0.70202218298E+02  0.23219910784E+02  0.14596123604E+03  0.12500000000E+03 0.  0.
</event>
<event>
 5    0  0.5749909E-005  0.3111331E+03  0.7546771E-02  0.1079804E+00
         21   -1    0    0  502  501  0.00000000000E+00  0.00000000000E+00  0.49689050985E+03  0.49689050985E+03  0.00000000000E+00 0.  1.
         21   -1    0    0  501  502 -0.00000000000E+00 -0.00000000000E+00 -0.19481916035E+03  0.19481916035E+03  0.00000000000E+00 0.  1.
         25    1    1    2    0    0 -0.47103264072E+02  0.10577248338E+02  0.14180612170E+03  0.19510143982E+03  0.12500000000E+03 0.  0.
         25    1    1    2    0    0  0.17976411149E+01  0.47711379474E+02 -0.12079705415E+03  0.18026795483E+03  0.12500000000E+03 0.  0.
         25    1    1    2    0    0  0.45305622957E+02 -0.58288627812E+02  0.28106228195E+03  0.31634027555E+03  0.12500000000E+03 0.  0.
</event>
<event>
 5    0  0.5749909E-005  0.2326573E+03  0.7546771E-02  0.1124783E+00
         21   -1    0    0  502  501  0.00000000000E+00  0.00000000000E+00  0.11381122697E+04  0.11381122697E+04  0.00000000000E+00 0. -1.
         21   -1    0    0  501  502 -0.00000000000E+00 -0.00000000000E+00 -0.47560683618E+02  0.47560683618E+02  0.00000000000E+00 0. -1.
         25    1    1    2    0    0 -0.32253504098E+02  0.68097639569E+02  0.16754385555E+03  0.22220153144E+03  0.12500000000E+03 0.  0.
         25    1    1    2    0    0 -0.25719994534E+02 -0.15967539397E+02  0.40606741592E+03  0.42594861980E+03  0.12500000000E+03 0.  0.
         25    1    1    2    0    0  0.57973498632E+02 -0.52130100172E+02  0.51694031457E+03  0.53752280204E+03  0.12500000000E+03 0.  0.
</event>
<event>
 5    0  0.5749909E-005  0.4311373E+03  0.7546771E-02  0.1033501E+00
         21   -1    0    0  502  501  0.00000000000E+00  0.00000000000E+00  0.15371054817E+03  0.15371054817E+03  0.00000000000E+00 0. -1.
         21   -1    0    0  501  502 -0.00000000000E+00 -0.00000000000E+00 -0.12092815908E+04  0.12092815908E+04  0.00000000000E+00 0. -1.
         25    1    1    2    0    0  0.40190576335E+02 -0.13990375841E+03 -0.42004355630E+03  0.46178992327E+03  0.12500000000E+03 0.  0.
         25    1    1    2    0    0  0.21384555228E+03  0.71062277363E+01 -0.50463299361E+03  0.56219202853E+03  0.12500000000E+03 0.  0.
         25    1    1    2    0    0 -0.25403612862E+03  0.13279753068E+03 -0.13089449277E+03  0.33901018722E+03  0.12500000000E+03 0.  0.
</event>
<event>
 5    0  0.5749909E-005  0.2620864E+03  0.7546771E-02  0.1105896E+00
         21   -1    0    0  502  501  0.00000000000E+00  0.00000000000E+00  0.66653269278E+03  0.66653269278E+03  0.00000000000E+00 0.  1.
         21   -1    0    0  501  502 -0.00000000000E+00 -0.00000000000E+00 -0.10305459804E+03  0.10305459804E+03  0.00000000000E+00 0.  1.
         25    1    1    2    0    0 -0.52407989794E+02 -0.88498942447E+02  0.25238546199E+03  0.29983675831E+03  0.12500000000E+03 0.  0.
         25    1    1    2    0    0 -0.15219821279E+02  0.10588629765E+03  0.49965839040E+02  0.17194515422E+03  0.12500000000E+03 0.  0.
         25    1    1    2    0    0  0.67627811073E+02 -0.17387355199E+02  0.26112679370E+03  0.29780537829E+03  0.12500000000E+03 0.  0.
</event>
<event>
 5    0  0.5749909E-005  0.3163005E+03  0.7546771E-02  0.1077365E+00
         21   -1    0    0  502  501  0.00000000000E+00  0.00000000000E+00  0.51142485238E+03  0.51142485238E+03  0.00000000000E+00 0. -1.
         21   -1    0    0  501  502 -0.00000000000E+00 -0.00000000000E+00 -0.19562216206E+03  0.19562216206E+03  0.00000000000E+00 0. -1.
         25    1    1    2    0    0 -0.97969606334E+02  0.10452112952E+03  0.19732869985E+03  0.27401884254E+03  0.12500000000E+03 0.  0.
         25    1    1    2    0    0  0.47717831256E+02 -0.20496711279E+03  0.98306484712E+02  0.26377580193E+03  0.12500000000E+03 0.  0.
         25    1    1    2    0    0  0.50251775078E+02  0.10044598328E+03  0.20167505755E+02  0.16925236998E+03  0.12500000000E+03 0.  0.
</event>
<event>
 5    0  0.5749909E-005  0.2422787E+03  0.7546771E-02  0.1118284E+00
         21   -1    0    0  502  501  0.00000000000E+00  0.00000000000E+00  0.14033146383E+03  0.14033146383E+03  0.00000000000E+00 0. -1.
         21   -1    0    0  501  502 -0.00000000000E+00 -0.00000000000E+00 -0.41828807393E+03  0.41828807393E+03  0.00000000000E+00 0. -1.
         25    1    1    2    0    0 -0.64759557794E+02 -0.82327911571E+02 -0.11710913704E+03  0.20077658062E+03  0.12500000000E+03 0.  0.
         25    1    1    2    0    0  0.90148818013E+02  0.94617934813E+02 -0.13845288961E+03  0.22775769058E+03  0.12500000000E+03 0.  0.
         25    1    1    2    0    0 -0.25389260219E+02 -0.12290023242E+02 -0.22394583458E+02  0.13008526655E+03  0.12500000000E+03 0.  0.
</event>
<event>
 5    0  0.5749909E-005  0.3552948E+03  0.7546771E-02  0.1060463E+00
         21   -1    0    0  502  501  0.00000000000E+00  0.00000000000E+00  0.22368016341E+03  0.22368016341E+03  0.00000000000E+00 0. -1.
         21   -1    0    0  501  502 -0.00000000000E+00 -0.00000000000E+00 -0.56435227192E+03  0.56435227192E+03  0.00000000000E+00 0. -1.
         25    1    1    2    0    0  0.38646782285E+02  0.13561824379E+03 -0.15622173668E+03  0.24477768044E+03  0.12500000000E+03 0.  0.
         25    1    1    2    0    0 -0.52920445275E+01  0.14823614694E+03 -0.34044335377E+02  0.19694155926E+03  0.12500000000E+03 0.  0.
         25    1    1    2    0    0 -0.33354737757E+02 -0.28385439073E+03 -0.15040603645E+03  0.34631319563E+03  0.12500000000E+03 0.  0.
</event>
<event>
 5    0  0.6036312E-005  0.2833549E+03  0.7546771E-02  0.1093871E+00
         21   -1    0    0  502  501  0.00000000000E+00  0.00000000000E+00  0.20760514312E+03  0.20760514312E+03  0.00000000000E+00 0. -1.
         21   -1    0    0  501  502 -0.00000000000E+00 -0.00000000000E+00 -0.38674381094E+03  0.38674381094E+03  0.00000000000E+00 0. -1.
         25    1    1    2    0    0  0.10116232968E+03 -0.11410410433E+03  0.16199452268E+02  0.19784080930E+03  0.12500000000E+03 0.  0.
         25    1    1    2    0    0 -0.81271793543E+02  0.61083677412E+02 -0.41627053975E+01  0.16117893221E+03  0.12500000000E+03 0.  0.
         25    1    1    2    0    0 -0.19890536134E+02  0.53020426919E+02 -0.19117541470E+03  0.23532921256E+03  0.12500000000E+03 0.  0.
</event>
<event>
 5    0  0.5749909E-005  0.3063509E+03  0.7546771E-02  0.1082108E+00
         21   -1    0    0  502  501  0.00000000000E+00  0.00000000000E+00  0.11861422523E+04  0.11861422523E+04  0.00000000000E+00 0. -1.
         21   -1    0    0  501  502 -0.00000000000E+00 -0.00000000000E+00 -0.79122778316E+02  0.79122778316E+02  0.00000000000E+00 0. -1.
         25    1    1    2    0    0  0.75659678576E+01  0.21590306390E+03  0.33859614017E+03  0.42064679127E+03  0.12500000000E+03 0.  0.
         25    1    1    2    0    0  0.50635604331E+02 -0.10016498136E+03  0.42207275142E+03  0.45427678282E+03  0.12500000000E+03 0.  0.
         25    1    1    2    0    0 -0.58201572188E+02 -0.11573808254E+03  0.34635058235E+03  0.39034145649E+03  0.12500000000E+03 0.  0.
</event>
<event>
 5    0  0.5749909E-005  0.2940579E+03  0.7546771E-02  0.1088249E+00
         21   -1    0    0  502  501  0.00000000000E+00  0.00000000000E+00  0.12698418997E+03  0.12698418997E+03  0.00000000000E+00 0.  1.
         21   -1    0    0  501  502 -0.00000000000E+00 -0.00000000000E+00 -0.68095136967E+03  0.68095136967E+03  0.00000000000E+00 0.  1.
         25    1    1    2    0    0 -0.13738699942E+03  0.34512938278E+02 -0.12322998725E+03  0.22555921678E+03  0.12500000000E+03 0.  0.
         25    1    1    2    0    0  0.14747776018E+03 -0.11106999080E+03 -0.34928765620E+03  0.41438279329E+03  0.12500000000E+03 0.  0.
         25    1    1    2    0    0 -0.10090760760E+02  0.76557052518E+02 -0.81449536242E+02  0.16799354957E+03  0.12500000000E+03 0.  0.
</event>
<event>
 5    0  0.5749909E-005  0.3754629E+03  0.7546771E-02  0.1052624E+00
         21   -1    0    0  502  501  0.00000000000E+00  0.00000000000E+00  0.18798675853E+04  0.18798675853E+04  0.00000000000E+00 0. -1.
         21   -1    0    0  501  502 -0.00000000000E+00 -0.00000000000E+00 -0.74990604387E+02  0.74990604387E+02  0.00000000000E+00 0. -1.
         25    1    1    2    0    0  0.18875543601E+03  0.11657138018E+03  0.10793442576E+04  0.11089754405E+04  0.12500000000E+03 0.  0.
         25    1    1    2    0    0  0.28550502364E+02  0.71806768356E+01  0.10719700391E+03  0.16728087444E+03  0.12500000000E+03 0.  0.
         25    1    1    2    0    0 -0.21730593837E+03 -0.12375205702E+03  0.61833571937E+03  0.67860187468E+03  0.12500000000E+03 0.  0.
</event>
<event>
 5    0  0.5749909E-005  0.3585583E+03  0.7546771E-02  0.1059156E+00
         21   -1    0    0  502  501  0.00000000000E+00  0.00000000000E+00  0.37451260170E+03  0.37451260170E+03  0.00000000000E+00 0.  1.
         21   -1    0    0  501  502 -0.00000000000E+00 -0.00000000000E+00 -0.34328368066E+03  0.34328368066E+03  0.00000000000E+00 0.  1.
         25    1    1    2    0    0 -0.11012787841E+03 -0.10611942910E+03  0.55689989487E+02  0.20522148466E+03  0.12500000000E+03 0.  0.
         25    1    1    2    0    0  0.20065500766E+03 -0.71112187603E+02  0.74071083863E+02  0.25774192672E+03  0.12500000000E+03 0.  0.
         25    1    1    2    0    0 -0.90527129253E+02  0.17723161671E+03 -0.98532152317E+02  0.25483287098E+03  0.12500000000E+03 0.  0.
</event>
<event>
 5    0  0.5749909E-005  0.3458026E+03  0.7546771E-02  0.1064351E+00
         21   -1    0    0  502  501  0.00000000000E+00  0.00000000000E+00  0.31858112040E+03  0.31858112040E+03  0.00000000000E+00 0. -1.
         21   -1    0    0  501  502 -0.00000000000E+00 -0.00000000000E+00 -0.37534998227E+03  0.37534998227E+03  0.00000000000E+00 0. -1.
         25    1    1    2    0    0  0.84331761894E+02 -0.23832386098E+01 -0.28927932299E+02  0.15355569399E+03  0.12500000000E+03 0.  0.
         25    1    1    2    0    0 -0.27480702835E+03 -0.40457702154E+02 -0.45065471808E+02  0.30791496431E+03  0.12500000000E+03 0.  0.
         25    1    1    2    0    0  0.19047526646E+03  0.42840940763E+02  0.17224542243E+02  0.23246044436E+03  0.12500000000E+03 0.  0.
</event>
<event>
 5    0  0.5749909E-005  0.2329999E+03  0.7546771E-02  0.1124546E+00
         21   -1    0    0  502  501  0.00000000000E+00  0.00000000000E+00  0.10560348271E+03  0.10560348271E+03  0.00000000000E+00 0.  1.
         21   -1    0    0  501  502 -0.00000000000E+00 -0.00000000000E+00 -0.51408312136E+03  0.51408312136E+03  0.00000000000E+00 0.  1.
         25    1    1    2    0    0 -0.92899588942E+02  0.56496516725E+02 -0.17436058357E+03  0.24051778132E+03  0.12500000000E+03 0.  0.
         25    1    1    2    0    0  0.86095450165E+02 -0.77312572001E+02 -0.11857789820E+03  0.20754608710E+03  0.12500000000E+03 0.  0.
         25    1    1    2    0    0  0.68041387769E+01  0.20816055277E+02 -0.11554115688E+03  0.17162273566E+03  0.12500000000E+03 0.  0.
</event>
<event>
 5    0  0.5749909E-005  0.2278357E+03  0.7546771E-02  0.1128172E+00
         21   -1    0    0  502  501  0.00000000000E+00  0.00000000000E+00  0.93698146949E+03  0.93698146949E+03  0.00000000000E+00 0.  1.
         21   -1    0    0  501  502 -0.00000000000E+00 -0.00000000000E+00 -0.55400343995E+02  0.55400343995E+02  0.00000000000E+00 0.  1.
         25    1    1    2    0    0 -0.78200626786E+01 -0.33983612132E+02  0.28971541548E+03  0.31745245509E+03  0.12500000000E+03 0.  0.
         25    1    1    2    0    0  0.19645909699E+02  0.94393921981E+02  0.44643048449E+03  0.47352017038E+03  0.12500000000E+03 0.  0.
         25    1    1    2    0    0 -0.11825847020E+02 -0.60410309850E+02  0.14543522552E+03  0.20140918801E+03  0.12500000000E+03 0.  0.
</event>
<event>
 5    0  0.5917541E-005  0.2761539E+03  0.7546771E-02  0.1097808E+00
         21   -1    0    0  502  501  0.00000000000E+00  0.00000000000E+00  0.18241773227E+03  0.18241773227E+03  0.00000000000E+00 0.  1.
         21   -1    0    0  501  502 -0.00000000000E+00 -0.00000000000E+00 -0.41805674066E+03  0.41805674066E+03  0.00000000000E+00 0.  1.
         25    1    1    2    0    0  0.93809936223E+02  0.11852169532E+03 -0.18748747277E+03  0.27133788685E+03  0.12500000000E+03 0.  0.
         25    1    1    2    0    0 -0.95863405070E+02 -0.10795465089E+03 -0.66759876710E+02  0.20230145877E+03  0.12500000000E+03 0.  0.
         25    1    1    2    0    0  0.20534688471E+01 -0.10567044428E+02  0.18608341087E+02  0.12683512731E+03  0.12500000000E+03 0.  0.
</event>
<event>
 5    0  0.6728348E-005  0.3025476E+03  0.7546771E-02  0.1083974E+00
         21   -1    0    0  502  501  0.00000000000E+00  0.00000000000E+00  0.23698456839E+03  0.23698456839E+03  0.00000000000E+00 0.  1.
         21   -1    0    0  501  502 -0.00000000000E+00 -0.00000000000E+00 -0.38624894853E+03  0.38624894853E+03  0.00000000000E+00 0.  1.
         25    1    1    2    0    0 -0.25899513640E+02 -0.96361454675E+02 -0.16340635323E+03  0.22865465451E+03  0.12500000000E+03 0.  0.
         25    1    1    2    0    0 -0.49155318577E+02  0.35681059330E+02  0.13650035440E+03  0.19479920454E+03  0.12500000000E+03 0.  0.
         25    1    1    2    0    0  0.75054832217E+02  0.60680395345E+02 -0.12235838130E+03  0.19977965786E+03  0.12500000000E+03 0.  0.
</event>
<event>
 5    0  0.5813911E-005  0.2831035E+03  0.7546771E-02  0.1094006E+00
         21   -1    0    0  502  501  0.00000000000E+00  0.00000000000E+00  0.59134115631E+03  0.59134115631E+03  0.00000000000E+00 0. -1.
         21   -1    0    0  501  502 -0.00000000000E+00 -0.00000000000E+00 -0.13553525838E+03  0.13553525838E+03  0.00000000000E+00 0. -1.
         25    1    1    2    0    0 -0.11515854285E+03  0.87276699472E+02  0.22310291349E+03  0.29373222886E+03  0.12500000000E+03 0.  0.
         25    1    1    2    0    0  0.15174103653E+03 -0.47041493034E+02  0.21595364649E+03  0.29580267353E+03  0.12500000000E+03 0.  0.
         25    1    1    2    0    0 -0.36582493682E+02 -0.40235206438E+02  0.16749337950E+02  0.13734151231E+03  0.12500000000E+03 0.  0.
</event>
<event>
 5    0  0.5749909E-005  0.3145007E+03  0.7546771E-02  0.1078208E+00
         21   -1    0    0  502  501  0.00000000000E+00  0.00000000000E+00  0.92346374954E+03  0.92346374954E+03  0.00000000000E+00 0. -1.
         21   -1    0    0  501  502 -0.00000000000E+00 -0.00000000000E+00 -0.10710837647E+03  0.10710837647E+03  0.00000000000E+00 0. -1.
         25    1    1    2    0    0  0.20984059671E+03  0.74537579015E+02  0.29251598810E+03  0.38830339943E+03  0.12500000000E+03 0.  0.
         25    1    1    2    0    0 -0.41157646447E+02  0.29640242322E+02  0.15753603529E+03  0.20740081543E+03  0.12500000000E+03 0.  0.
         25    1    1    2    0    0 -0.16868295026E+03 -0.10417782134E+03  0.36630334967E+03  0.43486791115E+03  0.12500000000E+03 0.  0.
</event>
<event>
 5    0  0.5749909E-005  0.3139445E+03  0.7546771E-02  0.1078470E+00
         21   -1    0    0  502  501  0.00000000000E+00  0.00000000000E+00  0.33428659555E+04  0.33428659555E+04  0.00000000000E+00 0.  1.
         21   -1    0    0  501  502 -0.00000000000E+00 -0.00000000000E+00 -0.29484020144E+02  0.29484020144E+02  0.00000000000E+00 0.  1.
         25    1    1    2    0    0  0.79893418265E+02 -0.13200307439E+03  0.10516298773E+04  0.10702140761E+04  0.12500000000E+03 0.  0.
         25    1    1    2    0    0 -0.81866072354E+01  0.67767079359E+02  0.19249340680E+04  0.19301957319E+04  0.12500000000E+03 0.  0.
         25    1    1    2    0    0 -0.71706811030E+02  0.64235995030E+02  0.33681799016E+03  0.37194016763E+03  0.12500000000E+03 0.  0.
</event>
<event>
 5    0  0.5749909E-005  0.3601613E+03  0.7546771E-02  0.1058520E+00
         21   -1    0    0  502  501  0.00000000000E+00  0.00000000000E+00  0.26881868114E+03  0.26881868114E+03  0.00000000000E+00 0.  1.
         21   -1    0    0  501  502 -0.00000000000E+00 -0.00000000000E+00 -0.48254134979E+03  0.48254134979E+03  0.00000000000E+00 0.  1.
         25    1    1    2    0    0  0.67138928145E+02  0.64175077718E+02  0.59637088729E+02  0.16675628511E+03  0.12500000000E+03 0.  0.
         25    1    1    2    0    0 -0.31249693954E+02 -0.52519902667E+02  0.11143268329E+03  0.17826139922E+03  0.12500000000E+03 0.  0.
         25    1    1    2    0    0 -0.35889234191E+02 -0.11655175052E+02 -0.38479244067E+03  0.40634234659E+03  0.12500000000E+03 0.  0.
</event>
<event>
 5    0  0.5749909E-005  0.3738367E+03  0.7546771E-02  0.1053236E+00
         21   -1    0    0  502  501  0.00000000000E+00  0.00000000000E+00  0.17027740871E+03  0.17027740871E+03  0.00000000000E+00 0. -1.
         21   -1    0    0  501  502 -0.00000000000E+00 -0.00000000000E+00 -0.82074228183E+03  0.82074228183E+03  0.00000000000E+00 0. -1.
         25    1    1    2    0    0  0.12467778071E+02  0.81028590199E+02 -0.32917739257E+03  0.36152985174E+03  0.12500000000E+03 0.  0.
         25    1    1    2    0    0  0.11449551217E+03 -0.18885337280E+03 -0.33559527143E+03  0.42074220722E+03  0.12500000000E+03 0.  0.
         25    1    1    2    0    0 -0.12696329024E+03  0.10782478260E+03  0.14307790889E+02  0.20874763159E+03  0.12500000000E+03 0.  0.
</event>
<event>
 5    0  0.5818028E-005  0.4113637E+03  0.7546771E-02  0.1039914E+00
         21   -1    0    0  502  501  0.00000000000E+00  0.00000000000E+00  0.41747581047E+03  0.41747581047E+03  0.00000000000E+00 0. -1.
         21   -1    0    0  501  502 -0.00000000000E+00 -0.00000000000E+00 -0.40534116023E+03  0.40534116023E+03  0.00000000000E+00 0. -1.
         25    1    1    2    0    0  0.16213158145E+03  0.16794396921E+03 -0.50347762768E+02  0.26953983697E+03  0.12500000000E+03 0.  0.
         25    1    1    2    0    0  0.24217015756E+01 -0.88901731745E+02  0.22951071283E+03  0.27606077202E+03  0.12500000000E+03 0.  0.
         25    1    1    2    0    0 -0.16455328302E+03 -0.79042237461E+02 -0.16702829982E+03  0.27721636171E+03  0.12500000000E+03 0.  0.
</event>
<event>
 5    0  0.5749909E-005  0.3617675E+03  0.7546771E-02  0.1057886E+00
         21   -1    0    0  502  501  0.00000000000E+00  0.00000000000E+00  0.26717935208E+03  0.26717935208E+03  0.00000000000E+00 0.  1.
         21   -1    0    0  501  502 -0.00000000000E+00 -0.00000000000E+00 -0.48984224599E+03  0.48984224599E+03  0.00000000000E+00 0.  1.
         25    1    1    2    0    0  0.28085718599E+03  0.77649340073E+02 -0.53395387029E+02  0.32153731710E+03  0.12500000000E+03 0.  0.
         25    1    1    2    0    0 -0.73758761097E+02 -0.14196017395E+01 -0.85121252895E+02  0.16826466593E+03  0.12500000000E+03 0.  0.
         25    1    1    2    0    0 -0.20709842489E+03 -0.76229738333E+02 -0.84146253983E+02  0.26721961503E+03  0.12500000000E+03 0.  0.
</event>
<event>
 5    0  0.5749909E-005  0.4248828E+03  0.7546771E-02  0.1035489E+00
         21   -1    0    0  502  501  0.00000000000E+00  0.00000000000E+00  0.12816780848E+04  0.12816780848E+04  0.00000000000E+00 0.  1.
         21   -1    0    0  501  502 -0.00000000000E+00 -0.00000000000E+00 -0.14085082810E+03  0.14085082810E+03  0.00000000000E+00 0.  1.
         25    1    1    2    0    0 -0.23288197650E+03 -0.16828257892E+03  0.79104178739E+03  0.85083791097E+03  0.12500000000E+03 0.  0.
         25    1    1    2    0    0  0.19185539157E+02  0.11112078762E+03  0.24405665700E+03  0.29648704218E+03  0.12500000000E+03 0.  0.
         25    1    1    2    0    0  0.21369643735E+03  0.57161791295E+02  0.10572881235E+03  0.27520395978E+03  0.12500000000E+03 0.  0.
</event>
<event>
 5    0  0.5803647E-005  0.3569570E+03  0.7546771E-02  0.1059795E+00
         21   -1    0    0  502  501  0.00000000000E+00  0.00000000000E+00  0.11590674268E+04  0.11590674268E+04  0.00000000000E+00 0.  1.
         21   -1    0    0  501  502 -0.00000000000E+00 -0.00000000000E+00 -0.10993174802E+03  0.10993174802E+03  0.00000000000E+00 0.  1.
         25    1    1    2    0    0 -0.19755170747E+02  0.55915803077E+02  0.33685873168E+02  0.14239586320E+03  0.12500000000E+03 0.  0.
         25    1    1    2    0    0 -0.10063294995E+03 -0.20414186603E+03  0.54893471075E+03  0.60725217888E+03  0.12500000000E+03 0.  0.
         25    1    1    2    0    0  0.12038812070E+03  0.14822606295E+03  0.46651509481E+03  0.51935113269E+03  0.12500000000E+03 0.  0.
</event>
<event>
 5    0  0.5749909E-005  0.3628967E+03  0.7546771E-02  0.1057443E+00
         21   -1    0    0  502  501  0.00000000000E+00  0.00000000000E+00  0.21320014529E+03  0.21320014529E+03  0.00000000000E+00 0. -1.
         21   -1    0    0  501  502 -0.00000000000E+00 -0.00000000000E+00 -0.61770148429E+03  0.61770148429E+03  0.00000000000E+00 0. -1.
         25    1    1    2    0    0 -0.21120856603E+03  0.12961877819E+03 -0.86017053899E+02  0.29057532515E+03  0.12500000000E+03 0.  0.
         25    1    1    2    0    0 -0.81074965285E+00  0.45303035827E+02 -0.11895887465E+03  0.17840750048E+03  0.12500000000E+03 0.  0.
         25    1    1    2    0    0  0.21201931568E+03 -0.17492181401E+03 -0.19952541045E+03  0.36191880395E+03  0.12500000000E+03 0.  0.
</event>
<event>
 5    0  0.5749909E-005  0.5782193E+03  0.7546771E-02  0.9951654E-01
         21   -1    0    0  502  501  0.00000000000E+00  0.00000000000E+00  0.42900539758E+03  0.42900539758E+03  0.00000000000E+00 0.  1.
         21   -1    0    0  501  502 -0.00000000000E+00 -0.00000000000E+00 -0.77933170541E+03  0.77933170541E+03  0.00000000000E+00 0.  1.
         25    1    1    2    0    0 -0.33800715860E+03  0.60321626902E+02 -0.60294484357E+03  0.70502129211E+03  0.12500000000E+03 0.  0.
         25    1    1    2    0    0  0.14882685737E+03 -0.70844298923E+02  0.99835994984E+02  0.22969670015E+03  0.12500000000E+03 0.  0.
         25    1    1    2    0    0  0.18918030123E+03  0.10522672021E+02  0.15278254076E+03  0.27361911074E+03  0.12500000000E+03 0.  0.
</event>
<event>
 5    0  0.5749909E-005  0.4340064E+03  0.7546771E-02  0.1032602E+00
         21   -1    0    0  502  501  0.00000000000E+00  0.00000000000E+00  0.51982844006E+03  0.51982844006E+03  0.00000000000E+00 0.  1.
         21   -1    0    0  501  502 -0.00000000000E+00 -0.00000000000E+00 -0.36235333240E+03  0.36235333240E+03  0.00000000000E+00 0.  1.
         25    1    1    2    0    0 -0.30453668155E+02  0.19672672600E+03  0.20330794478E+03  0.31078602130E+03  0.12500000000E+03 0.  0.
         25    1    1    2    0    0 -0.11867885376E+03 -0.22910347431E+03  0.12278213512E+03  0.31188703880E+03  0.12500000000E+03 0.  0.
         25    1    1    2    0    0  0.14913252191E+03  0.32376748306E+02 -0.16861497224E+03  0.25950871235E+03  0.12500000000E+03 0.  0.
</event>
<event>
 5    0  0.5749909E-005  0.2891667E+03  0.7546771E-02  0.1090785E+00
         21   -1    0    0  502  501  0.00000000000E+00  0.00000000000E+00  0.89534871109E+02  0.89534871109E+02  0.00000000000E+00 0. -1.
         21   -1    0    0  501  502 -0.00000000000E+00 -0.00000000000E+00 -0.93390826431E+03  0.93390826431E+03  0.00000000000E+00 0. -1.
         25    1    1    2    0    0 -0.82585126814E+02 -0.13359489215E+02 -0.36198618680E+03  0.39199206441E+03  0.12500000000E+03 0.  0.
         25    1    1    2    0    0 -0.74586512529E+02  0.50112102192E+02 -0.36456916217E+03  0.39573986992E+03  0.12500000000E+03 0.  0.
         25    1    1    2    0    0  0.15717163934E+03 -0.36752612977E+02 -0.11781804423E+03  0.23571120109E+03  0.12500000000E+03 0.  0.
</event>
<event>
 5    0  0.5749909E-005  0.2738398E+03  0.7546771E-02  0.1099102E+00
         21   -1    0    0  502  501  0.00000000000E+00  0.00000000000E+00  0.28941664426E+03  0.28941664426E+03  0.00000000000E+00 0.  1.
         21   -1    0    0  501  502 -0.00000000000E+00 -0.00000000000E+00 -0.25910123930E+03  0.25910123930E+03  0.00000000000E+00 0.  1.
         25    1    1    2    0    0 -0.12594101399E+03 -0.58743670332E+02 -0.61452414261E+02  0.19675710160E+03  0.12500000000E+03 0.  0.
         25    1    1    2    0    0  0.26332369978E+02  0.74275958998E+02  0.11792887999E+03  0.18905695578E+03  0.12500000000E+03 0.  0.
         25    1    1    2    0    0  0.99608644016E+02 -0.15532288666E+02 -0.26161060777E+02  0.16270382618E+03  0.12500000000E+03 0.  0.
</event>
<event>
 5    0  0.5749909E-005  0.3108555E+03  0.7546771E-02  0.1079937E+00
         21   -1    0    0  502  501  0.00000000000E+00  0.00000000000E+00  0.17564062837E+03  0.17564062837E+03  0.00000000000E+00 0. -1.
         21   -1    0    0  501  502 -0.00000000000E+00 -0.00000000000E+00 -0.55016384581E+03  0.55016384581E+03  0.00000000000E+00 0. -1.
         25    1    1    2    0    0  0.72182469296E+02 -0.89606746339E+02 -0.22787601477E+03  0.28423961014E+03  0.12500000000E+03 0.  0.
         25    1    1    2    0    0  0.82984535898E+02 -0.54724536570E+02 -0.10729677481E+03  0.19240271824E+03  0.12500000000E+03 0.  0.
         25    1    1    2    0    0 -0.15516700519E+03  0.14433128291E+03 -0.39350427858E+02  0.24916214580E+03  0.12500000000E+03 0.  0.
</event>
<event>
 5    0  0.5749909E-005  0.2813954E+03  0.7546771E-02  0.1094929E+00
         21   -1    0    0  502  501  0.00000000000E+00  0.00000000000E+00  0.28208716949E+03  0.28208716949E+03  0.00000000000E+00 0.  1.
         21   -1    0    0  501  502 -0.00000000000E+00 -0.00000000000E+00 -0.28070527790E+03  0.28070527790E+03  0.00000000000E+00 0.  1.
         25    1    1    2    0    0 -0.93931794490E+01 -0.10919402312E+03 -0.15872751027E+03  0.22984992717E+03  0.12500000000E+03 0.  0.
         25    1    1    2    0    0 -0.24014967973E+02  0.10035821293E+03  0.94014234630E+02  0.18738240553E+03  0.12500000000E+03 0.  0.
         25    1    1    2    0    0  0.33408147422E+02  0.88358101978E+01  0.66095167231E+02  0.14556011469E+03  0.12500000000E+03 0.  0.
</event>
<event>
 5    0  0.5749909E-005  0.2400684E+03  0.7546771E-02  0.1119747E+00
         21   -1    0    0  502  501  0.00000000000E+00  0.00000000000E+00  0.23315102132E+02  0.23315102132E+02  0.00000000000E+00 0. -1.
         21   -1    0    0  501  502 -0.00000000000E+00 -0.00000000000E+00 -0.24719097220E+04  0.24719097220E+04  0.00000000000E+00 0. -1.
         25    1    1    2    0    0  0.23069778460E+02  0.18407779608E+00 -0.24303570046E+03  0.27426921129E+03  0.12500000000E+03 0.  0.
         25    1    1    2    0    0 -0.25506975250E+02 -0.27478086762E+02 -0.12694828055E+04  0.12761728898E+04  0.12500000000E+03 0.  0.
         25    1    1    2    0    0  0.24371967908E+01  0.27294008966E+02 -0.93607611393E+03  0.94478272313E+03  0.12500000000E+03 0.  0.
</event>
<event>
 5    0  0.5749909E-005  0.3068095E+03  0.7546771E-02  0.1081885E+00
         21   -1    0    0  502  501  0.00000000000E+00  0.00000000000E+00  0.61399034539E+03  0.61399034539E+03  0.00000000000E+00 0.  1.
         21   -1    0    0  501  502 -0.00000000000E+00 -0.00000000000E+00 -0.15331194447E+03  0.15331194447E+03  0.00000000000E+00 0.  1.
         25    1    1    2    0    0 -0.11695338017E+03  0.97547161387E+02  0.88130925490E+02  0.21583697982E+03  0.12500000000E+03 0.  0.
         25    1    1    2    0    0 -0.55142591419E+02 -0.17554955894E+02  0.30941164231E+02  0.14117803480E+03  0.12500000000E+03 0.  0.
         25    1    1    2    0    0  0.17209597159E+03 -0.79992205493E+02  0.34160631120E+03  0.41028727525E+03  0.12500000000E+03 0.  0.
</event>
<event>
 5    0  0.5749909E-005  0.2518663E+03  0.7546771E-02  0.1112131E+00
         21   -1    0    0  502  501  0.00000000000E+00  0.00000000000E+00  0.78672595774E+03  0.78672595774E+03  0.00000000000E+00 0. -1.
         21   -1    0    0  501  502 -0.00000000000E+00 -0.00000000000E+00 -0.80633705919E+02  0.80633705919E+02  0.00000000000E+00 0. -1.
         25    1    1    2    0    0  0.43061576069E+02  0.22671863044E+02  0.36840166682E+03  0.39206262359E+03  0.12500000000E+03 0.  0.
         25    1    1    2    0    0  0.78069289975E+02 -0.38410886408E+02  0.20735605116E+03  0.25727755865E+03  0.12500000000E+03 0.  0.
         25    1    1    2    0    0 -0.12113086604E+03  0.15739023363E+02  0.13033453385E+03  0.21801948142E+03  0.12500000000E+03 0.  0.
</event>
<event>
 5    0  0.5749909E-005  0.5127178E+03  0.7546771E-02  0.1010512E+00
         21   -1    0    0  502  501  0.00000000000E+00  0.00000000000E+00  0.70481850944E+03  0.70481850944E+03  0.00000000000E+00 0.  1.
         21   -1    0    0  501  502 -0.00000000000E+00 -0.00000000000E+00 -0.37297478650E+03  0.37297478650E+03  0.00000000000E+00 0.  1.
         25    1    1    2    0    0 -0.13874454970E+03  0.28086333369E+03  0.49250664963E+02  0.34085904753E+03  0.12500000000E+03 0.  0.
         25    1    1    2    0    0  0.69111688012E+02 -0.43081057313E+03  0.10948653760E+03  0.46689021971E+03  0.12500000000E+03 0.  0.
         25    1    1    2    0    0  0.69632861683E+02  0.14994723944E+03  0.17310652038E+03  0.27004402871E+03  0.12500000000E+03 0.  0.
</event>
<event>
 5    0  0.5749909E-005  0.3444107E+03  0.7546771E-02  0.1064933E+00
         21   -1    0    0  502  501  0.00000000000E+00  0.00000000000E+00  0.36145309008E+02  0.36145309008E+02  0.00000000000E+00 0.  1.
         21   -1    0    0  501  502 -0.00000000000E+00 -0.00000000000E+00 -0.32817189088E+04  0.32817189088E+04  0.00000000000E+00 0.  1.
         25    1    1    2    0    0 -0.57312590126E+02  0.15081430422E+03 -0.45312143446E+03  0.49696450750E+03  0.12500000000E+03 0.  0.
         25    1    1    2    0    0  0.86209564698E+01 -0.11123637994E+03 -0.57167132176E+03  0.59571885419E+03  0.12500000000E+03 0.  0.
         25    1    1    2    0    0  0.48691633656E+02 -0.39577924281E+02 -0.22207808436E+04  0.22251808561E+04  0.12500000000E+03 0.  0.
</event>
<event>
 5    0  0.5749909E-005  0.3456652E+03  0.7546771E-02  0.1064408E+00
         21   -1    0    0  502  501  0.00000000000E+00  0.00000000000E+00  0.30213055264E+03  0.30213055264E+03  0.00000000000E+00 0.  1.
         21   -1    0    0  501  502 -0.00000000000E+00 -0.00000000000E+00 -0.39547292481E+03  0.39547292481E+03  0.00000000000E+00 0.  1.
         25    1    1    2    0    0 -0.81533453970E+02  0.21508680846E+03  0.23110045688E+02  0.26281003311E+03  0.12500000000E+03 0.  0.
         25    1    1    2    0    0  0.14860747134E+03 -0.55798084862E+02 -0.28394007117E+02  0.20403143496E+03  0.12500000000E+03 0.  0.
         25    1    1    2    0    0 -0.67074017368E+02 -0.15928872360E+03 -0.88058410736E+02  0.23076200938E+03  0.12500000000E+03 0.  0.
</event>
<event>
 5    0  0.5749909E-005  0.2502467E+03  0.7546771E-02  0.1113149E+00
         21   -1    0    0  502  501  0.00000000000E+00  0.00000000000E+00  0.49550507879E+03  0.49550507879E+03  0.00000000000E+00 0. -1.
         21   -1    0    0  501  502 -0.00000000000E+00 -0.00000000000E+00 -0.12638295608E+03  0.12638295608E+03  0.00000000000E+00 0. -1.
         25    1    1    2    0    0 -0.32464024534E+02  0.97813555249E+02  0.97142562828E+02  0.18889966118E+03  0.12500000000E+03 0.  0.
         25    1    1    2    0    0  0.64940624235E+02 -0.14194011044E+03  0.17260632118E+03  0.26416324827E+03  0.12500000000E+03 0.  0.
         25    1    1    2    0    0 -0.32476599700E+02  0.44126555186E+02  0.99373238699E+02  0.16882512541E+03  0.12500000000E+03 0.  0.
</event>
<event>
 5    0  0.5749909E-005  0.3637944E+03  0.7546771E-02  0.1057091E+00
         21   -1    0    0  502  501  0.00000000000E+00  0.00000000000E+00  0.17900555416E+03  0.17900555416E+03  0.00000000000E+00 0. -1.
         21   -1    0    0  501  502 -0.00000000000E+00 -0.00000000000E+00 -0.73934238408E+03  0.73934238408E+03  0.00000000000E+00 0. -1.
         25    1    1    2    0    0  0.14741821080E+03  0.41204528051E+02 -0.46505450663E+03  0.50530251943E+03  0.12500000000E+03 0.  0.
         25    1    1    2    0    0 -0.14866407289E+03 -0.14898140410E+02  0.67462340038E+02  0.20615316752E+03  0.12500000000E+03 0.  0.
         25    1    1    2    0    0  0.12458620864E+01 -0.26306387642E+02 -0.16274466332E+03  0.20689225129E+03  0.12500000000E+03 0.  0.
</event>
<event>
 5    0  0.5749909E-005  0.2642698E+03  0.7546771E-02  0.1104605E+00
         21   -1    0    0  502  501  0.00000000000E+00  0.00000000000E+00  0.21868062633E+03  0.21868062633E+03  0.00000000000E+00 0.  1.
         21   -1    0    0  501  502 -0.00000000000E+00 -0.00000000000E+00 -0.31936315409E+03  0.31936315409E+03  0.00000000000E+00 0.  1.
         25    1    1    2    0    0 -0.10072027278E+03  0.13219536572E+03 -0.20742992985E+02  0.20898674557E+03  0.12500000000E+03 0.  0.
         25    1    1    2    0    0  0.62884410654E+02 -0.66536104812E+02 -0.95573995663E+02  0.18204639792E+03  0.12500000000E+03 0.  0.
         25    1    1    2    0    0  0.37835862130E+02 -0.65659260908E+02  0.15634460889E+02  0.14701063694E+03  0.12500000000E+03 0.  0.
</event>
<event>
 5    0  0.5749909E-005  0.3650761E+03  0.7546771E-02  0.1056592E+00
         21   -1    0    0  502  501  0.00000000000E+00  0.00000000000E+00  0.19948407694E+03  0.19948407694E+03  0.00000000000E+00 0.  1.
         21   -1    0    0  501  502 -0.00000000000E+00 -0.00000000000E+00 -0.66812614504E+03  0.66812614504E+03  0.00000000000E+00 0.  1.
         25    1    1    2    0    0  0.11033404261E+03 -0.10355109125E+03  0.14086106609E+02  0.19677359542E+03  0.12500000000E+03 0.  0.
         25    1    1    2    0    0 -0.19561924374E+03  0.13320436302E+03 -0.43258186415E+03  0.50868689784E+03  0.12500000000E+03 0.  0.
         25    1    1    2    0    0  0.85285201129E+02 -0.29653271777E+02 -0.50146310565E+02  0.16214972871E+03  0.12500000000E+03 0.  0.
</event>
<event>
 5    0  0.5749909E-005  0.3285773E+03  0.7546771E-02  0.1071768E+00
         21   -1    0    0  502  501  0.00000000000E+00  0.00000000000E+00  0.12410490457E+03  0.12410490457E+03  0.00000000000E+00 0. -1.
         21   -1    0    0  501  502 -0.00000000000E+00 -0.00000000000E+00 -0.86993375345E+03  0.86993375345E+03  0.00000000000E+00 0. -1.
         25    1    1    2    0    0 -0.25000584747E+02 -0.40007151709E+02 -0.26836343377E+03  0.29978247783E+03  0.12500000000E+03 0.  0.
         25    1    1    2    0    0 -0.99153855590E+02 -0.14015478410E+03 -0.35597788896E+03  0.41451189129E+03  0.12500000000E+03 0.  0.
         25    1    1    2    0    0  0.12415444034E+03  0.18016193581E+03 -0.12148752614E+03  0.27974428891E+03  0.12500000000E+03 0.  0.
</event>
<event>
 5    0  0.5749909E-005  0.3027141E+03  0.7546771E-02  0.1083892E+00
         21   -1    0    0  502  501  0.00000000000E+00  0.00000000000E+00  0.34961945079E+03  0.34961945079E+03  0.00000000000E+00 0. -1.
         21   -1    0    0  501  502 -0.00000000000E+00 -0.00000000000E+00 -0.26210164001E+03  0.26210164001E+03  0.00000000000E+00 0. -1.
         25    1    1    2    0    0 -0.61702525980E+02 -0.59247722820E+02  0.61133308040E+02  0.16333944938E+03  0.12500000000E+03 0.  0.
         25    1    1    2    0    0  0.68035810470E+02 -0.19777864937E+02 -0.15692634711E+03  0.21276962627E+03  0.12500000000E+03 0.  0.
         25    1    1    2    0    0 -0.63332844898E+01  0.79025587757E+02  0.18331084984E+03  0.23561201515E+03  0.12500000000E+03 0.  0.
</event>
<event>
 5    0  0.5749909E-005  0.4066509E+03  0.7546771E-02  0.1041501E+00
         21   -1    0    0  502  501  0.00000000000E+00  0.00000000000E+00  0.13677514066E+04  0.13677514066E+04  0.00000000000E+00 0.  1.
         21   -1    0    0  501  502 -0.00000000000E+00 -0.00000000000E+00 -0.12090280508E+03  0.12090280508E+03  0.00000000000E+00 0.  1.
         25    1    1    2    0    0 -0.40731793713E+02 -0.11079530096E+03  0.33011062131E+03  0.37219981197E+03  0.12500000000E+03 0.  0.
         25    1    1    2    0    0  0.15272513137E+03 -0.32390565289E+02  0.29453474816E+02  0.20215494466E+03  0.12500000000E+03 0.  0.
         25    1    1    2    0    0 -0.11199333765E+03  0.14318586625E+03  0.88728450537E+03  0.91429945502E+03  0.12500000000E+03 0.  0.
</event>
<event>
 5    0  0.5749909E-005  0.3517653E+03  0.7546771E-02  0.1061893E+00
         21   -1    0    0  502  501  0.00000000000E+00  0.00000000000E+00  0.17032494403E+03  0.17032494403E+03  0.00000000000E+00 0. -1.
         21   -1    0    0  501  502 -0.00000000000E+00 -0.00000000000E+00 -0.72648673852E+03  0.72648673852E+03  0.00000000000E+00 0. -1.
         25    1    1    2    0    0 -0.36317924742E+02 -0.18281674907E+03 -0.33318435207E+03  0.40171851820E+03  0.12500000000E+03 0.  0.
         25    1    1    2    0    0 -0.13279250200E+03  0.95932247357E+02 -0.15426485355E+03  0.25740918731E+03  0.12500000000E+03 0.  0.
         25    1    1    2    0    0  0.16911042675E+03  0.86884501718E+02 -0.68712588880E+02  0.23768397704E+03  0.12500000000E+03 0.  0.
</event>
<event>
 5    0  0.5749909E-005  0.2413031E+03  0.7546771E-02  0.1118928E+00
         21   -1    0    0  502  501  0.00000000000E+00  0.00000000000E+00  0.51326787095E+03  0.51326787095E+03  0.00000000000E+00 0. -1.
         21   -1    0    0  501  502 -0.00000000000E+00 -0.00000000000E+00 -0.11344403458E+03  0.11344403458E+03  0.00000000000E+00 0. -1.
         25    1    1    2    0    0  0.52341572516E+02  0.19150072770E+02  0.26128765953E+03  0.29496204251E+03  0.12500000000E+03 0.  0.
         25    1    1    2    0    0 -0.99483200810E+02  0.11681610031E+02  0.47143666295E+02  0.16697572437E+03  0.12500000000E+03 0.  0.
         25    1    1    2    0    0  0.47141628294E+02 -0.30831682801E+02  0.91392510552E+02  0.16477413865E+03  0.12500000000E+03 0.  0.
</event>
<event>
 5    0  0.5749909E-005  0.3412562E+03  0.7546771E-02  0.1066262E+00
         21   -1    0    0  502  501  0.00000000000E+00  0.00000000000E+00  0.21807283766E+03  0.21807283766E+03  0.00000000000E+00 0.  1.
         21   -1    0    0  501  502 -0.00000000000E+00 -0.00000000000E+00 -0.53402251213E+03  0.53402251213E+03  0.00000000000E+00 0.  1.
         25    1    1    2    0    0  0.18502358948E+03 -0.10984265404E+03 -0.39734525487E+02  0.25199795600E+03  0.12500000000E+03 0.  0.
         25    1    1    2    0    0 -0.11629888503E+03  0.87557943160E+01  0.26252275713E+01  0.17097949121E+03  0.12500000000E+03 0.  0.
         25    1    1    2    0    0 -0.68724704447E+02  0.10108685973E+03 -0.27884037655E+03  0.32911790259E+03  0.12500000000E+03 0.  0.
</event>
<event>
 5    0  0.5749909E-005  0.3048283E+03  0.7546771E-02  0.1082852E+00
         21   -1    0    0  502  501  0.00000000000E+00  0.00000000000E+00  0.11332049133E+03  0.11332049133E+03  0.00000000000E+00 0.  1.
         21   -1    0    0  501  502 -0.00000000000E+00 -0.00000000000E+00 -0.81997791659E+03  0.81997791659E+03  0.00000000000E+00 0.  1.
         25    1    1    2    0    0 -0.14751328351E+03  0.45357385855E+02 -0.88788649829E+02  0.21754513463E+03  0.12500000000E+03 0.  0.
         25    1    1    2    0    0  0.83134596626E+02 -0.44534219551E+02 -0.11685629938E+03  0.19538437136E+03  0.12500000000E+03 0.  0.
         25    1    1    2    0    0  0.64378686881E+02 -0.82316630350E+00 -0.50101247605E+03  0.52036890192E+03  0.12500000000E+03 0.  0.
</event>
<event>
 5    0  0.5749909E-005  0.2407567E+03  0.7546771E-02  0.1119290E+00
         21   -1    0    0  502  501  0.00000000000E+00  0.00000000000E+00  0.13542929218E+04  0.13542929218E+04  0.00000000000E+00 0.  1.
         21   -1    0    0  501  502 -0.00000000000E+00 -0.00000000000E+00 -0.42800050358E+02  0.42800050358E+02  0.00000000000E+00 0.  1.
         25    1    1    2    0    0 -0.10694910864E+03 -0.64704992311E+01  0.24492492459E+03  0.29511556700E+03  0.12500000000E+03 0.  0.
         25    1    1    2    0    0  0.54799729860E+02  0.13568089622E+02  0.43927542678E+03  0.46019018245E+03  0.12500000000E+03 0.  0.
         25    1    1    2    0    0  0.52149378781E+02 -0.70975903911E+01  0.62729252003E+03  0.64178722267E+03  0.12500000000E+03 0.  0.
</event>
<event>
 5    0  0.5749909E-005  0.2590372E+03  0.7546771E-02  0.1107723E+00
         21   -1    0    0  502  501  0.00000000000E+00  0.00000000000E+00  0.10760739825E+04  0.10760739825E+04  0.00000000000E+00 0. -1.
         21   -1    0    0  501  502 -0.00000000000E+00 -0.00000000000E+00 -0.62356541214E+02  0.62356541214E+02  0.00000000000E+00 0. -1.
         25    1    1    2    0    0 -0.10921346114E+03  0.36484317422E+02  0.31414107313E+03  0.35716704683E+03  0.12500000000E+03 0.  0.
         25    1    1    2    0    0  0.40927696616E+02  0.40184219944E+02  0.13031081980E+03  0.18946175772E+03  0.12500000000E+03 0.  0.
         25    1    1    2    0    0  0.68285764527E+02 -0.76668537367E+02  0.56926554837E+03  0.59180171918E+03  0.12500000000E+03 0.  0.
</event>
<event>
 5    0  0.5749909E-005  0.3161377E+03  0.7546771E-02  0.1077441E+00
         21   -1    0    0  502  501  0.00000000000E+00  0.00000000000E+00  0.57658733799E+03  0.57658733799E+03  0.00000000000E+00 0.  1.
         21   -1    0    0  501  502 -0.00000000000E+00 -0.00000000000E+00 -0.17333548403E+03  0.17333548403E+03  0.00000000000E+00 0.  1.
         25    1    1    2    0    0 -0.71589168928E+02 -0.36862702525E+02  0.17948765605E+03  0.23307656815E+03  0.12500000000E+03 0.  0.
         25    1    1    2    0    0  0.21692671594E+03 -0.49964071029E+02  0.11610078860E+03  0.28046033872E+03  0.12500000000E+03 0.  0.
         25    1    1    2    0    0 -0.14533754701E+03  0.86826773554E+02  0.10766340931E+03  0.23638591515E+03  0.12500000000E+03 0.  0.
</event>
<event>
 5    0  0.5749909E-005  0.5158329E+03  0.7546771E-02  0.1009727E+00
         21   -1    0    0  502  501  0.00000000000E+00  0.00000000000E+00  0.24955474398E+03  0.24955474398E+03  0.00000000000E+00 0. -1.
         21   -1    0    0  501  502 -0.00000000000E+00 -0.00000000000E+00 -0.10662333891E+04  0.10662333891E+04  0.00000000000E+00 0. -1.
         25    1    1    2    0    0 -0.15455807729E+03  0.15881904123E+03 -0.60300414042E+03  0.65448504985E+03  0.12500000000E+03 0.  0.
         25    1    1    2    0    0  0.33092086637E+03 -0.15158403778E+03 -0.22303690831E+03  0.44481097420E+03  0.12500000000E+03 0.  0.
         25    1    1    2    0    0 -0.17636278907E+03 -0.72350034485E+01  0.93624036539E+01  0.21649210897E+03  0.12500000000E+03 0.  0.
</event>
<event>
 5    0  0.5749909E-005  0.3015294E+03  0.7546771E-02  0.1084479E+00
         21   -1    0    0  502  501  0.00000000000E+00  0.00000000000E+00  0.61751205859E+03  0.61751205859E+03  0.00000000000E+00 0.  1.
         21   -1    0    0  501  502 -0.00000000000E+00 -0.00000000000E+00 -0.14723599928E+03  0.14723599928E+03  0.00000000000E+00 0.  1.
         25    1    1    2    0    0 -0.11048635545E+03 -0.89328804994E+02  0.48275350051E+02  0.19530074133E+03  0.12500000000E+03 0.  0.
         25    1    1    2    0    0  0.12144182791E+03  0.14328113775E+03  0.16886175169E+03  0.28181003032E+03  0.12500000000E+03 0.  0.
         25    1    1    2    0    0 -0.10955472464E+02 -0.53952332759E+02  0.25313895757E+03  0.28763728623E+03  0.12500000000E+03 0.  0.
</event>
<event>
 5    0  0.5749909E-005  0.2786793E+03  0.7546771E-02  0.1096412E+00
         21   -1    0    0  502  501  0.00000000000E+00  0.00000000000E+00  0.13860590307E+03  0.13860590307E+03  0.00000000000E+00 0. -1.
         21   -1    0    0  501  502 -0.00000000000E+00 -0.00000000000E+00 -0.56030905737E+03  0.56030905737E+03  0.00000000000E+00 0. -1.
         25    1    1    2    0    0 -0.10305170086E+03  0.56583561441E+02 -0.27697207137E+03  0.32582185439E+03  0.12500000000E+03 0.  0.
         25    1    1    2    0    0  0.80820347724E+02 -0.19734767424E+02 -0.18180196173E+03  0.23579300868E+03  0.12500000000E+03 0.  0.
         25    1    1    2    0    0  0.22231353138E+02 -0.36848794018E+02  0.37070878810E+02  0.13730009737E+03  0.12500000000E+03 0.  0.
</event>
<event>
 5    0  0.5749909E-005  0.3971265E+03  0.7546771E-02  0.1044779E+00
         21   -1    0    0  502  501  0.00000000000E+00  0.00000000000E+00  0.70703741643E+02  0.70703741643E+02  0.00000000000E+00 0.  1.
         21   -1    0    0  501  502 -0.00000000000E+00 -0.00000000000E+00 -0.22305678430E+04  0.22305678430E+04  0.00000000000E+00 0.  1.
         25    1    1    2    0    0 -0.29970962988E+02 -0.23590850276E+03 -0.14622421453E+04  0.14867172468E+04  0.12500000000E+03 0.  0.
         25    1    1    2    0    0  0.19476727763E+02  0.29862305071E+02 -0.82835116240E+02  0.15413551398E+03  0.12500000000E+03 0.  0.
         25    1    1    2    0    0  0.10494235225E+02  0.20604619768E+03 -0.61478683973E+03  0.66041882382E+03  0.12500000000E+03 0.  0.
</event>
<event>
 5    0  0.6146141E-005  0.2991618E+03  0.7546771E-02  0.1085660E+00
         21   -1    0    0  502  501  0.00000000000E+00  0.00000000000E+00  0.14144520726E+03  0.14144520726E+03  0.00000000000E+00 0. -1.
         21   -1    0    0  501  502 -0.00000000000E+00 -0.00000000000E+00 -0.63273800817E+03  0.63273800817E+03  0.00000000000E+00 0. -1.
         25    1    1    2    0    0 -0.76654746721E+02 -0.23726002689E+02 -0.36194029719E+02  0.15288518956E+03  0.12500000000E+03 0.  0.
         25    1    1    2    0    0  0.76397988709E+02 -0.12814444398E+03 -0.34439262277E+03  0.39558681705E+03  0.12500000000E+03 0.  0.
         25    1    1    2    0    0  0.25675801253E+00  0.15187044667E+03 -0.11070614842E+03  0.22571120883E+03  0.12500000000E+03 0.  0.
</event>
<event>
 5    0  0.5749909E-005  0.2650964E+03  0.7546771E-02  0.1104119E+00
         21   -1    0    0  502  501  0.00000000000E+00  0.00000000000E+00  0.10494324224E+03  0.10494324224E+03  0.00000000000E+00 0.  1.
         21   -1    0    0  501  502 -0.00000000000E+00 -0.00000000000E+00 -0.66965811380E+03  0.66965811380E+03  0.00000000000E+00 0.  1.
         25    1    1    2    0    0  0.17814349795E+02 -0.63716915538E+02 -0.12960069320E+03  0.19182944524E+03  0.12500000000E+03 0.  0.
         25    1    1    2    0    0 -0.88992296426E+02  0.15421186619E+03 -0.25344055675E+03  0.33400306032E+03  0.12500000000E+03 0.  0.
         25    1    1    2    0    0  0.71177946632E+02 -0.90494950650E+02 -0.18167362161E+03  0.24876885048E+03  0.12500000000E+03 0.  0.
</event>
<event>
 5    0  0.5973385E-005  0.2577015E+03  0.7546771E-02  0.1108532E+00
         21   -1    0    0  502  501  0.00000000000E+00  0.00000000000E+00  0.43281667769E+03  0.43281667769E+03  0.00000000000E+00 0.  1.
         21   -1    0    0  501  502 -0.00000000000E+00 -0.00000000000E+00 -0.15343687298E+03  0.15343687298E+03  0.00000000000E+00 0.  1.
         25    1    1    2    0    0  0.92963204532E+02 -0.30812021592E+02  0.22299526999E+02  0.16035525241E+03  0.12500000000E+03 0.  0.
         25    1    1    2    0    0  0.61543011825E+02  0.11689593612E+02  0.11049963224E+03  0.17821155301E+03  0.12500000000E+03 0.  0.
         25    1    1    2    0    0 -0.15450621636E+03  0.19122427979E+02  0.14658064547E+03  0.24768674525E+03  0.12500000000E+03 0.  0.
</event>
<event>
 5    0  0.5749909E-005  0.4529220E+03  0.7546771E-02  0.1026854E+00
         21   -1    0    0  502  501  0.00000000000E+00  0.00000000000E+00  0.38664272531E+03  0.38664272531E+03  0.00000000000E+00 0.  1.
         21   -1    0    0  501  502 -0.00000000000E+00 -0.00000000000E+00 -0.53056294276E+03  0.53056294276E+03  0.00000000000E+00 0.  1.
         25    1    1    2    0    0  0.12222168749E+03 -0.17435536858E+03 -0.73104513033E+02  0.25750185489E+03  0.12500000000E+03 0.  0.
         25    1    1    2    0    0  0.20267861291E+03  0.17247597419E+03 -0.99491097417E+02  0.31040306098E+03  0.12500000000E+03 0.  0.
         25    1    1    2    0    0 -0.32490030040E+03  0.18793943932E+01  0.28675393001E+02  0.34930075220E+03  0.12500000000E+03 0.  0.
</event>
<event>
 5    0  0.5749909E-005  0.2176691E+03  0.7546771E-02  0.1135633E+00
         21   -1    0    0  502  501  0.00000000000E+00  0.00000000000E+00  0.43169130811E+03  0.43169130811E+03  0.00000000000E+00 0. -1.
         21   -1    0    0  501  502 -0.00000000000E+00 -0.00000000000E+00 -0.10975395907E+03  0.10975395907E+03  0.00000000000E+00 0. -1.
         25    1    1    2    0    0  0.34465964210E+02 -0.41876431892E+02  0.40480674311E+02  0.14214507811E+03  0.12500000000E+03 0.  0.
         25    1    1    2    0    0 -0.48313230481E+02  0.30921874982E+02  0.73280734191E+02  0.15583772520E+03  0.12500000000E+03 0.  0.
         25    1    1    2    0    0  0.13847266271E+02  0.10954556909E+02  0.20817594054E+03  0.24346246388E+03  0.12500000000E+03 0.  0.
</event>
<event>
 5    0  0.5749909E-005  0.2947758E+03  0.7546771E-02  0.1087882E+00
         21   -1    0    0  502  501  0.00000000000E+00  0.00000000000E+00  0.63193442077E+03  0.63193442077E+03  0.00000000000E+00 0. -1.
         21   -1    0    0  501  502 -0.00000000000E+00 -0.00000000000E+00 -0.13750287404E+03  0.13750287404E+03  0.00000000000E+00 0. -1.
         25    1    1    2    0    0  0.25477182679E+02  0.14686993471E+01  0.76885440225E+02  0.14895507656E+03  0.12500000000E+03 0.  0.
         25    1    1    2    0    0 -0.77005340457E+02  0.10298461205E+03  0.41222765022E+03  0.44954675884E+03  0.12500000000E+03 0.  0.
         25    1    1    2    0    0  0.51528157778E+02 -0.10445331140E+03  0.53184562822E+01  0.17093545941E+03  0.12500000000E+03 0.  0.
</event>
<event>
 5    0  0.5749909E-005  0.3514076E+03  0.7546771E-02  0.1062039E+00
         21   -1    0    0  502  501  0.00000000000E+00  0.00000000000E+00  0.88980379149E+03  0.88980379149E+03  0.00000000000E+00 0. -1.
         21   -1    0    0  501  502 -0.00000000000E+00 -0.00000000000E+00 -0.13878035862E+03  0.13878035862E+03  0.00000000000E+00 0. -1.
         25    1    1    2    0    0  0.19103729398E+03  0.33804823590E+02  0.19900933660E+02  0.23164425516E+03  0.12500000000E+03 0.  0.
         25    1    1    2    0    0 -0.94026914040E+02 -0.20850272630E+02  0.34046324718E+03  0.37525460306E+03  0.12500000000E+03 0.  0.
         25    1    1    2    0    0 -0.97010379936E+02 -0.12954550960E+02  0.39065925203E+03  0.42168529189E+03  0.12500000000E+03 0.  0.
</event>
<event>
 5    0  0.5749909E-005  0.5931274E+03  0.7546771E-02  0.9919768E-01
         21   -1    0    0  502  501  0.00000000000E+00  0.00000000000E+00  0.11516932079E+04  0.11516932079E+04  0.00000000000E+00 0.  1.
         21   -1    0    0  501  502 -0.00000000000E+00 -0.00000000000E+00 -0.30546343327E+03  0.30546343327E+03  0.00000000000E+00 0.  1.
         25    1    1    2    0    0 -0.26568822208E+03  0.61577230195E+02  0.67196599101E+01  0.30008688819E+03  0.12500000000E+03 0.  0.
         25    1    1    2    0    0  0.18818350095E+03  0.15648126302E+03  0.85051875405E+03  0.89381573419E+03  0.12500000000E+03 0.  0.
         25    1    1    2    0    0  0.77504721129E+02 -0.21805849321E+03 -0.11008639343E+02  0.26325401877E+03  0.12500000000E+03 0.  0.
</event>
<event>
 5    0  0.5749909E-005  0.2786387E+03  0.7546771E-02  0.1096435E+00
         21   -1    0    0  502  501  0.00000000000E+00  0.00000000000E+00  0.71752287117E+03  0.71752287117E+03  0.00000000000E+00 0. -1.
         21   -1    0    0  501  502 -0.00000000000E+00 -0.00000000000E+00 -0.10820491268E+03  0.10820491268E+03  0.00000000000E+00 0. -1.
         25    1    1    2    0    0  0.24602112931E+02 -0.13632145721E+03  0.23848196154E+03  0.30279935541E+03  0.12500000000E+03 0.  0.
         25    1    1    2    0    0  0.25899355132E+02  0.17654875270E+03  0.28270729969E+03  0.35691547455E+03  0.12500000000E+03 0.  0.
         25    1    1    2    0    0 -0.50501468063E+02 -0.40227295488E+02  0.88128697264E+02  0.16601295389E+03  0.12500000000E+03 0.  0.
</event>
<event>
 5    0  0.5749909E-005  0.3342021E+03  0.7546771E-02  0.1069293E+00
         21   -1    0    0  502  501  0.00000000000E+00  0.00000000000E+00  0.23463519540E+03  0.23463519540E+03  0.00000000000E+00 0.  1.
         21   -1    0    0  501  502 -0.00000000000E+00 -0.00000000000E+00 -0.47602009836E+03  0.47602009836E+03  0.00000000000E+00 0.  1.
         25    1    1    2    0    0 -0.10280604128E+03 -0.39903304484E+02 -0.16712114720E+02  0.16752805917E+03  0.12500000000E+03 0.  0.
         25    1    1    2    0    0  0.21509803476E+03  0.96369402570E+01 -0.26920193237E+03  0.36668067248E+03  0.12500000000E+03 0.  0.
         25    1    1    2    0    0 -0.11229199348E+03  0.30266364227E+02  0.44529144140E+02  0.17644656211E+03  0.12500000000E+03 0.  0.
</event>
<event>
 5    0  0.7999434E-005  0.3341748E+03  0.7546771E-02  0.1069304E+00
         21   -1    0    0  502  501  0.00000000000E+00  0.00000000000E+00  0.20202073082E+03  0.20202073082E+03  0.00000000000E+00 0. -1.
         21   -1    0    0  501  502 -0.00000000000E+00 -0.00000000000E+00 -0.55277902187E+03  0.55277902187E+03  0.00000000000E+00 0. -1.
         25    1    1    2    0    0 -0.25381785978E+02 -0.79580367663E+02  0.49350921024E+02  0.15823331945E+03  0.12500000000E+03 0.  0.
         25    1    1    2    0    0  0.69224054735E+02  0.17361070897E+03 -0.81919892752E+02  0.23930841367E+03  0.12500000000E+03 0.  0.
         25    1    1    2    0    0 -0.43842268757E+02 -0.94030341308E+02 -0.31818931932E+03  0.35725801957E+03  0.12500000000E+03 0.  0.
</event>
<event>
 5    0  0.5749909E-005  0.3223829E+03  0.7546771E-02  0.1074558E+00
         21   -1    0    0  502  501  0.00000000000E+00  0.00000000000E+00  0.15631223322E+04  0.15631223322E+04  0.00000000000E+00 0.  1.
         21   -1    0    0  501  502 -0.00000000000E+00 -0.00000000000E+00 -0.66489208024E+02  0.66489208024E+02  0.00000000000E+00 0.  1.
         25    1    1    2    0    0 -0.32826188594E+02  0.15461627873E+03  0.40560752151E+03  0.45290861530E+03  0.12500000000E+03 0.  0.
         25    1    1    2    0    0  0.70350709571E+02 -0.24227741053E+03  0.64478004356E+03  0.70357222129E+03  0.12500000000E+03 0.  0.
         25    1    1    2    0    0 -0.37524520977E+02  0.87661131803E+02  0.44624555909E+03  0.47313070362E+03  0.12500000000E+03 0.  0.
</event>
<event>
 5    0  0.5749909E-005  0.3249204E+03  0.7546771E-02  0.1073407E+00
         21   -1    0    0  502  501  0.00000000000E+00  0.00000000000E+00  0.19780525575E+03  0.19780525575E+03  0.00000000000E+00 0. -1.
         21   -1    0    0  501  502 -0.00000000000E+00 -0.00000000000E+00 -0.53372326250E+03  0.53372326250E+03  0.00000000000E+00 0. -1.
         25    1    1    2    0    0 -0.19287580258E+03  0.40497893079E+01 -0.28529651307E+03  0.36638310057E+03  0.12500000000E+03 0.  0.
         25    1    1    2    0    0  0.91080253675E+02 -0.12296017329E+02 -0.11316372049E+03  0.19203601820E+03  0.12500000000E+03 0.  0.
         25    1    1    2    0    0  0.10179554890E+03  0.82462280213E+01  0.62542226812E+02  0.17310939948E+03  0.12500000000E+03 0.  0.
</event>
<event>
 5    0  0.5749909E-005  0.3164665E+03  0.7546771E-02  0.1077287E+00
         21   -1    0    0  502  501  0.00000000000E+00  0.00000000000E+00  0.82287474072E+03  0.82287474072E+03  0.00000000000E+00 0. -1.
         21   -1    0    0  501  502 -0.00000000000E+00 -0.00000000000E+00 -0.12170873694E+03  0.12170873694E+03  0.00000000000E+00 0. -1.
         25    1    1    2    0    0 -0.92524817370E+01 -0.18591801226E+02  0.84408745071E+02  0.15225340632E+03  0.12500000000E+03 0.  0.
         25    1    1    2    0    0 -0.18792024739E+03 -0.68297291494E+02  0.21216866967E+03  0.31720511313E+03  0.12500000000E+03 0.  0.
         25    1    1    2    0    0  0.19717272912E+03  0.86889092720E+02  0.40458858903E+03  0.47512495822E+03  0.12500000000E+03 0.  0.
</event>
<event>
 5    0  0.5749909E-005  0.5886831E+03  0.7546771E-02  0.9929167E-01
         21   -1    0    0  502  501  0.00000000000E+00  0.00000000000E+00  0.25633212995E+03  0.25633212995E+03  0.00000000000E+00 0. -1.
         21   -1    0    0  501  502 -0.00000000000E+00 -0.00000000000E+00 -0.13519483294E+04  0.13519483294E+04  0.00000000000E+00 0. -1.
         25    1    1    2    0    0  0.37784863910E+01  0.24303214697E+02 -0.29554403079E+03  0.32183256103E+03  0.12500000000E+03 0.  0.
         25    1    1    2    0    0 -0.38722162063E+03 -0.23772875929E+03 -0.15456978973E+03  0.49595601254E+03  0.12500000000E+03 0.  0.
         25    1    1    2    0    0  0.38344313424E+03  0.21342554459E+03 -0.64550237892E+03  0.79049188577E+03  0.12500000000E+03 0.  0.
</event>
<event>
 5    0  0.5749909E-005  0.2520313E+03  0.7546771E-02  0.1112028E+00
         21   -1    0    0  502  501  0.00000000000E+00  0.00000000000E+00  0.67997500317E+02  0.67997500317E+02  0.00000000000E+00 0.  1.
         21   -1    0    0  501  502 -0.00000000000E+00 -0.00000000000E+00 -0.93414891920E+03  0.93414891920E+03  0.00000000000E+00 0.  1.
         25    1    1    2    0    0 -0.68551761368E+02 -0.18740961556E+02 -0.11076254238E+03  0.18150456860E+03  0.12500000000E+03 0.  0.
         25    1    1    2    0    0  0.79748737928E+02 -0.31281147287E+02 -0.57874800093E+03  0.59825798779E+03  0.12500000000E+03 0.  0.
         25    1    1    2    0    0 -0.11196976560E+02  0.50022108843E+02 -0.17664087557E+03  0.22238386313E+03  0.12500000000E+03 0.  0.
</event>
<event>
 5    0  0.5749909E-005  0.3259834E+03  0.7546771E-02  0.1072928E+00
         21   -1    0    0  502  501  0.00000000000E+00  0.00000000000E+00  0.10477960364E+04  0.10477960364E+04  0.00000000000E+00 0. -1.
         21   -1    0    0  501  502 -0.00000000000E+00 -0.00000000000E+00 -0.10141779875E+03  0.10141779875E+03  0.00000000000E+00 0. -1.
         25    1    1    2    0    0  0.18118262552E+03 -0.41429699055E+02  0.11564254423E+03  0.25207491306E+03  0.12500000000E+03 0.  0.
         25    1    1    2    0    0 -0.10875361548E+03  0.71844814653E+02  0.56482273033E+03  0.59299135151E+03  0.12500000000E+03 0.  0.
         25    1    1    2    0    0 -0.72429010048E+02 -0.30415115598E+02  0.26591296307E+03  0.30414757057E+03  0.12500000000E+03 0.  0.
</event>
<event>
 5    0  0.5749909E-005  0.4218674E+03  0.7546771E-02  0.1036460E+00
         21   -1    0    0  502  501  0.00000000000E+00  0.00000000000E+00  0.91329666627E+03  0.91329666627E+03  0.00000000000E+00 0. -1.
         21   -1    0    0  501  502 -0.00000000000E+00 -0.00000000000E+00 -0.19486780119E+03  0.19486780119E+03  0.00000000000E+00 0. -1.
         25    1    1    2    0    0  0.15291855982E+03  0.95270340954E+02  0.34000875289E+03  0.40458803226E+03  0.12500000000E+03 0.  0.
         25    1    1    2    0    0  0.10810618050E+03 -0.78493945627E+02  0.37091362087E+03  0.41358210782E+03  0.12500000000E+03 0.  0.
         25    1    1    2    0    0 -0.26102474032E+03 -0.16776395328E+02  0.75064913216E+01  0.28999432738E+03  0.12500000000E+03 0.  0.
</event>
<event>
 5    0  0.5749909E-005  0.3076712E+03  0.7546771E-02  0.1081468E+00
         21   -1    0    0  502  501  0.00000000000E+00  0.00000000000E+00  0.11022262768E+04  0.11022262768E+04  0.00000000000E+00 0. -1.
         21   -1    0    0  501  502 -0.00000000000E+00 -0.00000000000E+00 -0.85882139782E+02  0.85882139782E+02  0.00000000000E+00 0. -1.
         25    1    1    2    0    0  0.10380889534E+03 -0.13827401563E+03  0.18538175857E+03  0.28264356805E+03  0.12500000000E+03 0.  0.
         25    1    1    2    0    0 -0.15205747085E+03  0.76791086310E+02  0.45641752951E+03  0.50295159471E+03  0.12500000000E+03 0.  0.
         25    1    1    2    0    0  0.48248575517E+02  0.61482929316E+02  0.37454484897E+03  0.40251325385E+03  0.12500000000E+03 0.  0.
</event>
<event>
 5    0  0.5749909E-005  0.4043175E+03  0.7546771E-02  0.1042295E+00
         21   -1    0    0  502  501  0.00000000000E+00  0.00000000000E+00  0.53160250054E+03  0.53160250054E+03  0.00000000000E+00 0.  1.
         21   -1    0    0  501  502 -0.00000000000E+00 -0.00000000000E+00 -0.30750919837E+03  0.30750919837E+03  0.00000000000E+00 0.  1.
         25    1    1    2    0    0  0.78060446154E+02  0.14907517998E+03 -0.41782570878E+02  0.21374663920E+03  0.12500000000E+03 0.  0.
         25    1    1    2    0    0  0.81275556522E+02  0.14528328482E+03  0.11134638291E+03  0.23608465838E+03  0.12500000000E+03 0.  0.
         25    1    1    2    0    0 -0.15933600268E+03 -0.29435846479E+03  0.15452949014E+03  0.38928040134E+03  0.12500000000E+03 0.  0.
</event>
<event>
 5    0  0.5749909E-005  0.3644916E+03  0.7546771E-02  0.1056819E+00
         21   -1    0    0  502  501  0.00000000000E+00  0.00000000000E+00  0.15419118913E+04  0.15419118913E+04  0.00000000000E+00 0. -1.
         21   -1    0    0  501  502 -0.00000000000E+00 -0.00000000000E+00 -0.86161950044E+02  0.86161950044E+02  0.00000000000E+00 0. -1.
         25    1    1    2    0    0  0.10468777131E+03  0.18115462462E+02  0.96206679402E+03  0.97595349049E+03  0.12500000000E+03 0.  0.
         25    1    1    2    0    0  0.58657754972E+02  0.24834920181E+02  0.39654500499E+03  0.42063100986E+03  0.12500000000E+03 0.  0.
         25    1    1    2    0    0 -0.16334552628E+03 -0.42950382643E+02  0.97138142293E+02  0.23148934103E+03  0.12500000000E+03 0.  0.
</event>
<event>
 5    0  0.5749909E-005  0.4253911E+03  0.7546771E-02  0.1035326E+00
         21   -1    0    0  502  501  0.00000000000E+00  0.00000000000E+00  0.10811584653E+03  0.10811584653E+03  0.00000000000E+00 0. -1.
         21   -1    0    0  501  502 -0.00000000000E+00 -0.00000000000E+00 -0.16737376748E+04  0.16737376748E+04  0.00000000000E+00 0. -1.
         25    1    1    2    0    0 -0.21352251097E+03 -0.11347010779E+03 -0.10457019810E+04  0.10805484538E+04  0.12500000000E+03 0.  0.
         25    1    1    2    0    0  0.11694558107E+03  0.20956913004E+03 -0.21896225019E+03  0.34808756973E+03  0.12500000000E+03 0.  0.
         25    1    1    2    0    0  0.96576929908E+02 -0.96099022252E+02 -0.30095759709E+03  0.35321749774E+03  0.12500000000E+03 0.  0.
</event>
<event>
 5    0  0.5749909E-005  0.2956977E+03  0.7546771E-02  0.1087411E+00
         21   -1    0    0  502  501  0.00000000000E+00  0.00000000000E+00  0.11236321074E+03  0.11236321074E+03  0.00000000000E+00 0.  1.
         21   -1    0    0  501  502 -0.00000000000E+00 -0.00000000000E+00 -0.77816520013E+03  0.77816520013E+03  0.00000000000E+00 0.  1.
         25    1    1    2    0    0 -0.20630854925E+02  0.13376338363E+03 -0.23543785575E+03  0.29895527909E+03  0.12500000000E+03 0.  0.
         25    1    1    2    0    0 -0.33388049509E+02 -0.79137696294E+02 -0.16607420734E+02  0.15257241968E+03  0.12500000000E+03 0.  0.
         25    1    1    2    0    0  0.54018904434E+02 -0.54625687338E+02 -0.41375671290E+03  0.43900071210E+03  0.12500000000E+03 0.  0.
</event>
<event>
 5    0  0.5749909E-005  0.2557586E+03  0.7546771E-02  0.1109719E+00
         21   -1    0    0  502  501  0.00000000000E+00  0.00000000000E+00  0.71679209560E+03  0.71679209560E+03  0.00000000000E+00 0.  1.
         21   -1    0    0  501  502 -0.00000000000E+00 -0.00000000000E+00 -0.91257199809E+02  0.91257199809E+02  0.00000000000E+00 0.  1.
         25    1    1    2    0    0 -0.12904262723E+03 -0.16232843302E+02  0.25848981717E+03  0.31521023211E+03  0.12500000000E+03 0.  0.
         25    1    1    2    0    0  0.11181187139E+03  0.81867487493E+02  0.20487973540E+03  0.27713694461E+03  0.12500000000E+03 0.  0.
         25    1    1    2    0    0  0.17230755842E+02 -0.65634644191E+02  0.16216534322E+03  0.21570211869E+03  0.12500000000E+03 0.  0.
</event>
<event>
 5    0  0.5749909E-005  0.2257412E+03  0.7546771E-02  0.1129674E+00
         21   -1    0    0  502  501  0.00000000000E+00  0.00000000000E+00  0.36887932844E+03  0.36887932844E+03  0.00000000000E+00 0. -1.
         21   -1    0    0  501  502 -0.00000000000E+00 -0.00000000000E+00 -0.13814571784E+03  0.13814571784E+03  0.00000000000E+00 0. -1.
         25    1    1    2    0    0 -0.45444851946E+01  0.52080665014E+02  0.13996915104E+02  0.13621292760E+03  0.12500000000E+03 0.  0.
         25    1    1    2    0    0 -0.51567097942E+02  0.12670840514E+02  0.48078565608E+02  0.14407034483E+03  0.12500000000E+03 0.  0.
         25    1    1    2    0    0  0.56111583137E+02 -0.64751505529E+02  0.16865812989E+03  0.22674177385E+03  0.12500000000E+03 0.  0.
</event>
<event>
 5    0  0.5749909E-005  0.2570311E+03  0.7546771E-02  0.1108940E+00
         21   -1    0    0  502  501  0.00000000000E+00  0.00000000000E+00  0.53933886172E+03  0.53933886172E+03  0.00000000000E+00 0. -1.
         21   -1    0    0  501  502 -0.00000000000E+00 -0.00000000000E+00 -0.12249256884E+03  0.12249256884E+03  0.00000000000E+00 0. -1.
         25    1    1    2    0    0  0.58222203178E+02  0.53777128706E+01  0.26474834726E+03  0.29855557626E+03  0.12500000000E+03 0.  0.
         25    1    1    2    0    0 -0.54441541334E+02 -0.84119881635E+02  0.13667872219E+02  0.16078509458E+03  0.12500000000E+03 0.  0.
         25    1    1    2    0    0 -0.37806618439E+01  0.78742168764E+02  0.13843007340E+03  0.20249075971E+03  0.12500000000E+03 0.  0.
</event>
<event>
 5    0  0.5749909E-005  0.5074167E+03  0.7546771E-02  0.1011861E+00
         21   -1    0    0  502  501  0.00000000000E+00  0.00000000000E+00  0.96238211394E+03  0.96238211394E+03  0.00000000000E+00 0.  1.
         21   -1    0    0  501  502 -0.00000000000E+00 -0.00000000000E+00 -0.26753581415E+03  0.26753581415E+03  0.00000000000E+00 0.  1.
         25    1    1    2    0    0  0.35663314768E+02 -0.24371197521E+03  0.33347939607E+03  0.43301374860E+03  0.12500000000E+03 0.  0.
         25    1    1    2    0    0 -0.10033150356E+03  0.37297668237E+03  0.43233699341E+03  0.59305842214E+03  0.12500000000E+03 0.  0.
         25    1    1    2    0    0  0.64668188795E+02 -0.12926470716E+03 -0.70970089683E+02  0.20384575735E+03  0.12500000000E+03 0.  0.
</event>
<event>
 5    0  0.5749909E-005  0.2708095E+03  0.7546771E-02  0.1100817E+00
         21   -1    0    0  502  501  0.00000000000E+00  0.00000000000E+00  0.17973322945E+03  0.17973322945E+03  0.00000000000E+00 0. -1.
         21   -1    0    0  501  502 -0.00000000000E+00 -0.00000000000E+00 -0.40803697309E+03  0.40803697309E+03  0.00000000000E+00 0. -1.
         25    1    1    2    0    0 -0.43356710662E+02  0.89341927307E+02  0.40436055910E+02  0.16468715479E+03  0.12500000000E+03 0.  0.
         25    1    1    2    0    0 -0.36137043630E+02  0.33448777864E+02 -0.11208965324E+03  0.17496798858E+03  0.12500000000E+03 0.  0.
         25    1    1    2    0    0  0.79493754292E+02 -0.12279070517E+03 -0.15665014631E+03  0.24811505917E+03  0.12500000000E+03 0.  0.
</event>
<event>
 5    0  0.5749909E-005  0.3650672E+03  0.7546771E-02  0.1056595E+00
         21   -1    0    0  502  501  0.00000000000E+00  0.00000000000E+00  0.20489169935E+03  0.20489169935E+03  0.00000000000E+00 0.  1.
         21   -1    0    0  501  502 -0.00000000000E+00 -0.00000000000E+00 -0.65046106800E+03  0.65046106800E+03  0.00000000000E+00 0.  1.
         25    1    1    2    0    0  0.22491556577E+03 -0.47625271683E+02 -0.62260327066E+02  0.26899168492E+03  0.12500000000E+03 0.  0.
         25    1    1    2    0    0  0.49801876368E+02  0.16922911728E+02 -0.15951235490E+03  0.20937001504E+03  0.12500000000E+03 0.  0.
         25    1    1    2    0    0 -0.27471744213E+03  0.30702359955E+02 -0.22379668669E+03  0.37699106739E+03  0.12500000000E+03 0.  0.
</event>
<event>
 5    0  0.5749909E-005  0.3222912E+03  0.7546771E-02  0.1074600E+00
         21   -1    0    0  502  501  0.00000000000E+00  0.00000000000E+00  0.35116026184E+03  0.35116026184E+03  0.00000000000E+00 0. -1.
         21   -1    0    0  501  502 -0.00000000000E+00 -0.00000000000E+00 -0.29579543521E+03  0.29579543521E+03  0.00000000000E+00 0. -1.
         25    1    1    2    0    0 -0.23513175157E+02  0.20332842934E+02  0.75001020251E+02  0.14905182638E+03  0.12500000000E+03 0.  0.
         25    1    1    2    0    0  0.19086854021E+03 -0.10745631864E+03 -0.78350766795E+02  0.26408616533E+03  0.12500000000E+03 0.  0.
         25    1    1    2    0    0 -0.16735536506E+03  0.87123475708E+02  0.58714573176E+02  0.23381770535E+03  0.12500000000E+03 0.  0.
</event>
<event>
 5    0  0.5749909E-005  0.2512844E+03  0.7546771E-02  0.1112496E+00
         21   -1    0    0  502  501  0.00000000000E+00  0.00000000000E+00  0.15862307580E+03  0.15862307580E+03  0.00000000000E+00 0. -1.
         21   -1    0    0  501  502 -0.00000000000E+00 -0.00000000000E+00 -0.39807471171E+03  0.39807471171E+03  0.00000000000E+00 0. -1.
         25    1    1    2    0    0 -0.17577967343E+02  0.60833573712E+02 -0.42479439329E+01  0.14018827930E+03  0.12500000000E+03 0.  0.
         25    1    1    2    0    0 -0.60764170291E+02  0.29329057487E+02 -0.24821148087E+02  0.14419974825E+03  0.12500000000E+03 0.  0.
         25    1    1    2    0    0  0.78342137634E+02 -0.90162631199E+02 -0.21038254389E+03  0.27230975996E+03  0.12500000000E+03 0.  0.
</event>
<event>
 5    0  0.5749909E-005  0.5639810E+03  0.7546771E-02  0.9983087E-01
         21   -1    0    0  502  501  0.00000000000E+00  0.00000000000E+00  0.11214662054E+04  0.11214662054E+04  0.00000000000E+00 0.  1.
         21   -1    0    0  501  502 -0.00000000000E+00 -0.00000000000E+00 -0.28362380965E+03  0.28362380965E+03  0.00000000000E+00 0. -1.
         25    1    1    2    0    0  0.26163845741E+03  0.34362336630E+03  0.15704713281E+03  0.47625676078E+03  0.12500000000E+03 0.  0.
         25    1    1    2    0    0 -0.34188629414E+03 -0.17273933596E+03  0.47485055185E+03  0.62276252528E+03  0.12500000000E+03 0.  0.
         25    1    1    2    0    0  0.80247836727E+02 -0.17088403034E+03  0.20594471113E+03  0.30607072903E+03  0.12500000000E+03 0.  0.
</event>
<event>
 5    0  0.5749909E-005  0.2145539E+03  0.7546771E-02  0.1138010E+00
         21   -1    0    0  502  501  0.00000000000E+00  0.00000000000E+00  0.31047609033E+02  0.31047609033E+02  0.00000000000E+00 0. -1.
         21   -1    0    0  501  502 -0.00000000000E+00 -0.00000000000E+00 -0.14826706676E+04  0.14826706676E+04  0.00000000000E+00 0. -1.
         25    1    1    2    0    0 -0.33859588515E+02  0.46774954823E+02 -0.37915162020E+03  0.40337986964E+03  0.12500000000E+03 0.  0.
         25    1    1    2    0    0  0.47550131184E+02  0.27823822266E+02 -0.41881769124E+03  0.44053199493E+03  0.12500000000E+03 0.  0.
         25    1    1    2    0    0 -0.13690542669E+02 -0.74598777088E+02 -0.65365374709E+03  0.66980641203E+03  0.12500000000E+03 0.  0.
</event>
<event>
 5    0  0.5749909E-005  0.3630186E+03  0.7546771E-02  0.1057395E+00
         21   -1    0    0  502  501  0.00000000000E+00  0.00000000000E+00  0.84017438608E+03  0.84017438608E+03  0.00000000000E+00 0. -1.
         21   -1    0    0  501  502 -0.00000000000E+00 -0.00000000000E+00 -0.15685136476E+03  0.15685136476E+03  0.00000000000E+00 0. -1.
         25    1    1    2    0    0  0.14240097135E+03 -0.17319989888E+02  0.75137272911E+02  0.20456937325E+03  0.12500000000E+03 0.  0.
         25    1    1    2    0    0  0.22749686498E+02 -0.16077452095E+03  0.13282446569E+03  0.24419937246E+03  0.12500000000E+03 0.  0.
         25    1    1    2    0    0 -0.16515065784E+03  0.17809451084E+03  0.47536128271E+03  0.54825700514E+03  0.12500000000E+03 0.  0.
</event>
<event>
 5    0  0.5749909E-005  0.3830705E+03  0.7546771E-02  0.1049805E+00
         21   -1    0    0  502  501  0.00000000000E+00  0.00000000000E+00  0.16950151146E+03  0.16950151146E+03  0.00000000000E+00 0. -1.
         21   -1    0    0  501  502 -0.00000000000E+00 -0.00000000000E+00 -0.86573257823E+03  0.86573257823E+03  0.00000000000E+00 0. -1.
         25    1    1    2    0    0  0.29062464617E+03  0.51256522435E+02 -0.18600104705E+03  0.37055540147E+03  0.12500000000E+03 0.  0.
         25    1    1    2    0    0 -0.13857948855E+03 -0.72699050630E+02 -0.37428695764E+03  0.42450577531E+03  0.12500000000E+03 0.  0.
         25    1    1    2    0    0 -0.15204515762E+03  0.21442528195E+02 -0.13594306208E+03  0.24017291292E+03  0.12500000000E+03 0.  0.
</event>
<event>
 5    0  0.5749909E-005  0.2487221E+03  0.7546771E-02  0.1114115E+00
         21   -1    0    0  502  501  0.00000000000E+00  0.00000000000E+00  0.53300107308E+03  0.53300107308E+03  0.00000000000E+00 0. -1.
         21   -1    0    0  501  502 -0.00000000000E+00 -0.00000000000E+00 -0.11606480815E+03  0.11606480815E+03  0.00000000000E+00 0. -1.
         25    1    1    2    0    0 -0.23446845171E+01  0.38932390410E+02  0.28970675511E+03  0.31792488503E+03  0.12500000000E+03 0.  0.
         25    1    1    2    0    0 -0.37436058102E+02  0.57680220054E+02  0.64447358013E+02  0.15654688814E+03  0.12500000000E+03 0.  0.
         25    1    1    2    0    0  0.39780742619E+02 -0.96612610464E+02  0.62782151812E+02  0.17459410806E+03  0.12500000000E+03 0.  0.
</event>
<event>
 5    0  0.5749909E-005  0.2199336E+03  0.7546771E-02  0.1133933E+00
         21   -1    0    0  502  501  0.00000000000E+00  0.00000000000E+00  0.36830034318E+03  0.36830034318E+03  0.00000000000E+00 0. -1.
         21   -1    0    0  501  502 -0.00000000000E+00 -0.00000000000E+00 -0.13133516064E+03  0.13133516064E+03  0.00000000000E+00 0. -1.
         25    1    1    2    0    0 -0.14221986913E+02 -0.98629842932E+01  0.13205595425E+03  0.18265628493E+03  0.12500000000E+03 0.  0.
         25    1    1    2    0    0 -0.53883788017E+01  0.78766742346E+02  0.87652445778E+02  0.17187549440E+03  0.12500000000E+03 0.  0.
         25    1    1    2    0    0  0.19610365715E+02 -0.68903758053E+02  0.17256782502E+02  0.14510372449E+03  0.12500000000E+03 0.  0.
</event>
<event>
 5    0  0.5749909E-005  0.3449871E+03  0.7546771E-02  0.1064692E+00
         21   -1    0    0  502  501  0.00000000000E+00  0.00000000000E+00  0.11908608663E+03  0.11908608663E+03  0.00000000000E+00 0.  1.
         21   -1    0    0  501  502 -0.00000000000E+00 -0.00000000000E+00 -0.99941229904E+03  0.99941229904E+03  0.00000000000E+00 0.  1.
         25    1    1    2    0    0 -0.17148079299E+03 -0.91449567855E+02 -0.46420241625E+03  0.51853405778E+03  0.12500000000E+03 0.  0.
         25    1    1    2    0    0  0.15350937931E+03 -0.83677957920E+02 -0.23142680131E+03  0.31583301687E+03  0.12500000000E+03 0.  0.
         25    1    1    2    0    0  0.17971413687E+02  0.17512752577E+03 -0.18469699485E+03  0.28413131102E+03  0.12500000000E+03 0.  0.
</event>
<event>
 5    0  0.5749909E-005  0.2514306E+03  0.7546771E-02  0.1112404E+00
         21   -1    0    0  502  501  0.00000000000E+00  0.00000000000E+00  0.27035969325E+03  0.27035969325E+03  0.00000000000E+00 0.  1.
         21   -1    0    0  501  502 -0.00000000000E+00 -0.00000000000E+00 -0.23382676962E+03  0.23382676962E+03  0.00000000000E+00 0.  1.
         25    1    1    2    0    0  0.65122032532E+02 -0.95413237439E+02  0.78419548672E+02  0.18740114891E+03  0.12500000000E+03 0.  0.
         25    1    1    2    0    0 -0.23659238211E+02  0.14345110908E+02  0.49374954662E+02  0.13721671876E+03  0.12500000000E+03 0.  0.
         25    1    1    2    0    0 -0.41462794322E+02  0.81068126531E+02 -0.91261579697E+02  0.17956859520E+03  0.12500000000E+03 0.  0.
</event>
<event>
 5    0  0.5749909E-005  0.3349968E+03  0.7546771E-02  0.1068947E+00
         21   -1    0    0  502  501  0.00000000000E+00  0.00000000000E+00  0.79878779310E+02  0.79878779310E+02  0.00000000000E+00 0. -1.
         21   -1    0    0  501  502 -0.00000000000E+00 -0.00000000000E+00 -0.14049142170E+04  0.14049142170E+04  0.00000000000E+00 0. -1.
         25    1    1    2    0    0 -0.17859555613E+03  0.14531679031E+03 -0.79543988835E+03  0.83747415374E+03  0.12500000000E+03 0.  0.
         25    1    1    2    0    0  0.77599565330E+02 -0.11481425483E+03 -0.17075155849E+03  0.25295276313E+03  0.12500000000E+03 0.  0.
         25    1    1    2    0    0  0.10099599080E+03 -0.30502535475E+02 -0.35884399081E+03  0.39436607938E+03  0.12500000000E+03 0.  0.
</event>
<event>
 5    0  0.5749909E-005  0.4124095E+03  0.7546771E-02  0.1039565E+00
         21   -1    0    0  502  501  0.00000000000E+00  0.00000000000E+00  0.50536908543E+03  0.50536908543E+03  0.00000000000E+00 0. -1.
         21   -1    0    0  501  502 -0.00000000000E+00 -0.00000000000E+00 -0.33654927284E+03  0.33654927284E+03  0.00000000000E+00 0. -1.
         25    1    1    2    0    0  0.31421990593E+03  0.91320867796E+02  0.21775272330E+03  0.41244987414E+03  0.12500000000E+03 0.  0.
         25    1    1    2    0    0 -0.18487988276E+03  0.35105086020E+01 -0.30965968758E+02  0.22533704964E+03  0.12500000000E+03 0.  0.
         25    1    1    2    0    0 -0.12934002316E+03 -0.94831376398E+02 -0.17966941949E+02  0.20413143448E+03  0.12500000000E+03 0.  0.
</event>
<event>
 5    0  0.5749909E-005  0.6717813E+03  0.7546771E-02  0.9766745E-01
         21   -1    0    0  502  501  0.00000000000E+00  0.00000000000E+00  0.14290359360E+04  0.14290359360E+04  0.00000000000E+00 0. -1.
         21   -1    0    0  501  502 -0.00000000000E+00 -0.00000000000E+00 -0.31580037173E+03  0.31580037173E+03  0.00000000000E+00 0. -1.
         25    1    1    2    0    0  0.62733064770E+02 -0.34916511927E+03  0.59435578917E+03  0.70337438257E+03  0.12500000000E+03 0.  0.
         25    1    1    2    0    0 -0.56045373098E+02  0.32182740396E+03 -0.13517009357E+03  0.37497988744E+03  0.12500000000E+03 0.  0.
         25    1    1    2    0    0 -0.66876916717E+01  0.27337715303E+02  0.65404986863E+03  0.66648203768E+03  0.12500000000E+03 0.  0.
</event>
<event>
 5    0  0.5749909E-005  0.4581494E+03  0.7546771E-02  0.1025319E+00
         21   -1    0    0  502  501  0.00000000000E+00  0.00000000000E+00  0.21575026642E+04  0.21575026642E+04  0.00000000000E+00 0.  1.
         21   -1    0    0  501  502 -0.00000000000E+00 -0.00000000000E+00 -0.97288791823E+02  0.97288791823E+02  0.00000000000E+00 0.  1.
         25    1    1    2    0    0 -0.78866671985E+02 -0.19792866731E+03  0.57980630304E+03  0.63023492313E+03  0.12500000000E+03 0.  0.
         25    1    1    2    0    0  0.15364512834E+03 -0.16029414216E+03  0.82624575808E+03  0.86464333122E+03  0.12500000000E+03 0.  0.
         25    1    1    2    0    0 -0.74778456350E+02  0.35822280947E+03  0.65416181123E+03  0.75991320164E+03  0.12500000000E+03 0.  0.
</event>
<event>
 5    0  0.7891399E-005  0.3103804E+03  0.7546771E-02  0.1080164E+00
         21   -1    0    0  502  501  0.00000000000E+00  0.00000000000E+00  0.25410282014E+03  0.25410282014E+03  0.00000000000E+00 0.  1.
         21   -1    0    0  501  502 -0.00000000000E+00 -0.00000000000E+00 -0.37912221295E+03  0.37912221295E+03  0.00000000000E+00 0.  1.
         25    1    1    2    0    0 -0.92613047863E+02 -0.32738202258E+02  0.57303291439E+02  0.16899004033E+03  0.12500000000E+03 0.  0.
         25    1    1    2    0    0  0.19826483705E+03  0.75931033828E+02 -0.55034637236E+02  0.25244460542E+03  0.12500000000E+03 0.  0.
         25    1    1    2    0    0 -0.10565178918E+03 -0.43192831570E+02 -0.12728804701E+03  0.21179038734E+03  0.12500000000E+03 0.  0.
</event>
<event>
 5    0  0.5749909E-005  0.3120297E+03  0.7546771E-02  0.1079377E+00
         21   -1    0    0  502  501  0.00000000000E+00  0.00000000000E+00  0.71788192870E+03  0.71788192870E+03  0.00000000000E+00 0.  1.
         21   -1    0    0  501  502 -0.00000000000E+00 -0.00000000000E+00 -0.13562470589E+03  0.13562470589E+03  0.00000000000E+00 0.  1.
         25    1    1    2    0    0  0.44782500712E+02 -0.61427292357E+02  0.36964419590E+02  0.15089782282E+03  0.12500000000E+03 0.  0.
         25    1    1    2    0    0  0.41113685229E+02 -0.13666542183E+03  0.28209237187E+03  0.33995423060E+03  0.12500000000E+03 0.  0.
         25    1    1    2    0    0 -0.85896185941E+02  0.19809271419E+03  0.26320043135E+03  0.36265458116E+03  0.12500000000E+03 0.  0.
</event>
<event>
 5    0  0.5749909E-005  0.2804529E+03  0.7546771E-02  0.1095442E+00
         21   -1    0    0  502  501  0.00000000000E+00  0.00000000000E+00  0.76097063745E+03  0.76097063745E+03  0.00000000000E+00 0. -1.
         21   -1    0    0  501  502 -0.00000000000E+00 -0.00000000000E+00 -0.10335988766E+03  0.10335988766E+03  0.00000000000E+00 0. -1.
         25    1    1    2    0    0  0.87504787616E+02  0.38217190774E+02  0.27473896522E+03  0.31658196496E+03  0.12500000000E+03 0.  0.
         25    1    1    2    0    0 -0.16511788982E+03 -0.45755945499E+01  0.32642863307E+03  0.38660769016E+03  0.12500000000E+03 0.  0.
         25    1    1    2    0    0  0.77613102204E+02 -0.33641596225E+02  0.56443151505E+02  0.16114086999E+03  0.12500000000E+03 0.  0.
</event>
<event>
 5    0  0.7033288E-005  0.2961085E+03  0.7546771E-02  0.1087202E+00
         21   -1    0    0  502  501  0.00000000000E+00  0.00000000000E+00  0.15808292877E+03  0.15808292877E+03  0.00000000000E+00 0.  1.
         21   -1    0    0  501  502 -0.00000000000E+00 -0.00000000000E+00 -0.55464729227E+03  0.55464729227E+03  0.00000000000E+00 0.  1.
         25    1    1    2    0    0 -0.15051030806E+02 -0.34682050785E+02  0.26679635456E+02  0.13328983878E+03  0.12500000000E+03 0.  0.
         25    1    1    2    0    0 -0.21413671882E+02 -0.13214503695E+03 -0.17626867493E+03  0.25419776139E+03  0.12500000000E+03 0.  0.
         25    1    1    2    0    0  0.36464702687E+02  0.16682708774E+03 -0.24697532403E+03  0.32524262086E+03  0.12500000000E+03 0.  0.
</event>
<event>
 5    0  0.5749909E-005  0.3339685E+03  0.7546771E-02  0.1069394E+00
         21   -1    0    0  502  501  0.00000000000E+00  0.00000000000E+00  0.13654095467E+04  0.13654095467E+04  0.00000000000E+00 0. -1.
         21   -1    0    0  501  502 -0.00000000000E+00 -0.00000000000E+00 -0.81686094866E+02  0.81686094866E+02  0.00000000000E+00 0. -1.
         25    1    1    2    0    0  0.17507652989E+01  0.24952554793E+01  0.82695724656E+03  0.83635672958E+03  0.12500000000E+03 0.  0.
         25    1    1    2    0    0  0.57762603031E+01 -0.14853062670E+03  0.32135781576E+03  0.37548709432E+03  0.12500000000E+03 0.  0.
         25    1    1    2    0    0 -0.75270256020E+01  0.14603537123E+03  0.13540838952E+03  0.23525181767E+03  0.12500000000E+03 0.  0.
</event>
<event>
 5    0  0.5749909E-005  0.3362037E+03  0.7546771E-02  0.1068424E+00
         21   -1    0    0  502  501  0.00000000000E+00  0.00000000000E+00  0.29592549178E+03  0.29592549178E+03  0.00000000000E+00 0. -1.
         21   -1    0    0  501  502 -0.00000000000E+00 -0.00000000000E+00 -0.38196404266E+03  0.38196404266E+03  0.00000000000E+00 0. -1.
         25    1    1    2    0    0  0.17092755392E+01 -0.84550638004E+02 -0.96695152841E+02  0.17923918264E+03  0.12500000000E+03 0.  0.
         25    1    1    2    0    0 -0.85590320400E+02  0.15558019642E+03 -0.15267052138E+03  0.26545091554E+03  0.12500000000E+03 0.  0.
         25    1    1    2    0    0  0.83881044861E+02 -0.71029558411E+02  0.16332712334E+03  0.23319943627E+03  0.12500000000E+03 0.  0.
</event>
<event>
 5    0  0.5749909E-005  0.3400134E+03  0.7546771E-02  0.1066790E+00
         21   -1    0    0  502  501  0.00000000000E+00  0.00000000000E+00  0.68758131864E+03  0.68758131864E+03  0.00000000000E+00 0. -1.
         21   -1    0    0  501  502 -0.00000000000E+00 -0.00000000000E+00 -0.16813878433E+03  0.16813878433E+03  0.00000000000E+00 0. -1.
         25    1    1    2    0    0 -0.13280193365E+03  0.34857325693E+02  0.43921769885E+03  0.47685277993E+03  0.12500000000E+03 0.  0.
         25    1    1    2    0    0  0.16511013527E+03 -0.71189308560E+02 -0.66180003540E+01  0.21908462372E+03  0.12500000000E+03 0.  0.
         25    1    1    2    0    0 -0.32308201621E+02  0.36331982867E+02  0.86842835813E+02  0.15978269932E+03  0.12500000000E+03 0.  0.
</event>
<event>
 5    0  0.5749909E-005  0.3411860E+03  0.7546771E-02  0.1066292E+00
         21   -1    0    0  502  501  0.00000000000E+00  0.00000000000E+00  0.14504980083E+03  0.14504980083E+03  0.00000000000E+00 0.  1.
         21   -1    0    0  501  502 -0.00000000000E+00 -0.00000000000E+00 -0.80253730696E+03  0.80253730696E+03  0.00000000000E+00 0.  1.
         25    1    1    2    0    0 -0.17547636494E+03 -0.82593868625E+02 -0.15515808793E+03  0.27805167512E+03  0.12500000000E+03 0.  0.
         25    1    1    2    0    0  0.15883279687E+03  0.55259967561E+02 -0.74046079117E+02  0.22223713283E+03  0.12500000000E+03 0.  0.
         25    1    1    2    0    0  0.16643568066E+02  0.27333901064E+02 -0.42828333908E+03  0.44729829984E+03  0.12500000000E+03 0.  0.
</event>
<event>
 5    0  0.5749909E-005  0.2631329E+03  0.7546771E-02  0.1105275E+00
         21   -1    0    0  502  501  0.00000000000E+00  0.00000000000E+00  0.12551146394E+04  0.12551146394E+04  0.00000000000E+00 0.  1.
         21   -1    0    0  501  502 -0.00000000000E+00 -0.00000000000E+00 -0.55165396859E+02  0.55165396859E+02  0.00000000000E+00 0.  1.
         25    1    1    2    0    0 -0.12229623146E+03  0.92595301753E+02  0.59416210496E+03  0.62624585037E+03  0.12500000000E+03 0.  0.
         25    1    1    2    0    0  0.46783529286E+02 -0.62472362219E+02  0.42420775068E+03  0.44907539500E+03  0.12500000000E+03 0.  0.
         25    1    1    2    0    0  0.75512702171E+02 -0.30122939534E+02  0.18157938695E+03  0.23495879094E+03  0.12500000000E+03 0.  0.
</event>
<event>
 5    0  0.5749909E-005  0.2969925E+03  0.7546771E-02  0.1086754E+00
         21   -1    0    0  502  501  0.00000000000E+00  0.00000000000E+00  0.10007021193E+03  0.10007021193E+03  0.00000000000E+00 0.  1.
         21   -1    0    0  501  502 -0.00000000000E+00 -0.00000000000E+00 -0.88142645670E+03  0.88142645670E+03  0.00000000000E+00 0.  1.
         25    1    1    2    0    0  0.13984053783E+03 -0.97846348794E+02 -0.31309428276E+03  0.37786547063E+03  0.12500000000E+03 0.  0.
         25    1    1    2    0    0 -0.55058279779E+02  0.16527079304E+03 -0.24135250261E+03  0.32283413655E+03  0.12500000000E+03 0.  0.
         25    1    1    2    0    0 -0.84782258055E+02 -0.67424444243E+02 -0.22690945939E+03  0.28079706146E+03  0.12500000000E+03 0.  0.
</event>
<event>
 5    0  0.5749909E-005  0.3276971E+03  0.7546771E-02  0.1072160E+00
         21   -1    0    0  502  501  0.00000000000E+00  0.00000000000E+00  0.12130529640E+04  0.12130529640E+04  0.00000000000E+00 0. -1.
         21   -1    0    0  501  502 -0.00000000000E+00 -0.00000000000E+00 -0.88524912221E+02  0.88524912221E+02  0.00000000000E+00 0. -1.
         25    1    1    2    0    0  0.78551848685E+02 -0.10440577112E+03  0.72436126936E+03  0.74658904795E+03  0.12500000000E+03 0.  0.
         25    1    1    2    0    0  0.17666256133E+02 -0.43414987628E+02  0.27372982733E+03  0.30454880746E+03  0.12500000000E+03 0.  0.
         25    1    1    2    0    0 -0.96218104818E+02  0.14782075875E+03  0.12643695510E+03  0.25044002082E+03  0.12500000000E+03 0.  0.
</event>
<event>
 5    0  0.5749909E-005  0.4315920E+03  0.7546771E-02  0.1033358E+00
         21   -1    0    0  502  501  0.00000000000E+00  0.00000000000E+00  0.21777617985E+04  0.21777617985E+04  0.00000000000E+00 0. -1.
         21   -1    0    0  501  502 -0.00000000000E+00 -0.00000000000E+00 -0.85533516039E+02  0.85533516039E+02  0.00000000000E+00 0. -1.
         25    1    1    2    0    0 -0.83357437680E+02  0.12330463611E+03  0.18359418522E+04  0.18462015005E+04  0.12500000000E+03 0.  0.
         25    1    1    2    0    0  0.23463319864E+02 -0.42654873321E+02  0.21174120231E+03  0.25065773946E+03  0.12500000000E+03 0.  0.
         25    1    1    2    0    0  0.59894117816E+02 -0.80649762793E+02  0.44545227922E+02  0.16643607457E+03  0.12500000000E+03 0.  0.
</event>
<event>
 5    0  0.5749909E-005  0.4150019E+03  0.7546771E-02  0.1038705E+00
         21   -1    0    0  502  501  0.00000000000E+00  0.00000000000E+00  0.27577627656E+03  0.27577627656E+03  0.00000000000E+00 0.  1.
         21   -1    0    0  501  502 -0.00000000000E+00 -0.00000000000E+00 -0.62451543705E+03  0.62451543705E+03  0.00000000000E+00 0.  1.
         25    1    1    2    0    0 -0.17858994595E+03 -0.24453619772E+03 -0.27460706300E+03  0.42746503931E+03  0.12500000000E+03 0.  0.
         25    1    1    2    0    0  0.21988044923E+03  0.10176793106E+03 -0.37424815013E+02  0.27519037143E+03  0.12500000000E+03 0.  0.
         25    1    1    2    0    0 -0.41290503288E+02  0.14276826666E+03 -0.36707282478E+02  0.19763630287E+03  0.12500000000E+03 0.  0.
</event>
<event>
 5    0  0.5749909E-005  0.3040469E+03  0.7546771E-02  0.1083235E+00
         21   -1    0    0  502  501  0.00000000000E+00  0.00000000000E+00  0.31342619524E+03  0.31342619524E+03  0.00000000000E+00 0.  1.
         21   -1    0    0  501  502 -0.00000000000E+00 -0.00000000000E+00 -0.29494834526E+03  0.29494834526E+03  0.00000000000E+00 0.  1.
         25    1    1    2    0    0 -0.64136794013E+02  0.25025414445E+02 -0.57358318770E+02  0.15380109378E+03  0.12500000000E+03 0.  0.
         25    1    1    2    0    0  0.20400104590E+03 -0.34117295567E+02  0.10682965913E+03  0.26423094568E+03  0.12500000000E+03 0.  0.
         25    1    1    2    0    0 -0.13986425189E+03  0.90918811214E+01 -0.30993490374E+02  0.19034250104E+03  0.12500000000E+03 0.  0.
</event>
<event>
 5    0  0.5749909E-005  0.3500184E+03  0.7546771E-02  0.1062608E+00
         21   -1    0    0  502  501  0.00000000000E+00  0.00000000000E+00  0.13658897715E+04  0.13658897715E+04  0.00000000000E+00 0. -1.
         21   -1    0    0  501  502 -0.00000000000E+00 -0.00000000000E+00 -0.89694540559E+02  0.89694540559E+02  0.00000000000E+00 0. -1.
         25    1    1    2    0    0 -0.81265950660E+01  0.63935335407E+01  0.13922089101E+03  0.18738830090E+03  0.12500000000E+03 0.  0.
         25    1    1    2    0    0  0.24285605009E+03 -0.85852523243E+01  0.39767810302E+03  0.48252009414E+03  0.12500000000E+03 0.  0.
         25    1    1    2    0    0 -0.23472945503E+03  0.21917187836E+01  0.73929623692E+03  0.78567591703E+03  0.12500000000E+03 0.  0.
</event>
<event>
 5    0  0.5749909E-005  0.2252047E+03  0.7546771E-02  0.1130061E+00
         21   -1    0    0  502  501  0.00000000000E+00  0.00000000000E+00  0.76149897219E+03  0.76149897219E+03  0.00000000000E+00 0. -1.
         21   -1    0    0  501  502 -0.00000000000E+00 -0.00000000000E+00 -0.66601721073E+02  0.66601721073E+02  0.00000000000E+00 0. -1.
         25    1    1    2    0    0  0.69321261149E+02  0.75991661344E+02  0.36168922178E+03  0.39626287107E+03  0.12500000000E+03 0.  0.
         25    1    1    2    0    0 -0.50532504216E+02 -0.36915414590E+02  0.20070732244E+03  0.24459090559E+03  0.12500000000E+03 0.  0.
         25    1    1    2    0    0 -0.18788756933E+02 -0.39076246754E+02  0.13250070691E+03  0.18724691661E+03  0.12500000000E+03 0.  0.
</event>
<event>
 5    0  0.7045409E-005  0.2950804E+03  0.7546771E-02  0.1087726E+00
         21   -1    0    0  502  501  0.00000000000E+00  0.00000000000E+00  0.54971262932E+03  0.54971262932E+03  0.00000000000E+00 0. -1.
         21   -1    0    0  501  502 -0.00000000000E+00 -0.00000000000E+00 -0.15839624123E+03  0.15839624123E+03  0.00000000000E+00 0. -1.
         25    1    1    2    0    0  0.13854140884E+03  0.13838134075E+03  0.23564573326E+03  0.33090335301E+03  0.12500000000E+03 0.  0.
         25    1    1    2    0    0 -0.86830329970E+02 -0.80915614546E+02  0.15257698647E+03  0.23019900017E+03  0.12500000000E+03 0.  0.
         25    1    1    2    0    0 -0.51711078870E+02 -0.57465726202E+02  0.30936683545E+01  0.14700651737E+03  0.12500000000E+03 0.  0.
</event>
<event>
 5    0  0.5749909E-005  0.2961112E+03  0.7546771E-02  0.1087201E+00
         21   -1    0    0  502  501  0.00000000000E+00  0.00000000000E+00  0.40379837840E+03  0.40379837840E+03  0.00000000000E+00 0.  1.
         21   -1    0    0  501  502 -0.00000000000E+00 -0.00000000000E+00 -0.21714256163E+03  0.21714256163E+03  0.00000000000E+00 0.  1.
         25    1    1    2    0    0 -0.10352595786E+03 -0.15174772309E+03  0.31198070060E+02  0.22437316014E+03  0.12500000000E+03 0.  0.
         25    1    1    2    0    0  0.15276617296E+03  0.90061952100E+02  0.89997703354E+02  0.23488985808E+03  0.12500000000E+03 0.  0.
         25    1    1    2    0    0 -0.49240215098E+02  0.61685770993E+02  0.65460043355E+02  0.16167792181E+03  0.12500000000E+03 0.  0.
</event>
<event>
 5    0  0.5749909E-005  0.3203043E+03  0.7546771E-02  0.1075509E+00
         21   -1    0    0  502  501  0.00000000000E+00  0.00000000000E+00  0.92437012546E+03  0.92437012546E+03  0.00000000000E+00 0.  1.
         21   -1    0    0  501  502 -0.00000000000E+00 -0.00000000000E+00 -0.11098890464E+03  0.11098890464E+03  0.00000000000E+00 0.  1.
         25    1    1    2    0    0  0.96588743418E+02  0.38991251142E+02  0.18372592500E+03  0.24541784478E+03  0.12500000000E+03 0.  0.
         25    1    1    2    0    0 -0.18775872639E+03  0.78962378782E+02  0.17744870585E+03  0.29765993987E+03  0.12500000000E+03 0.  0.
         25    1    1    2    0    0  0.91169982975E+02 -0.11795362992E+03  0.45220658997E+03  0.49228124544E+03  0.12500000000E+03 0.  0.
</event>
<event>
 5    0  0.6252203E-005  0.5213189E+03  0.7546771E-02  0.1008359E+00
         21   -1    0    0  502  501  0.00000000000E+00  0.00000000000E+00  0.51754548551E+03  0.51754548551E+03  0.00000000000E+00 0. -1.
         21   -1    0    0  501  502 -0.00000000000E+00 -0.00000000000E+00 -0.52511984608E+03  0.52511984608E+03  0.00000000000E+00 0. -1.
         25    1    1    2    0    0  0.21915572800E+03 -0.17929480384E+03  0.18051516756E+03  0.35831073877E+03  0.12500000000E+03 0.  0.
         25    1    1    2    0    0 -0.31519750068E+03 -0.85411911089E+02 -0.90760684862E+02  0.36125774858E+03  0.12500000000E+03 0.  0.
         25    1    1    2    0    0  0.96041772682E+02  0.26470671493E+03 -0.97328843262E+02  0.32309684424E+03  0.12500000000E+03 0.  0.
</event>
<event>
 5    0  0.5749909E-005  0.2389255E+03  0.7546771E-02  0.1120511E+00
         21   -1    0    0  502  501  0.00000000000E+00  0.00000000000E+00  0.47907100591E+02  0.47907100591E+02  0.00000000000E+00 0. -1.
         21   -1    0    0  501  502 -0.00000000000E+00 -0.00000000000E+00 -0.11915856254E+04  0.11915856254E+04  0.00000000000E+00 0. -1.
         25    1    1    2    0    0  0.11137814589E+03 -0.29862006890E+02 -0.25918339941E+03  0.30999655703E+03  0.12500000000E+03 0.  0.
         25    1    1    2    0    0 -0.59857547725E+02  0.44715501006E+02 -0.37879472949E+03  0.40582366754E+03  0.12500000000E+03 0.  0.
         25    1    1    2    0    0 -0.51520598166E+02 -0.14853494116E+02 -0.50570039592E+03  0.52367250143E+03  0.12500000000E+03 0.  0.
</event>
<event>
 5    0  0.5749909E-005  0.2894973E+03  0.7546771E-02  0.1090612E+00
         21   -1    0    0  502  501  0.00000000000E+00  0.00000000000E+00  0.31992136906E+03  0.31992136906E+03  0.00000000000E+00 0. -1.
         21   -1    0    0  501  502 -0.00000000000E+00 -0.00000000000E+00 -0.26196654347E+03  0.26196654347E+03  0.00000000000E+00 0. -1.
         25    1    1    2    0    0 -0.48665001823E+02  0.52251075269E+02  0.15089657150E+03  0.20855031182E+03  0.12500000000E+03 0.  0.
         25    1    1    2    0    0  0.14771674011E+03 -0.49333565427E+02 -0.72816670064E+02  0.21255894106E+03  0.12500000000E+03 0.  0.
         25    1    1    2    0    0 -0.99051738290E+02 -0.29175098427E+01 -0.20125075850E+02  0.16077865965E+03  0.12500000000E+03 0.  0.
</event>
<event>
 5    0  0.5749909E-005  0.2694855E+03  0.7546771E-02  0.1101574E+00
         21   -1    0    0  502  501  0.00000000000E+00  0.00000000000E+00  0.42347742798E+03  0.42347742798E+03  0.00000000000E+00 0.  1.
         21   -1    0    0  501  502 -0.00000000000E+00 -0.00000000000E+00 -0.17149070386E+03  0.17149070386E+03  0.00000000000E+00 0.  1.
         25    1    1    2    0    0 -0.27796512887E+02 -0.26769738833E+02  0.10997919872E+03  0.17090842343E+03  0.12500000000E+03 0.  0.
         25    1    1    2    0    0 -0.11405796375E+03  0.80660517937E+01  0.16024829732E+03  0.23319261798E+03  0.12500000000E+03 0.  0.
         25    1    1    2    0    0  0.14185447664E+03  0.18703687040E+02 -0.18240771925E+02  0.19086709044E+03  0.12500000000E+03 0.  0.
</event>
<event>
 5    0  0.5749909E-005  0.3540301E+03  0.7546771E-02  0.1060973E+00
         21   -1    0    0  502  501  0.00000000000E+00  0.00000000000E+00  0.65309968712E+03  0.65309968712E+03  0.00000000000E+00 0.  1.
         21   -1    0    0  501  502 -0.00000000000E+00 -0.00000000000E+00 -0.19191143960E+03  0.19191143960E+03  0.00000000000E+00 0.  1.
         25    1    1    2    0    0  0.11142964855E+03 -0.16380810007E+03  0.21862209838E+03  0.32042203752E+03  0.12500000000E+03 0.  0.
         25    1    1    2    0    0  0.58266327328E+02  0.20802794778E+03  0.13779655018E+03  0.28510258013E+03  0.12500000000E+03 0.  0.
         25    1    1    2    0    0 -0.16969597588E+03 -0.44219847710E+02  0.10476959897E+03  0.23948650907E+03  0.12500000000E+03 0.  0.
</event>
<event>
 5    0  0.5749909E-005  0.5383492E+03  0.7546771E-02  0.1004227E+00
         21   -1    0    0  502  501  0.00000000000E+00  0.00000000000E+00  0.35276934477E+03  0.35276934477E+03  0.00000000000E+00 0. -1.
         21   -1    0    0  501  502 -0.00000000000E+00 -0.00000000000E+00 -0.82155628205E+03  0.82155628205E+03  0.00000000000E+00 0. -1.
         25    1    1    2    0    0 -0.15470480059E+03 -0.49654204647E+02 -0.20279695044E+03  0.28835866291E+03  0.12500000000E+03 0.  0.
         25    1    1    2    0    0  0.39890224889E+03 -0.19525224022E+03 -0.62266540843E+02  0.46556263123E+03  0.12500000000E+03 0.  0.
         25    1    1    2    0    0 -0.24419744830E+03  0.24490644487E+03 -0.20372344599E+03  0.42040433269E+03  0.12500000000E+03 0.  0.
</event>
<event>
 5    0  0.5749909E-005  0.3206678E+03  0.7546771E-02  0.1075342E+00
         21   -1    0    0  502  501  0.00000000000E+00  0.00000000000E+00  0.22301433821E+03  0.22301433821E+03  0.00000000000E+00 0.  1.
         21   -1    0    0  501  502 -0.00000000000E+00 -0.00000000000E+00 -0.46108174162E+03  0.46108174162E+03  0.00000000000E+00 0.  1.
         25    1    1    2    0    0 -0.12087074381E+03  0.13815810031E+03 -0.11308878544E+03  0.24922173016E+03  0.12500000000E+03 0.  0.
         25    1    1    2    0    0  0.15098870912E+03 -0.14351926940E+03 -0.17221595845E+03  0.29778970317E+03  0.12500000000E+03 0.  0.
         25    1    1    2    0    0 -0.30117965307E+02  0.53611690932E+01  0.47237340488E+02  0.13708464649E+03  0.12500000000E+03 0.  0.
</event>
<event>
 5    0  0.5749909E-005  0.3337238E+03  0.7546771E-02  0.1069501E+00
         21   -1    0    0  502  501  0.00000000000E+00  0.00000000000E+00  0.11244986117E+03  0.11244986117E+03  0.00000000000E+00 0.  1.
         21   -1    0    0  501  502 -0.00000000000E+00 -0.00000000000E+00 -0.99041077543E+03  0.99041077543E+03  0.00000000000E+00 0.  1.
         25    1    1    2    0    0 -0.16706941566E+02  0.86130395865E+02 -0.38722631548E+02  0.15755002121E+03  0.12500000000E+03 0.  0.
         25    1    1    2    0    0  0.91102032508E+02 -0.34966340521E+01 -0.72835118587E+03  0.74460207946E+03  0.12500000000E+03 0.  0.
         25    1    1    2    0    0 -0.74395090943E+02 -0.82633761813E+02 -0.11088709685E+03  0.20070853593E+03  0.12500000000E+03 0.  0.
</event>
<event>
 5    0  0.5749909E-005  0.3660791E+03  0.7546771E-02  0.1056202E+00
         21   -1    0    0  502  501  0.00000000000E+00  0.00000000000E+00  0.14576855874E+04  0.14576855874E+04  0.00000000000E+00 0.  1.
         21   -1    0    0  501  502 -0.00000000000E+00 -0.00000000000E+00 -0.91936070648E+02  0.91936070648E+02  0.00000000000E+00 0.  1.
         25    1    1    2    0    0 -0.54519152760E+02  0.25688463775E+02  0.43174631596E+02  0.14533163455E+03  0.12500000000E+03 0.  0.
         25    1    1    2    0    0  0.61078228456E+02 -0.20839000607E+03  0.70741249771E+03  0.75047610657E+03  0.12500000000E+03 0.  0.
         25    1    1    2    0    0 -0.65590756956E+01  0.18270154229E+03  0.61516238745E+03  0.65381391692E+03  0.12500000000E+03 0.  0.
</event>
<event>
 5    0  0.5749909E-005  0.4761757E+03  0.7546771E-02  0.1020192E+00
         21   -1    0    0  502  501  0.00000000000E+00  0.00000000000E+00  0.15939555805E+03  0.15939555805E+03  0.00000000000E+00 0.  1.
         21   -1    0    0  501  502 -0.00000000000E+00 -0.00000000000E+00 -0.14225192541E+04  0.14225192541E+04  0.00000000000E+00 0.  1.
         25    1    1    2    0    0  0.37240266294E+02 -0.16161529813E+03 -0.17231897539E+03  0.26986139276E+03  0.12500000000E+03 0.  0.
         25    1    1    2    0    0 -0.30843370526E+03 -0.77885205971E+02 -0.58791812333E+03  0.68005159774E+03  0.12500000000E+03 0.  0.
         25    1    1    2    0    0  0.27119343896E+03  0.23950050410E+03 -0.50288659737E+03  0.63200182168E+03  0.12500000000E+03 0.  0.
</event>
<event>
 5    0  0.5749909E-005  0.2256668E+03  0.7546771E-02  0.1129727E+00
         21   -1    0    0  502  501  0.00000000000E+00  0.00000000000E+00  0.34618397792E+03  0.34618397792E+03  0.00000000000E+00 0.  1.
         21   -1    0    0  501  502 -0.00000000000E+00 -0.00000000000E+00 -0.14710534582E+03  0.14710534582E+03  0.00000000000E+00 0.  1.
         25    1    1    2    0    0 -0.69428831409E+02 -0.28430506632E+02  0.11888651971E+03  0.18811608359E+03  0.12500000000E+03 0.  0.
         25    1    1    2    0    0 -0.39951727938E+01 -0.41357019591E+02  0.53057589645E+02  0.14200870499E+03  0.12500000000E+03 0.  0.
         25    1    1    2    0    0  0.73424004203E+02  0.69787526223E+02  0.27134522745E+02  0.16316453516E+03  0.12500000000E+03 0.  0.
</event>
<event>
 5    0  0.5749909E-005  0.2798248E+03  0.7546771E-02  0.1095785E+00
         21   -1    0    0  502  501  0.00000000000E+00  0.00000000000E+00  0.54634643196E+03  0.54634643196E+03  0.00000000000E+00 0. -1.
         21   -1    0    0  501  502 -0.00000000000E+00 -0.00000000000E+00 -0.14331921356E+03  0.14331921356E+03  0.00000000000E+00 0. -1.
         25    1    1    2    0    0  0.15650625401E+03  0.14330635132E+02  0.11020095554E+03  0.22906074576E+03  0.12500000000E+03 0.  0.
         25    1    1    2    0    0 -0.13865184383E+03 -0.90930439823E+02  0.17883349730E+03  0.27404214720E+03  0.12500000000E+03 0.  0.
         25    1    1    2    0    0 -0.17854410179E+02  0.76599804691E+02  0.11399276556E+03  0.18656275256E+03  0.12500000000E+03 0.  0.
</event>
<event>
 5    0  0.5749909E-005  0.3040309E+03  0.7546771E-02  0.1083243E+00
         21   -1    0    0  502  501  0.00000000000E+00  0.00000000000E+00  0.90078974185E+02  0.90078974185E+02  0.00000000000E+00 0. -1.
         21   -1    0    0  501  502 -0.00000000000E+00 -0.00000000000E+00 -0.10261527044E+04  0.10261527044E+04  0.00000000000E+00 0. -1.
         25    1    1    2    0    0  0.85981005579E+02  0.87902968209E+02 -0.20966023462E+03  0.27331681090E+03  0.12500000000E+03 0.  0.
         25    1    1    2    0    0 -0.24700146439E+02  0.42522729508E+02 -0.59813165288E+03  0.61302916239E+03  0.12500000000E+03 0.  0.
         25    1    1    2    0    0 -0.61280859140E+02 -0.13042569772E+03 -0.12828184268E+03  0.22988570526E+03  0.12500000000E+03 0.  0.
</event>
<event>
 5    0  0.5749909E-005  0.3305425E+03  0.7546771E-02  0.1070897E+00
         21   -1    0    0  502  501  0.00000000000E+00  0.00000000000E+00  0.70190718673E+02  0.70190718673E+02  0.00000000000E+00 0.  1.
         21   -1    0    0  501  502 -0.00000000000E+00 -0.00000000000E+00 -0.15565926100E+04  0.15565926100E+04  0.00000000000E+00 0.  1.
         25    1    1    2    0    0  0.36180437334E+02  0.10904722535E+03 -0.50921472083E+03  0.53677272035E+03  0.12500000000E+03 0.  0.
         25    1    1    2    0    0  0.18035440461E+03 -0.66418854479E+02 -0.47057350997E+03  0.52345353545E+03  0.12500000000E+03 0.  0.
         25    1    1    2    0    0 -0.21653484195E+03 -0.42628370874E+02 -0.50661366050E+03  0.56655707284E+03  0.12500000000E+03 0.  0.
</event>
<event>
 5    0  0.5749909E-005  0.2906814E+03  0.7546771E-02  0.1089994E+00
         21   -1    0    0  502  501  0.00000000000E+00  0.00000000000E+00  0.15729825473E+03  0.15729825473E+03  0.00000000000E+00 0.  1.
         21   -1    0    0  501  502 -0.00000000000E+00 -0.00000000000E+00 -0.53716839802E+03  0.53716839802E+03  0.00000000000E+00 0.  1.
         25    1    1    2    0    0  0.62329449311E+02 -0.41730824772E+01  0.56628284195E+02  0.15077843824E+03  0.12500000000E+03 0.  0.
         25    1    1    2    0    0  0.32045620230E+02 -0.71571378498E+02 -0.23483803076E+03  0.27735047266E+03  0.12500000000E+03 0.  0.
         25    1    1    2    0    0 -0.94375069540E+02  0.75744460975E+02 -0.20166039673E+03  0.26633774184E+03  0.12500000000E+03 0.  0.
</event>
<event>
 5    0  0.5749909E-005  0.2108033E+03  0.7546771E-02  0.1140931E+00
         21   -1    0    0  502  501  0.00000000000E+00  0.00000000000E+00  0.58170848409E+03  0.58170848409E+03  0.00000000000E+00 0. -1.
         21   -1    0    0  501  502 -0.00000000000E+00 -0.00000000000E+00 -0.76392246117E+02  0.76392246117E+02  0.00000000000E+00 0. -1.
         25    1    1    2    0    0  0.13120978141E+02 -0.40395496705E+02  0.26234421671E+03  0.29368936695E+03  0.12500000000E+03 0.  0.
         25    1    1    2    0    0 -0.81519827939E+00  0.13345693544E+02  0.18447629176E+03  0.22323815603E+03  0.12500000000E+03 0.  0.
         25    1    1    2    0    0 -0.12305779862E+02  0.27049803160E+02  0.58495729509E+02  0.14117320723E+03  0.12500000000E+03 0.  0.
</event>
<event>
 5    0  0.5749909E-005  0.2861553E+03  0.7546771E-02  0.1092374E+00
         21   -1    0    0  502  501  0.00000000000E+00  0.00000000000E+00  0.31341728568E+03  0.31341728568E+03  0.00000000000E+00 0.  1.
         21   -1    0    0  501  502 -0.00000000000E+00 -0.00000000000E+00 -0.26126457630E+03  0.26126457630E+03  0.00000000000E+00 0.  1.
         25    1    1    2    0    0 -0.91626933785E+01  0.44190241904E+02  0.41360176167E+02  0.13918475708E+03  0.12500000000E+03 0.  0.
         25    1    1    2    0    0  0.59856384693E+02 -0.10801777584E+03 -0.13900880244E+03  0.22405149820E+03  0.12500000000E+03 0.  0.
         25    1    1    2    0    0 -0.50693691314E+02  0.63827533940E+02  0.14980133566E+03  0.21144560670E+03  0.12500000000E+03 0.  0.
</event>
<event>
 5    0  0.6471890E-005  0.2774032E+03  0.7546771E-02  0.1097116E+00
         21   -1    0    0  502  501  0.00000000000E+00  0.00000000000E+00  0.38491391773E+03  0.38491391773E+03  0.00000000000E+00 0.  1.
         21   -1    0    0  501  502 -0.00000000000E+00 -0.00000000000E+00 -0.19992135823E+03  0.19992135823E+03  0.00000000000E+00 0.  1.
         25    1    1    2    0    0  0.44311400452E+02 -0.23397205425E+02  0.13567082382E+03  0.19116093186E+03  0.12500000000E+03 0.  0.
         25    1    1    2    0    0  0.44673419635E+02  0.10193932026E+03 -0.72707551606E+02  0.18247938924E+03  0.12500000000E+03 0.  0.
         25    1    1    2    0    0 -0.88984820087E+02 -0.78542114831E+02  0.12202928728E+03  0.21119495487E+03  0.12500000000E+03 0.  0.
</event>
<event>
 5    0  0.5749909E-005  0.4466132E+03  0.7546771E-02  0.1028737E+00
         21   -1    0    0  502  501  0.00000000000E+00  0.00000000000E+00  0.28674344268E+03  0.28674344268E+03  0.00000000000E+00 0. -1.
         21   -1    0    0  501  502 -0.00000000000E+00 -0.00000000000E+00 -0.69561614610E+03  0.69561614610E+03  0.00000000000E+00 0. -1.
         25    1    1    2    0    0 -0.70592778516E+02  0.19553917770E+03 -0.56641391138E+02  0.24910270490E+03  0.12500000000E+03 0.  0.
         25    1    1    2    0    0  0.10769446578E+03  0.16546475653E+03 -0.23624552035E+03  0.33228546387E+03  0.12500000000E+03 0.  0.
         25    1    1    2    0    0 -0.37101687263E+02 -0.36100393424E+03 -0.11598579193E+03  0.40097142001E+03  0.12500000000E+03 0.  0.
</event>
<event>
 5    0  0.5749909E-005  0.2562653E+03  0.7546771E-02  0.1109408E+00
         21   -1    0    0  502  501  0.00000000000E+00  0.00000000000E+00  0.13614874203E+04  0.13614874203E+04  0.00000000000E+00 0. -1.
         21   -1    0    0  501  502 -0.00000000000E+00 -0.00000000000E+00 -0.48235400978E+02  0.48235400978E+02  0.00000000000E+00 0. -1.
         25    1    1    2    0    0  0.30471349011E+02  0.92762314210E+02  0.70243230807E+03  0.72011769695E+03  0.12500000000E+03 0.  0.
         25    1    1    2    0    0  0.32472070780E+02  0.29842823128E+02  0.28714940694E+03  0.31626699381E+03  0.12500000000E+03 0.  0.
         25    1    1    2    0    0 -0.62943419791E+02 -0.12260513734E+03  0.32367030433E+03  0.37333813052E+03  0.12500000000E+03 0.  0.
</event>
<event>
 5    0  0.5749909E-005  0.3118797E+03  0.7546771E-02  0.1079448E+00
         21   -1    0    0  502  501  0.00000000000E+00  0.00000000000E+00  0.28472590747E+03  0.28472590747E+03  0.00000000000E+00 0.  1.
         21   -1    0    0  501  502 -0.00000000000E+00 -0.00000000000E+00 -0.34162313967E+03  0.34162313967E+03  0.00000000000E+00 0.  1.
         25    1    1    2    0    0  0.10851088227E+03  0.23393677411E+02 -0.12504847205E+02  0.16764023060E+03  0.12500000000E+03 0.  0.
         25    1    1    2    0    0 -0.12822835185E+03  0.79050659854E+02 -0.16506303379E+03  0.25605140532E+03  0.12500000000E+03 0.  0.
         25    1    1    2    0    0  0.19717469581E+02 -0.10244433726E+03  0.12067064879E+03  0.20265741122E+03  0.12500000000E+03 0.  0.
</event>
<event>
 5    0  0.5749909E-005  0.2563744E+03  0.7546771E-02  0.1109341E+00
         21   -1    0    0  502  501  0.00000000000E+00  0.00000000000E+00  0.43961259943E+03  0.43961259943E+03  0.00000000000E+00 0. -1.
         21   -1    0    0  501  502 -0.00000000000E+00 -0.00000000000E+00 -0.14951311563E+03  0.14951311563E+03  0.00000000000E+00 0. -1.
         25    1    1    2    0    0  0.10717758992E+03  0.55965673005E+02  0.77001142455E+02  0.19019297641E+03  0.12500000000E+03 0.  0.
         25    1    1    2    0    0 -0.10349295506E+03  0.53664935244E+02  0.10600773992E+03  0.20113020147E+03  0.12500000000E+03 0.  0.
         25    1    1    2    0    0 -0.36846348593E+01 -0.10963060825E+03  0.10709060144E+03  0.19780253718E+03  0.12500000000E+03 0.  0.
</event>
<event>
 5    0  0.5749909E-005  0.3236443E+03  0.7546771E-02  0.1073984E+00
         21   -1    0    0  502  501  0.00000000000E+00  0.00000000000E+00  0.19023405512E+04  0.19023405512E+04  0.00000000000E+00 0.  1.
         21   -1    0    0  501  502 -0.00000000000E+00 -0.00000000000E+00 -0.55061459857E+02  0.55061459857E+02  0.00000000000E+00 0.  1.
         25    1    1    2    0    0 -0.55135562469E+02  0.46556623840E+00  0.94859165663E+03  0.95837950627E+03  0.12500000000E+03 0.  0.
         25    1    1    2    0    0 -0.85677307547E+02  0.12403234901E+03  0.54827946769E+03  0.58220271326E+03  0.12500000000E+03 0.  0.
         25    1    1    2    0    0  0.14081287002E+03 -0.12449791525E+03  0.35040796701E+03  0.41681979153E+03  0.12500000000E+03 0.  0.
</event>
<event>
 5    0  0.5749909E-005  0.2627765E+03  0.7546771E-02  0.1105486E+00
         21   -1    0    0  502  501  0.00000000000E+00  0.00000000000E+00  0.56535814440E+02  0.56535814440E+02  0.00000000000E+00 0.  1.
         21   -1    0    0  501  502 -0.00000000000E+00 -0.00000000000E+00 -0.12213764528E+04  0.12213764528E+04  0.00000000000E+00 0.  1.
         25    1    1    2    0    0 -0.37727206573E+02  0.81505663632E+02 -0.19310910143E+03  0.24694663467E+03  0.12500000000E+03 0.  0.
         25    1    1    2    0    0 -0.68782686655E+02  0.19617122307E+02 -0.31224191103E+03  0.34385447573E+03  0.12500000000E+03 0.  0.
         25    1    1    2    0    0  0.10650989323E+03 -0.10112278594E+03 -0.65948962586E+03  0.68711115680E+03  0.12500000000E+03 0.  0.
</event>
<event>
 5    0  0.6302113E-005  0.3517854E+03  0.7546771E-02  0.1061885E+00
         21   -1    0    0  502  501  0.00000000000E+00  0.00000000000E+00  0.68360219285E+03  0.68360219285E+03  0.00000000000E+00 0.  1.
         21   -1    0    0  501  502 -0.00000000000E+00 -0.00000000000E+00 -0.18103069796E+03  0.18103069796E+03  0.00000000000E+00 0.  1.
         25    1    1    2    0    0  0.56488226011E+02 -0.22583326708E+03  0.14878654129E+03  0.30323921097E+03  0.12500000000E+03 0.  0.
         25    1    1    2    0    0  0.58714360645E+02  0.10139898753E+03  0.28256889690E+02  0.17364499023E+03  0.12500000000E+03 0.  0.
         25    1    1    2    0    0 -0.11520258666E+03  0.12443427956E+03  0.32552806391E+03  0.38774868961E+03  0.12500000000E+03 0.  0.
</event>
<event>
 5    0  0.5749909E-005  0.3340911E+03  0.7546771E-02  0.1069341E+00
         21   -1    0    0  502  501  0.00000000000E+00  0.00000000000E+00  0.60663616865E+02  0.60663616865E+02  0.00000000000E+00 0.  1.
         21   -1    0    0  501  502 -0.00000000000E+00 -0.00000000000E+00 -0.18399312968E+04  0.18399312968E+04  0.00000000000E+00 0.  1.
         25    1    1    2    0    0 -0.64694919969E+01  0.68906098120E+02 -0.28990726744E+03  0.32320446841E+03  0.12500000000E+03 0.  0.
         25    1    1    2    0    0  0.22139741162E+03  0.10283306946E+02 -0.83537378691E+03  0.87326795666E+03  0.12500000000E+03 0.  0.
         25    1    1    2    0    0 -0.21492791962E+03 -0.79189405065E+02 -0.65398662563E+03  0.70412248864E+03  0.12500000000E+03 0.  0.
</event>
<event>
 5    0  0.5749909E-005  0.2484778E+03  0.7546771E-02  0.1114271E+00
         21   -1    0    0  502  501  0.00000000000E+00  0.00000000000E+00  0.96438356294E+03  0.96438356294E+03  0.00000000000E+00 0.  1.
         21   -1    0    0  501  502 -0.00000000000E+00 -0.00000000000E+00 -0.64021413717E+02  0.64021413717E+02  0.00000000000E+00 0.  1.
         25    1    1    2    0    0  0.20194871282E+02 -0.24982745486E+02  0.12873574103E+03  0.18229059607E+03  0.12500000000E+03 0.  0.
         25    1    1    2    0    0  0.79759708021E+02 -0.65163491115E+02  0.32284994046E+03  0.36119935722E+03  0.12500000000E+03 0.  0.
         25    1    1    2    0    0 -0.99954579303E+02  0.90146236601E+02  0.44877646774E+03  0.48491502337E+03  0.12500000000E+03 0.  0.
</event>
<event>
 5    0  0.5749909E-005  0.4138075E+03  0.7546771E-02  0.1039101E+00
         21   -1    0    0  502  501  0.00000000000E+00  0.00000000000E+00  0.14146736772E+03  0.14146736772E+03  0.00000000000E+00 0. -1.
         21   -1    0    0  501  502 -0.00000000000E+00 -0.00000000000E+00 -0.12104323045E+04  0.12104323045E+04  0.00000000000E+00 0. -1.
         25    1    1    2    0    0  0.13322908208E+03 -0.32160202386E+03 -0.45183725534E+03  0.58391759297E+03  0.12500000000E+03 0.  0.
         25    1    1    2    0    0 -0.11081901128E+03  0.22019148949E+03 -0.48628155846E+03  0.55933880555E+03  0.12500000000E+03 0.  0.
         25    1    1    2    0    0 -0.22410070797E+02  0.10141053437E+03 -0.13084612297E+03  0.20864327367E+03  0.12500000000E+03 0.  0.
</event>
<event>
 5    0  0.5749909E-005  0.3741933E+03  0.7546771E-02  0.1053101E+00
         21   -1    0    0  502  501  0.00000000000E+00  0.00000000000E+00  0.28580044245E+03  0.28580044245E+03  0.00000000000E+00 0. -1.
         21   -1    0    0  501  502 -0.00000000000E+00 -0.00000000000E+00 -0.48992458037E+03  0.48992458037E+03  0.00000000000E+00 0. -1.
         25    1    1    2    0    0  0.55352154739E+02 -0.66985963529E+02 -0.45652881437E+01  0.15230503012E+03  0.12500000000E+03 0.  0.
         25    1    1    2    0    0 -0.21472653185E+03  0.10032965378E+03 -0.29372062594E+03  0.39758059435E+03  0.12500000000E+03 0.  0.
         25    1    1    2    0    0  0.15937437711E+03 -0.33343690253E+02  0.94161776160E+02  0.22583939835E+03  0.12500000000E+03 0.  0.
</event>
<event>
 5    0  0.5749909E-005  0.3692423E+03  0.7546771E-02  0.1054983E+00
         21   -1    0    0  502  501  0.00000000000E+00  0.00000000000E+00  0.31747270317E+03  0.31747270317E+03  0.00000000000E+00 0.  1.
         21   -1    0    0  501  502 -0.00000000000E+00 -0.00000000000E+00 -0.42945383342E+03  0.42945383342E+03  0.00000000000E+00 0.  1.
         25    1    1    2    0    0  0.16745233661E+03 -0.36471804581E+01  0.49681287991E+01  0.20905326897E+03  0.12500000000E+03 0.  0.
         25    1    1    2    0    0 -0.91748680676E+01 -0.80307414391E+02 -0.24350686915E+03  0.28540156680E+03  0.12500000000E+03 0.  0.
         25    1    1    2    0    0 -0.15827746854E+03  0.83954594849E+02  0.12655761010E+03  0.25247170083E+03  0.12500000000E+03 0.  0.
</event>
<event>
 5    0  0.5749909E-005  0.2680225E+03  0.7546771E-02  0.1102417E+00
         21   -1    0    0  502  501  0.00000000000E+00  0.00000000000E+00  0.16046518757E+03  0.16046518757E+03  0.00000000000E+00 0.  1.
         21   -1    0    0  501  502 -0.00000000000E+00 -0.00000000000E+00 -0.44767369033E+03  0.44767369033E+03  0.00000000000E+00 0.  1.
         25    1    1    2    0    0 -0.49137754174E+02  0.91836456415E+01  0.71202028077E+02  0.15229440907E+03  0.12500000000E+03 0.  0.
         25    1    1    2    0    0  0.73408436316E+02 -0.39874959241E+02 -0.18034253238E+03  0.23479190762E+03  0.12500000000E+03 0.  0.
         25    1    1    2    0    0 -0.24270682142E+02  0.30691313599E+02 -0.17806799846E+03  0.22105256121E+03  0.12500000000E+03 0.  0.
</event>
<event>
 5    0  0.5749909E-005  0.3057907E+03  0.7546771E-02  0.1082381E+00
         21   -1    0    0  502  501  0.00000000000E+00  0.00000000000E+00  0.11158511283E+03  0.11158511283E+03  0.00000000000E+00 0. -1.
         21   -1    0    0  501  502 -0.00000000000E+00 -0.00000000000E+00 -0.83799692412E+03  0.83799692412E+03  0.00000000000E+00 0. -1.
         25    1    1    2    0    0 -0.80250964335E+00  0.10835097501E+03 -0.26287623599E+03  0.31059538512E+03  0.12500000000E+03 0.  0.
         25    1    1    2    0    0 -0.27990804023E+02 -0.12144476779E+03 -0.20655780148E+02  0.17771881720E+03  0.12500000000E+03 0.  0.
         25    1    1    2    0    0  0.28793313667E+02  0.13093792782E+02 -0.44287979515E+03  0.46126783464E+03  0.12500000000E+03 0.  0.
</event>
<event>
 5    0  0.5749909E-005  0.2462774E+03  0.7546771E-02  0.1115680E+00
         21   -1    0    0  502  501  0.00000000000E+00  0.00000000000E+00  0.36621008619E+03  0.36621008619E+03  0.00000000000E+00 0.  1.
         21   -1    0    0  501  502 -0.00000000000E+00 -0.00000000000E+00 -0.16562225586E+03  0.16562225586E+03  0.00000000000E+00 0.  1.
         25    1    1    2    0    0 -0.86097109516E+02 -0.86526297363E+02  0.91600500535E+02  0.19726926801E+03  0.12500000000E+03 0.  0.
         25    1    1    2    0    0  0.75108135758E+02 -0.82051510323E+01  0.10013413500E+03  0.17708868274E+03  0.12500000000E+03 0.  0.
         25    1    1    2    0    0  0.10988973759E+02  0.94731448395E+02  0.88531947926E+01  0.15747439131E+03  0.12500000000E+03 0.  0.
</event>
<event>
 5    0  0.5749909E-005  0.2640047E+03  0.7546771E-02  0.1104761E+00
         21   -1    0    0  502  501  0.00000000000E+00  0.00000000000E+00  0.53765423068E+02  0.53765423068E+02  0.00000000000E+00 0. -1.
         21   -1    0    0  501  502 -0.00000000000E+00 -0.00000000000E+00 -0.12963435609E+04  0.12963435609E+04  0.00000000000E+00 0. -1.
         25    1    1    2    0    0  0.91469842425E+02 -0.26171374504E+02 -0.16043303570E+03  0.22453381006E+03  0.12500000000E+03 0.  0.
         25    1    1    2    0    0  0.26036205372E+02  0.38870369134E+02 -0.38347804653E+03  0.40604088680E+03  0.12500000000E+03 0.  0.
         25    1    1    2    0    0 -0.11750604780E+03 -0.12698994629E+02 -0.69866705563E+03  0.71953428713E+03  0.12500000000E+03 0.  0.
</event>
<event>
 5    0  0.5749909E-005  0.6912140E+03  0.7546771E-02  0.9732377E-01
         21   -1    0    0  502  501  0.00000000000E+00  0.00000000000E+00  0.36668501655E+03  0.36668501655E+03  0.00000000000E+00 0. -1.
         21   -1    0    0  501  502 -0.00000000000E+00 -0.00000000000E+00 -0.13029623272E+04  0.13029623272E+04  0.00000000000E+00 0.  1.
         25    1    1    2    0    0  0.98770244456E+02 -0.84852760626E+02 -0.17180649271E+03  0.24919474937E+03  0.12500000000E+03 0.  0.
         25    1    1    2    0    0  0.38916647692E+03  0.34914328306E+03 -0.64424785536E+03  0.83906607487E+03  0.12500000000E+03 0.  0.
         25    1    1    2    0    0 -0.48793672137E+03 -0.26429052243E+03 -0.12022296256E+03  0.58138651948E+03  0.12500000000E+03 0.  0.
</event>
<event>
 5    0  0.5749909E-005  0.3337910E+03  0.7546771E-02  0.1069472E+00
         21   -1    0    0  502  501  0.00000000000E+00  0.00000000000E+00  0.22659907399E+03  0.22659907399E+03  0.00000000000E+00 0. -1.
         21   -1    0    0  501  502 -0.00000000000E+00 -0.00000000000E+00 -0.49168982523E+03  0.49168982523E+03  0.00000000000E+00 0. -1.
         25    1    1    2    0    0  0.41943879636E+02  0.18259758047E+02 -0.11949696447E+03  0.17887770213E+03  0.12500000000E+03 0.  0.
         25    1    1    2    0    0 -0.64067567879E+02 -0.14311602765E+03  0.10938019604E+03  0.22842039731E+03  0.12500000000E+03 0.  0.
         25    1    1    2    0    0  0.22123688243E+02  0.12485626960E+03 -0.25497398280E+03  0.31099079978E+03  0.12500000000E+03 0.  0.
</event>
<event>
 5    0  0.5749909E-005  0.6003697E+03  0.7546771E-02  0.9904639E-01
         21   -1    0    0  502  501  0.00000000000E+00  0.00000000000E+00  0.28999027094E+03  0.28999027094E+03  0.00000000000E+00 0. -1.
         21   -1    0    0  501  502 -0.00000000000E+00 -0.00000000000E+00 -0.12429514737E+04  0.12429514737E+04  0.00000000000E+00 0. -1.
         25    1    1    2    0    0 -0.94475159622E+02  0.22562020919E+03 -0.60106115840E+03  0.66085516622E+03  0.12500000000E+03 0.  0.
         25    1    1    2    0    0 -0.39666143167E+02 -0.27165130447E+03  0.14918659425E+03  0.33652559195E+03  0.12500000000E+03 0.  0.
         25    1    1    2    0    0  0.13414130279E+03  0.46031095272E+02 -0.50108663860E+03  0.53556098647E+03  0.12500000000E+03 0.  0.
</event>
<event>
 5    0  0.5749909E-005  0.2595592E+03  0.7546771E-02  0.1107408E+00
         21   -1    0    0  502  501  0.00000000000E+00  0.00000000000E+00  0.82405266355E+02  0.82405266355E+02  0.00000000000E+00 0.  1.
         21   -1    0    0  501  502 -0.00000000000E+00 -0.00000000000E+00 -0.81755646318E+03  0.81755646318E+03  0.00000000000E+00 0.  1.
         25    1    1    2    0    0  0.26264455114E+02 -0.58462267315E+02 -0.14209548308E+03  0.19980937068E+03  0.12500000000E+03 0.  0.
         25    1    1    2    0    0  0.73136688035E+02  0.12920715685E+03 -0.26472167531E+03  0.32824690387E+03  0.12500000000E+03 0.  0.
         25    1    1    2    0    0 -0.99401143149E+02 -0.70744889531E+02 -0.32833403844E+03  0.37190545499E+03  0.12500000000E+03 0.  0.
</event>
<event>
 5    0  0.5749909E-005  0.3359246E+03  0.7546771E-02  0.1068545E+00
         21   -1    0    0  502  501  0.00000000000E+00  0.00000000000E+00  0.16019092210E+04  0.16019092210E+04  0.00000000000E+00 0. -1.
         21   -1    0    0  501  502 -0.00000000000E+00 -0.00000000000E+00 -0.70444279821E+02  0.70444279821E+02  0.00000000000E+00 0. -1.
         25    1    1    2    0    0 -0.14708439628E+03 -0.15094877301E+03  0.27093811968E+03  0.36531057526E+03  0.12500000000E+03 0.  0.
         25    1    1    2    0    0  0.89771474450E+02  0.21993869230E+02  0.50746615112E+03  0.53074432870E+03  0.12500000000E+03 0.  0.
         25    1    1    2    0    0  0.57312921830E+02  0.12895490378E+03  0.75306067033E+03  0.77629859681E+03  0.12500000000E+03 0.  0.
</event>
<event>
 5    0  0.5749909E-005  0.2341621E+03  0.7546771E-02  0.1123744E+00
         21   -1    0    0  502  501  0.00000000000E+00  0.00000000000E+00  0.35191296114E+03  0.35191296114E+03  0.00000000000E+00 0. -1.
         21   -1    0    0  501  502 -0.00000000000E+00 -0.00000000000E+00 -0.15581097440E+03  0.15581097440E+03  0.00000000000E+00 0. -1.
         25    1    1    2    0    0  0.93263922869E+02 -0.53805084625E+02  0.25296628693E+02  0.16690735713E+03  0.12500000000E+03 0.  0.
         25    1    1    2    0    0 -0.48719038865E+02 -0.24347217148E+02  0.50531829068E+02  0.14541250799E+03  0.12500000000E+03 0.  0.
         25    1    1    2    0    0 -0.44544884005E+02  0.78152301773E+02  0.12027352899E+03  0.19540407042E+03  0.12500000000E+03 0.  0.
</event>
<event>
 5    0  0.5749909E-005  0.4359724E+03  0.7546771E-02  0.1031990E+00
         21   -1    0    0  502  501  0.00000000000E+00  0.00000000000E+00  0.59339201999E+03  0.59339201999E+03  0.00000000000E+00 0.  1.
         21   -1    0    0  501  502 -0.00000000000E+00 -0.00000000000E+00 -0.32031431353E+03  0.32031431353E+03  0.00000000000E+00 0.  1.
         25    1    1    2    0    0  0.12364308977E+03 -0.11802470168E+03  0.47025150183E+02  0.21691889868E+03  0.12500000000E+03 0.  0.
         25    1    1    2    0    0  0.26326490599E+02  0.14230827290E+03 -0.16916069893E+03  0.25531367121E+03  0.12500000000E+03 0.  0.
         25    1    1    2    0    0 -0.14996958037E+03 -0.24283571221E+02  0.39521325521E+03  0.44147376362E+03  0.12500000000E+03 0.  0.
</event>
<event>
 5    0  0.5749909E-005  0.2337187E+03  0.7546771E-02  0.1124049E+00
         21   -1    0    0  502  501  0.00000000000E+00  0.00000000000E+00  0.12647269953E+03  0.12647269953E+03  0.00000000000E+00 0. -1.
         21   -1    0    0  501  502 -0.00000000000E+00 -0.00000000000E+00 -0.43190691190E+03  0.43190691190E+03  0.00000000000E+00 0. -1.
         25    1    1    2    0    0 -0.49231155864E+02  0.19993221573E+02 -0.64882421863E+02  0.15052629100E+03  0.12500000000E+03 0.  0.
         25    1    1    2    0    0  0.62470092906E+02  0.85384212985E+02 -0.10027083911E+03  0.19202139857E+03  0.12500000000E+03 0.  0.
         25    1    1    2    0    0 -0.13238937042E+02 -0.10537743456E+03 -0.14028095140E+03  0.21583192186E+03  0.12500000000E+03 0.  0.
</event>
<event>
 5    0  0.5749909E-005  0.2444492E+03  0.7546771E-02  0.1116864E+00
         21   -1    0    0  502  501  0.00000000000E+00  0.00000000000E+00  0.40586032901E+04  0.40586032901E+04  0.00000000000E+00 0. -1.
         21   -1    0    0  501  502 -0.00000000000E+00 -0.00000000000E+00 -0.14723151487E+02  0.14723151487E+02  0.00000000000E+00 0. -1.
         25    1    1    2    0    0 -0.28715421931E+02  0.62508510800E+02  0.13327863876E+04  0.13404015982E+04  0.12500000000E+03 0.  0.
         25    1    1    2    0    0  0.78922257901E+02 -0.43536193331E+02  0.67837515322E+03  0.69565937888E+03  0.12500000000E+03 0.  0.
         25    1    1    2    0    0 -0.50206835970E+02 -0.18972317468E+02  0.20327185978E+04  0.20372654645E+04  0.12500000000E+03 0.  0.
</event>
<event>
 5    0  0.5749909E-005  0.2807924E+03  0.7546771E-02  0.1095257E+00
         21   -1    0    0  502  501  0.00000000000E+00  0.00000000000E+00  0.94599975440E+02  0.94599975440E+02  0.00000000000E+00 0.  1.
         21   -1    0    0  501  502 -0.00000000000E+00 -0.00000000000E+00 -0.83345005457E+03  0.83345005457E+03  0.00000000000E+00 0.  1.
         25    1    1    2    0    0 -0.45213043577E+02  0.61896032068E+01 -0.44059356902E+03  0.46025017497E+03  0.12500000000E+03 0.  0.
         25    1    1    2    0    0  0.64946617219E+02  0.10922208623E+03 -0.94932308716E+02  0.20195214890E+03  0.12500000000E+03 0.  0.
         25    1    1    2    0    0 -0.19733573641E+02 -0.11541168943E+03 -0.20332420139E+03  0.26584770613E+03  0.12500000000E+03 0.  0.
</event>
<event>
 5    0  0.5749909E-005  0.2800093E+03  0.7546771E-02  0.1095684E+00
         21   -1    0    0  502  501  0.00000000000E+00  0.00000000000E+00  0.85523242155E+03  0.85523242155E+03  0.00000000000E+00 0.  1.
         21   -1    0    0  501  502 -0.00000000000E+00 -0.00000000000E+00 -0.91677074501E+02  0.91677074501E+02  0.00000000000E+00 0.  1.
         25    1    1    2    0    0 -0.39196266742E+02 -0.25801810635E+02  0.10031023035E+03  0.16700066787E+03  0.12500000000E+03 0.  0.
         25    1    1    2    0    0  0.12229407130E+03 -0.10628698081E+03  0.40033981510E+03  0.44961064235E+03  0.12500000000E+03 0.  0.
         25    1    1    2    0    0 -0.83097804555E+02  0.13208879144E+03  0.26290530160E+03  0.33029818582E+03  0.12500000000E+03 0.  0.
</event>
<event>
 5    0  0.5749909E-005  0.5200697E+03  0.7546771E-02  0.1008669E+00
         21   -1    0    0  502  501  0.00000000000E+00  0.00000000000E+00  0.59954390954E+03  0.59954390954E+03  0.00000000000E+00 0. -1.
         21   -1    0    0  501  502 -0.00000000000E+00 -0.00000000000E+00 -0.45113036096E+03  0.45113036096E+03  0.00000000000E+00 0. -1.
         25    1    1    2    0    0  0.13775737625E+03  0.17358853827E+02  0.91624058985E+02  0.20808265834E+03  0.12500000000E+03 0.  0.
         25    1    1    2    0    0  0.59526428701E+02  0.29670436947E+01  0.40206758448E+03  0.42524762380E+03  0.12500000000E+03 0.  0.
         25    1    1    2    0    0 -0.19728380496E+03 -0.20325897522E+02 -0.34527809489E+03  0.41734398836E+03  0.12500000000E+03 0.  0.
</event>
<event>
 5    0  0.5749909E-005  0.2982772E+03  0.7546771E-02  0.1086105E+00
         21   -1    0    0  502  501  0.00000000000E+00  0.00000000000E+00  0.28846779885E+03  0.28846779885E+03  0.00000000000E+00 0. -1.
         21   -1    0    0  501  502 -0.00000000000E+00 -0.00000000000E+00 -0.30842020218E+03  0.30842020218E+03  0.00000000000E+00 0. -1.
         25    1    1    2    0    0  0.14004935284E+03 -0.64668771946E+02  0.97510198058E+02  0.22119925411E+03  0.12500000000E+03 0.  0.
         25    1    1    2    0    0 -0.10262016136E+03  0.11811759719E+03 -0.13925376866E+02  0.20075253524E+03  0.12500000000E+03 0.  0.
         25    1    1    2    0    0 -0.37429191474E+02 -0.53448825240E+02 -0.10353722452E+03  0.17493621167E+03  0.12500000000E+03 0.  0.
</event>
<event>
 5    0  0.5749909E-005  0.2635291E+03  0.7546771E-02  0.1105041E+00
         21   -1    0    0  502  501  0.00000000000E+00  0.00000000000E+00  0.16528142319E+03  0.16528142319E+03  0.00000000000E+00 0. -1.
         21   -1    0    0  501  502 -0.00000000000E+00 -0.00000000000E+00 -0.42017772013E+03  0.42017772013E+03  0.00000000000E+00 0. -1.
         25    1    1    2    0    0 -0.18523202371E+02  0.11043306423E+03 -0.10267565361E+03  0.19673805058E+03  0.12500000000E+03 0.  0.
         25    1    1    2    0    0  0.23209966808E+02 -0.10185045795E+03 -0.19695815769E+03  0.25559681967E+03  0.12500000000E+03 0.  0.
         25    1    1    2    0    0 -0.46867644369E+01 -0.85826062800E+01  0.44737514351E+02  0.13312427307E+03  0.12500000000E+03 0.  0.
</event>
<event>
 5    0  0.5749909E-005  0.2519843E+03  0.7546771E-02  0.1112057E+00
         21   -1    0    0  502  501  0.00000000000E+00  0.00000000000E+00  0.32327215754E+02  0.32327215754E+02  0.00000000000E+00 0.  1.
         21   -1    0    0  501  502 -0.00000000000E+00 -0.00000000000E+00 -0.19641680275E+04  0.19641680275E+04  0.00000000000E+00 0.  1.
         25    1    1    2    0    0  0.53885773308E+02  0.20816114046E+02 -0.50958911875E+03  0.52786651448E+03  0.12500000000E+03 0.  0.
         25    1    1    2    0    0  0.64923196245E+01  0.85315121783E+02 -0.10036839789E+04  0.10150504173E+04  0.12500000000E+03 0.  0.
         25    1    1    2    0    0 -0.60378092932E+02 -0.10613123583E+03 -0.41856771413E+03  0.45357831147E+03  0.12500000000E+03 0.  0.
</event>
<event>
 5    0  0.5749909E-005  0.2424900E+03  0.7546771E-02  0.1118145E+00
         21   -1    0    0  502  501  0.00000000000E+00  0.00000000000E+00  0.43816834013E+03  0.43816834013E+03  0.00000000000E+00 0. -1.
         21   -1    0    0  501  502 -0.00000000000E+00 -0.00000000000E+00 -0.13419823902E+03  0.13419823902E+03  0.00000000000E+00 0. -1.
         25    1    1    2    0    0 -0.72642044427E+02 -0.46590966772E+02  0.39722823296E+02  0.15700473717E+03  0.12500000000E+03 0.  0.
         25    1    1    2    0    0 -0.11950776728E+02  0.72064149329E+02  0.20556212742E+03  0.25142961423E+03  0.12500000000E+03 0.  0.
         25    1    1    2    0    0  0.84592821155E+02 -0.25473182557E+02  0.58685150396E+02  0.16393222776E+03  0.12500000000E+03 0.  0.
</event>
<event>
 5    0  0.6763319E-005  0.2803635E+03  0.7546771E-02  0.1095491E+00
         21   -1    0    0  502  501  0.00000000000E+00  0.00000000000E+00  0.26418562164E+03  0.26418562164E+03  0.00000000000E+00 0. -1.
         21   -1    0    0  501  502 -0.00000000000E+00 -0.00000000000E+00 -0.29753200738E+03  0.29753200738E+03  0.00000000000E+00 0. -1.
         25    1    1    2    0    0  0.63813434590E+02  0.17066515847E+02  0.15973802459E+03  0.21331820574E+03  0.12500000000E+03 0.  0.
         25    1    1    2    0    0 -0.57085666920E+02 -0.62748032229E+02 -0.68115261406E+02  0.16571293780E+03  0.12500000000E+03 0.  0.
         25    1    1    2    0    0 -0.67277676701E+01  0.45681516382E+02 -0.12496914893E+03  0.18268648549E+03  0.12500000000E+03 0.  0.
</event>
<event>
 5    0  0.5749909E-005  0.3457426E+03  0.7546771E-02  0.1064376E+00
         21   -1    0    0  502  501  0.00000000000E+00  0.00000000000E+00  0.30515468750E+03  0.30515468750E+03  0.00000000000E+00 0.  1.
         21   -1    0    0  501  502 -0.00000000000E+00 -0.00000000000E+00 -0.39172892990E+03  0.39172892990E+03  0.00000000000E+00 0.  1.
         25    1    1    2    0    0 -0.14087194996E+02  0.10137585139E+03  0.14669858158E+03  0.21822233191E+03  0.12500000000E+03 0.  0.
         25    1    1    2    0    0 -0.64140975688E+02  0.77712725385E+02 -0.17891306308E+03  0.24039179809E+03  0.12500000000E+03 0.  0.
         25    1    1    2    0    0  0.78228170684E+02 -0.17908857678E+03 -0.54359760897E+02  0.23826948740E+03  0.12500000000E+03 0.  0.
</event>
<event>
 5    0  0.5749909E-005  0.2506511E+03  0.7546771E-02  0.1112894E+00
         21   -1    0    0  502  501  0.00000000000E+00  0.00000000000E+00  0.49607504772E+03  0.49607504772E+03  0.00000000000E+00 0. -1.
         21   -1    0    0  501  502 -0.00000000000E+00 -0.00000000000E+00 -0.12664613786E+03  0.12664613786E+03  0.00000000000E+00 0. -1.
         25    1    1    2    0    0 -0.62020384161E+02 -0.47107544388E+01 -0.10865326634E+02  0.14004204576E+03  0.12500000000E+03 0.  0.
         25    1    1    2    0    0  0.32973158259E+01  0.15447152818E+02  0.29300919854E+03  0.31894964689E+03  0.12500000000E+03 0.  0.
         25    1    1    2    0    0  0.58723068335E+02 -0.10736398379E+02  0.87285037954E+02  0.16372949293E+03  0.12500000000E+03 0.  0.
</event>
<event>
 5    0  0.5749909E-005  0.3176218E+03  0.7546771E-02  0.1076749E+00
         21   -1    0    0  502  501  0.00000000000E+00  0.00000000000E+00  0.25139791566E+03  0.25139791566E+03  0.00000000000E+00 0. -1.
         21   -1    0    0  501  502 -0.00000000000E+00 -0.00000000000E+00 -0.40129066938E+03  0.40129066938E+03  0.00000000000E+00 0. -1.
         25    1    1    2    0    0 -0.10321011221E+03  0.10482473209E+03  0.30518622978E+02  0.19544036960E+03  0.12500000000E+03 0.  0.
         25    1    1    2    0    0  0.14287968889E+03 -0.15633163313E+03 -0.19737499527E+03  0.31533485975E+03  0.12500000000E+03 0.  0.
         25    1    1    2    0    0 -0.39669576682E+02  0.51506901046E+02  0.16963618574E+02  0.14191335570E+03  0.12500000000E+03 0.  0.
</event>
<event>
 5    0  0.5749909E-005  0.2346214E+03  0.7546771E-02  0.1123429E+00
         21   -1    0    0  502  501  0.00000000000E+00  0.00000000000E+00  0.11314223231E+03  0.11314223231E+03  0.00000000000E+00 0.  1.
         21   -1    0    0  501  502 -0.00000000000E+00 -0.00000000000E+00 -0.48653099795E+03  0.48653099795E+03  0.00000000000E+00 0.  1.
         25    1    1    2    0    0  0.15988017353E+02  0.53056538092E+02 -0.12615618548E+03  0.18604030764E+03  0.12500000000E+03 0.  0.
         25    1    1    2    0    0 -0.20469919698E+02 -0.10758317376E+03 -0.49522190136E+02  0.17340877776E+03  0.12500000000E+03 0.  0.
         25    1    1    2    0    0  0.44819023450E+01  0.54526635671E+02 -0.19771039003E+03  0.24022414485E+03  0.12500000000E+03 0.  0.
</event>
<event>
 5    0  0.5749909E-005  0.2555698E+03  0.7546771E-02  0.1109835E+00
         21   -1    0    0  502  501  0.00000000000E+00  0.00000000000E+00  0.60677582643E+03  0.60677582643E+03  0.00000000000E+00 0. -1.
         21   -1    0    0  501  502 -0.00000000000E+00 -0.00000000000E+00 -0.10764425578E+03  0.10764425578E+03  0.00000000000E+00 0. -1.
         25    1    1    2    0    0 -0.20838067172E+02  0.11141840388E+03  0.13049126836E+03  0.21331023624E+03  0.12500000000E+03 0.  0.
         25    1    1    2    0    0  0.49176338514E+02 -0.15233182664E+03  0.24654292659E+03  0.31942403218E+03  0.12500000000E+03 0.  0.
         25    1    1    2    0    0 -0.28338271342E+02  0.40913422767E+02  0.12209737570E+03  0.18168581380E+03  0.12500000000E+03 0.  0.
</event>
<event>
 5    0  0.5749909E-005  0.4505987E+03  0.7546771E-02  0.1027544E+00
         21   -1    0    0  502  501  0.00000000000E+00  0.00000000000E+00  0.18547572687E+04  0.18547572687E+04  0.00000000000E+00 0.  1.
         21   -1    0    0  501  502 -0.00000000000E+00 -0.00000000000E+00 -0.10946941695E+03  0.10946941695E+03  0.00000000000E+00 0.  1.
         25    1    1    2    0    0  0.11660417892E+03 -0.27887324298E+03  0.10100779055E+04  0.10617199232E+04  0.12500000000E+03 0.  0.
         25    1    1    2    0    0 -0.11879013068E+03  0.65232482260E+02  0.58407527818E+03  0.61248289974E+03  0.12500000000E+03 0.  0.
         25    1    1    2    0    0  0.21859517563E+01  0.21364076072E+03  0.15113466802E+03  0.29002386264E+03  0.12500000000E+03 0.  0.
</event>
<event>
 5    0  0.5749909E-005  0.3573951E+03  0.7546771E-02  0.1059620E+00
         21   -1    0    0  502  501  0.00000000000E+00  0.00000000000E+00  0.11221396378E+04  0.11221396378E+04  0.00000000000E+00 0. -1.
         21   -1    0    0  501  502 -0.00000000000E+00 -0.00000000000E+00 -0.11382829900E+03  0.11382829900E+03  0.00000000000E+00 0. -1.
         25    1    1    2    0    0 -0.97363739403E+01 -0.68089039197E+02  0.57548681739E+03  0.59290892322E+03  0.12500000000E+03 0.  0.
         25    1    1    2    0    0  0.58022362993E+02 -0.13417925120E+03  0.32477605473E+03  0.37745880806E+03  0.12500000000E+03 0.  0.
         25    1    1    2    0    0 -0.48285989053E+02  0.20226829039E+03  0.10804846672E+03  0.26560020557E+03  0.12500000000E+03 0.  0.
</event>
<event>
 5    0  0.5749909E-005  0.3329929E+03  0.7546771E-02  0.1069820E+00
         21   -1    0    0  502  501  0.00000000000E+00  0.00000000000E+00  0.77864422218E+03  0.77864422218E+03  0.00000000000E+00 0. -1.
         21   -1    0    0  501  502 -0.00000000000E+00 -0.00000000000E+00 -0.14240682449E+03  0.14240682449E+03  0.00000000000E+00 0. -1.
         25    1    1    2    0    0  0.36205511081E+02 -0.15781172059E+03  0.53006164623E+03  0.56815994842E+03  0.12500000000E+03 0.  0.
         25    1    1    2    0    0 -0.60375822614E+02  0.67510420980E+01  0.43288181454E+02  0.14556676537E+03  0.12500000000E+03 0.  0.
         25    1    1    2    0    0  0.24170311532E+02  0.15106067849E+03  0.62887570009E+02  0.20732433289E+03  0.12500000000E+03 0.  0.
</event>
<event>
 5    0  0.5749909E-005  0.2653097E+03  0.7546771E-02  0.1103994E+00
         21   -1    0    0  502  501  0.00000000000E+00  0.00000000000E+00  0.61326474722E+02  0.61326474722E+02  0.00000000000E+00 0. -1.
         21   -1    0    0  501  502 -0.00000000000E+00 -0.00000000000E+00 -0.11477787262E+04  0.11477787262E+04  0.00000000000E+00 0. -1.
         25    1    1    2    0    0 -0.10685216853E+03 -0.71039207078E+02 -0.47072366663E+03  0.50365635624E+03  0.12500000000E+03 0.  0.
         25    1    1    2    0    0  0.11860418164E+02 -0.49200869552E+02 -0.16396354851E+03  0.21229799887E+03  0.12500000000E+03 0.  0.
         25    1    1    2    0    0  0.94991750362E+02  0.12024007663E+03 -0.45176503637E+03  0.49315084584E+03  0.12500000000E+03 0.  0.
</event>
<event>
 5    0  0.5749909E-005  0.2285737E+03  0.7546771E-02  0.1127648E+00
         21   -1    0    0  502  501  0.00000000000E+00  0.00000000000E+00  0.69829355228E+02  0.69829355228E+02  0.00000000000E+00 0.  1.
         21   -1    0    0  501  502 -0.00000000000E+00 -0.00000000000E+00 -0.74819450298E+03  0.74819450298E+03  0.00000000000E+00 0.  1.
         25    1    1    2    0    0  0.72273219502E+02  0.26466358919E+02 -0.30864641031E+03  0.34177696384E+03  0.12500000000E+03 0.  0.
         25    1    1    2    0    0 -0.45271567721E+02 -0.65458616990E+02 -0.27504661087E+03  0.31242596489E+03  0.12500000000E+03 0.  0.
         25    1    1    2    0    0 -0.27001651781E+02  0.38992258072E+02 -0.94672126566E+02  0.16382092948E+03  0.12500000000E+03 0.  0.
</event>
<event>
 5    0  0.5749909E-005  0.4523635E+03  0.7546771E-02  0.1027020E+00
         21   -1    0    0  502  501  0.00000000000E+00  0.00000000000E+00  0.40310432608E+03  0.40310432608E+03  0.00000000000E+00 0. -1.
         21   -1    0    0  501  502 -0.00000000000E+00 -0.00000000000E+00 -0.50764212091E+03  0.50764212091E+03  0.00000000000E+00 0. -1.
         25    1    1    2    0    0 -0.17315113117E+03  0.59406147243E+02  0.82958022376E+02  0.23668003303E+03  0.12500000000E+03 0.  0.
         25    1    1    2    0    0  0.37499187805E+03 -0.51349902045E+02 -0.55890664451E+02  0.40249781045E+03  0.12500000000E+03 0.  0.
         25    1    1    2    0    0 -0.20184074687E+03 -0.80562451984E+01 -0.13160515276E+03  0.27156860352E+03  0.12500000000E+03 0.  0.
</event>
<event>
 5    0  0.5749909E-005  0.4230972E+03  0.7546771E-02  0.1036063E+00
         21   -1    0    0  502  501  0.00000000000E+00  0.00000000000E+00  0.20057321080E+03  0.20057321080E+03  0.00000000000E+00 0. -1.
         21   -1    0    0  501  502 -0.00000000000E+00 -0.00000000000E+00 -0.89249843305E+03  0.89249843305E+03  0.00000000000E+00 0. -1.
         25    1    1    2    0    0  0.15917967291E+01 -0.23646076704E+02  0.12674691327E+03  0.17958688923E+03  0.12500000000E+03 0.  0.
         25    1    1    2    0    0 -0.47160095511E+02  0.23282402468E+02 -0.69113724543E+02  0.15220989388E+03  0.12500000000E+03 0.  0.
         25    1    1    2    0    0  0.45568298782E+02  0.36367423645E+00 -0.74955841099E+03  0.76127486074E+03  0.12500000000E+03 0.  0.
</event>
<event>
 5    0  0.6735495E-005  0.5810928E+03  0.7546771E-02  0.9945428E-01
         21   -1    0    0  502  501  0.00000000000E+00  0.00000000000E+00  0.75388904249E+03  0.75388904249E+03  0.00000000000E+00 0. -1.
         21   -1    0    0  501  502 -0.00000000000E+00 -0.00000000000E+00 -0.44790262661E+03  0.44790262661E+03  0.00000000000E+00 0. -1.
         25    1    1    2    0    0  0.51944336468E+02  0.27900902238E+03 -0.13820351214E+03  0.33951356295E+03  0.12500000000E+03 0.  0.
         25    1    1    2    0    0 -0.23341314736E+02 -0.23935864144E+03 -0.10967019469E+03  0.29238660675E+03  0.12500000000E+03 0.  0.
         25    1    1    2    0    0 -0.28603021732E+02 -0.39650380942E+02  0.55386012271E+03  0.56989149940E+03  0.12500000000E+03 0.  0.
</event>
<event>
 5    0  0.6285306E-005  0.2723506E+03  0.7546771E-02  0.1099942E+00
         21   -1    0    0  502  501  0.00000000000E+00  0.00000000000E+00  0.15434166624E+03  0.15434166624E+03  0.00000000000E+00 0. -1.
         21   -1    0    0  501  502 -0.00000000000E+00 -0.00000000000E+00 -0.48058878368E+03  0.48058878368E+03  0.00000000000E+00 0. -1.
         25    1    1    2    0    0 -0.18757281709E+02  0.29162831482E+02 -0.13181833832E+03  0.18494156016E+03  0.12500000000E+03 0.  0.
         25    1    1    2    0    0 -0.26035385615E+02  0.30491447967E+02 -0.25928834854E+03  0.29062521809E+03  0.12500000000E+03 0.  0.
         25    1    1    2    0    0  0.44792667324E+02 -0.59654279449E+02  0.64859569423E+02  0.15936367167E+03  0.12500000000E+03 0.  0.
</event>
<event>
 5    0  0.5749909E-005  0.4911498E+03  0.7546771E-02  0.1016115E+00
         21   -1    0    0  502  501  0.00000000000E+00  0.00000000000E+00  0.62305503025E+02  0.62305503025E+02  0.00000000000E+00 0. -1.
         21   -1    0    0  501  502 -0.00000000000E+00 -0.00000000000E+00 -0.38716981690E+04  0.38716981690E+04  0.00000000000E+00 0. -1.
         25    1    1    2    0    0  0.83738542142E+02 -0.10026968755E+02 -0.97809578150E+03  0.98965096945E+03  0.12500000000E+03 0.  0.
         25    1    1    2    0    0 -0.12697158219E+01  0.18454156910E+03 -0.18948791309E+03  0.29255404989E+03  0.12500000000E+03 0.  0.
         25    1    1    2    0    0 -0.82468826320E+02 -0.17451460034E+03 -0.26418089713E+04  0.26517986526E+04  0.12500000000E+03 0.  0.
</event>
<event>
 5    0  0.5749909E-005  0.2812705E+03  0.7546771E-02  0.1094997E+00
         21   -1    0    0  502  501  0.00000000000E+00  0.00000000000E+00  0.54535361729E+02  0.54535361729E+02  0.00000000000E+00 0. -1.
         21   -1    0    0  501  502 -0.00000000000E+00 -0.00000000000E+00 -0.14506751717E+04  0.14506751717E+04  0.00000000000E+00 0. -1.
         25    1    1    2    0    0 -0.15579526747E+03 -0.46391104274E+02 -0.40061246120E+03  0.45004404672E+03  0.12500000000E+03 0.  0.
         25    1    1    2    0    0  0.16102578363E+03  0.83944804565E+01 -0.74678089510E+03  0.77414887172E+03  0.12500000000E+03 0.  0.
         25    1    1    2    0    0 -0.52305161661E+01  0.37996623817E+02 -0.24874645367E+03  0.28101761499E+03  0.12500000000E+03 0.  0.
</event>
<event>
 5    0  0.5749909E-005  0.3329061E+03  0.7546771E-02  0.1069858E+00
         21   -1    0    0  502  501  0.00000000000E+00  0.00000000000E+00  0.13859938342E+03  0.13859938342E+03  0.00000000000E+00 0. -1.
         21   -1    0    0  501  502 -0.00000000000E+00 -0.00000000000E+00 -0.79961753842E+03  0.79961753842E+03  0.00000000000E+00 0. -1.
         25    1    1    2    0    0 -0.89434612244E+02  0.77481689848E+02 -0.56536446212E+03  0.59098556425E+03  0.12500000000E+03 0.  0.
         25    1    1    2    0    0  0.63712606910E+02 -0.11172344466E+03  0.76438767430E+01  0.17951282187E+03  0.12500000000E+03 0.  0.
         25    1    1    2    0    0  0.25722005334E+02  0.34241754809E+02 -0.10329756963E+03  0.16771853571E+03  0.12500000000E+03 0.  0.
</event>
<event>
 5    0  0.5749909E-005  0.3731657E+03  0.7546771E-02  0.1053489E+00
         21   -1    0    0  502  501  0.00000000000E+00  0.00000000000E+00  0.16619703801E+03  0.16619703801E+03  0.00000000000E+00 0.  1.
         21   -1    0    0  501  502 -0.00000000000E+00 -0.00000000000E+00 -0.83787690832E+03  0.83787690832E+03  0.00000000000E+00 0.  1.
         25    1    1    2    0    0  0.21244539387E+03  0.82936930433E+02 -0.89410485249E+02  0.27501057194E+03  0.12500000000E+03 0.  0.
         25    1    1    2    0    0 -0.56527709140E+02 -0.68571494136E+02 -0.51577295331E+02  0.16181053458E+03  0.12500000000E+03 0.  0.
         25    1    1    2    0    0 -0.15591768473E+03 -0.14365436297E+02 -0.53069208972E+03  0.56725283981E+03  0.12500000000E+03 0.  0.
</event>
<event>
 5    0  0.5749909E-005  0.3474436E+03  0.7546771E-02  0.1063669E+00
         21   -1    0    0  502  501  0.00000000000E+00  0.00000000000E+00  0.54294039487E+03  0.54294039487E+03  0.00000000000E+00 0. -1.
         21   -1    0    0  501  502 -0.00000000000E+00 -0.00000000000E+00 -0.22233943820E+03  0.22233943820E+03  0.00000000000E+00 0. -1.
         25    1    1    2    0    0  0.19656427564E+03 -0.19869795357E+02  0.11905776173E+03  0.26235867406E+03  0.12500000000E+03 0.  0.
         25    1    1    2    0    0  0.34215316326E+02 -0.10799921090E+03  0.68252589804E+02  0.18198333287E+03  0.12500000000E+03 0.  0.
         25    1    1    2    0    0 -0.23077959197E+03  0.12786900626E+03  0.13329060513E+03  0.32093782614E+03  0.12500000000E+03 0.  0.
</event>
<event>
 5    0  0.5749909E-005  0.2150347E+03  0.7546771E-02  0.1137640E+00
         21   -1    0    0  502  501  0.00000000000E+00  0.00000000000E+00  0.87445479627E+02  0.87445479627E+02  0.00000000000E+00 0. -1.
         21   -1    0    0  501  502 -0.00000000000E+00 -0.00000000000E+00 -0.52878578463E+03  0.52878578463E+03  0.00000000000E+00 0. -1.
         25    1    1    2    0    0  0.16913538811E+02  0.91683668937E+02 -0.15505489792E+03  0.21990676277E+03  0.12500000000E+03 0.  0.
         25    1    1    2    0    0  0.21013437626E+02 -0.55180361386E+02 -0.15194413971E+03  0.20542263370E+03  0.12500000000E+03 0.  0.
         25    1    1    2    0    0 -0.37926976437E+02 -0.36503307551E+02 -0.13434126737E+03  0.19090186778E+03  0.12500000000E+03 0.  0.
</event>
<event>
 5    0  0.5884014E-005  0.2867799E+03  0.7546771E-02  0.1092042E+00
         21   -1    0    0  502  501  0.00000000000E+00  0.00000000000E+00  0.19642271085E+03  0.19642271085E+03  0.00000000000E+00 0. -1.
         21   -1    0    0  501  502 -0.00000000000E+00 -0.00000000000E+00 -0.41870270847E+03  0.41870270847E+03  0.00000000000E+00 0. -1.
         25    1    1    2    0    0 -0.12114688185E+03  0.18162417905E+01 -0.15106192461E+03  0.23048768033E+03  0.12500000000E+03 0.  0.
         25    1    1    2    0    0 -0.55486400646E+02 -0.66279516859E+02 -0.35149813828E+02  0.15598789832E+03  0.12500000000E+03 0.  0.
         25    1    1    2    0    0  0.17663328249E+03  0.64463275068E+02 -0.36068259176E+02  0.22864984067E+03  0.12500000000E+03 0.  0.
</event>
<event>
 5    0  0.5749909E-005  0.2678732E+03  0.7546771E-02  0.1102503E+00
         21   -1    0    0  502  501  0.00000000000E+00  0.00000000000E+00  0.96625182488E+03  0.96625182488E+03  0.00000000000E+00 0. -1.
         21   -1    0    0  501  502 -0.00000000000E+00 -0.00000000000E+00 -0.74262293130E+02  0.74262293130E+02  0.00000000000E+00 0. -1.
         25    1    1    2    0    0 -0.29914331704E+02 -0.49933764721E+02  0.35536558181E+03  0.38117967526E+03  0.12500000000E+03 0.  0.
         25    1    1    2    0    0 -0.73651904875E+02  0.13073293734E+03  0.21766220419E+03  0.29243382008E+03  0.12500000000E+03 0.  0.
         25    1    1    2    0    0  0.10356623658E+03 -0.80799172618E+02  0.31896174575E+03  0.36690062266E+03  0.12500000000E+03 0.  0.
</event>
<event>
 5    0  0.5749909E-005  0.2923835E+03  0.7546771E-02  0.1089111E+00
         21   -1    0    0  502  501  0.00000000000E+00  0.00000000000E+00  0.17917243468E+03  0.17917243468E+03  0.00000000000E+00 0.  1.
         21   -1    0    0  501  502 -0.00000000000E+00 -0.00000000000E+00 -0.47712768025E+03  0.47712768025E+03  0.00000000000E+00 0.  1.
         25    1    1    2    0    0  0.71715088604E+02  0.69606706684E+02 -0.24126913563E+03  0.28952364905E+03  0.12500000000E+03 0.  0.
         25    1    1    2    0    0 -0.68378435304E+01  0.84985676317E+02 -0.42537775852E+02  0.15717437341E+03  0.12500000000E+03 0.  0.
         25    1    1    2    0    0 -0.64877245074E+02 -0.15459238300E+03 -0.14148334078E+02  0.20960209247E+03  0.12500000000E+03 0.  0.
</event>
<event>
 5    0  0.5749909E-005  0.6444150E+03  0.7546771E-02  0.9817316E-01
         21   -1    0    0  502  501  0.00000000000E+00  0.00000000000E+00  0.86065429243E+03  0.86065429243E+03  0.00000000000E+00 0.  1.
         21   -1    0    0  501  502 -0.00000000000E+00 -0.00000000000E+00 -0.48250581970E+03  0.48250581970E+03  0.00000000000E+00 0.  1.
         25    1    1    2    0    0 -0.25269306036E+03 -0.18376789233E+03  0.71195818661E+03  0.78748579701E+03  0.12500000000E+03 0.  0.
         25    1    1    2    0    0  0.48333035178E+02  0.11452642979E+03 -0.62161652016E+02  0.18692633948E+03  0.12500000000E+03 0.  0.
         25    1    1    2    0    0  0.20436002518E+03  0.69241462543E+02 -0.27164806186E+03  0.36874797564E+03  0.12500000000E+03 0.  0.
</event>
<event>
 5    0  0.5749909E-005  0.2615518E+03  0.7546771E-02  0.1106214E+00
         21   -1    0    0  502  501  0.00000000000E+00  0.00000000000E+00  0.11107812596E+03  0.11107812596E+03  0.00000000000E+00 0. -1.
         21   -1    0    0  501  502 -0.00000000000E+00 -0.00000000000E+00 -0.61586702549E+03  0.61586702549E+03  0.00000000000E+00 0. -1.
         25    1    1    2    0    0  0.46209142710E+02  0.56566632028E+02 -0.74969734146E+02  0.16303536355E+03  0.12500000000E+03 0.  0.
         25    1    1    2    0    0 -0.95693639758E+02 -0.89375442940E+02 -0.37243605803E+03  0.41410006014E+03  0.12500000000E+03 0.  0.
         25    1    1    2    0    0  0.49484497048E+02  0.32808810911E+02 -0.57383107365E+02  0.14980972776E+03  0.12500000000E+03 0.  0.
</event>
<event>
 5    0  0.5749909E-005  0.6928305E+03  0.7546771E-02  0.9729572E-01
         21   -1    0    0  502  501  0.00000000000E+00  0.00000000000E+00  0.62212949397E+03  0.62212949397E+03  0.00000000000E+00 0.  1.
         21   -1    0    0  501  502 -0.00000000000E+00 -0.00000000000E+00 -0.77156616393E+03  0.77156616393E+03  0.00000000000E+00 0.  1.
         25    1    1    2    0    0  0.40748714436E+03  0.12043172359E+02  0.43476223765E+03  0.60896142251E+03  0.12500000000E+03 0.  0.
         25    1    1    2    0    0 -0.78686573285E+02  0.67883930168E+02 -0.16349243490E+03  0.23055277283E+03  0.12500000000E+03 0.  0.
         25    1    1    2    0    0 -0.32880057107E+03 -0.79927102528E+02 -0.42070647272E+03  0.55418146256E+03  0.12500000000E+03 0.  0.
</event>
<event>
 5    0  0.5749909E-005  0.2460459E+03  0.7546771E-02  0.1115830E+00
         21   -1    0    0  502  501  0.00000000000E+00  0.00000000000E+00  0.99207346531E+03  0.99207346531E+03  0.00000000000E+00 0. -1.
         21   -1    0    0  501  502 -0.00000000000E+00 -0.00000000000E+00 -0.61022282575E+02  0.61022282575E+02  0.00000000000E+00 0. -1.
         25    1    1    2    0    0  0.59880838098E+02 -0.24079248792E+02  0.49323909665E+03  0.51290869699E+03  0.12500000000E+03 0.  0.
         25    1    1    2    0    0  0.13928211753E+02  0.10113623094E+02  0.69500412057E+02  0.14405411390E+03  0.12500000000E+03 0.  0.
         25    1    1    2    0    0 -0.73809049852E+02  0.13965625698E+02  0.36831167403E+03  0.39613293699E+03  0.12500000000E+03 0.  0.
</event>
<event>
 5    0  0.5749909E-005  0.3611993E+03  0.7546771E-02  0.1058110E+00
         21   -1    0    0  502  501  0.00000000000E+00  0.00000000000E+00  0.35470862423E+03  0.35470862423E+03  0.00000000000E+00 0. -1.
         21   -1    0    0  501  502 -0.00000000000E+00 -0.00000000000E+00 -0.36780882780E+03  0.36780882780E+03  0.00000000000E+00 0. -1.
         25    1    1    2    0    0 -0.17044484370E+03 -0.44450890899E+02 -0.13607141823E+03  0.25527976281E+03  0.12500000000E+03 0.  0.
         25    1    1    2    0    0 -0.63499259023E+02 -0.10232051978E+02 -0.46135566659E+02  0.14795384853E+03  0.12500000000E+03 0.  0.
         25    1    1    2    0    0  0.23394410272E+03  0.54682942878E+02  0.16910678131E+03  0.31928384069E+03  0.12500000000E+03 0.  0.
</event>
<event>
 5    0  0.5749909E-005  0.3530842E+03  0.7546771E-02  0.1061356E+00
         21   -1    0    0  502  501  0.00000000000E+00  0.00000000000E+00  0.11648862020E+03  0.11648862020E+03  0.00000000000E+00 0. -1.
         21   -1    0    0  501  502 -0.00000000000E+00 -0.00000000000E+00 -0.10702198726E+04  0.10702198726E+04  0.00000000000E+00 0. -1.
         25    1    1    2    0    0  0.50029073457E+02 -0.76776883762E+02 -0.30437848794E+03  0.34156823914E+03  0.12500000000E+03 0.  0.
         25    1    1    2    0    0 -0.24735164819E+03  0.64170701420E+02 -0.47391219086E+03  0.55273726257E+03  0.12500000000E+03 0.  0.
         25    1    1    2    0    0  0.19732257474E+03  0.12606182342E+02 -0.17544057361E+03  0.29240299110E+03  0.12500000000E+03 0.  0.
</event>
<event>
 5    0  0.8349684E-005  0.2906936E+03  0.7546771E-02  0.1089988E+00
         21   -1    0    0  502  501  0.00000000000E+00  0.00000000000E+00  0.10055209233E+03  0.10055209233E+03  0.00000000000E+00 0.  1.
         21   -1    0    0  501  502 -0.00000000000E+00 -0.00000000000E+00 -0.84038781276E+03  0.84038781276E+03  0.00000000000E+00 0.  1.
         25    1    1    2    0    0 -0.57008286549E+02 -0.60782566106E+02 -0.10046477464E+03  0.18072807204E+03  0.12500000000E+03 0.  0.
         25    1    1    2    0    0 -0.90468666754E+02 -0.38809079942E+02 -0.42935528407E+03  0.45788828803E+03  0.12500000000E+03 0.  0.
         25    1    1    2    0    0  0.14747695330E+03  0.99591646049E+02 -0.21001566171E+03  0.30232354503E+03  0.12500000000E+03 0.  0.
</event>
<event>
 5    0  0.5749909E-005  0.2412856E+03  0.7546771E-02  0.1118939E+00
         21   -1    0    0  502  501  0.00000000000E+00  0.00000000000E+00  0.31257681832E+03  0.31257681832E+03  0.00000000000E+00 0. -1.
         21   -1    0    0  501  502 -0.00000000000E+00 -0.00000000000E+00 -0.18625417724E+03  0.18625417724E+03  0.00000000000E+00 0. -1.
         25    1    1    2    0    0 -0.34286042938E+02  0.93098461500E+02  0.15769234626E+03  0.22435403349E+03  0.12500000000E+03 0.  0.
         25    1    1    2    0    0  0.20693836231E+02 -0.26982873540E+02 -0.28014832250E+01  0.12957298573E+03  0.12500000000E+03 0.  0.
         25    1    1    2    0    0  0.13592206707E+02 -0.66115587960E+02 -0.28568221945E+02  0.14490397634E+03  0.12500000000E+03 0.  0.
</event>
<event>
 5    0  0.5749909E-005  0.4363710E+03  0.7546771E-02  0.1031866E+00
         21   -1    0    0  502  501  0.00000000000E+00  0.00000000000E+00  0.28950205740E+03  0.28950205740E+03  0.00000000000E+00 0. -1.
         21   -1    0    0  501  502 -0.00000000000E+00 -0.00000000000E+00 -0.65774888809E+03  0.65774888809E+03  0.00000000000E+00 0. -1.
         25    1    1    2    0    0  0.27023497873E+03 -0.72657706308E+02  0.67396934640E+02  0.31380476863E+03  0.12500000000E+03 0.  0.
         25    1    1    2    0    0 -0.55111034927E+02 -0.20298787728E+02 -0.19092988173E+02  0.13942312990E+03  0.12500000000E+03 0.  0.
         25    1    1    2    0    0 -0.21512394381E+03  0.92956494036E+02 -0.41655077716E+03  0.49402304696E+03  0.12500000000E+03 0.  0.
</event>
<event>
 5    0  0.5749909E-005  0.2617710E+03  0.7546771E-02  0.1106084E+00
         21   -1    0    0  502  501  0.00000000000E+00  0.00000000000E+00  0.94801459243E+02  0.94801459243E+02  0.00000000000E+00 0.  1.
         21   -1    0    0  501  502 -0.00000000000E+00 -0.00000000000E+00 -0.72281621871E+03  0.72281621871E+03  0.00000000000E+00 0.  1.
         25    1    1    2    0    0 -0.92246436614E+02 -0.14140069705E+03 -0.20460801750E+03  0.29324563598E+03  0.12500000000E+03 0.  0.
         25    1    1    2    0    0  0.33608604137E+02  0.85685191855E+02 -0.16799970505E+03  0.22873651058E+03  0.12500000000E+03 0.  0.
         25    1    1    2    0    0  0.58637832476E+02  0.55715505197E+02 -0.25540703691E+03  0.29563553139E+03  0.12500000000E+03 0.  0.
</event>
<event>
 5    0  0.5749909E-005  0.3439022E+03  0.7546771E-02  0.1065146E+00
         21   -1    0    0  502  501  0.00000000000E+00  0.00000000000E+00  0.64467256774E+03  0.64467256774E+03  0.00000000000E+00 0.  1.
         21   -1    0    0  501  502 -0.00000000000E+00 -0.00000000000E+00 -0.18345551093E+03  0.18345551093E+03  0.00000000000E+00 0.  1.
         25    1    1    2    0    0  0.77190213737E+02  0.53077251866E+02  0.17226232791E+03  0.23253996082E+03  0.12500000000E+03 0.  0.
         25    1    1    2    0    0  0.16566631498E+03 -0.61019618938E+02  0.23058621727E+03  0.31617040566E+03  0.12500000000E+03 0.  0.
         25    1    1    2    0    0 -0.24285652872E+03  0.79423670728E+01  0.58368511624E+02  0.27941771219E+03  0.12500000000E+03 0.  0.
</event>
<event>
 5    0  0.5749909E-005  0.2847179E+03  0.7546771E-02  0.1093140E+00
         21   -1    0    0  502  501  0.00000000000E+00  0.00000000000E+00  0.22754163632E+04  0.22754163632E+04  0.00000000000E+00 0.  1.
         21   -1    0    0  501  502 -0.00000000000E+00 -0.00000000000E+00 -0.35626131617E+02  0.35626131617E+02  0.00000000000E+00 0.  1.
         25    1    1    2    0    0 -0.17512339822E+02  0.11796703971E+03  0.11726065383E+04  0.11852653704E+04  0.12500000000E+03 0.  0.
         25    1    1    2    0    0 -0.49328805048E+02 -0.97924315274E+02  0.27973911150E+03  0.32542506515E+03  0.12500000000E+03 0.  0.
         25    1    1    2    0    0  0.66841144870E+02 -0.20042724437E+02  0.78744458175E+03  0.80035205927E+03  0.12500000000E+03 0.  0.
</event>
<event>
 5    0  0.5749909E-005  0.3443305E+03  0.7546771E-02  0.1064966E+00
         21   -1    0    0  502  501  0.00000000000E+00  0.00000000000E+00  0.35184558687E+04  0.35184558687E+04  0.00000000000E+00 0. -1.
         21   -1    0    0  501  502 -0.00000000000E+00 -0.00000000000E+00 -0.33697590610E+02  0.33697590610E+02  0.00000000000E+00 0. -1.
         25    1    1    2    0    0  0.40392249469E+00  0.51741635844E+02  0.38256129837E+03  0.40577765715E+03  0.12500000000E+03 0.  0.
         25    1    1    2    0    0 -0.11650235959E+03 -0.12149929162E+01  0.27136944741E+04  0.27190691376E+04  0.12500000000E+03 0.  0.
         25    1    1    2    0    0  0.11609843710E+03 -0.50526642928E+02  0.38850250555E+03  0.42730666454E+03  0.12500000000E+03 0.  0.
</event>
<event>
 5    0  0.5749909E-005  0.2349638E+03  0.7546771E-02  0.1123194E+00
         21   -1    0    0  502  501  0.00000000000E+00  0.00000000000E+00  0.21628665131E+02  0.21628665131E+02  0.00000000000E+00 0.  1.
         21   -1    0    0  501  502 -0.00000000000E+00 -0.00000000000E+00 -0.25525381784E+04  0.25525381784E+04  0.00000000000E+00 0.  1.
         25    1    1    2    0    0 -0.58586100615E+02  0.57884221869E+02 -0.10156060161E+04  0.10265785378E+04  0.12500000000E+03 0.  0.
         25    1    1    2    0    0  0.97146821433E+02 -0.66986680356E+02 -0.64732818822E+03  0.66976376695E+03  0.12500000000E+03 0.  0.
         25    1    1    2    0    0 -0.38560720818E+02  0.91024584868E+01 -0.86797530898E+03  0.87782453881E+03  0.12500000000E+03 0.  0.
</event>
<event>
 5    0  0.7570134E-005  0.3381875E+03  0.7546771E-02  0.1067571E+00
         21   -1    0    0  502  501  0.00000000000E+00  0.00000000000E+00  0.32393333597E+03  0.32393333597E+03  0.00000000000E+00 0. -1.
         21   -1    0    0  501  502 -0.00000000000E+00 -0.00000000000E+00 -0.35306883194E+03  0.35306883194E+03  0.00000000000E+00 0. -1.
         25    1    1    2    0    0 -0.10369773773E+03  0.32037011312E+00 -0.17959720566E+03  0.24214351060E+03  0.12500000000E+03 0.  0.
         25    1    1    2    0    0 -0.75139543011E+02 -0.57959382547E+02  0.13775875186E+03  0.20882460263E+03  0.12500000000E+03 0.  0.
         25    1    1    2    0    0  0.17883728074E+03  0.57639012434E+02  0.12702957823E+02  0.22603405468E+03  0.12500000000E+03 0.  0.
</event>
<event>
 5    0  0.5749909E-005  0.5020848E+03  0.7546771E-02  0.1013236E+00
         21   -1    0    0  502  501  0.00000000000E+00  0.00000000000E+00  0.24253129154E+03  0.24253129154E+03  0.00000000000E+00 0.  1.
         21   -1    0    0  501  502 -0.00000000000E+00 -0.00000000000E+00 -0.10394086669E+04  0.10394086669E+04  0.00000000000E+00 0.  1.
         25    1    1    2    0    0  0.16861557336E+03 -0.12006591216E+03  0.61207579978E+01  0.24188736743E+03  0.12500000000E+03 0.  0.
         25    1    1    2    0    0 -0.86349799968E+02 -0.16026808903E+03 -0.55333521854E+02  0.22765971747E+03  0.12500000000E+03 0.  0.
         25    1    1    2    0    0 -0.82265773392E+02  0.28033400119E+03 -0.74766461149E+03  0.81239287354E+03  0.12500000000E+03 0.  0.
</event>
<event>
 5    0  0.5749909E-005  0.3454333E+03  0.7546771E-02  0.1064505E+00
         21   -1    0    0  502  501  0.00000000000E+00  0.00000000000E+00  0.25206705598E+03  0.25206705598E+03  0.00000000000E+00 0.  1.
         21   -1    0    0  501  502 -0.00000000000E+00 -0.00000000000E+00 -0.47338270340E+03  0.47338270340E+03  0.00000000000E+00 0.  1.
         25    1    1    2    0    0  0.55251491756E+01 -0.76838823249E+02 -0.38461019613E+03  0.41168523777E+03  0.12500000000E+03 0.  0.
         25    1    1    2    0    0  0.94281106659E+01  0.53442155559E+02  0.10975728123E+03  0.17497603848E+03  0.12500000000E+03 0.  0.
         25    1    1    2    0    0 -0.14953259842E+02  0.23396667690E+02  0.53537267478E+02  0.13878848312E+03  0.12500000000E+03 0.  0.
</event>
<event>
 5    0  0.5749909E-005  0.4170604E+03  0.7546771E-02  0.1038027E+00
         21   -1    0    0  502  501  0.00000000000E+00  0.00000000000E+00  0.57636920470E+02  0.57636920470E+02  0.00000000000E+00 0.  1.
         21   -1    0    0  501  502 -0.00000000000E+00 -0.00000000000E+00 -0.30178459223E+04  0.30178459223E+04  0.00000000000E+00 0.  1.
         25    1    1    2    0    0  0.11552627574E+03  0.51740570030E+01 -0.25033717450E+04  0.25091568673E+04  0.12500000000E+03 0.  0.
         25    1    1    2    0    0 -0.11466342469E+03 -0.52780702005E+02 -0.15339399379E+03  0.23470880000E+03  0.12500000000E+03 0.  0.
         25    1    1    2    0    0 -0.86285104547E+00  0.47606645002E+02 -0.30344326313E+03  0.33161717552E+03  0.12500000000E+03 0.  0.
</event>
<event>
 5    0  0.5749909E-005  0.3056071E+03  0.7546771E-02  0.1082471E+00
         21   -1    0    0  502  501  0.00000000000E+00  0.00000000000E+00  0.19633334460E+04  0.19633334460E+04  0.00000000000E+00 0.  1.
         21   -1    0    0  501  502 -0.00000000000E+00 -0.00000000000E+00 -0.47569961334E+02  0.47569961334E+02  0.00000000000E+00 0.  1.
         25    1    1    2    0    0 -0.92107917232E+02 -0.34875726659E+02  0.15893778397E+03  0.22491421453E+03  0.12500000000E+03 0.  0.
         25    1    1    2    0    0  0.97371095069E+01  0.97568654498E+02  0.90559092914E+03  0.91942067878E+03  0.12500000000E+03 0.  0.
         25    1    1    2    0    0  0.82370807725E+02 -0.62692927839E+02  0.85123477155E+03  0.86656851401E+03  0.12500000000E+03 0.  0.
</event>
<event>
 5    0  0.5749909E-005  0.3230293E+03  0.7546771E-02  0.1074264E+00
         21   -1    0    0  502  501  0.00000000000E+00  0.00000000000E+00  0.34729116226E+03  0.34729116226E+03  0.00000000000E+00 0.  1.
         21   -1    0    0  501  502 -0.00000000000E+00 -0.00000000000E+00 -0.30046235942E+03  0.30046235942E+03  0.00000000000E+00 0.  1.
         25    1    1    2    0    0 -0.12188975389E+03 -0.62153439456E+02  0.27917564944E+02  0.18741545446E+03  0.12500000000E+03 0.  0.
         25    1    1    2    0    0  0.18591583189E+02  0.20288198695E+03 -0.27716849977E+02  0.24062412882E+03  0.12500000000E+03 0.  0.
         25    1    1    2    0    0  0.10329817070E+03 -0.14072854750E+03  0.46628087877E+02  0.21971393840E+03  0.12500000000E+03 0.  0.
</event>
<event>
 5    0  0.5749909E-005  0.3188452E+03  0.7546771E-02  0.1076182E+00
         21   -1    0    0  502  501  0.00000000000E+00  0.00000000000E+00  0.45263991541E+03  0.45263991541E+03  0.00000000000E+00 0. -1.
         21   -1    0    0  501  502 -0.00000000000E+00 -0.00000000000E+00 -0.22459856631E+03  0.22459856631E+03  0.00000000000E+00 0. -1.
         25    1    1    2    0    0  0.48853765628E+02  0.93534465107E+02  0.23684125402E+02  0.16529163432E+03  0.12500000000E+03 0.  0.
         25    1    1    2    0    0  0.32767637078E+02  0.86805913058E+02 -0.52611374304E+02  0.16432267430E+03  0.12500000000E+03 0.  0.
         25    1    1    2    0    0 -0.81621402706E+02 -0.18034037816E+03  0.25696859800E+03  0.34762417312E+03  0.12500000000E+03 0.  0.
</event>
<event>
 5    0  0.5749909E-005  0.4009556E+03  0.7546771E-02  0.1043449E+00
         21   -1    0    0  502  501  0.00000000000E+00  0.00000000000E+00  0.14315664268E+03  0.14315664268E+03  0.00000000000E+00 0.  1.
         21   -1    0    0  501  502 -0.00000000000E+00 -0.00000000000E+00 -0.11230035807E+04  0.11230035807E+04  0.00000000000E+00 0.  1.
         25    1    1    2    0    0  0.51130202114E+01 -0.16135938575E+03 -0.15544513857E+03  0.25661485820E+03  0.12500000000E+03 0.  0.
         25    1    1    2    0    0 -0.25091506522E+03  0.79563996386E+02 -0.35829642206E+03  0.46183343917E+03  0.12500000000E+03 0.  0.
         25    1    1    2    0    0  0.24580204501E+03  0.81795389363E+02 -0.46610537743E+03  0.54771192604E+03  0.12500000000E+03 0.  0.
</event>
<event>
 5    0  0.5749909E-005  0.3567006E+03  0.7546771E-02  0.1059898E+00
         21   -1    0    0  502  501  0.00000000000E+00  0.00000000000E+00  0.28592193700E+03  0.28592193700E+03  0.00000000000E+00 0.  1.
         21   -1    0    0  501  502 -0.00000000000E+00 -0.00000000000E+00 -0.44500025526E+03  0.44500025526E+03  0.00000000000E+00 0.  1.
         25    1    1    2    0    0 -0.10772655872E+02 -0.12520296051E+03 -0.27730515482E+03  0.32911241290E+03  0.12500000000E+03 0.  0.
         25    1    1    2    0    0  0.32236704611E+02  0.30917526822E+02 -0.74780688350E+02  0.15235566921E+03  0.12500000000E+03 0.  0.
         25    1    1    2    0    0 -0.21464048740E+02  0.94285433691E+02  0.19300752492E+03  0.24945411015E+03  0.12500000000E+03 0.  0.
</event>
<event>
 5    0  0.8061010E-005  0.3486347E+03  0.7546771E-02  0.1063177E+00
         21   -1    0    0  502  501  0.00000000000E+00  0.00000000000E+00  0.53022016309E+03  0.53022016309E+03  0.00000000000E+00 0. -1.
         21   -1    0    0  501  502 -0.00000000000E+00 -0.00000000000E+00 -0.22923716443E+03  0.22923716443E+03  0.00000000000E+00 0. -1.
         25    1    1    2    0    0 -0.96245502390E+02  0.13441489324E+03 -0.57959292618E+02  0.21520882848E+03  0.12500000000E+03 0.  0.
         25    1    1    2    0    0 -0.58128299088E+02 -0.43803196750E+01  0.24443625440E+03  0.28066380034E+03  0.12500000000E+03 0.  0.
         25    1    1    2    0    0  0.15437380148E+03 -0.13003457357E+03  0.11450603689E+03  0.26358469870E+03  0.12500000000E+03 0.  0.
</event>
<event>
 5    0  0.5749909E-005  0.4275306E+03  0.7546771E-02  0.1034643E+00
         21   -1    0    0  502  501  0.00000000000E+00  0.00000000000E+00  0.17631387099E+03  0.17631387099E+03  0.00000000000E+00 0.  1.
         21   -1    0    0  501  502 -0.00000000000E+00 -0.00000000000E+00 -0.10366877811E+04  0.10366877811E+04  0.00000000000E+00 0. -1.
         25    1    1    2    0    0  0.21590834787E+02  0.32095971423E+03 -0.35357672839E+03  0.49408785167E+03  0.12500000000E+03 0.  0.
         25    1    1    2    0    0  0.65414174156E+02 -0.27892952271E+03 -0.45620791671E+03  0.55302021309E+03  0.12500000000E+03 0.  0.
         25    1    1    2    0    0 -0.87005008943E+02 -0.42030191520E+02 -0.50589264989E+02  0.16589358732E+03  0.12500000000E+03 0.  0.
</event>
<event>
 5    0  0.5749909E-005  0.2396048E+03  0.7546771E-02  0.1120056E+00
         21   -1    0    0  502  501  0.00000000000E+00  0.00000000000E+00  0.17035889781E+04  0.17035889781E+04  0.00000000000E+00 0.  1.
         21   -1    0    0  501  502 -0.00000000000E+00 -0.00000000000E+00 -0.33699723305E+02  0.33699723305E+02  0.00000000000E+00 0.  1.
         25    1    1    2    0    0 -0.27022677278E+02 -0.44133748229E+01  0.25349299979E+03  0.28396021536E+03  0.12500000000E+03 0.  0.
         25    1    1    2    0    0  0.49305577611E+02 -0.87029979255E+02  0.88541768984E+03  0.89977482892E+03  0.12500000000E+03 0.  0.
         25    1    1    2    0    0 -0.22282900333E+02  0.91443354078E+02  0.53097856513E+03  0.55355365709E+03  0.12500000000E+03 0.  0.
</event>
<event>
 5    0  0.5791526E-005  0.2704747E+03  0.7546771E-02  0.1101008E+00
         21   -1    0    0  502  501  0.00000000000E+00  0.00000000000E+00  0.37094499413E+03  0.37094499413E+03  0.00000000000E+00 0. -1.
         21   -1    0    0  501  502 -0.00000000000E+00 -0.00000000000E+00 -0.19721672089E+03  0.19721672089E+03  0.00000000000E+00 0. -1.
         25    1    1    2    0    0 -0.15462008136E+03 -0.10628417848E+03  0.77062494849E+02  0.23825894373E+03  0.12500000000E+03 0.  0.
         25    1    1    2    0    0  0.65701419090E+02  0.37097167595E+02  0.58882708730E+02  0.15743268308E+03  0.12500000000E+03 0.  0.
         25    1    1    2    0    0  0.88918662270E+02  0.69187010888E+02  0.37783069654E+02  0.17247008821E+03  0.12500000000E+03 0.  0.
</event>
<event>
 5    0  0.5749909E-005  0.4063261E+03  0.7546771E-02  0.1041611E+00
         21   -1    0    0  502  501  0.00000000000E+00  0.00000000000E+00  0.16592990021E+04  0.16592990021E+04  0.00000000000E+00 0.  1.
         21   -1    0    0  501  502 -0.00000000000E+00 -0.00000000000E+00 -0.99500383771E+02  0.99500383771E+02  0.00000000000E+00 0.  1.
         25    1    1    2    0    0  0.19667988883E+03 -0.26211785987E+02  0.41114504878E+03  0.47332366044E+03  0.12500000000E+03 0.  0.
         25    1    1    2    0    0  0.60193261650E+01 -0.17243441873E+03  0.75417629121E+03  0.78369428942E+03  0.12500000000E+03 0.  0.
         25    1    1    2    0    0 -0.20269921499E+03  0.19864620472E+03  0.39447727838E+03  0.50178143605E+03  0.12500000000E+03 0.  0.
</event>
<event>
 5    0  0.5749909E-005  0.3177965E+03  0.7546771E-02  0.1076668E+00
         21   -1    0    0  502  501  0.00000000000E+00  0.00000000000E+00  0.98584480206E+02  0.98584480206E+02  0.00000000000E+00 0.  1.
         21   -1    0    0  501  502 -0.00000000000E+00 -0.00000000000E+00 -0.10244476097E+04  0.10244476097E+04  0.00000000000E+00 0.  1.
         25    1    1    2    0    0 -0.44408445612E+02  0.42977929894E+02 -0.44950877087E+03  0.47064035908E+03  0.12500000000E+03 0.  0.
         25    1    1    2    0    0 -0.31535407584E+02  0.11418980155E+03 -0.37972483942E+03  0.41695293066E+03  0.12500000000E+03 0.  0.
         25    1    1    2    0    0  0.75943853196E+02 -0.15716773145E+03 -0.96629519204E+02  0.23543880018E+03  0.12500000000E+03 0.  0.
</event>
<event>
 5    0  0.5749909E-005  0.2323285E+03  0.7546771E-02  0.1125012E+00
         21   -1    0    0  502  501  0.00000000000E+00  0.00000000000E+00  0.61691608879E+02  0.61691608879E+02  0.00000000000E+00 0. -1.
         21   -1    0    0  501  502 -0.00000000000E+00 -0.00000000000E+00 -0.87494088379E+03  0.87494088379E+03  0.00000000000E+00 0. -1.
         25    1    1    2    0    0  0.63529182779E+02 -0.20080773031E+01 -0.42230353280E+03  0.44497782333E+03  0.12500000000E+03 0.  0.
         25    1    1    2    0    0 -0.49578264902E+02 -0.52353224179E+02 -0.11862162721E+03  0.18680191347E+03  0.12500000000E+03 0.  0.
         25    1    1    2    0    0 -0.13950917877E+02  0.54361301482E+02 -0.27232411490E+03  0.30485275587E+03  0.12500000000E+03 0.  0.
</event>
<event>
 5    0  0.5749909E-005  0.4684264E+03  0.7546771E-02  0.1022365E+00
         21   -1    0    0  502  501  0.00000000000E+00  0.00000000000E+00  0.60917082228E+03  0.60917082228E+03  0.00000000000E+00 0. -1.
         21   -1    0    0  501  502 -0.00000000000E+00 -0.00000000000E+00 -0.36019998195E+03  0.36019998195E+03  0.00000000000E+00 0.  1.
         25    1    1    2    0    0  0.33764634140E+03  0.15063947333E+03  0.22058614185E+02  0.39090777077E+03  0.12500000000E+03 0.  0.
         25    1    1    2    0    0 -0.35206277002E+03 -0.14388531235E+03  0.13499963107E+03  0.42249387869E+03  0.12500000000E+03 0.  0.
         25    1    1    2    0    0  0.14416428622E+02 -0.67541609845E+01  0.91912595078E+02  0.15596915477E+03  0.12500000000E+03 0.  0.
</event>
<event>
 5    0  0.5749909E-005  0.2611293E+03  0.7546771E-02  0.1106467E+00
         21   -1    0    0  502  501  0.00000000000E+00  0.00000000000E+00  0.68821764896E+03  0.68821764896E+03  0.00000000000E+00 0. -1.
         21   -1    0    0  501  502 -0.00000000000E+00 -0.00000000000E+00 -0.99079853806E+02  0.99079853806E+02  0.00000000000E+00 0. -1.
         25    1    1    2    0    0  0.24731796321E+02 -0.13228668502E+02  0.87758006764E+02  0.15528402098E+03  0.12500000000E+03 0.  0.
         25    1    1    2    0    0 -0.93748981490E+02  0.82679344156E+02  0.10643295443E+03  0.20634369210E+03  0.12500000000E+03 0.  0.
         25    1    1    2    0    0  0.69017185170E+02 -0.69450675655E+02  0.39494683396E+03  0.42566978969E+03  0.12500000000E+03 0.  0.
</event>
<event>
 5    0  0.6441094E-005  0.6112554E+03  0.7546771E-02  0.9882326E-01
         21   -1    0    0  502  501  0.00000000000E+00  0.00000000000E+00  0.91881689012E+03  0.91881689012E+03  0.00000000000E+00 0.  1.
         21   -1    0    0  501  502 -0.00000000000E+00 -0.00000000000E+00 -0.40664588669E+03  0.40664588669E+03  0.00000000000E+00 0.  1.
         25    1    1    2    0    0 -0.16415627126E+02 -0.34174917480E+03 -0.20393136314E+02  0.36483263464E+03  0.12500000000E+03 0.  0.
         25    1    1    2    0    0 -0.25279693909E+03  0.20952863157E+03  0.17664087910E+02  0.35177487099E+03  0.12500000000E+03 0.  0.
         25    1    1    2    0    0  0.26921256621E+03  0.13222054323E+03  0.51490005184E+03  0.60885527118E+03  0.12500000000E+03 0.  0.
</event>
<event>
 5    0  0.5749909E-005  0.5208320E+03  0.7546771E-02  0.1008480E+00
         21   -1    0    0  502  501  0.00000000000E+00  0.00000000000E+00  0.30338816250E+03  0.30338816250E+03  0.00000000000E+00 0. -1.
         21   -1    0    0  501  502 -0.00000000000E+00 -0.00000000000E+00 -0.89412189301E+03  0.89412189301E+03  0.00000000000E+00 0. -1.
         25    1    1    2    0    0 -0.30038958245E+03 -0.17160603845E+02  0.88383332334E+02  0.33758702730E+03  0.12500000000E+03 0.  0.
         25    1    1    2    0    0  0.12391578853E+03  0.14585916673E+03 -0.50375132845E+03  0.55319112437E+03  0.12500000000E+03 0.  0.
         25    1    1    2    0    0  0.17647379392E+03 -0.12869856289E+03 -0.17536573440E+03  0.30673190384E+03  0.12500000000E+03 0.  0.
</event>
<event>
 5    0  0.6219084E-005  0.2889858E+03  0.7546771E-02  0.1090880E+00
         21   -1    0    0  502  501  0.00000000000E+00  0.00000000000E+00  0.19084357497E+03  0.19084357497E+03  0.00000000000E+00 0.  1.
         21   -1    0    0  501  502 -0.00000000000E+00 -0.00000000000E+00 -0.43759799599E+03  0.43759799599E+03  0.00000000000E+00 0.  1.
         25    1    1    2    0    0  0.11941240783E+03  0.14071083177E+03 -0.97336534595E+02  0.24322471562E+03  0.12500000000E+03 0.  0.
         25    1    1    2    0    0 -0.38615556721E+01 -0.12952713227E+03 -0.10694981963E+03  0.20941693705E+03  0.12500000000E+03 0.  0.
         25    1    1    2    0    0 -0.11555085216E+03 -0.11183699499E+02 -0.42468066795E+02  0.17579991828E+03  0.12500000000E+03 0.  0.
</event>
<event>
 5    0  0.5749909E-005  0.3848458E+03  0.7546771E-02  0.1049157E+00
         21   -1    0    0  502  501  0.00000000000E+00  0.00000000000E+00  0.35750121537E+03  0.35750121537E+03  0.00000000000E+00 0.  1.
         21   -1    0    0  501  502 -0.00000000000E+00 -0.00000000000E+00 -0.41428192407E+03  0.41428192407E+03  0.00000000000E+00 0.  1.
         25    1    1    2    0    0 -0.77598418898E+02  0.86591767890E+01  0.22897278784E+03  0.27230503765E+03  0.12500000000E+03 0.  0.
         25    1    1    2    0    0 -0.11174474023E+03  0.47471265814E+02 -0.99849421893E+02  0.20083653826E+03  0.12500000000E+03 0.  0.
         25    1    1    2    0    0  0.18934315913E+03 -0.56130442603E+02 -0.18590407465E+03  0.29864156353E+03  0.12500000000E+03 0.  0.
</event>
<event>
 5    0  0.5799801E-005  0.2970389E+03  0.7546771E-02  0.1086730E+00
         21   -1    0    0  502  501  0.00000000000E+00  0.00000000000E+00  0.21962986495E+03  0.21962986495E+03  0.00000000000E+00 0.  1.
         21   -1    0    0  501  502 -0.00000000000E+00 -0.00000000000E+00 -0.40173084822E+03  0.40173084822E+03  0.00000000000E+00 0.  1.
         25    1    1    2    0    0  0.36397719437E+02  0.73647783836E+02 -0.12772262466E+03  0.19668975289E+03  0.12500000000E+03 0.  0.
         25    1    1    2    0    0 -0.23811485040E+02  0.89500961721E+02 -0.13258526546E+03  0.20440465157E+03  0.12500000000E+03 0.  0.
         25    1    1    2    0    0 -0.12586234397E+02 -0.16314874556E+03  0.78206906842E+02  0.22026630871E+03  0.12500000000E+03 0.  0.
</event>
<event>
 5    0  0.5749909E-005  0.2597620E+03  0.7546771E-02  0.1107286E+00
         21   -1    0    0  502  501  0.00000000000E+00  0.00000000000E+00  0.17672234109E+04  0.17672234109E+04  0.00000000000E+00 0.  1.
         21   -1    0    0  501  502 -0.00000000000E+00 -0.00000000000E+00 -0.38182103797E+02  0.38182103797E+02  0.00000000000E+00 0.  1.
         25    1    1    2    0    0  0.22703149252E+02 -0.31831726993E+02  0.65793674135E+03  0.67084606837E+03  0.12500000000E+03 0.  0.
         25    1    1    2    0    0 -0.13553248841E+03  0.76931622259E+02  0.57507275037E+03  0.60878666060E+03  0.12500000000E+03 0.  0.
         25    1    1    2    0    0  0.11282933916E+03 -0.45099895266E+02  0.49603181537E+03  0.52577278570E+03  0.12500000000E+03 0.  0.
</event>
<event>
 5    0  0.6801009E-005  0.6410232E+03  0.7546771E-02  0.9823771E-01
         21   -1    0    0  502  501  0.00000000000E+00  0.00000000000E+00  0.76327608422E+03  0.76327608422E+03  0.00000000000E+00 0.  1.
         21   -1    0    0  501  502 -0.00000000000E+00 -0.00000000000E+00 -0.53835136235E+03  0.53835136235E+03  0.00000000000E+00 0.  1.
         25    1    1    2    0    0  0.45882983516E+03 -0.26731901144E+02 -0.94250070748E+02  0.48553834865E+03  0.12500000000E+03 0.  0.
         25    1    1    2    0    0 -0.17625398049E+03  0.12399710095E+03  0.40991559886E+03  0.47968379675E+03  0.12500000000E+03 0.  0.
         25    1    1    2    0    0 -0.28257585467E+03 -0.97265199804E+02 -0.90740806244E+02  0.33640530117E+03  0.12500000000E+03 0.  0.
</event>
<event>
 5    0  0.5749909E-005  0.3241197E+03  0.7546771E-02  0.1073769E+00
         21   -1    0    0  502  501  0.00000000000E+00  0.00000000000E+00  0.10341602917E+04  0.10341602917E+04  0.00000000000E+00 0. -1.
         21   -1    0    0  501  502 -0.00000000000E+00 -0.00000000000E+00 -0.10158346411E+03  0.10158346411E+03  0.00000000000E+00 0. -1.
         25    1    1    2    0    0  0.95881137802E+02  0.11324659683E+03  0.47025415127E+03  0.50870615395E+03  0.12500000000E+03 0.  0.
         25    1    1    2    0    0 -0.17449552789E+03 -0.12726959965E+03  0.17856475728E+03  0.30684949534E+03  0.12500000000E+03 0.  0.
         25    1    1    2    0    0  0.78614390090E+02  0.14023002820E+02  0.28375791900E+03  0.32018810648E+03  0.12500000000E+03 0.  0.
</event>
<event>
 5    0  0.5749909E-005  0.3442122E+03  0.7546771E-02  0.1065016E+00
         21   -1    0    0  502  501  0.00000000000E+00  0.00000000000E+00  0.39886826839E+02  0.39886826839E+02  0.00000000000E+00 0. -1.
         21   -1    0    0  501  502 -0.00000000000E+00 -0.00000000000E+00 -0.29704559690E+04  0.29704559690E+04  0.00000000000E+00 0. -1.
         25    1    1    2    0    0  0.12188058827E+03  0.46876993957E+01 -0.64933139946E+03  0.67240844629E+03  0.12500000000E+03 0.  0.
         25    1    1    2    0    0 -0.26812524217E+03 -0.60922013949E+02 -0.15801374417E+04  0.16087454653E+04  0.12500000000E+03 0.  0.
         25    1    1    2    0    0  0.14624465390E+03  0.56234314553E+02 -0.70110030100E+03  0.72918888431E+03  0.12500000000E+03 0.  0.
</event>
<event>
 5    0  0.5749909E-005  0.2647927E+03  0.7546771E-02  0.1104297E+00
         21   -1    0    0  502  501  0.00000000000E+00  0.00000000000E+00  0.25430562641E+03  0.25430562641E+03  0.00000000000E+00 0. -1.
         21   -1    0    0  501  502 -0.00000000000E+00 -0.00000000000E+00 -0.27571227895E+03  0.27571227895E+03  0.00000000000E+00 0. -1.
         25    1    1    2    0    0  0.39775449991E+01 -0.31438079224E+02 -0.34959005494E+00  0.12895462730E+03  0.12500000000E+03 0.  0.
         25    1    1    2    0    0  0.13825594478E+03  0.77525649381E+02  0.16702053388E+02  0.20255589640E+03  0.12500000000E+03 0.  0.
         25    1    1    2    0    0 -0.14223348978E+03 -0.46087570158E+02 -0.37759115868E+02  0.19850738165E+03  0.12500000000E+03 0.  0.
</event>
<event>
 5    0  0.5749909E-005  0.3068813E+03  0.7546771E-02  0.1081850E+00
         21   -1    0    0  502  501  0.00000000000E+00  0.00000000000E+00  0.10868656212E+04  0.10868656212E+04  0.00000000000E+00 0. -1.
         21   -1    0    0  501  502 -0.00000000000E+00 -0.00000000000E+00 -0.86649267884E+02  0.86649267884E+02  0.00000000000E+00 0. -1.
         25    1    1    2    0    0  0.60996942160E+02 -0.18596024271E+02  0.55251127293E+02  0.15081155837E+03  0.12500000000E+03 0.  0.
         25    1    1    2    0    0 -0.16691404583E+03 -0.46495539160E+02  0.55659377077E+03  0.59619104280E+03  0.12500000000E+03 0.  0.
         25    1    1    2    0    0  0.10591710367E+03  0.65091563431E+02  0.38837145522E+03  0.42651228788E+03  0.12500000000E+03 0.  0.
</event>
<event>
 5    0  0.5749909E-005  0.2966301E+03  0.7546771E-02  0.1086937E+00
         21   -1    0    0  502  501  0.00000000000E+00  0.00000000000E+00  0.71385297238E+03  0.71385297238E+03  0.00000000000E+00 0.  1.
         21   -1    0    0  501  502 -0.00000000000E+00 -0.00000000000E+00 -0.12325989106E+03  0.12325989106E+03  0.00000000000E+00 0.  1.
         25    1    1    2    0    0  0.98323084650E+02  0.90247063689E+02  0.51642977523E+02  0.19001041710E+03  0.12500000000E+03 0.  0.
         25    1    1    2    0    0 -0.10937516083E+03 -0.50041678281E+00  0.13286954181E+03  0.21270282406E+03  0.12500000000E+03 0.  0.
         25    1    1    2    0    0  0.11052076175E+02 -0.89746646907E+02  0.40608056198E+03  0.43439962228E+03  0.12500000000E+03 0.  0.
</event>
<event>
 5    0  0.5749909E-005  0.2462948E+03  0.7546771E-02  0.1115669E+00
         21   -1    0    0  502  501  0.00000000000E+00  0.00000000000E+00  0.54228303042E+02  0.54228303042E+02  0.00000000000E+00 0.  1.
         21   -1    0    0  501  502 -0.00000000000E+00 -0.00000000000E+00 -0.11186246568E+04  0.11186246568E+04  0.00000000000E+00 0.  1.
         25    1    1    2    0    0  0.28121867333E+02 -0.14818657224E+02 -0.10576132158E+03  0.16679595069E+03  0.12500000000E+03 0.  0.
         25    1    1    2    0    0  0.29651316292E+01 -0.31049443110E+02 -0.71644210431E+03  0.72793347824E+03  0.12500000000E+03 0.  0.
         25    1    1    2    0    0 -0.31086998962E+02  0.45868100335E+02 -0.24219292784E+03  0.27812353088E+03  0.12500000000E+03 0.  0.
</event>
<event>
 5    0  0.5749909E-005  0.3618429E+03  0.7546771E-02  0.1057857E+00
         21   -1    0    0  502  501  0.00000000000E+00  0.00000000000E+00  0.19594505718E+03  0.19594505718E+03  0.00000000000E+00 0.  1.
         21   -1    0    0  501  502 -0.00000000000E+00 -0.00000000000E+00 -0.66819901050E+03  0.66819901050E+03  0.00000000000E+00 0.  1.
         25    1    1    2    0    0 -0.21580223961E+02 -0.19823670360E+02 -0.17005776907E+03  0.21308056879E+03  0.12500000000E+03 0.  0.
         25    1    1    2    0    0  0.98834662060E+02  0.19356768853E+03  0.25600491033E+02  0.25202604153E+03  0.12500000000E+03 0.  0.
         25    1    1    2    0    0 -0.77254438099E+02 -0.17374401817E+03 -0.32779667528E+03  0.39903745736E+03  0.12500000000E+03 0.  0.
</event>
<event>
 5    0  0.5749909E-005  0.3024649E+03  0.7546771E-02  0.1084015E+00
         21   -1    0    0  502  501  0.00000000000E+00  0.00000000000E+00  0.14130518610E+03  0.14130518610E+03  0.00000000000E+00 0. -1.
         21   -1    0    0  501  502 -0.00000000000E+00 -0.00000000000E+00 -0.64742865929E+03  0.64742865929E+03  0.00000000000E+00 0. -1.
         25    1    1    2    0    0  0.14711902327E+03 -0.15167638824E+02 -0.34721695670E+03  0.39756594333E+03  0.12500000000E+03 0.  0.
         25    1    1    2    0    0 -0.84251534141E+02  0.10374305330E+03 -0.40030704216E+02  0.18731897766E+03  0.12500000000E+03 0.  0.
         25    1    1    2    0    0 -0.62867489124E+02 -0.88575414473E+02 -0.11887581227E+03  0.20384892440E+03  0.12500000000E+03 0.  0.
</event>
<event>
 5    0  0.5749909E-005  0.2993748E+03  0.7546771E-02  0.1085554E+00
         21   -1    0    0  502  501  0.00000000000E+00  0.00000000000E+00  0.79802221154E+02  0.79802221154E+02  0.00000000000E+00 0.  1.
         21   -1    0    0  501  502 -0.00000000000E+00 -0.00000000000E+00 -0.11230926961E+04  0.11230926961E+04  0.00000000000E+00 0.  1.
         25    1    1    2    0    0  0.10524107994E+03 -0.86336615631E+02 -0.64026869028E+03  0.66640730177E+03  0.12500000000E+03 0.  0.
         25    1    1    2    0    0 -0.84715106434E+02 -0.36317248961E+02 -0.96432684775E+02  0.18281098031E+03  0.12500000000E+03 0.  0.
         25    1    1    2    0    0 -0.20525973505E+02  0.12265386459E+03 -0.30658909986E+03  0.35367663514E+03  0.12500000000E+03 0.  0.
</event>
<event>
 5    0  0.5749909E-005  0.3072525E+03  0.7546771E-02  0.1081670E+00
         21   -1    0    0  502  501  0.00000000000E+00  0.00000000000E+00  0.68327337254E+02  0.68327337254E+02  0.00000000000E+00 0.  1.
         21   -1    0    0  501  502 -0.00000000000E+00 -0.00000000000E+00 -0.13816444794E+04  0.13816444794E+04  0.00000000000E+00 0.  1.
         25    1    1    2    0    0  0.74582720020E+02  0.55705834694E+02 -0.16321684332E+03  0.22567777934E+03  0.12500000000E+03 0.  0.
         25    1    1    2    0    0  0.20351630873E+02  0.18867252029E+02 -0.10714013139E+03  0.16695559240E+03  0.12500000000E+03 0.  0.
         25    1    1    2    0    0 -0.94934350894E+02 -0.74573086723E+02 -0.10429601674E+04  0.10573384449E+04  0.12500000000E+03 0.  0.
</event>
<event>
 5    0  0.5749909E-005  0.3178505E+03  0.7546771E-02  0.1076643E+00
         21   -1    0    0  502  501  0.00000000000E+00  0.00000000000E+00  0.95024374836E+03  0.95024374836E+03  0.00000000000E+00 0. -1.
         21   -1    0    0  501  502 -0.00000000000E+00 -0.00000000000E+00 -0.10631895647E+03  0.10631895647E+03  0.00000000000E+00 0. -1.
         25    1    1    2    0    0 -0.12786969167E+03 -0.76936149129E+02  0.89201969023E+02  0.21413038171E+03  0.12500000000E+03 0.  0.
         25    1    1    2    0    0  0.16479118315E+03  0.93872274398E+02  0.35308721548E+03  0.41983773018E+03  0.12500000000E+03 0.  0.
         25    1    1    2    0    0 -0.36921491475E+02 -0.16936125269E+02  0.40163560739E+03  0.42259459295E+03  0.12500000000E+03 0.  0.
</event>
<event>
 5    0  0.5749909E-005  0.3443464E+03  0.7546771E-02  0.1064960E+00
         21   -1    0    0  502  501  0.00000000000E+00  0.00000000000E+00  0.36125165117E+03  0.36125165117E+03  0.00000000000E+00 0.  1.
         21   -1    0    0  501  502 -0.00000000000E+00 -0.00000000000E+00 -0.32823227821E+03  0.32823227821E+03  0.00000000000E+00 0.  1.
         25    1    1    2    0    0  0.19821188957E+03  0.17561776160E+03  0.44437693766E+02  0.29619125576E+03  0.12500000000E+03 0.  0.
         25    1    1    2    0    0 -0.15700312110E+03 -0.12348604937E+03  0.46775320451E+02  0.24023262691E+03  0.12500000000E+03 0.  0.
         25    1    1    2    0    0 -0.41208768469E+02 -0.52131712227E+02 -0.58193641259E+02  0.15306004672E+03  0.12500000000E+03 0.  0.
</event>
<event>
 5    0  0.5749909E-005  0.3452198E+03  0.7546771E-02  0.1064594E+00
         21   -1    0    0  502  501  0.00000000000E+00  0.00000000000E+00  0.46939372173E+03  0.46939372173E+03  0.00000000000E+00 0. -1.
         21   -1    0    0  501  502 -0.00000000000E+00 -0.00000000000E+00 -0.25389498047E+03  0.25389498047E+03  0.00000000000E+00 0. -1.
         25    1    1    2    0    0  0.62374246241E+02  0.25014542616E+02  0.73510150960E+02  0.15982808336E+03  0.12500000000E+03 0.  0.
         25    1    1    2    0    0 -0.23123334832E+03  0.47330634992E+02 -0.47695354063E+02  0.27130959655E+03  0.12500000000E+03 0.  0.
         25    1    1    2    0    0  0.16885910207E+03 -0.72345177607E+02  0.18968394436E+03  0.29215102229E+03  0.12500000000E+03 0.  0.
</event>
<event>
 5    0  0.5749909E-005  0.2436431E+03  0.7546771E-02  0.1117389E+00
         21   -1    0    0  502  501  0.00000000000E+00  0.00000000000E+00  0.29873284478E+02  0.29873284478E+02  0.00000000000E+00 0. -1.
         21   -1    0    0  501  502 -0.00000000000E+00 -0.00000000000E+00 -0.19871249652E+04  0.19871249652E+04  0.00000000000E+00 0. -1.
         25    1    1    2    0    0  0.91862903572E+02 -0.54155957584E+02 -0.10717313414E+04  0.10842530743E+04  0.12500000000E+03 0.  0.
         25    1    1    2    0    0  0.11566403203E+02  0.24998113225E+02 -0.40381653882E+03  0.42361714362E+03  0.12500000000E+03 0.  0.
         25    1    1    2    0    0 -0.10342930677E+03  0.29157844359E+02 -0.48170380044E+03  0.50912803178E+03  0.12500000000E+03 0.  0.
</event>
<event>
 5    0  0.5749909E-005  0.2758847E+03  0.7546771E-02  0.1097958E+00
         21   -1    0    0  502  501  0.00000000000E+00  0.00000000000E+00  0.91265146125E+03  0.91265146125E+03  0.00000000000E+00 0.  1.
         21   -1    0    0  501  502 -0.00000000000E+00 -0.00000000000E+00 -0.83396965711E+02  0.83396965711E+02  0.00000000000E+00 0.  1.
         25    1    1    2    0    0  0.10033334802E+03 -0.95810016463E+01  0.93511841104E+02  0.18581722402E+03  0.12500000000E+03 0.  0.
         25    1    1    2    0    0 -0.14985838561E+03 -0.15551927225E+02  0.50999664371E+03  0.54627920954E+03  0.12500000000E+03 0.  0.
         25    1    1    2    0    0  0.49525037591E+02  0.25132928871E+02  0.22574601072E+03  0.26395199339E+03  0.12500000000E+03 0.  0.
</event>
<event>
 5    0  0.5749909E-005  0.3036672E+03  0.7546771E-02  0.1083422E+00
         21   -1    0    0  502  501  0.00000000000E+00  0.00000000000E+00  0.10267317143E+03  0.10267317143E+03  0.00000000000E+00 0. -1.
         21   -1    0    0  501  502 -0.00000000000E+00 -0.00000000000E+00 -0.89812943037E+03  0.89812943037E+03  0.00000000000E+00 0. -1.
         25    1    1    2    0    0  0.70577309064E+02  0.12721974351E+03 -0.21735892513E+03  0.28988949969E+03  0.12500000000E+03 0.  0.
         25    1    1    2    0    0 -0.17129660582E+03 -0.96962026716E+02 -0.43586226381E+03  0.49431272976E+03  0.12500000000E+03 0.  0.
         25    1    1    2    0    0  0.10071929675E+03 -0.30257716791E+02 -0.14223507000E+03  0.21660037235E+03  0.12500000000E+03 0.  0.
</event>
<event>
 5    0  0.6444831E-005  0.3056636E+03  0.7546771E-02  0.1082443E+00
         21   -1    0    0  502  501  0.00000000000E+00  0.00000000000E+00  0.38084651938E+03  0.38084651938E+03  0.00000000000E+00 0. -1.
         21   -1    0    0  501  502 -0.00000000000E+00 -0.00000000000E+00 -0.24532253388E+03  0.24532253388E+03  0.00000000000E+00 0. -1.
         25    1    1    2    0    0 -0.10471392353E+02 -0.80519208759E+02  0.26332552083E+03  0.30258605876E+03  0.12500000000E+03 0.  0.
         25    1    1    2    0    0 -0.57071647579E+02  0.28955481702E+02 -0.93142953824E+02  0.16851172875E+03  0.12500000000E+03 0.  0.
         25    1    1    2    0    0  0.67543039932E+02  0.51563727057E+02 -0.34658581510E+02  0.15507126576E+03  0.12500000000E+03 0.  0.
</event>
<event>
 5    0  0.5749909E-005  0.2494075E+03  0.7546771E-02  0.1113680E+00
         21   -1    0    0  502  501  0.00000000000E+00  0.00000000000E+00  0.52965535740E+02  0.52965535740E+02  0.00000000000E+00 0.  1.
         21   -1    0    0  501  502 -0.00000000000E+00 -0.00000000000E+00 -0.11744262431E+04  0.11744262431E+04  0.00000000000E+00 0.  1.
         25    1    1    2    0    0  0.11846270494E+03  0.62274362876E+01 -0.37310000853E+03  0.41097543696E+03  0.12500000000E+03 0.  0.
         25    1    1    2    0    0  0.23507722959E+02 -0.41454690654E+02 -0.31893959774E+03  0.34585917861E+03  0.12500000000E+03 0.  0.
         25    1    1    2    0    0 -0.14197042790E+03  0.35227254366E+02 -0.42942110110E+03  0.47055716328E+03  0.12500000000E+03 0.  0.
</event>
<event>
 5    0  0.5749909E-005  0.2398458E+03  0.7546771E-02  0.1119896E+00
         21   -1    0    0  502  501  0.00000000000E+00  0.00000000000E+00  0.14948544807E+03  0.14948544807E+03  0.00000000000E+00 0. -1.
         21   -1    0    0  501  502 -0.00000000000E+00 -0.00000000000E+00 -0.38482692793E+03  0.38482692793E+03  0.00000000000E+00 0. -1.
         25    1    1    2    0    0 -0.80001493280E+02  0.57035829602E+02 -0.31302423221E+02  0.16204371782E+03  0.12500000000E+03 0.  0.
         25    1    1    2    0    0  0.55840717430E+01 -0.91443638462E+02 -0.14275329874E+03  0.21070506680E+03  0.12500000000E+03 0.  0.
         25    1    1    2    0    0  0.74417421537E+02  0.34407808860E+02 -0.61285757901E+02  0.16156359138E+03  0.12500000000E+03 0.  0.
</event>
<event>
 5    0  0.5749909E-005  0.2733651E+03  0.7546771E-02  0.1099369E+00
         21   -1    0    0  502  501  0.00000000000E+00  0.00000000000E+00  0.66966344887E+03  0.66966344887E+03  0.00000000000E+00 0.  1.
         21   -1    0    0  501  502 -0.00000000000E+00 -0.00000000000E+00 -0.11159113082E+03  0.11159113082E+03  0.00000000000E+00 0.  1.
         25    1    1    2    0    0  0.59596812425E+02  0.12366240012E+03  0.28292836517E+03  0.33840453465E+03  0.12500000000E+03 0.  0.
         25    1    1    2    0    0 -0.25807600579E+02 -0.75140064475E+02  0.15809553351E+02  0.14895302452E+03  0.12500000000E+03 0.  0.
         25    1    1    2    0    0 -0.33789211847E+02 -0.48522335650E+02  0.25933439952E+03  0.29389702052E+03  0.12500000000E+03 0.  0.
</event>
<event>
 5    0  0.5749909E-005  0.2893803E+03  0.7546771E-02  0.1090673E+00
         21   -1    0    0  502  501  0.00000000000E+00  0.00000000000E+00  0.55387955653E+02  0.55387955653E+02  0.00000000000E+00 0.  1.
         21   -1    0    0  501  502 -0.00000000000E+00 -0.00000000000E+00 -0.15118987129E+04  0.15118987129E+04  0.00000000000E+00 0.  1.
         25    1    1    2    0    0  0.16523949501E+03  0.31042514254E+02 -0.32795145464E+03  0.38915920264E+03  0.12500000000E+03 0.  0.
         25    1    1    2    0    0 -0.17060234562E+02 -0.39036449900E+02 -0.31132267874E+03  0.33817407695E+03  0.12500000000E+03 0.  0.
         25    1    1    2    0    0 -0.14817926044E+03  0.79939356460E+01 -0.81723662387E+03  0.83995338896E+03  0.12500000000E+03 0.  0.
</event>
<event>
 5    0  0.5749909E-005  0.4628953E+03  0.7546771E-02  0.1023945E+00
         21   -1    0    0  502  501  0.00000000000E+00  0.00000000000E+00  0.23646331704E+03  0.23646331704E+03  0.00000000000E+00 0.  1.
         21   -1    0    0  501  502 -0.00000000000E+00 -0.00000000000E+00 -0.90615345931E+03  0.90615345931E+03  0.00000000000E+00 0.  1.
         25    1    1    2    0    0 -0.25458963720E+03  0.31111970106E+02 -0.85064876973E+02  0.29773288590E+03  0.12500000000E+03 0.  0.
         25    1    1    2    0    0 -0.60932263371E+02  0.90543741045E+01  0.29158024923E+02  0.14237244406E+03  0.12500000000E+03 0.  0.
         25    1    1    2    0    0  0.31552190057E+03 -0.40166344211E+02 -0.61378329022E+03  0.70251144639E+03  0.12500000000E+03 0.  0.
</event>
<event>
 5    0  0.5749909E-005  0.3610285E+03  0.7546771E-02  0.1058177E+00
         21   -1    0    0  502  501  0.00000000000E+00  0.00000000000E+00  0.57421819988E+02  0.57421819988E+02  0.00000000000E+00 0.  1.
         21   -1    0    0  501  502 -0.00000000000E+00 -0.00000000000E+00 -0.22698968349E+04  0.22698968349E+04  0.00000000000E+00 0.  1.
         25    1    1    2    0    0  0.20857489808E+03  0.78068407649E+02 -0.14821995361E+04  0.15040407671E+04  0.12500000000E+03 0.  0.
         25    1    1    2    0    0 -0.17597831115E+03  0.18823271794E+02 -0.45916475682E+03  0.50772035164E+03  0.12500000000E+03 0.  0.
         25    1    1    2    0    0 -0.32596586927E+02 -0.96891679443E+02 -0.27111072199E+03  0.31555753612E+03  0.12500000000E+03 0.  0.
</event>
<event>
 5    0  0.5749909E-005  0.2830717E+03  0.7546771E-02  0.1094023E+00
         21   -1    0    0  502  501  0.00000000000E+00  0.00000000000E+00  0.84977886681E+03  0.84977886681E+03  0.00000000000E+00 0.  1.
         21   -1    0    0  501  502 -0.00000000000E+00 -0.00000000000E+00 -0.94294608371E+02  0.94294608371E+02  0.00000000000E+00 0.  1.
         25    1    1    2    0    0  0.69927878400E+02  0.18793457115E+02  0.14824329201E+03  0.20698834710E+03  0.12500000000E+03 0.  0.
         25    1    1    2    0    0 -0.85796377654E+02 -0.14117658755E+03  0.17740840731E+03  0.27274638454E+03  0.12500000000E+03 0.  0.
         25    1    1    2    0    0  0.15868499254E+02  0.12238313044E+03  0.42983255911E+03  0.46433874355E+03  0.12500000000E+03 0.  0.
</event>
<event>
 5    0  0.5749909E-005  0.3565330E+03  0.7546771E-02  0.1059965E+00
         21   -1    0    0  502  501  0.00000000000E+00  0.00000000000E+00  0.65524210937E+03  0.65524210937E+03  0.00000000000E+00 0.  1.
         21   -1    0    0  501  502 -0.00000000000E+00 -0.00000000000E+00 -0.19399820143E+03  0.19399820143E+03  0.00000000000E+00 0.  1.
         25    1    1    2    0    0 -0.17627410233E+02  0.16031383430E+03  0.18578732178E+03  0.27595865631E+03  0.12500000000E+03 0.  0.
         25    1    1    2    0    0  0.61785369829E+01  0.13169607801E+03  0.13196076266E+03  0.22454548351E+03  0.12500000000E+03 0.  0.
         25    1    1    2    0    0  0.11448873250E+02 -0.29200991231E+03  0.14349582351E+03  0.34873617098E+03  0.12500000000E+03 0.  0.
</event>
<event>
 5    0  0.5749909E-005  0.3293688E+03  0.7546771E-02  0.1071416E+00
         21   -1    0    0  502  501  0.00000000000E+00  0.00000000000E+00  0.41735119099E+03  0.41735119099E+03  0.00000000000E+00 0. -1.
         21   -1    0    0  501  502 -0.00000000000E+00 -0.00000000000E+00 -0.25993412062E+03  0.25993412062E+03  0.00000000000E+00 0. -1.
         25    1    1    2    0    0 -0.94688928546E+02 -0.16326992840E+02 -0.10080638554E+02  0.15798475609E+03  0.12500000000E+03 0.  0.
         25    1    1    2    0    0 -0.77955389894E+02 -0.31017648657E+02  0.24504692807E+03  0.28759717367E+03  0.12500000000E+03 0.  0.
         25    1    1    2    0    0  0.17264431844E+03  0.47344641497E+02 -0.77549219155E+02  0.23170338185E+03  0.12500000000E+03 0.  0.
</event>
<event>
 5    0  0.5749909E-005  0.4440091E+03  0.7546771E-02  0.1029524E+00
         21   -1    0    0  502  501  0.00000000000E+00  0.00000000000E+00  0.33904650091E+03  0.33904650091E+03  0.00000000000E+00 0.  1.
         21   -1    0    0  501  502 -0.00000000000E+00 -0.00000000000E+00 -0.58146631875E+03  0.58146631875E+03  0.00000000000E+00 0.  1.
         25    1    1    2    0    0 -0.19200896660E+03  0.13792859708E+03  0.12285931459E+03  0.29429772736E+03  0.12500000000E+03 0.  0.
         25    1    1    2    0    0 -0.95878359924E+02 -0.11273098177E+03 -0.13438913702E+03  0.23576762776E+03  0.12500000000E+03 0.  0.
         25    1    1    2    0    0  0.28788732652E+03 -0.25197615303E+02 -0.23088999541E+03  0.39044746455E+03  0.12500000000E+03 0.  0.
</event>
<event>
 5    0  0.5749909E-005  0.2702820E+03  0.7546771E-02  0.1101118E+00
         21   -1    0    0  502  501  0.00000000000E+00  0.00000000000E+00  0.45356403153E+03  0.45356403153E+03  0.00000000000E+00 0. -1.
         21   -1    0    0  501  502 -0.00000000000E+00 -0.00000000000E+00 -0.16106300228E+03  0.16106300228E+03  0.00000000000E+00 0. -1.
         25    1    1    2    0    0  0.57452132372E+02 -0.75531587478E+02  0.17693433397E+03  0.23650904160E+03  0.12500000000E+03 0.  0.
         25    1    1    2    0    0  0.53610368195E+02  0.73577418734E+02  0.14063773179E+03  0.20902554803E+03  0.12500000000E+03 0.  0.
         25    1    1    2    0    0 -0.11106250057E+03  0.19541687441E+01 -0.25071036514E+02  0.16909244418E+03  0.12500000000E+03 0.  0.
</event>
<event>
 5    0  0.5749909E-005  0.3258880E+03  0.7546771E-02  0.1072971E+00
         21   -1    0    0  502  501  0.00000000000E+00  0.00000000000E+00  0.17511964586E+03  0.17511964586E+03  0.00000000000E+00 0. -1.
         21   -1    0    0  501  502 -0.00000000000E+00 -0.00000000000E+00 -0.60645959660E+03  0.60645959660E+03  0.00000000000E+00 0. -1.
         25    1    1    2    0    0 -0.11824472472E+03  0.24260544471E+02 -0.36572298467E+02  0.17757511638E+03  0.12500000000E+03 0.  0.
         25    1    1    2    0    0 -0.80995067652E+02 -0.10807149270E+03 -0.26493285977E+03  0.32257412900E+03  0.12500000000E+03 0.  0.
         25    1    1    2    0    0  0.19923979237E+03  0.83810948226E+02 -0.12983479251E+03  0.28142999707E+03  0.12500000000E+03 0.  0.
</event>
<event>
 5    0  0.5749909E-005  0.2676104E+03  0.7546771E-02  0.1102655E+00
         21   -1    0    0  502  501  0.00000000000E+00  0.00000000000E+00  0.72117809533E+02  0.72117809533E+02  0.00000000000E+00 0.  1.
         21   -1    0    0  501  502 -0.00000000000E+00 -0.00000000000E+00 -0.99303214841E+03  0.99303214841E+03  0.00000000000E+00 0.  1.
         25    1    1    2    0    0 -0.56935319410E+02  0.15905219305E+02 -0.21669494171E+03  0.25705311583E+03  0.12500000000E+03 0.  0.
         25    1    1    2    0    0  0.18249452727E+02  0.37727109455E+02 -0.63883735449E+03  0.65229942726E+03  0.12500000000E+03 0.  0.
         25    1    1    2    0    0  0.38685866683E+02 -0.53632328759E+02 -0.65382042682E+02  0.15579741485E+03  0.12500000000E+03 0.  0.
</event>
<event>
 5    0  0.5749909E-005  0.3052475E+03  0.7546771E-02  0.1082646E+00
         21   -1    0    0  502  501  0.00000000000E+00  0.00000000000E+00  0.21626465984E+03  0.21626465984E+03  0.00000000000E+00 0. -1.
         21   -1    0    0  501  502 -0.00000000000E+00 -0.00000000000E+00 -0.43084251963E+03  0.43084251963E+03  0.00000000000E+00 0. -1.
         25    1    1    2    0    0  0.41965353287E+02  0.74931775230E+02  0.67872729268E+02  0.16615525629E+03  0.12500000000E+03 0.  0.
         25    1    1    2    0    0  0.70814681126E+02  0.76355518902E+02 -0.10989109900E+03  0.19633119459E+03  0.12500000000E+03 0.  0.
         25    1    1    2    0    0 -0.11278003441E+03 -0.15128729413E+03 -0.17255949006E+03  0.28462072858E+03  0.12500000000E+03 0.  0.
</event>
<event>
 5    0  0.5749909E-005  0.3459687E+03  0.7546771E-02  0.1064282E+00
         21   -1    0    0  502  501  0.00000000000E+00  0.00000000000E+00  0.38622551331E+03  0.38622551331E+03  0.00000000000E+00 0. -1.
         21   -1    0    0  501  502 -0.00000000000E+00 -0.00000000000E+00 -0.30990797490E+03  0.30990797490E+03  0.00000000000E+00 0. -1.
         25    1    1    2    0    0 -0.86934495806E+02  0.10515369813E+03  0.89249729895E+02  0.20543958012E+03  0.12500000000E+03 0.  0.
         25    1    1    2    0    0  0.37024618208E+02 -0.16089205602E+02  0.19026169854E+03  0.23120164105E+03  0.12500000000E+03 0.  0.
         25    1    1    2    0    0  0.49909877598E+02 -0.89064492531E+02 -0.20319389002E+03  0.25949226704E+03  0.12500000000E+03 0.  0.
</event>
<event>
 5    0  0.5749909E-005  0.2990450E+03  0.7546771E-02  0.1085719E+00
         21   -1    0    0  502  501  0.00000000000E+00  0.00000000000E+00  0.26319709225E+04  0.26319709225E+04  0.00000000000E+00 0. -1.
         21   -1    0    0  501  502 -0.00000000000E+00 -0.00000000000E+00 -0.33977538618E+02  0.33977538618E+02  0.00000000000E+00 0. -1.
         25    1    1    2    0    0  0.72991924709E+02 -0.56876110601E+02  0.52218937892E+03  0.54485728451E+03  0.12500000000E+03 0.  0.
         25    1    1    2    0    0 -0.21129624670E+03  0.24137291707E+02  0.11696074999E+04  0.11953390384E+04  0.12500000000E+03 0.  0.
         25    1    1    2    0    0  0.13830432199E+03  0.32738818894E+02  0.90619650506E+03  0.92575213828E+03  0.12500000000E+03 0.  0.
</event>
<event>
 5    0  0.5835651E-005  0.3169384E+03  0.7546771E-02  0.1077067E+00
         21   -1    0    0  502  501  0.00000000000E+00  0.00000000000E+00  0.10252239649E+03  0.10252239649E+03  0.00000000000E+00 0. -1.
         21   -1    0    0  501  502 -0.00000000000E+00 -0.00000000000E+00 -0.97978565701E+03  0.97978565701E+03  0.00000000000E+00 0. -1.
         25    1    1    2    0    0  0.11766913993E+03  0.73753826167E+02 -0.26341111555E+03  0.32294901944E+03  0.12500000000E+03 0.  0.
         25    1    1    2    0    0 -0.86907187788E+02 -0.16649597559E+03 -0.53822838722E+03  0.58359966243E+03  0.12500000000E+03 0.  0.
         25    1    1    2    0    0 -0.30761952139E+02  0.92742149420E+02 -0.75623757759E+02  0.17575937163E+03  0.12500000000E+03 0.  0.
</event>
<event>
 5    0  0.5749909E-005  0.2813066E+03  0.7546771E-02  0.1094977E+00
         21   -1    0    0  502  501  0.00000000000E+00  0.00000000000E+00  0.17212987536E+03  0.17212987536E+03  0.00000000000E+00 0. -1.
         21   -1    0    0  501  502 -0.00000000000E+00 -0.00000000000E+00 -0.45973073330E+03  0.45973073330E+03  0.00000000000E+00 0. -1.
         25    1    1    2    0    0 -0.81969544470E+02 -0.75940964748E+02  0.63646994771E+01  0.16778422377E+03  0.12500000000E+03 0.  0.
         25    1    1    2    0    0  0.13198166120E+03 -0.25566279926E+02 -0.10770511513E+03  0.21283370360E+03  0.12500000000E+03 0.  0.
         25    1    1    2    0    0 -0.50012116725E+02  0.10150724467E+03 -0.18626044228E+03  0.25124268128E+03  0.12500000000E+03 0.  0.
</event>
<event>
 5    0  0.5749909E-005  0.3175858E+03  0.7546771E-02  0.1076766E+00
         21   -1    0    0  502  501  0.00000000000E+00  0.00000000000E+00  0.74089982446E+03  0.74089982446E+03  0.00000000000E+00 0. -1.
         21   -1    0    0  501  502 -0.00000000000E+00 -0.00000000000E+00 -0.13613272077E+03  0.13613272077E+03  0.00000000000E+00 0. -1.
         25    1    1    2    0    0 -0.11147297465E+03  0.83194792808E+01  0.31424381936E+01  0.16772093706E+03  0.12500000000E+03 0.  0.
         25    1    1    2    0    0 -0.29587415918E+02  0.95859792871E+02  0.24881299921E+03  0.29596861936E+03  0.12500000000E+03 0.  0.
         25    1    1    2    0    0  0.14106039056E+03 -0.10417927215E+03  0.35281166628E+03  0.41334298880E+03  0.12500000000E+03 0.  0.
</event>
<event>
 5    0  0.5749909E-005  0.2652475E+03  0.7546771E-02  0.1104031E+00
         21   -1    0    0  502  501  0.00000000000E+00  0.00000000000E+00  0.21515942142E+03  0.21515942142E+03  0.00000000000E+00 0. -1.
         21   -1    0    0  501  502 -0.00000000000E+00 -0.00000000000E+00 -0.32699585791E+03  0.32699585791E+03  0.00000000000E+00 0. -1.
         25    1    1    2    0    0  0.15176201658E+03  0.35448455820E+02 -0.11083043343E+03  0.22846594422E+03  0.12500000000E+03 0.  0.
         25    1    1    2    0    0 -0.12707846203E+03 -0.45535031071E+02  0.16360021842E+02  0.18470253079E+03  0.12500000000E+03 0.  0.
         25    1    1    2    0    0 -0.24683554556E+02  0.10086575251E+02 -0.17366024913E+02  0.12898680431E+03  0.12500000000E+03 0.  0.
</event>
<event>
 5    0  0.5749909E-005  0.3865031E+03  0.7546771E-02  0.1048556E+00
         21   -1    0    0  502  501  0.00000000000E+00  0.00000000000E+00  0.15305648738E+04  0.15305648738E+04  0.00000000000E+00 0. -1.
         21   -1    0    0  501  502 -0.00000000000E+00 -0.00000000000E+00 -0.97601002226E+02  0.97601002226E+02  0.00000000000E+00 0. -1.
         25    1    1    2    0    0 -0.20949746396E+03 -0.11035339681E+03  0.43512166405E+03  0.51090402437E+03  0.12500000000E+03 0.  0.
         25    1    1    2    0    0  0.52277068112E+02  0.17379552802E+03  0.21993944629E+03  0.31134568802E+03  0.12500000000E+03 0.  0.
         25    1    1    2    0    0  0.15722039585E+03 -0.63442131214E+02  0.77790276126E+03  0.80591616366E+03  0.12500000000E+03 0.  0.
</event>
<event>
 5    0  0.5749909E-005  0.2251717E+03  0.7546771E-02  0.1130085E+00
         21   -1    0    0  502  501  0.00000000000E+00  0.00000000000E+00  0.29491081529E+02  0.29491081529E+02  0.00000000000E+00 0. -1.
         21   -1    0    0  501  502 -0.00000000000E+00 -0.00000000000E+00 -0.17192416675E+04  0.17192416675E+04  0.00000000000E+00 0. -1.
         25    1    1    2    0    0  0.31473347642E+01 -0.75861867687E+02 -0.62188587461E+03  0.63885207186E+03  0.12500000000E+03 0.  0.
         25    1    1    2    0    0 -0.45865787437E+02  0.10170924759E+03 -0.61800136183E+03  0.64031174027E+03  0.12500000000E+03 0.  0.
         25    1    1    2    0    0  0.42718452673E+02 -0.25847379905E+02 -0.44986334953E+03  0.46956893690E+03  0.12500000000E+03 0.  0.
</event>
<event>
 5    0  0.5749909E-005  0.4155591E+03  0.7546771E-02  0.1038521E+00
         21   -1    0    0  502  501  0.00000000000E+00  0.00000000000E+00  0.64949997158E+03  0.64949997158E+03  0.00000000000E+00 0. -1.
         21   -1    0    0  501  502 -0.00000000000E+00 -0.00000000000E+00 -0.26588045836E+03  0.26588045836E+03  0.00000000000E+00 0. -1.
         25    1    1    2    0    0 -0.16142461967E+03  0.21597884044E+02  0.49762419963E+03  0.53831145305E+03  0.12500000000E+03 0.  0.
         25    1    1    2    0    0 -0.28327008861E+02  0.10835124948E+02 -0.56243882683E+02  0.14038587430E+03  0.12500000000E+03 0.  0.
         25    1    1    2    0    0  0.18975162853E+03 -0.32433008992E+02 -0.57760803732E+02  0.23668310259E+03  0.12500000000E+03 0.  0.
</event>
<event>
 5    0  0.5749909E-005  0.4356794E+03  0.7546771E-02  0.1032081E+00
         21   -1    0    0  502  501  0.00000000000E+00  0.00000000000E+00  0.11280860597E+03  0.11280860597E+03  0.00000000000E+00 0.  1.
         21   -1    0    0  501  502 -0.00000000000E+00 -0.00000000000E+00 -0.16826421126E+04  0.16826421126E+04  0.00000000000E+00 0.  1.
         25    1    1    2    0    0  0.23995208503E+03 -0.65317668526E+02 -0.16469439772E+03  0.32340786257E+03  0.12500000000E+03 0.  0.
         25    1    1    2    0    0 -0.16103331705E+03  0.11251577726E+03 -0.47446537837E+03  0.52852050538E+03  0.12500000000E+03 0.  0.
         25    1    1    2    0    0 -0.78918767973E+02 -0.47198108736E+02 -0.93067373054E+03  0.94352235062E+03  0.12500000000E+03 0.  0.
</event>
<event>
 5    0  0.7656383E-005  0.3025575E+03  0.7546771E-02  0.1083969E+00
         21   -1    0    0  502  501  0.00000000000E+00  0.00000000000E+00  0.59075744605E+03  0.59075744605E+03  0.00000000000E+00 0.  1.
         21   -1    0    0  501  502 -0.00000000000E+00 -0.00000000000E+00 -0.15495533464E+03  0.15495533464E+03  0.00000000000E+00 0.  1.
         25    1    1    2    0    0  0.35922707993E+01 -0.81755061184E+02  0.25428198722E+03  0.29492562362E+03  0.12500000000E+03 0.  0.
         25    1    1    2    0    0  0.11483198443E+03 -0.67373523507E+02  0.10405004300E+03  0.21018322428E+03  0.12500000000E+03 0.  0.
         25    1    1    2    0    0 -0.11842425523E+03  0.14912858469E+03  0.77470081179E+02  0.24060393280E+03  0.12500000000E+03 0.  0.
</event>
<event>
 5    0  0.5749909E-005  0.4291304E+03  0.7546771E-02  0.1034135E+00
         21   -1    0    0  502  501  0.00000000000E+00  0.00000000000E+00  0.39772791883E+03  0.39772791883E+03  0.00000000000E+00 0. -1.
         21   -1    0    0  501  502 -0.00000000000E+00 -0.00000000000E+00 -0.46301214964E+03  0.46301214964E+03  0.00000000000E+00 0. -1.
         25    1    1    2    0    0 -0.28796084877E+03  0.11934171776E+03 -0.74592064686E+01  0.33592340761E+03  0.12500000000E+03 0.  0.
         25    1    1    2    0    0  0.27660593871E+03 -0.11846536764E+03  0.82930327956E+02  0.33622511500E+03  0.12500000000E+03 0.  0.
         25    1    1    2    0    0  0.11354910060E+02 -0.87635012065E+00 -0.14075535230E+03  0.18859154587E+03  0.12500000000E+03 0.  0.
</event>
<event>
 5    0  0.5749909E-005  0.3332663E+03  0.7546771E-02  0.1069701E+00
         21   -1    0    0  502  501  0.00000000000E+00  0.00000000000E+00  0.11791469171E+04  0.11791469171E+04  0.00000000000E+00 0.  1.
         21   -1    0    0  501  502 -0.00000000000E+00 -0.00000000000E+00 -0.94192188298E+02  0.94192188298E+02  0.00000000000E+00 0.  1.
         25    1    1    2    0    0 -0.11132837511E+03  0.12787722447E+03  0.33554450870E+03  0.39618393324E+03  0.12500000000E+03 0.  0.
         25    1    1    2    0    0  0.98651456644E+02 -0.50158632017E+02  0.68594021316E+02  0.18049414956E+03  0.12500000000E+03 0.  0.
         25    1    1    2    0    0  0.12676918468E+02 -0.77718592454E+02  0.68081619880E+03  0.69666102261E+03  0.12500000000E+03 0.  0.
</event>
<event>
 5    0  0.6463214E-005  0.2604615E+03  0.7546771E-02  0.1106866E+00
         21   -1    0    0  502  501  0.00000000000E+00  0.00000000000E+00  0.37598425240E+03  0.37598425240E+03  0.00000000000E+00 0. -1.
         21   -1    0    0  501  502 -0.00000000000E+00 -0.00000000000E+00 -0.18043358570E+03  0.18043358570E+03  0.00000000000E+00 0. -1.
         25    1    1    2    0    0  0.11379248061E+03 -0.32243398134E+02  0.21032489453E+03  0.27175342983E+03  0.12500000000E+03 0.  0.
         25    1    1    2    0    0 -0.78465616220E+02  0.54268525149E+01  0.15865144956E+02  0.14853621269E+03  0.12500000000E+03 0.  0.
         25    1    1    2    0    0 -0.35326864387E+02  0.26816545619E+02 -0.30639372777E+02  0.13612819558E+03  0.12500000000E+03 0.  0.
</event>
<event>
 5    0  0.5749909E-005  0.3371163E+03  0.7546771E-02  0.1068031E+00
         21   -1    0    0  502  501  0.00000000000E+00  0.00000000000E+00  0.81473574816E+03  0.81473574816E+03  0.00000000000E+00 0. -1.
         21   -1    0    0  501  502 -0.00000000000E+00 -0.00000000000E+00 -0.13948989088E+03  0.13948989088E+03  0.00000000000E+00 0. -1.
         25    1    1    2    0    0 -0.93917527476E+02 -0.18973935649E+03  0.15215796707E+03  0.28913417700E+03  0.12500000000E+03 0.  0.
         25    1    1    2    0    0  0.53960612230E+02  0.23517325601E+03  0.35455989302E+03  0.44671682949E+03  0.12500000000E+03 0.  0.
         25    1    1    2    0    0  0.39956915246E+02 -0.45433899522E+02  0.16852799720E+03  0.21837463255E+03  0.12500000000E+03 0.  0.
</event>
<event>
 5    0  0.5749909E-005  0.3987015E+03  0.7546771E-02  0.1044230E+00
         21   -1    0    0  502  501  0.00000000000E+00  0.00000000000E+00  0.42531682315E+02  0.42531682315E+02  0.00000000000E+00 0.  1.
         21   -1    0    0  501  502 -0.00000000000E+00 -0.00000000000E+00 -0.37375168520E+04  0.37375168520E+04  0.00000000000E+00 0.  1.
         25    1    1    2    0    0 -0.73987195039E+02  0.57801144273E+02 -0.55828269488E+03  0.57975826403E+03  0.12500000000E+03 0.  0.
         25    1    1    2    0    0 -0.65258516744E+02  0.19783693389E+03 -0.21570038571E+04  0.21706424777E+04  0.12500000000E+03 0.  0.
         25    1    1    2    0    0  0.13924571178E+03 -0.25563807816E+03 -0.97969861769E+03  0.10296477926E+04  0.12500000000E+03 0.  0.
</event>
<event>
 5    0  0.5749909E-005  0.4275419E+03  0.7546771E-02  0.1034639E+00
         21   -1    0    0  502  501  0.00000000000E+00  0.00000000000E+00  0.12634858918E+04  0.12634858918E+04  0.00000000000E+00 0. -1.
         21   -1    0    0  501  502 -0.00000000000E+00 -0.00000000000E+00 -0.14467284051E+03  0.14467284051E+03  0.00000000000E+00 0. -1.
         25    1    1    2    0    0  0.10674205729E+03 -0.21783335088E+03  0.17272298981E+03  0.32296047244E+03  0.12500000000E+03 0.  0.
         25    1    1    2    0    0  0.37245478212E+02  0.63458282086E+02  0.45843349885E+02  0.15212097798E+03  0.12500000000E+03 0.  0.
         25    1    1    2    0    0 -0.14398753550E+03  0.15437506880E+03  0.90024671160E+03  0.93307728189E+03  0.12500000000E+03 0.  0.
</event>
<event>
 5    0  0.5749909E-005  0.3805147E+03  0.7546771E-02  0.1050744E+00
         21   -1    0    0  502  501  0.00000000000E+00  0.00000000000E+00  0.50454658295E+03  0.50454658295E+03  0.00000000000E+00 0. -1.
         21   -1    0    0  501  502 -0.00000000000E+00 -0.00000000000E+00 -0.28697339129E+03  0.28697339129E+03  0.00000000000E+00 0. -1.
         25    1    1    2    0    0 -0.29092650195E+02 -0.20028596016E+02 -0.39877853501E+02  0.13587777653E+03  0.12500000000E+03 0.  0.
         25    1    1    2    0    0  0.26692503006E+02 -0.23304981943E+03  0.26215218992E+03  0.37332757564E+03  0.12500000000E+03 0.  0.
         25    1    1    2    0    0  0.24001471889E+01  0.25307841545E+03 -0.47011447540E+01  0.28231462207E+03  0.12500000000E+03 0.  0.
</event>
<event>
 5    0  0.5749909E-005  0.5526539E+03  0.7546771E-02  0.1000882E+00
         21   -1    0    0  502  501  0.00000000000E+00  0.00000000000E+00  0.59695661481E+03  0.59695661481E+03  0.00000000000E+00 0. -1.
         21   -1    0    0  501  502 -0.00000000000E+00 -0.00000000000E+00 -0.51163902599E+03  0.51163902599E+03  0.00000000000E+00 0. -1.
         25    1    1    2    0    0 -0.19398472882E+03  0.86184457959E+02 -0.48978998061E+02  0.25116086092E+03  0.12500000000E+03 0.  0.
         25    1    1    2    0    0 -0.25616977657E+03  0.92662224734E+02 -0.84532523759E+02  0.31141610410E+03  0.12500000000E+03 0.  0.
         25    1    1    2    0    0  0.45015450539E+03 -0.17884668269E+03  0.21882911064E+03  0.54601867578E+03  0.12500000000E+03 0.  0.
</event>
<event>
 5    0  0.5749909E-005  0.4444260E+03  0.7546771E-02  0.1029397E+00
         21   -1    0    0  502  501  0.00000000000E+00  0.00000000000E+00  0.24825069909E+03  0.24825069909E+03  0.00000000000E+00 0.  1.
         21   -1    0    0  501  502 -0.00000000000E+00 -0.00000000000E+00 -0.79562509914E+03  0.79562509914E+03  0.00000000000E+00 0.  1.
         25    1    1    2    0    0  0.12096453705E+02 -0.30425490928E+02 -0.10993576511E+03  0.16965525969E+03  0.12500000000E+03 0.  0.
         25    1    1    2    0    0 -0.29324530624E+03 -0.16947960880E+03 -0.33682676714E+03  0.49375441111E+03  0.12500000000E+03 0.  0.
         25    1    1    2    0    0  0.28114885253E+03  0.19990509973E+03 -0.10061186781E+03  0.38046612743E+03  0.12500000000E+03 0.  0.
</event>
<event>
 5    0  0.5749909E-005  0.2760302E+03  0.7546771E-02  0.1097877E+00
         21   -1    0    0  502  501  0.00000000000E+00  0.00000000000E+00  0.61610353365E+02  0.61610353365E+02  0.00000000000E+00 0.  1.
         21   -1    0    0  501  502 -0.00000000000E+00 -0.00000000000E+00 -0.12366865252E+04  0.12366865252E+04  0.00000000000E+00 0.  1.
         25    1    1    2    0    0  0.51600227649E+02  0.39947161532E+02 -0.33967045280E+03  0.36777625768E+03  0.12500000000E+03 0.  0.
         25    1    1    2    0    0 -0.62984498119E+02 -0.17400996823E+03 -0.40317394300E+03  0.46089125004E+03  0.12500000000E+03 0.  0.
         25    1    1    2    0    0  0.11384270470E+02  0.13406280669E+03 -0.43223177607E+03  0.46962937088E+03  0.12500000000E+03 0.  0.
</event>
<event>
 5    0  0.5749909E-005  0.9204279E+03  0.7546771E-02  0.9400400E-01
         21   -1    0    0  502  501  0.00000000000E+00  0.00000000000E+00  0.10824326951E+04  0.10824326951E+04  0.00000000000E+00 0. -1.
         21   -1    0    0  501  502 -0.00000000000E+00 -0.00000000000E+00 -0.78266993996E+03  0.78266993996E+03  0.00000000000E+00 0. -1.
         25    1    1    2    0    0  0.25817976346E+02  0.12211650786E+03  0.37981569380E+02  0.18068372646E+03  0.12500000000E+03 0.  0.
         25    1    1    2    0    0 -0.59836086959E+03  0.41878143976E+03  0.44745251253E+03  0.86559365496E+03  0.12500000000E+03 0.  0.
         25    1    1    2    0    0  0.57254289325E+03 -0.54089794761E+03 -0.18567132681E+03  0.81882525360E+03  0.12500000000E+03 0.  0.
</event>
<event>
 5    0  0.5749909E-005  0.3155499E+03  0.7546771E-02  0.1077716E+00
         21   -1    0    0  502  501  0.00000000000E+00  0.00000000000E+00  0.48466931230E+03  0.48466931230E+03  0.00000000000E+00 0. -1.
         21   -1    0    0  501  502 -0.00000000000E+00 -0.00000000000E+00 -0.20544259715E+03  0.20544259715E+03  0.00000000000E+00 0.  1.
         25    1    1    2    0    0  0.24093457259E+03  0.25209226055E+02  0.89376161020E+02  0.28687640458E+03  0.12500000000E+03 0.  0.
         25    1    1    2    0    0 -0.13948444779E+03  0.84139571434E+01  0.13032100824E+03  0.22833149375E+03  0.12500000000E+03 0.  0.
         25    1    1    2    0    0 -0.10145012480E+03 -0.33623183198E+02  0.59529545890E+02  0.17490401111E+03  0.12500000000E+03 0.  0.
</event>
<event>
 5    0  0.5749909E-005  0.2258221E+03  0.7546771E-02  0.1129615E+00
         21   -1    0    0  502  501  0.00000000000E+00  0.00000000000E+00  0.28793702628E+03  0.28793702628E+03  0.00000000000E+00 0. -1.
         21   -1    0    0  501  502 -0.00000000000E+00 -0.00000000000E+00 -0.17710691216E+03  0.17710691216E+03  0.00000000000E+00 0. -1.
         25    1    1    2    0    0 -0.36884654529E+02  0.12860679399E+02  0.76755581320E+02  0.15179688428E+03  0.12500000000E+03 0.  0.
         25    1    1    2    0    0 -0.64203649068E+01 -0.74856269337E+02 -0.37464993084E+02  0.15057658467E+03  0.12500000000E+03 0.  0.
         25    1    1    2    0    0  0.43305019436E+02  0.61995589938E+02  0.71539525875E+02  0.16267046948E+03  0.12500000000E+03 0.  0.
</event>
<event>
 5    0  0.5749909E-005  0.2525794E+03  0.7546771E-02  0.1111685E+00
         21   -1    0    0  502  501  0.00000000000E+00  0.00000000000E+00  0.99859431691E+02  0.99859431691E+02  0.00000000000E+00 0.  1.
         21   -1    0    0  501  502 -0.00000000000E+00 -0.00000000000E+00 -0.63886147784E+03  0.63886147784E+03  0.00000000000E+00 0.  1.
         25    1    1    2    0    0 -0.69088037429E+01  0.97034506478E+02 -0.58785823017E+02  0.16895028856E+03  0.12500000000E+03 0.  0.
         25    1    1    2    0    0 -0.10075449688E+02 -0.78170355464E+02 -0.37947984495E+03  0.40723711997E+03  0.12500000000E+03 0.  0.
         25    1    1    2    0    0  0.16984253431E+02 -0.18864151014E+02 -0.10073637818E+03  0.16253350100E+03  0.12500000000E+03 0.  0.
</event>
<event>
 5    0  0.5749909E-005  0.2635624E+03  0.7546771E-02  0.1105022E+00
         21   -1    0    0  502  501  0.00000000000E+00  0.00000000000E+00  0.68042011025E+03  0.68042011025E+03  0.00000000000E+00 0.  1.
         21   -1    0    0  501  502 -0.00000000000E+00 -0.00000000000E+00 -0.10209155478E+03  0.10209155478E+03  0.00000000000E+00 0.  1.
         25    1    1    2    0    0 -0.10352976716E+03  0.98097207860E+02  0.20482020015E+03  0.27913758125E+03  0.12500000000E+03 0.  0.
         25    1    1    2    0    0  0.13082497534E+03 -0.51547345596E+02  0.14562239181E+03  0.23791423666E+03  0.12500000000E+03 0.  0.
         25    1    1    2    0    0 -0.27295208174E+02 -0.46549862264E+02  0.22788596352E+03  0.26545984712E+03  0.12500000000E+03 0.  0.
</event>
<event>
 5    0  0.5749909E-005  0.5019381E+03  0.7546771E-02  0.1013274E+00
         21   -1    0    0  502  501  0.00000000000E+00  0.00000000000E+00  0.56477262952E+03  0.56477262952E+03  0.00000000000E+00 0.  1.
         21   -1    0    0  501  502 -0.00000000000E+00 -0.00000000000E+00 -0.44609422696E+03  0.44609422696E+03  0.00000000000E+00 0.  1.
         25    1    1    2    0    0  0.28873895470E+03  0.17845776229E+03 -0.18256608490E+03  0.40518234443E+03  0.12500000000E+03 0.  0.
         25    1    1    2    0    0 -0.13806645217E+02  0.59504138458E+02  0.10287674507E+03  0.17303176188E+03  0.12500000000E+03 0.  0.
         25    1    1    2    0    0 -0.27493230949E+03 -0.23796190074E+03  0.19836774239E+03  0.43265275017E+03  0.12500000000E+03 0.  0.
</event>
<event>
 5    0  0.5749909E-005  0.2712162E+03  0.7546771E-02  0.1100586E+00
         21   -1    0    0  502  501  0.00000000000E+00  0.00000000000E+00  0.11839413495E+04  0.11839413495E+04  0.00000000000E+00 0. -1.
         21   -1    0    0  501  502 -0.00000000000E+00 -0.00000000000E+00 -0.62129959337E+02  0.62129959337E+02  0.00000000000E+00 0. -1.
         25    1    1    2    0    0 -0.23529007931E+02  0.67798652197E+02  0.30219026651E+03  0.33480476195E+03  0.12500000000E+03 0.  0.
         25    1    1    2    0    0 -0.32352031963E+02  0.10720733677E+03  0.26360957606E+03  0.31249812099E+03  0.12500000000E+03 0.  0.
         25    1    1    2    0    0  0.55881039894E+02 -0.17500598896E+03  0.55601154757E+03  0.59876842588E+03  0.12500000000E+03 0.  0.
</event>
<event>
 5    0  0.5749909E-005  0.3211591E+03  0.7546771E-02  0.1075117E+00
         21   -1    0    0  502  501  0.00000000000E+00  0.00000000000E+00  0.21549681889E+03  0.21549681889E+03  0.00000000000E+00 0.  1.
         21   -1    0    0  501  502 -0.00000000000E+00 -0.00000000000E+00 -0.47862976982E+03  0.47862976982E+03  0.00000000000E+00 0.  1.
         25    1    1    2    0    0 -0.16381236790E+03  0.92796034560E+02  0.33572223337E+02  0.22846813801E+03  0.12500000000E+03 0.  0.
         25    1    1    2    0    0  0.52474022609E+02  0.15200831220E+02 -0.20527275994E+03  0.24646803909E+03  0.12500000000E+03 0.  0.
         25    1    1    2    0    0  0.11133834529E+03 -0.10799686578E+03 -0.91432414329E+02  0.21919041161E+03  0.12500000000E+03 0.  0.
</event>
<event>
 5    0  0.5749909E-005  0.3370767E+03  0.7546771E-02  0.1068048E+00
         21   -1    0    0  502  501  0.00000000000E+00  0.00000000000E+00  0.12269353802E+04  0.12269353802E+04  0.00000000000E+00 0. -1.
         21   -1    0    0  501  502 -0.00000000000E+00 -0.00000000000E+00 -0.92605260330E+02  0.92605260330E+02  0.00000000000E+00 0. -1.
         25    1    1    2    0    0 -0.20153325811E+03  0.15815273461E+02  0.24580257693E+03  0.34192058116E+03  0.12500000000E+03 0.  0.
         25    1    1    2    0    0  0.22759374220E+03 -0.62381882633E+02  0.65617367607E+03  0.70843440342E+03  0.12500000000E+03 0.  0.
         25    1    1    2    0    0 -0.26060484091E+02  0.46566609172E+02  0.23235386687E+03  0.26918565595E+03  0.12500000000E+03 0.  0.
</event>
<event>
 5    0  0.5749909E-005  0.2886079E+03  0.7546771E-02  0.1091078E+00
         21   -1    0    0  502  501  0.00000000000E+00  0.00000000000E+00  0.85363861811E+02  0.85363861811E+02  0.00000000000E+00 0.  1.
         21   -1    0    0  501  502 -0.00000000000E+00 -0.00000000000E+00 -0.97575840394E+03  0.97575840394E+03  0.00000000000E+00 0.  1.
         25    1    1    2    0    0 -0.63154826149E+02 -0.10299280929E+03 -0.24615060791E+03  0.30134892169E+03  0.12500000000E+03 0.  0.
         25    1    1    2    0    0 -0.47117415725E+02 -0.39205945206E+02 -0.43527435231E+03  0.45699662886E+03  0.12500000000E+03 0.  0.
         25    1    1    2    0    0  0.11027224187E+03  0.14219875449E+03 -0.20896958190E+03  0.30277671520E+03  0.12500000000E+03 0.  0.
</event>
<event>
 5    0  0.5749909E-005  0.2383211E+03  0.7546771E-02  0.1120916E+00
         21   -1    0    0  502  501  0.00000000000E+00  0.00000000000E+00  0.11058039692E+03  0.11058039692E+03  0.00000000000E+00 0. -1.
         21   -1    0    0  501  502 -0.00000000000E+00 -0.00000000000E+00 -0.51362560517E+03  0.51362560517E+03  0.00000000000E+00 0. -1.
         25    1    1    2    0    0 -0.61707649608E+02 -0.27532139718E+02 -0.11147336701E+03  0.18060222671E+03  0.12500000000E+03 0.  0.
         25    1    1    2    0    0  0.43281544812E+02  0.57100178515E+02 -0.23779972475E+02  0.14602811236E+03  0.12500000000E+03 0.  0.
         25    1    1    2    0    0  0.18426104796E+02 -0.29568038797E+02 -0.26779186875E+03  0.29757566303E+03  0.12500000000E+03 0.  0.
</event>
<event>
 5    0  0.8844653E-005  0.4418280E+03  0.7546771E-02  0.1030187E+00
         21   -1    0    0  502  501  0.00000000000E+00  0.00000000000E+00  0.37912314674E+03  0.37912314674E+03  0.00000000000E+00 0. -1.
         21   -1    0    0  501  502 -0.00000000000E+00 -0.00000000000E+00 -0.51490385017E+03  0.51490385017E+03  0.00000000000E+00 0. -1.
         25    1    1    2    0    0  0.20218671118E+03 -0.21128056843E+03 -0.88749116191E+02  0.33018229874E+03  0.12500000000E+03 0.  0.
         25    1    1    2    0    0 -0.10873771212E+03  0.76751870681E+02  0.18059192082E+03  0.25681351513E+03  0.12500000000E+03 0.  0.
         25    1    1    2    0    0 -0.93448999069E+02  0.13452869774E+03 -0.22762350806E+03  0.30703118305E+03  0.12500000000E+03 0.  0.
</event>
<event>
 5    0  0.5749909E-005  0.3104980E+03  0.7546771E-02  0.1080107E+00
         21   -1    0    0  502  501  0.00000000000E+00  0.00000000000E+00  0.33249101320E+03  0.33249101320E+03  0.00000000000E+00 0.  1.
         21   -1    0    0  501  502 -0.00000000000E+00 -0.00000000000E+00 -0.28995979021E+03  0.28995979021E+03  0.00000000000E+00 0.  1.
         25    1    1    2    0    0 -0.20076292757E+02 -0.10226057279E+03  0.12444977205E+03  0.20487319991E+03  0.12500000000E+03 0.  0.
         25    1    1    2    0    0 -0.82402430473E+02 -0.11911964997E+02 -0.14610678865E+03  0.20953340819E+03  0.12500000000E+03 0.  0.
         25    1    1    2    0    0  0.10247872323E+03  0.11417253779E+03  0.64188239594E+02  0.20804419531E+03  0.12500000000E+03 0.  0.
</event>
<event>
 5    0  0.5749909E-005  0.4360757E+03  0.7546771E-02  0.1031958E+00
         21   -1    0    0  502  501  0.00000000000E+00  0.00000000000E+00  0.34351826378E+03  0.34351826378E+03  0.00000000000E+00 0.  1.
         21   -1    0    0  501  502 -0.00000000000E+00 -0.00000000000E+00 -0.55357169621E+03  0.55357169621E+03  0.00000000000E+00 0.  1.
         25    1    1    2    0    0 -0.30501435430E+02  0.33002086327E+02  0.25662081741E+03  0.28896144932E+03  0.12500000000E+03 0.  0.
         25    1    1    2    0    0  0.15006882870E+02  0.21697075697E+02 -0.65184223903E+01  0.12791973834E+03  0.12500000000E+03 0.  0.
         25    1    1    2    0    0  0.15494552560E+02 -0.54699162024E+02 -0.46015582745E+03  0.48020877233E+03  0.12500000000E+03 0.  0.
</event>
<event>
 5    0  0.5749909E-005  0.5373009E+03  0.7546771E-02  0.1004477E+00
         21   -1    0    0  502  501  0.00000000000E+00  0.00000000000E+00  0.96943035615E+03  0.96943035615E+03  0.00000000000E+00 0.  1.
         21   -1    0    0  501  502 -0.00000000000E+00 -0.00000000000E+00 -0.29779581304E+03  0.29779581304E+03  0.00000000000E+00 0.  1.
         25    1    1    2    0    0 -0.45310258676E+02 -0.40213758512E+03  0.20664466109E+03  0.47126921485E+03  0.12500000000E+03 0.  0.
         25    1    1    2    0    0  0.12204527001E+03  0.19878619181E+02  0.31341769780E+03  0.35936869748E+03  0.12500000000E+03 0.  0.
         25    1    1    2    0    0 -0.76735011339E+02  0.38225896594E+03  0.15157218421E+03  0.43658825686E+03  0.12500000000E+03 0.  0.
</event>
<event>
 5    0  0.5749909E-005  0.3718545E+03  0.7546771E-02  0.1053986E+00
         21   -1    0    0  502  501  0.00000000000E+00  0.00000000000E+00  0.76504049317E+03  0.76504049317E+03  0.00000000000E+00 0.  1.
         21   -1    0    0  501  502 -0.00000000000E+00 -0.00000000000E+00 -0.18074305919E+03  0.18074305919E+03  0.00000000000E+00 0.  1.
         25    1    1    2    0    0 -0.61519893815E+02 -0.55271664392E+02 -0.24895578167E+02  0.15193565754E+03  0.12500000000E+03 0.  0.
         25    1    1    2    0    0 -0.11629020282E+03  0.18516940165E+03  0.25461331817E+03  0.35813972185E+03  0.12500000000E+03 0.  0.
         25    1    1    2    0    0  0.17781009663E+03 -0.12989773726E+03  0.35457969398E+03  0.43570817297E+03  0.12500000000E+03 0.  0.
</event>
<event>
 5    0  0.5749909E-005  0.3940183E+03  0.7546771E-02  0.1045871E+00
         21   -1    0    0  502  501  0.00000000000E+00  0.00000000000E+00  0.49517801488E+03  0.49517801488E+03  0.00000000000E+00 0.  1.
         21   -1    0    0  501  502 -0.00000000000E+00 -0.00000000000E+00 -0.31352452717E+03  0.31352452717E+03  0.00000000000E+00 0.  1.
         25    1    1    2    0    0 -0.66895422489E+02  0.28755631455E+02  0.88596855818E+02  0.16963574727E+03  0.12500000000E+03 0.  0.
         25    1    1    2    0    0 -0.20382137285E+03 -0.12052228071E+03  0.17073326766E+03  0.31755884630E+03  0.12500000000E+03 0.  0.
         25    1    1    2    0    0  0.27071679533E+03  0.91766649259E+02 -0.77676635763E+02  0.32150794848E+03  0.12500000000E+03 0.  0.
</event>
<event>
 5    0  0.5749909E-005  0.2584773E+03  0.7546771E-02  0.1108062E+00
         21   -1    0    0  502  501  0.00000000000E+00  0.00000000000E+00  0.26735815860E+03  0.26735815860E+03  0.00000000000E+00 0.  1.
         21   -1    0    0  501  502 -0.00000000000E+00 -0.00000000000E+00 -0.24989138293E+03  0.24989138293E+03  0.00000000000E+00 0.  1.
         25    1    1    2    0    0  0.45594806210E+02  0.15429794181E+03  0.16255287625E+02  0.20439172091E+03  0.12500000000E+03 0.  0.
         25    1    1    2    0    0 -0.24901588904E+02 -0.94607179558E+02 -0.45655283685E+02  0.16516662036E+03  0.12500000000E+03 0.  0.
         25    1    1    2    0    0 -0.20693217306E+02 -0.59690762255E+02  0.46866771736E+02  0.14769120026E+03  0.12500000000E+03 0.  0.
</event>
<event>
 5    0  0.5749909E-005  0.2707491E+03  0.7546771E-02  0.1100852E+00
         21   -1    0    0  502  501  0.00000000000E+00  0.00000000000E+00  0.65200684269E+03  0.65200684269E+03  0.00000000000E+00 0.  1.
         21   -1    0    0  501  502 -0.00000000000E+00 -0.00000000000E+00 -0.11242994349E+03  0.11242994349E+03  0.00000000000E+00 0.  1.
         25    1    1    2    0    0 -0.10678774455E+03  0.22755281747E+02  0.14486630384E+03  0.22030131916E+03  0.12500000000E+03 0.  0.
         25    1    1    2    0    0 -0.30954454738E+02  0.70743240075E+02  0.25209922028E+03  0.29179068037E+03  0.12500000000E+03 0.  0.
         25    1    1    2    0    0  0.13774219928E+03 -0.93498521823E+02  0.14261137508E+03  0.25234478665E+03  0.12500000000E+03 0.  0.
</event>
<event>
 5    0  0.5749909E-005  0.2969231E+03  0.7546771E-02  0.1086789E+00
         21   -1    0    0  502  501  0.00000000000E+00  0.00000000000E+00  0.67338377563E+02  0.67338377563E+02  0.00000000000E+00 0. -1.
         21   -1    0    0  501  502 -0.00000000000E+00 -0.00000000000E+00 -0.13092581772E+04  0.13092581772E+04  0.00000000000E+00 0. -1.
         25    1    1    2    0    0  0.16454116968E+03  0.98584825070E+02 -0.80008912348E+03  0.83220212074E+03  0.12500000000E+03 0.  0.
         25    1    1    2    0    0 -0.97464670529E+02 -0.49468531531E+02 -0.26137611450E+03  0.30965944333E+03  0.12500000000E+03 0.  0.
         25    1    1    2    0    0 -0.67076499148E+02 -0.49116293539E+02 -0.18045456162E+03  0.23473499066E+03  0.12500000000E+03 0.  0.
</event>
<event>
 5    0  0.5749909E-005  0.3278079E+03  0.7546771E-02  0.1072111E+00
         21   -1    0    0  502  501  0.00000000000E+00  0.00000000000E+00  0.25554411571E+04  0.25554411571E+04  0.00000000000E+00 0. -1.
         21   -1    0    0  501  502 -0.00000000000E+00 -0.00000000000E+00 -0.42050679728E+02  0.42050679728E+02  0.00000000000E+00 0. -1.
         25    1    1    2    0    0 -0.18201029061E+03 -0.16271667336E+03  0.97855696139E+03  0.10162692499E+04  0.12500000000E+03 0.  0.
         25    1    1    2    0    0  0.16213849535E+03  0.84882827679E+02  0.10876154000E+04  0.11099667763E+04  0.12500000000E+03 0.  0.
         25    1    1    2    0    0  0.19871795255E+02  0.77833845681E+02  0.44721811592E+03  0.47125581056E+03  0.12500000000E+03 0.  0.
</event>
<event>
 5    0  0.5749909E-005  0.2729126E+03  0.7546771E-02  0.1099624E+00
         21   -1    0    0  502  501  0.00000000000E+00  0.00000000000E+00  0.49460964065E+03  0.49460964065E+03  0.00000000000E+00 0.  1.
         21   -1    0    0  501  502 -0.00000000000E+00 -0.00000000000E+00 -0.15058603727E+03  0.15058603727E+03  0.00000000000E+00 0.  1.
         25    1    1    2    0    0  0.33739170468E+02  0.29441029220E+02  0.26435421272E+03  0.29582639437E+03  0.12500000000E+03 0.  0.
         25    1    1    2    0    0 -0.94975649965E+01  0.15274302606E+01  0.15410724030E+03  0.19866196993E+03  0.12500000000E+03 0.  0.
         25    1    1    2    0    0 -0.24241605471E+02 -0.30968459480E+02 -0.74437849637E+02  0.15070731361E+03  0.12500000000E+03 0.  0.
</event>
<event>
 5    0  0.5749909E-005  0.2505479E+03  0.7546771E-02  0.1112959E+00
         21   -1    0    0  502  501  0.00000000000E+00  0.00000000000E+00  0.85326314169E+03  0.85326314169E+03  0.00000000000E+00 0.  1.
         21   -1    0    0  501  502 -0.00000000000E+00 -0.00000000000E+00 -0.73569621697E+02  0.73569621697E+02  0.00000000000E+00 0.  1.
         25    1    1    2    0    0  0.33956458403E+02  0.78693450305E+02  0.36661885023E+03  0.39671158482E+03  0.12500000000E+03 0.  0.
         25    1    1    2    0    0  0.89092680450E+01 -0.68439325025E+02  0.63515102537E+02  0.15627694813E+03  0.12500000000E+03 0.  0.
         25    1    1    2    0    0 -0.42865726448E+02 -0.10254125280E+02  0.34955956723E+03  0.37384423044E+03  0.12500000000E+03 0.  0.
</event>
<event>
 5    0  0.5749909E-005  0.2653245E+03  0.7546771E-02  0.1103986E+00
         21   -1    0    0  502  501  0.00000000000E+00  0.00000000000E+00  0.21843796275E+04  0.21843796275E+04  0.00000000000E+00 0.  1.
         21   -1    0    0  501  502 -0.00000000000E+00 -0.00000000000E+00 -0.32227509012E+02  0.32227509012E+02  0.00000000000E+00 0.  1.
         25    1    1    2    0    0 -0.14337876603E+02 -0.11336514379E+03  0.11683858625E+04  0.11805963553E+04  0.12500000000E+03 0.  0.
         25    1    1    2    0    0 -0.54793915912E+02 -0.88840552588E+01  0.40468133094E+03  0.42716891188E+03  0.12500000000E+03 0.  0.
         25    1    1    2    0    0  0.69131792515E+02  0.12224919905E+03  0.57908492501E+03  0.60884186927E+03  0.12500000000E+03 0.  0.
</event>
<event>
 5    0  0.5749909E-005  0.2779476E+03  0.7546771E-02  0.1096815E+00
         21   -1    0    0  502  501  0.00000000000E+00  0.00000000000E+00  0.54652465448E+02  0.54652465448E+02  0.00000000000E+00 0. -1.
         21   -1    0    0  501  502 -0.00000000000E+00 -0.00000000000E+00 -0.14135659693E+04  0.14135659693E+04  0.00000000000E+00 0. -1.
         25    1    1    2    0    0  0.49279817942E+02 -0.30845295062E+02 -0.18591160246E+03  0.23144774057E+03  0.12500000000E+03 0.  0.
         25    1    1    2    0    0  0.32219859668E+02  0.13340079076E+03 -0.37431181484E+03  0.41781362479E+03  0.12500000000E+03 0.  0.
         25    1    1    2    0    0 -0.81499677610E+02 -0.10255549570E+03 -0.79869008653E+03  0.81895706937E+03  0.12500000000E+03 0.  0.
</event>
<event>
 5    0  0.5749909E-005  0.2868496E+03  0.7546771E-02  0.1092006E+00
         21   -1    0    0  502  501  0.00000000000E+00  0.00000000000E+00  0.54138085326E+02  0.54138085326E+02  0.00000000000E+00 0.  1.
         21   -1    0    0  501  502 -0.00000000000E+00 -0.00000000000E+00 -0.15198672699E+04  0.15198672699E+04  0.00000000000E+00 0.  1.
         25    1    1    2    0    0  0.12884940621E+03  0.11924001481E+03 -0.76646796210E+03  0.79618998206E+03  0.12500000000E+03 0.  0.
         25    1    1    2    0    0 -0.44486525707E+02 -0.62338231368E+02 -0.16961286154E+03  0.22418436355E+03  0.12500000000E+03 0.  0.
         25    1    1    2    0    0 -0.84362880504E+02 -0.56901783446E+02 -0.52964836095E+03  0.55363100963E+03  0.12500000000E+03 0.  0.
</event>
<event>
 5    0  0.5749909E-005  0.3753179E+03  0.7546771E-02  0.1052678E+00
         21   -1    0    0  502  501  0.00000000000E+00  0.00000000000E+00  0.13399894526E+04  0.13399894526E+04  0.00000000000E+00 0.  1.
         21   -1    0    0  501  502 -0.00000000000E+00 -0.00000000000E+00 -0.10512283786E+03  0.10512283786E+03  0.00000000000E+00 0.  1.
         25    1    1    2    0    0 -0.22510480725E+02 -0.94115015164E+01 -0.26908206108E+02  0.13017046385E+03  0.12500000000E+03 0.  0.
         25    1    1    2    0    0  0.11482678551E+03 -0.78762079468E+02  0.54471977120E+03  0.57596291978E+03  0.12500000000E+03 0.  0.
         25    1    1    2    0    0 -0.92316304789E+02  0.88173580984E+02  0.71705504967E+03  0.73897890686E+03  0.12500000000E+03 0.  0.
</event>
<event>
 5    0  0.5749909E-005  0.3300959E+03  0.7546771E-02  0.1071094E+00
         21   -1    0    0  502  501  0.00000000000E+00  0.00000000000E+00  0.56940588716E+03  0.56940588716E+03  0.00000000000E+00 0. -1.
         21   -1    0    0  501  502 -0.00000000000E+00 -0.00000000000E+00 -0.19136314781E+03  0.19136314781E+03  0.00000000000E+00 0. -1.
         25    1    1    2    0    0  0.98940107804E+02  0.83257692007E+02  0.34042357032E+03  0.38501194195E+03  0.12500000000E+03 0.  0.
         25    1    1    2    0    0  0.59789709322E+02 -0.10846511042E+02  0.74953807924E+02  0.15790987767E+03  0.12500000000E+03 0.  0.
         25    1    1    2    0    0 -0.15872981713E+03 -0.72411180965E+02 -0.37334638899E+02  0.21784721535E+03  0.12500000000E+03 0.  0.
</event>
<event>
 5    0  0.5749909E-005  0.2649843E+03  0.7546771E-02  0.1104185E+00
         21   -1    0    0  502  501  0.00000000000E+00  0.00000000000E+00  0.78794435767E+03  0.78794435767E+03  0.00000000000E+00 0. -1.
         21   -1    0    0  501  502 -0.00000000000E+00 -0.00000000000E+00 -0.89113760928E+02  0.89113760928E+02  0.00000000000E+00 0. -1.
         25    1    1    2    0    0  0.12323921664E+02 -0.88547535659E+02  0.37855806557E+03  0.40856303568E+03  0.12500000000E+03 0.  0.
         25    1    1    2    0    0 -0.75561659711E+02  0.12482305898E+03  0.14215615031E+03  0.23900571446E+03  0.12500000000E+03 0.  0.
         25    1    1    2    0    0  0.63237738047E+02 -0.36275523321E+02  0.17811638086E+03  0.22948936846E+03  0.12500000000E+03 0.  0.
</event>
<event>
 5    0  0.5749909E-005  0.3526789E+03  0.7546771E-02  0.1061521E+00
         21   -1    0    0  502  501  0.00000000000E+00  0.00000000000E+00  0.26752826630E+03  0.26752826630E+03  0.00000000000E+00 0.  1.
         21   -1    0    0  501  502 -0.00000000000E+00 -0.00000000000E+00 -0.46493174550E+03  0.46493174550E+03  0.00000000000E+00 0.  1.
         25    1    1    2    0    0 -0.51461758567E+02  0.10572670732E+03  0.58658472895E+01  0.17171446474E+03  0.12500000000E+03 0.  0.
         25    1    1    2    0    0 -0.93488580818E+02 -0.14818402030E+03  0.68294825272E+02  0.22580478687E+03  0.12500000000E+03 0.  0.
         25    1    1    2    0    0  0.14495033939E+03  0.42457312972E+02 -0.27156415177E+03  0.33494076019E+03  0.12500000000E+03 0.  0.
</event>
<event>
 5    0  0.5749909E-005  0.3659346E+03  0.7546771E-02  0.1056258E+00
         21   -1    0    0  502  501  0.00000000000E+00  0.00000000000E+00  0.72083983364E+03  0.72083983364E+03  0.00000000000E+00 0.  1.
         21   -1    0    0  501  502 -0.00000000000E+00 -0.00000000000E+00 -0.18576688072E+03  0.18576688072E+03  0.00000000000E+00 0.  1.
         25    1    1    2    0    0  0.12010198681E+02  0.87725308465E+02  0.21374284236E+02  0.15466685050E+03  0.12500000000E+03 0.  0.
         25    1    1    2    0    0 -0.12368809987E+03 -0.13137349644E+03  0.53418050496E+03  0.57752190737E+03  0.12500000000E+03 0.  0.
         25    1    1    2    0    0  0.11167790118E+03  0.43648187974E+02 -0.20481836273E+02  0.17441795648E+03  0.12500000000E+03 0.  0.
</event>
<event>
 5    0  0.5749909E-005  0.4344787E+03  0.7546771E-02  0.1032454E+00
         21   -1    0    0  502  501  0.00000000000E+00  0.00000000000E+00  0.21391792663E+03  0.21391792663E+03  0.00000000000E+00 0. -1.
         21   -1    0    0  501  502 -0.00000000000E+00 -0.00000000000E+00 -0.88244944058E+03  0.88244944058E+03  0.00000000000E+00 0. -1.
         25    1    1    2    0    0 -0.10999386791E+03 -0.17460735366E+03 -0.31180944080E+03  0.39425436751E+03  0.12500000000E+03 0.  0.
         25    1    1    2    0    0 -0.46317563240E+02 -0.15245678933E+03 -0.43825300220E+02  0.20720532382E+03  0.12500000000E+03 0.  0.
         25    1    1    2    0    0  0.15631143115E+03  0.32706414299E+03 -0.31289677293E+03  0.49490767588E+03  0.12500000000E+03 0.  0.
</event>
<event>
 5    0  0.5749909E-005  0.3208066E+03  0.7546771E-02  0.1075279E+00
         21   -1    0    0  502  501  0.00000000000E+00  0.00000000000E+00  0.88267660685E+03  0.88267660685E+03  0.00000000000E+00 0.  1.
         21   -1    0    0  501  502 -0.00000000000E+00 -0.00000000000E+00 -0.11659636005E+03  0.11659636005E+03  0.00000000000E+00 0.  1.
         25    1    1    2    0    0  0.84492756062E+01 -0.18166044971E+03  0.50829862940E+03  0.55413392415E+03  0.12500000000E+03 0.  0.
         25    1    1    2    0    0 -0.67426154092E+01 -0.33478373779E+01  0.35698490555E+02  0.13021541040E+03  0.12500000000E+03 0.  0.
         25    1    1    2    0    0 -0.17066601970E+01  0.18500828709E+03  0.22208312685E+03  0.31492363235E+03  0.12500000000E+03 0.  0.
</event>
<event>
 5    0  0.5749909E-005  0.3434384E+03  0.7546771E-02  0.1065341E+00
         21   -1    0    0  502  501  0.00000000000E+00  0.00000000000E+00  0.52420914668E+02  0.52420914668E+02  0.00000000000E+00 0. -1.
         21   -1    0    0  501  502 -0.00000000000E+00 -0.00000000000E+00 -0.22500542905E+04  0.22500542905E+04  0.00000000000E+00 0. -1.
         25    1    1    2    0    0  0.94061714048E+02  0.49569361202E+02 -0.46267350595E+03  0.49091394432E+03  0.12500000000E+03 0.  0.
         25    1    1    2    0    0 -0.11835590392E+03  0.16575950803E+03 -0.53721572141E+03  0.58797114370E+03  0.12500000000E+03 0.  0.
         25    1    1    2    0    0  0.24294189867E+02 -0.21532886923E+03 -0.11977441485E+04  0.12235901172E+04  0.12500000000E+03 0.  0.
</event>
<event>
 5    0  0.5749909E-005  0.3738727E+03  0.7546771E-02  0.1053222E+00
         21   -1    0    0  502  501  0.00000000000E+00  0.00000000000E+00  0.52874736147E+03  0.52874736147E+03  0.00000000000E+00 0. -1.
         21   -1    0    0  501  502 -0.00000000000E+00 -0.00000000000E+00 -0.26436212016E+03  0.26436212016E+03  0.00000000000E+00 0. -1.
         25    1    1    2    0    0 -0.26490208634E+03  0.96459953040E+02  0.15627246618E+02  0.30878285044E+03  0.12500000000E+03 0.  0.
         25    1    1    2    0    0  0.20348365822E+03 -0.68345026383E+02  0.23437673317E+03  0.34151734194E+03  0.12500000000E+03 0.  0.
         25    1    1    2    0    0  0.61418428116E+02 -0.28114926657E+02  0.14381261521E+02  0.14280928925E+03  0.12500000000E+03 0.  0.
</event>
<event>
 5    0  0.5749909E-005  0.2723694E+03  0.7546771E-02  0.1099931E+00
         21   -1    0    0  502  501  0.00000000000E+00  0.00000000000E+00  0.23709407260E+02  0.23709407260E+02  0.00000000000E+00 0. -1.
         21   -1    0    0  501  502 -0.00000000000E+00 -0.00000000000E+00 -0.31289297864E+04  0.31289297864E+04  0.00000000000E+00 0. -1.
         25    1    1    2    0    0  0.32780047177E+02 -0.31757208691E+02 -0.40948894098E+03  0.43056851323E+03  0.12500000000E+03 0.  0.
         25    1    1    2    0    0 -0.42868011039E+01  0.89495020443E+02 -0.53223045790E+03  0.55400541122E+03  0.12500000000E+03 0.  0.
         25    1    1    2    0    0 -0.28493246073E+02 -0.57737811752E+02 -0.21635009803E+04  0.21680652693E+04  0.12500000000E+03 0.  0.
</event>
<event>
 5    0  0.5749909E-005  0.2717431E+03  0.7546771E-02  0.1100286E+00
         21   -1    0    0  502  501  0.00000000000E+00  0.00000000000E+00  0.35931999709E+03  0.35931999709E+03  0.00000000000E+00 0. -1.
         21   -1    0    0  501  502 -0.00000000000E+00 -0.00000000000E+00 -0.20551131598E+03  0.20551131598E+03  0.00000000000E+00 0. -1.
         25    1    1    2    0    0  0.20719082667E+00 -0.69328250248E+02 -0.98385530911E+02  0.17352568082E+03  0.12500000000E+03 0.  0.
         25    1    1    2    0    0  0.18390621308E+02  0.10878517817E+03  0.13612697704E+03  0.21523936401E+03  0.12500000000E+03 0.  0.
         25    1    1    2    0    0 -0.18597812134E+02 -0.39456927923E+02  0.11606723498E+03  0.17606626824E+03  0.12500000000E+03 0.  0.
</event>
<event>
 5    0  0.5749909E-005  0.2885766E+03  0.7546771E-02  0.1091095E+00
         21   -1    0    0  502  501  0.00000000000E+00  0.00000000000E+00  0.39582761440E+03  0.39582761440E+03  0.00000000000E+00 0.  1.
         21   -1    0    0  501  502 -0.00000000000E+00 -0.00000000000E+00 -0.21038564774E+03  0.21038564774E+03  0.00000000000E+00 0.  1.
         25    1    1    2    0    0 -0.26431973949E+02  0.51511227505E+02  0.10104217380E+03  0.17084079341E+03  0.12500000000E+03 0.  0.
         25    1    1    2    0    0  0.14695202858E+03  0.52459610863E+02  0.11506452614E+03  0.23067673192E+03  0.12500000000E+03 0.  0.
         25    1    1    2    0    0 -0.12052005463E+03 -0.10397083837E+03 -0.30664733279E+02  0.20469573680E+03  0.12500000000E+03 0.  0.
</event>
<event>
 5    0  0.5749909E-005  0.2651988E+03  0.7546771E-02  0.1104059E+00
         21   -1    0    0  502  501  0.00000000000E+00  0.00000000000E+00  0.13550765360E+04  0.13550765360E+04  0.00000000000E+00 0.  1.
         21   -1    0    0  501  502 -0.00000000000E+00 -0.00000000000E+00 -0.51901421714E+02  0.51901421714E+02  0.00000000000E+00 0.  1.
         25    1    1    2    0    0  0.82781733594E+02  0.79712161399E+02  0.89481383358E+03  0.91078188435E+03  0.12500000000E+03 0.  0.
         25    1    1    2    0    0 -0.30619381390E+02 -0.36787312344E+02  0.14771654975E+03  0.19933898750E+03  0.12500000000E+03 0.  0.
         25    1    1    2    0    0 -0.52162352204E+02 -0.42924849055E+02  0.26064473094E+03  0.29685708586E+03  0.12500000000E+03 0.  0.
</event>
<event>
 5    0  0.5749909E-005  0.3162272E+03  0.7546771E-02  0.1077399E+00
         21   -1    0    0  502  501  0.00000000000E+00  0.00000000000E+00  0.14275121010E+04  0.14275121010E+04  0.00000000000E+00 0.  1.
         21   -1    0    0  501  502 -0.00000000000E+00 -0.00000000000E+00 -0.70051684774E+02  0.70051684774E+02  0.00000000000E+00 0.  1.
         25    1    1    2    0    0 -0.34638062507E+02  0.64791219309E+02  0.49315996084E+02  0.15314948561E+03  0.12500000000E+03 0.  0.
         25    1    1    2    0    0 -0.40420896916E+01  0.38279697625E+02  0.39180831918E+03  0.41306226252E+03  0.12500000000E+03 0.  0.
         25    1    1    2    0    0  0.38680152198E+02 -0.10307091693E+03  0.91633610092E+03  0.93135203760E+03  0.12500000000E+03 0.  0.
</event>
<event>
 5    0  0.5749909E-005  0.2633250E+03  0.7546771E-02  0.1105162E+00
         21   -1    0    0  502  501  0.00000000000E+00  0.00000000000E+00  0.22248022062E+03  0.22248022062E+03  0.00000000000E+00 0. -1.
         21   -1    0    0  501  502 -0.00000000000E+00 -0.00000000000E+00 -0.31166846741E+03  0.31166846741E+03  0.00000000000E+00 0. -1.
         25    1    1    2    0    0 -0.44538694916E+02  0.92221201895E+02  0.70078180029E+02  0.17613743708E+03  0.12500000000E+03 0.  0.
         25    1    1    2    0    0 -0.46878639975E+02  0.23582548101E-01 -0.31783056600E+02  0.13723254034E+03  0.12500000000E+03 0.  0.
         25    1    1    2    0    0  0.91417334892E+02 -0.92244784443E+02 -0.12748337022E+03  0.22077871061E+03  0.12500000000E+03 0.  0.
</event>
<event>
 5    0  0.5749909E-005  0.2978595E+03  0.7546771E-02  0.1086316E+00
         21   -1    0    0  502  501  0.00000000000E+00  0.00000000000E+00  0.13318329412E+04  0.13318329412E+04  0.00000000000E+00 0.  1.
         21   -1    0    0  501  502 -0.00000000000E+00 -0.00000000000E+00 -0.66615162700E+02  0.66615162700E+02  0.00000000000E+00 0.  1.
         25    1    1    2    0    0  0.17108581836E+02 -0.49497495533E+01  0.19217687478E+03  0.22994380790E+03  0.12500000000E+03 0.  0.
         25    1    1    2    0    0  0.13821849459E+03  0.10854816618E+03  0.34764590970E+03  0.40910846381E+03  0.12500000000E+03 0.  0.
         25    1    1    2    0    0 -0.15532707643E+03 -0.10359841663E+03  0.72539499404E+03  0.75939583221E+03  0.12500000000E+03 0.  0.
</event>
<event>
 5    0  0.5749909E-005  0.5318674E+03  0.7546771E-02  0.1005780E+00
         21   -1    0    0  502  501  0.00000000000E+00  0.00000000000E+00  0.38126279771E+03  0.38126279771E+03  0.00000000000E+00 0.  1.
         21   -1    0    0  501  502 -0.00000000000E+00 -0.00000000000E+00 -0.74196311088E+03  0.74196311088E+03  0.00000000000E+00 0.  1.
         25    1    1    2    0    0  0.11114504047E+02  0.26366473359E+01  0.89852936567E+02  0.15436655829E+03  0.12500000000E+03 0.  0.
         25    1    1    2    0    0 -0.84998836527E+02 -0.38961968284E+03 -0.34588521042E+03  0.54248491062E+03  0.12500000000E+03 0.  0.
         25    1    1    2    0    0  0.73884332480E+02  0.38698303550E+03 -0.10466803932E+03  0.42637443967E+03  0.12500000000E+03 0.  0.
</event>
<event>
 5    0  0.5749909E-005  0.2943815E+03  0.7546771E-02  0.1088083E+00
         21   -1    0    0  502  501  0.00000000000E+00  0.00000000000E+00  0.48080052479E+03  0.48080052479E+03  0.00000000000E+00 0. -1.
         21   -1    0    0  501  502 -0.00000000000E+00 -0.00000000000E+00 -0.18024207989E+03  0.18024207989E+03  0.00000000000E+00 0. -1.
         25    1    1    2    0    0 -0.21883943940E+02 -0.69122448171E+02  0.36781045926E+02  0.14911292762E+03  0.12500000000E+03 0.  0.
         25    1    1    2    0    0 -0.88091908081E+02 -0.11236024605E+03  0.14308873156E+03  0.23766445730E+03  0.12500000000E+03 0.  0.
         25    1    1    2    0    0  0.10997585202E+03  0.18148269422E+03  0.12068866741E+03  0.27426521976E+03  0.12500000000E+03 0.  0.
</event>
<event>
 5    0  0.5749909E-005  0.5499380E+03  0.7546771E-02  0.1001508E+00
         21   -1    0    0  502  501  0.00000000000E+00  0.00000000000E+00  0.59783475483E+03  0.59783475483E+03  0.00000000000E+00 0. -1.
         21   -1    0    0  501  502 -0.00000000000E+00 -0.00000000000E+00 -0.50587862140E+03  0.50587862140E+03  0.00000000000E+00 0. -1.
         25    1    1    2    0    0  0.40459551306E+01 -0.36163533018E+03  0.39233737631E+03  0.54804205919E+03  0.12500000000E+03 0.  0.
         25    1    1    2    0    0 -0.70780446486E+02  0.21725838280E+03 -0.12954475184E+03  0.29089159360E+03  0.12500000000E+03 0.  0.
         25    1    1    2    0    0  0.66734491356E+02  0.14437694739E+03 -0.17083649104E+03  0.26477972344E+03  0.12500000000E+03 0.  0.
</event>
<event>
 5    0  0.5749909E-005  0.4338017E+03  0.7546771E-02  0.1032666E+00
         21   -1    0    0  502  501  0.00000000000E+00  0.00000000000E+00  0.11277004263E+04  0.11277004263E+04  0.00000000000E+00 0.  1.
         21   -1    0    0  501  502 -0.00000000000E+00 -0.00000000000E+00 -0.16687404734E+03  0.16687404734E+03  0.00000000000E+00 0.  1.
         25    1    1    2    0    0 -0.24473359052E+03  0.60842185157E+02  0.43252347657E+03  0.51604056004E+03  0.12500000000E+03 0.  0.
         25    1    1    2    0    0  0.36566917403E+03 -0.55937194124E+02  0.30515156909E+03  0.49556573191E+03  0.12500000000E+03 0.  0.
         25    1    1    2    0    0 -0.12093558351E+03 -0.49049910325E+01  0.22315133326E+03  0.28296818166E+03  0.12500000000E+03 0.  0.
</event>
<event>
 5    0  0.5749909E-005  0.3774318E+03  0.7546771E-02  0.1051887E+00
         21   -1    0    0  502  501  0.00000000000E+00  0.00000000000E+00  0.40414005886E+03  0.40414005886E+03  0.00000000000E+00 0.  1.
         21   -1    0    0  501  502 -0.00000000000E+00 -0.00000000000E+00 -0.35248861563E+03  0.35248861563E+03  0.00000000000E+00 0.  1.
         25    1    1    2    0    0 -0.11399233135E+03  0.24947736829E+03  0.49042265348E+02  0.30539049213E+03  0.12500000000E+03 0.  0.
         25    1    1    2    0    0 -0.42680835518E+02 -0.43141269910E+01 -0.20476555389E+02  0.13373314747E+03  0.12500000000E+03 0.  0.
         25    1    1    2    0    0  0.15667316687E+03 -0.24516324130E+03  0.23085733269E+02  0.31750503489E+03  0.12500000000E+03 0.  0.
</event>
<event>
 5    0  0.5749909E-005  0.3197908E+03  0.7546771E-02  0.1075746E+00
         21   -1    0    0  502  501  0.00000000000E+00  0.00000000000E+00  0.17163992822E+03  0.17163992822E+03  0.00000000000E+00 0. -1.
         21   -1    0    0  501  502 -0.00000000000E+00 -0.00000000000E+00 -0.59581803895E+03  0.59581803895E+03  0.00000000000E+00 0. -1.
         25    1    1    2    0    0  0.30422553489E+02 -0.42478920857E+02 -0.86109194027E+02  0.16052969748E+03  0.12500000000E+03 0.  0.
         25    1    1    2    0    0 -0.13004474235E+03 -0.54812195230E+02 -0.37172914487E+03  0.41680159417E+03  0.12500000000E+03 0.  0.
         25    1    1    2    0    0  0.99622188860E+02  0.97291116086E+02  0.33660228161E+02  0.19012667552E+03  0.12500000000E+03 0.  0.
</event>
<event>
 5    0  0.6804471E-005  0.3041118E+03  0.7546771E-02  0.1083203E+00
         21   -1    0    0  502  501  0.00000000000E+00  0.00000000000E+00  0.19545603149E+03  0.19545603149E+03  0.00000000000E+00 0.  1.
         21   -1    0    0  501  502 -0.00000000000E+00 -0.00000000000E+00 -0.47317034320E+03  0.47317034320E+03  0.00000000000E+00 0.  1.
         25    1    1    2    0    0 -0.10801544256E+03  0.13783423981E+03 -0.21432342538E+03  0.30368593014E+03  0.12500000000E+03 0.  0.
         25    1    1    2    0    0  0.11603957253E+03 -0.41601879776E+02 -0.10104151178E+03  0.20255933920E+03  0.12500000000E+03 0.  0.
         25    1    1    2    0    0 -0.80241299662E+01 -0.96232360038E+02  0.37650625441E+02  0.16238110535E+03  0.12500000000E+03 0.  0.
</event>
<event>
 5    0  0.5749909E-005  0.3664555E+03  0.7546771E-02  0.1056057E+00
         21   -1    0    0  502  501  0.00000000000E+00  0.00000000000E+00  0.44440625854E+03  0.44440625854E+03  0.00000000000E+00 0.  1.
         21   -1    0    0  501  502 -0.00000000000E+00 -0.00000000000E+00 -0.30217766608E+03  0.30217766608E+03  0.00000000000E+00 0.  1.
         25    1    1    2    0    0 -0.14415586271E+03  0.10154381888E+03 -0.64162155837E+02  0.22546361602E+03  0.12500000000E+03 0.  0.
         25    1    1    2    0    0  0.14025906561E+02  0.52542120997E+02  0.24533867037E+03  0.28066610717E+03  0.12500000000E+03 0.  0.
         25    1    1    2    0    0  0.13012995614E+03 -0.15408593988E+03 -0.38947922070E+02  0.24045420144E+03  0.12500000000E+03 0.  0.
</event>
<event>
 5    0  0.5749909E-005  0.2353201E+03  0.7546771E-02  0.1122950E+00
         21   -1    0    0  502  501  0.00000000000E+00  0.00000000000E+00  0.30836660588E+02  0.30836660588E+02  0.00000000000E+00 0. -1.
         21   -1    0    0  501  502 -0.00000000000E+00 -0.00000000000E+00 -0.17957703456E+04  0.17957703456E+04  0.00000000000E+00 0. -1.
         25    1    1    2    0    0 -0.62407834151E+02 -0.38862300706E+02 -0.10836288999E+04  0.10932893528E+04  0.12500000000E+03 0.  0.
         25    1    1    2    0    0  0.58491859868E+02  0.38479990889E+02 -0.30974853234E+03  0.34127871404E+03  0.12500000000E+03 0.  0.
         25    1    1    2    0    0  0.39159742831E+01  0.38230981711E+00 -0.37155625277E+03  0.39203893938E+03  0.12500000000E+03 0.  0.
</event>
<event>
 5    0  0.5749909E-005  0.6072825E+03  0.7546771E-02  0.9890411E-01
         21   -1    0    0  502  501  0.00000000000E+00  0.00000000000E+00  0.92478219813E+03  0.92478219813E+03  0.00000000000E+00 0. -1.
         21   -1    0    0  501  502 -0.00000000000E+00 -0.00000000000E+00 -0.39878801887E+03  0.39878801887E+03  0.00000000000E+00 0. -1.
         25    1    1    2    0    0 -0.61835155240E+02 -0.12362683711E+03  0.75413383716E+03  0.77682045907E+03  0.12500000000E+03 0.  0.
         25    1    1    2    0    0 -0.11686797807E+03  0.17662624795E+03 -0.30704504853E+02  0.24783607966E+03  0.12500000000E+03 0.  0.
         25    1    1    2    0    0  0.17870313331E+03 -0.52999410832E+02 -0.19743515305E+03  0.29891367828E+03  0.12500000000E+03 0.  0.
</event>
<event>
 5    0  0.5749909E-005  0.2831338E+03  0.7546771E-02  0.1093990E+00
         21   -1    0    0  502  501  0.00000000000E+00  0.00000000000E+00  0.48792615077E+02  0.48792615077E+02  0.00000000000E+00 0. -1.
         21   -1    0    0  501  502 -0.00000000000E+00 -0.00000000000E+00 -0.16429688900E+04  0.16429688900E+04  0.00000000000E+00 0. -1.
         25    1    1    2    0    0  0.90030702530E+02 -0.14618154773E+03 -0.83197689597E+03  0.85865308928E+03  0.12500000000E+03 0.  0.
         25    1    1    2    0    0  0.26173416409E+02  0.89774898868E+02 -0.37649486219E+03  0.40757571254E+03  0.12500000000E+03 0.  0.
         25    1    1    2    0    0 -0.11620411894E+03  0.56406648862E+02 -0.38570451672E+03  0.42553270323E+03  0.12500000000E+03 0.  0.
</event>
<event>
 5    0  0.6209769E-005  0.2754841E+03  0.7546771E-02  0.1098181E+00
         21   -1    0    0  502  501  0.00000000000E+00  0.00000000000E+00  0.62345725416E+02  0.62345725416E+02  0.00000000000E+00 0. -1.
         21   -1    0    0  501  502 -0.00000000000E+00 -0.00000000000E+00 -0.12172682512E+04  0.12172682512E+04  0.00000000000E+00 0. -1.
         25    1    1    2    0    0  0.72252002186E+02 -0.16467607773E+02 -0.54248829294E+03  0.56161381919E+03  0.12500000000E+03 0.  0.
         25    1    1    2    0    0 -0.45004975635E+02  0.43377609526E+02 -0.63132290494E+02  0.15335498343E+03  0.12500000000E+03 0.  0.
         25    1    1    2    0    0 -0.27247026551E+02 -0.26910001753E+02 -0.54930194237E+03  0.56464517402E+03  0.12500000000E+03 0.  0.
</event>
<event>
 5    0  0.5749909E-005  0.3336531E+03  0.7546771E-02  0.1069532E+00
         21   -1    0    0  502  501  0.00000000000E+00  0.00000000000E+00  0.96221955786E+02  0.96221955786E+02  0.00000000000E+00 0.  1.
         21   -1    0    0  501  502 -0.00000000000E+00 -0.00000000000E+00 -0.11569542117E+04  0.11569542117E+04  0.00000000000E+00 0.  1.
         25    1    1    2    0    0 -0.13681317810E+03 -0.15595297078E+03 -0.32917039550E+03  0.40867753066E+03  0.12500000000E+03 0.  0.
         25    1    1    2    0    0  0.74461425438E+02  0.11030039650E+03 -0.12718747990E+03  0.22251367686E+03  0.12500000000E+03 0.  0.
         25    1    1    2    0    0  0.62351752663E+02  0.45652574279E+02 -0.60437438048E+03  0.62198495993E+03  0.12500000000E+03 0.  0.
</event>
<event>
 5    0  0.5749909E-005  0.2730312E+03  0.7546771E-02  0.1099557E+00
         21   -1    0    0  502  501  0.00000000000E+00  0.00000000000E+00  0.64806989145E+02  0.64806989145E+02  0.00000000000E+00 0.  1.
         21   -1    0    0  501  502 -0.00000000000E+00 -0.00000000000E+00 -0.11502775343E+04  0.11502775343E+04  0.00000000000E+00 0.  1.
         25    1    1    2    0    0  0.40600264522E+02  0.10407002417E+03 -0.25243520238E+03  0.30303049815E+03  0.12500000000E+03 0.  0.
         25    1    1    2    0    0  0.23758102318E+02  0.66832078463E+02 -0.24906557938E+03  0.28755805843E+03  0.12500000000E+03 0.  0.
         25    1    1    2    0    0 -0.64358366840E+02 -0.17090210263E+03 -0.58396976342E+03  0.62449596688E+03  0.12500000000E+03 0.  0.
</event>
<event>
 5    0  0.5749909E-005  0.2602826E+03  0.7546771E-02  0.1106974E+00
         21   -1    0    0  502  501  0.00000000000E+00  0.00000000000E+00  0.32850616368E+02  0.32850616368E+02  0.00000000000E+00 0. -1.
         21   -1    0    0  501  502 -0.00000000000E+00 -0.00000000000E+00 -0.20622761162E+04  0.20622761162E+04  0.00000000000E+00 0. -1.
         25    1    1    2    0    0 -0.89800832302E+02 -0.34323589502E+02 -0.97042429177E+03  0.98315339817E+03  0.12500000000E+03 0.  0.
         25    1    1    2    0    0  0.12900617510E+03  0.61130642419E+02 -0.44828645441E+03  0.48679081120E+03  0.12500000000E+03 0.  0.
         25    1    1    2    0    0 -0.39205342794E+02 -0.26807052917E+02 -0.61071475364E+03  0.62518252319E+03  0.12500000000E+03 0.  0.
</event>
<event>
 5    0  0.5749909E-005  0.4634864E+03  0.7546771E-02  0.1023775E+00
         21   -1    0    0  502  501  0.00000000000E+00  0.00000000000E+00  0.10907673894E+04  0.10907673894E+04  0.00000000000E+00 0. -1.
         21   -1    0    0  501  502 -0.00000000000E+00 -0.00000000000E+00 -0.19694355146E+03  0.19694355146E+03  0.00000000000E+00 0. -1.
         25    1    1    2    0    0 -0.24903097484E+02 -0.12469554321E+03  0.61760712903E+02  0.18870222155E+03  0.12500000000E+03 0.  0.
         25    1    1    2    0    0  0.24739894424E+03 -0.17201073956E+03  0.39648311257E+03  0.51343723150E+03  0.12500000000E+03 0.  0.
         25    1    1    2    0    0 -0.22249584676E+03  0.29670628277E+03  0.43558001245E+03  0.58557148779E+03  0.12500000000E+03 0.  0.
</event>
<event>
 5    0  0.5749909E-005  0.2416741E+03  0.7546771E-02  0.1118683E+00
         21   -1    0    0  502  501  0.00000000000E+00  0.00000000000E+00  0.10680665619E+03  0.10680665619E+03  0.00000000000E+00 0.  1.
         21   -1    0    0  501  502 -0.00000000000E+00 -0.00000000000E+00 -0.54684197224E+03  0.54684197224E+03  0.00000000000E+00 0.  1.
         25    1    1    2    0    0 -0.90957482808E+02  0.33885202945E+02 -0.85549253748E+02  0.17990315582E+03  0.12500000000E+03 0.  0.
         25    1    1    2    0    0  0.63431264349E+02 -0.11072935400E+02 -0.30276595800E+03  0.33382384654E+03  0.12500000000E+03 0.  0.
         25    1    1    2    0    0  0.27526218459E+02 -0.22812267545E+02 -0.51720104297E+02  0.13992162607E+03  0.12500000000E+03 0.  0.
</event>
<event>
 5    0  0.5749909E-005  0.3195190E+03  0.7546771E-02  0.1075871E+00
         21   -1    0    0  502  501  0.00000000000E+00  0.00000000000E+00  0.79365941961E+03  0.79365941961E+03  0.00000000000E+00 0. -1.
         21   -1    0    0  501  502 -0.00000000000E+00 -0.00000000000E+00 -0.12863502870E+03  0.12863502870E+03  0.00000000000E+00 0. -1.
         25    1    1    2    0    0 -0.46703772684E+02  0.75046714559E+02  0.54362221499E+03  0.56476841659E+03  0.12500000000E+03 0.  0.
         25    1    1    2    0    0 -0.44812734723E+02  0.34433618967E+02  0.92944262284E+02  0.16570302109E+03  0.12500000000E+03 0.  0.
         25    1    1    2    0    0  0.91516507407E+02 -0.10948033353E+03  0.28457913641E+02  0.19182301063E+03  0.12500000000E+03 0.  0.
</event>
<event>
 5    0  0.5749909E-005  0.3142740E+03  0.7546771E-02  0.1078315E+00
         21   -1    0    0  502  501  0.00000000000E+00  0.00000000000E+00  0.23212765134E+03  0.23212765134E+03  0.00000000000E+00 0.  1.
         21   -1    0    0  501  502 -0.00000000000E+00 -0.00000000000E+00 -0.42549062059E+03  0.42549062059E+03  0.00000000000E+00 0.  1.
         25    1    1    2    0    0  0.80957521841E+02  0.88727032420E+02  0.37015633546E+02  0.17726185081E+03  0.12500000000E+03 0.  0.
         25    1    1    2    0    0 -0.92163634740E+02 -0.19927766933E+03 -0.11789432835E+03  0.27880064153E+03  0.12500000000E+03 0.  0.
         25    1    1    2    0    0  0.11206112898E+02  0.11055063691E+03 -0.11248427445E+03  0.20155577959E+03  0.12500000000E+03 0.  0.
</event>
<event>
 5    0  0.5749909E-005  0.3727848E+03  0.7546771E-02  0.1053633E+00
         21   -1    0    0  502  501  0.00000000000E+00  0.00000000000E+00  0.14772462613E+04  0.14772462613E+04  0.00000000000E+00 0. -1.
         21   -1    0    0  501  502 -0.00000000000E+00 -0.00000000000E+00 -0.94072669947E+02  0.94072669947E+02  0.00000000000E+00 0. -1.
         25    1    1    2    0    0 -0.70702466114E+01  0.18056458578E+03  0.55746447689E+03  0.59920380591E+03  0.12500000000E+03 0.  0.
         25    1    1    2    0    0  0.12512477119E+03 -0.17886882940E+02  0.65911909690E+03  0.68267058883E+03  0.12500000000E+03 0.  0.
         25    1    1    2    0    0 -0.11805452458E+03 -0.16267770284E+03  0.16659001760E+03  0.28944453655E+03  0.12500000000E+03 0.  0.
</event>
<event>
 5    0  0.5749909E-005  0.2843528E+03  0.7546771E-02  0.1093335E+00
         21   -1    0    0  502  501  0.00000000000E+00  0.00000000000E+00  0.20529413495E+03  0.20529413495E+03  0.00000000000E+00 0. -1.
         21   -1    0    0  501  502 -0.00000000000E+00 -0.00000000000E+00 -0.39385690915E+03  0.39385690915E+03  0.00000000000E+00 0. -1.
         25    1    1    2    0    0 -0.41191545744E+02  0.11532243501E+02 -0.40125421022E+02  0.13807528922E+03  0.12500000000E+03 0.  0.
         25    1    1    2    0    0 -0.71525970880E+02 -0.67025386658E+02 -0.21880714322E+03  0.27038848513E+03  0.12500000000E+03 0.  0.
         25    1    1    2    0    0  0.11271751662E+03  0.55493143157E+02  0.70369790052E+02  0.19068726975E+03  0.12500000000E+03 0.  0.
</event>
<event>
 5    0  0.5749909E-005  0.2550434E+03  0.7546771E-02  0.1110158E+00
         21   -1    0    0  502  501  0.00000000000E+00  0.00000000000E+00  0.25398992738E+03  0.25398992738E+03  0.00000000000E+00 0.  1.
         21   -1    0    0  501  502 -0.00000000000E+00 -0.00000000000E+00 -0.25610119697E+03  0.25610119697E+03  0.00000000000E+00 0.  1.
         25    1    1    2    0    0 -0.42698923654E+02 -0.21558540553E+02  0.27686716131E+02  0.13667305148E+03  0.12500000000E+03 0.  0.
         25    1    1    2    0    0  0.12158133279E+02  0.14126655254E+03  0.21741752076E+02  0.19026760853E+03  0.12500000000E+03 0.  0.
         25    1    1    2    0    0  0.30540790375E+02 -0.11970801199E+03 -0.51539737795E+02  0.18315046433E+03  0.12500000000E+03 0.  0.
</event>
<event>
 5    0  0.5749909E-005  0.2716255E+03  0.7546771E-02  0.1100353E+00
         21   -1    0    0  502  501  0.00000000000E+00  0.00000000000E+00  0.12999386875E+03  0.12999386875E+03  0.00000000000E+00 0. -1.
         21   -1    0    0  501  502 -0.00000000000E+00 -0.00000000000E+00 -0.56756844664E+03  0.56756844664E+03  0.00000000000E+00 0. -1.
         25    1    1    2    0    0 -0.63117861841E+02 -0.22898100966E+02 -0.29473149377E+03  0.32710830153E+03  0.12500000000E+03 0.  0.
         25    1    1    2    0    0 -0.12149197324E+02  0.10710113041E+03 -0.30188380438E+02  0.16779330572E+03  0.12500000000E+03 0.  0.
         25    1    1    2    0    0  0.75267059166E+02 -0.84203029446E+02 -0.11265470368E+03  0.20266070814E+03  0.12500000000E+03 0.  0.
</event>
<event>
 5    0  0.5749909E-005  0.2654143E+03  0.7546771E-02  0.1103933E+00
         21   -1    0    0  502  501  0.00000000000E+00  0.00000000000E+00  0.43736561117E+03  0.43736561117E+03  0.00000000000E+00 0. -1.
         21   -1    0    0  501  502 -0.00000000000E+00 -0.00000000000E+00 -0.16106600023E+03  0.16106600023E+03  0.00000000000E+00 0. -1.
         25    1    1    2    0    0  0.86739159482E+01  0.88129924470E+02 -0.35063297716E+01  0.15322994079E+03  0.12500000000E+03 0.  0.
         25    1    1    2    0    0 -0.76569064732E+02 -0.12315651497E+03  0.20575302502E+03  0.28105098498E+03  0.12500000000E+03 0.  0.
         25    1    1    2    0    0  0.67895148784E+02  0.35026590503E+02  0.74052915700E+02  0.16415068563E+03  0.12500000000E+03 0.  0.
</event>
<event>
 5    0  0.5749909E-005  0.2698937E+03  0.7546771E-02  0.1101340E+00
         21   -1    0    0  502  501  0.00000000000E+00  0.00000000000E+00  0.32231837585E+03  0.32231837585E+03  0.00000000000E+00 0.  1.
         21   -1    0    0  501  502 -0.00000000000E+00 -0.00000000000E+00 -0.22599580132E+03  0.22599580132E+03  0.00000000000E+00 0.  1.
         25    1    1    2    0    0  0.92090887813E+02 -0.78791168131E+02  0.91189996320E+02  0.19654362168E+03  0.12500000000E+03 0.  0.
         25    1    1    2    0    0  0.50384890618E+02  0.27078665947E+02 -0.52306420957E+02  0.14708111036E+03  0.12500000000E+03 0.  0.
         25    1    1    2    0    0 -0.14247577843E+03  0.51712502183E+02  0.57438999162E+02  0.20468944513E+03  0.12500000000E+03 0.  0.
</event>
<event>
 5    0  0.5749909E-005  0.4679001E+03  0.7546771E-02  0.1022515E+00
         21   -1    0    0  502  501  0.00000000000E+00  0.00000000000E+00  0.14230655466E+03  0.14230655466E+03  0.00000000000E+00 0.  1.
         21   -1    0    0  501  502 -0.00000000000E+00 -0.00000000000E+00 -0.15384428855E+04  0.15384428855E+04  0.00000000000E+00 0.  1.
         25    1    1    2    0    0 -0.18796265836E+02  0.16514228093E+03 -0.15989606079E+03  0.26232998840E+03  0.12500000000E+03 0.  0.
         25    1    1    2    0    0 -0.59211713972E+02  0.21851794356E+03 -0.67458401117E+03  0.72245740833E+03  0.12500000000E+03 0.  0.
         25    1    1    2    0    0  0.78007979808E+02 -0.38366022448E+03 -0.56165625890E+03  0.69596204345E+03  0.12500000000E+03 0.  0.
</event>
<event>
 5    0  0.5749909E-005  0.3835967E+03  0.7546771E-02  0.1049612E+00
         21   -1    0    0  502  501  0.00000000000E+00  0.00000000000E+00  0.21224574694E+03  0.21224574694E+03  0.00000000000E+00 0.  1.
         21   -1    0    0  501  502 -0.00000000000E+00 -0.00000000000E+00 -0.69328310356E+03  0.69328310356E+03  0.00000000000E+00 0.  1.
         25    1    1    2    0    0  0.11706488926E+03 -0.21606309996E+03 -0.74634799608E+02  0.28562703789E+03  0.12500000000E+03 0.  0.
         25    1    1    2    0    0 -0.51501892384E+01 -0.52504345769E+02 -0.20080854983E+03  0.24234748701E+03  0.12500000000E+03 0.  0.
         25    1    1    2    0    0 -0.11191470003E+03  0.26856744573E+03 -0.20559400719E+03  0.37755432560E+03  0.12500000000E+03 0.  0.
</event>
<event>
 5    0  0.5749909E-005  0.3878581E+03  0.7546771E-02  0.1048067E+00
         21   -1    0    0  502  501  0.00000000000E+00  0.00000000000E+00  0.18264051154E+04  0.18264051154E+04  0.00000000000E+00 0.  1.
         21   -1    0    0  501  502 -0.00000000000E+00 -0.00000000000E+00 -0.82366128072E+02  0.82366128072E+02  0.00000000000E+00 0.  1.
         25    1    1    2    0    0 -0.28625605263E+02 -0.36569125144E+02  0.13723252499E+04  0.13787887139E+04  0.12500000000E+03 0.  0.
         25    1    1    2    0    0  0.11403778625E+03  0.11060724391E+03  0.25299715003E+03  0.32383813398E+03  0.12500000000E+03 0.  0.
         25    1    1    2    0    0 -0.85412180986E+02 -0.74038118769E+02  0.11871658741E+03  0.20614439555E+03  0.12500000000E+03 0.  0.
</event>
<event>
 5    0  0.6043010E-005  0.3044841E+03  0.7546771E-02  0.1083020E+00
         21   -1    0    0  502  501  0.00000000000E+00  0.00000000000E+00  0.36234811166E+03  0.36234811166E+03  0.00000000000E+00 0. -1.
         21   -1    0    0  501  502 -0.00000000000E+00 -0.00000000000E+00 -0.25586052825E+03  0.25586052825E+03  0.00000000000E+00 0. -1.
         25    1    1    2    0    0 -0.13185908591E+03  0.47566257628E+02  0.19359109935E+03  0.26972556636E+03  0.12500000000E+03 0.  0.
         25    1    1    2    0    0  0.13608195346E+03 -0.12893802827E+02  0.11353132462E+02  0.18557597319E+03  0.12500000000E+03 0.  0.
         25    1    1    2    0    0 -0.42228675542E+01 -0.34672454801E+02 -0.98456648399E+02  0.16290710036E+03  0.12500000000E+03 0.  0.
</event>
<event>
 5    0  0.5749909E-005  0.3395051E+03  0.7546771E-02  0.1067007E+00
         21   -1    0    0  502  501  0.00000000000E+00  0.00000000000E+00  0.23247114428E+03  0.23247114428E+03  0.00000000000E+00 0. -1.
         21   -1    0    0  501  502 -0.00000000000E+00 -0.00000000000E+00 -0.49581931958E+03  0.49581931958E+03  0.00000000000E+00 0. -1.
         25    1    1    2    0    0 -0.42498268809E+02 -0.12109313741E+03 -0.31957105425E+03  0.36636090061E+03  0.12500000000E+03 0.  0.
         25    1    1    2    0    0  0.11442764003E+03  0.11468048167E+03  0.71519222294E+02  0.21676092092E+03  0.12500000000E+03 0.  0.
         25    1    1    2    0    0 -0.71929371226E+02  0.64126557351E+01 -0.15296343343E+02  0.14516864234E+03  0.12500000000E+03 0.  0.
</event>
<event>
 5    0  0.5749909E-005  0.2355853E+03  0.7546771E-02  0.1122769E+00
         21   -1    0    0  502  501  0.00000000000E+00  0.00000000000E+00  0.10901494041E+03  0.10901494041E+03  0.00000000000E+00 0. -1.
         21   -1    0    0  501  502 -0.00000000000E+00 -0.00000000000E+00 -0.50910853504E+03  0.50910853504E+03  0.00000000000E+00 0. -1.
         25    1    1    2    0    0  0.11933759024E+03 -0.21460879653E+02 -0.11632219687E+03  0.20942273823E+03  0.12500000000E+03 0.  0.
         25    1    1    2    0    0 -0.85051942475E+02  0.24998606723E+02 -0.20854214222E+03  0.25879255851E+03  0.12500000000E+03 0.  0.
         25    1    1    2    0    0 -0.34285647768E+02 -0.35377270699E+01 -0.75229255542E+02  0.14990817871E+03  0.12500000000E+03 0.  0.
</event>
<event>
 5    0  0.5749909E-005  0.2545085E+03  0.7546771E-02  0.1110488E+00
         21   -1    0    0  502  501  0.00000000000E+00  0.00000000000E+00  0.14648984683E+04  0.14648984683E+04  0.00000000000E+00 0. -1.
         21   -1    0    0  501  502 -0.00000000000E+00 -0.00000000000E+00 -0.44217777884E+02  0.44217777884E+02  0.00000000000E+00 0. -1.
         25    1    1    2    0    0  0.77060020480E+02 -0.33923951103E+01  0.33986947993E+03  0.37025129100E+03  0.12500000000E+03 0.  0.
         25    1    1    2    0    0  0.83917045003E+02  0.23780799267E+02  0.40678743448E+03  0.43440604704E+03  0.12500000000E+03 0.  0.
         25    1    1    2    0    0 -0.16097706548E+03 -0.20388404156E+02  0.67402377598E+03  0.70445890812E+03  0.12500000000E+03 0.  0.
</event>
<event>
 5    0  0.5749909E-005  0.2143454E+03  0.7546771E-02  0.1138170E+00
         21   -1    0    0  502  501  0.00000000000E+00  0.00000000000E+00  0.47839858209E+03  0.47839858209E+03  0.00000000000E+00 0.  1.
         21   -1    0    0  501  502 -0.00000000000E+00 -0.00000000000E+00 -0.96037003517E+02  0.96037003517E+02  0.00000000000E+00 0.  1.
         25    1    1    2    0    0  0.15706548536E+02 -0.12449052156E+02  0.23056192725E+03  0.26303132298E+03  0.12500000000E+03 0.  0.
         25    1    1    2    0    0 -0.13860465305E+01  0.47656725765E+02  0.40518213508E+02  0.13978487136E+03  0.12500000000E+03 0.  0.
         25    1    1    2    0    0 -0.14320502006E+02 -0.35207673609E+02  0.11128143780E+03  0.17161939127E+03  0.12500000000E+03 0.  0.
</event>
<event>
 5    0  0.5749909E-005  0.2992406E+03  0.7546771E-02  0.1085621E+00
         21   -1    0    0  502  501  0.00000000000E+00  0.00000000000E+00  0.38900793257E+03  0.38900793257E+03  0.00000000000E+00 0.  1.
         21   -1    0    0  501  502 -0.00000000000E+00 -0.00000000000E+00 -0.23018793287E+03  0.23018793287E+03  0.00000000000E+00 0.  1.
         25    1    1    2    0    0  0.86298508378E+02  0.30731525768E+02 -0.37810862065E+02  0.15951965557E+03  0.12500000000E+03 0.  0.
         25    1    1    2    0    0  0.39824190663E+02  0.83671792435E+02 -0.20264853944E+02  0.15691589886E+03  0.12500000000E+03 0.  0.
         25    1    1    2    0    0 -0.12612269904E+03 -0.11440331820E+03  0.21689571570E+03  0.30276031101E+03  0.12500000000E+03 0.  0.
</event>
<event>
 5    0  0.5749909E-005  0.3005814E+03  0.7546771E-02  0.1084950E+00
         21   -1    0    0  502  501  0.00000000000E+00  0.00000000000E+00  0.11846309493E+04  0.11846309493E+04  0.00000000000E+00 0. -1.
         21   -1    0    0  501  502 -0.00000000000E+00 -0.00000000000E+00 -0.76267797978E+02  0.76267797978E+02  0.00000000000E+00 0. -1.
         25    1    1    2    0    0  0.38478258562E+02 -0.30197987573E+02  0.63551748963E+03  0.64953827790E+03  0.12500000000E+03 0.  0.
         25    1    1    2    0    0 -0.11231686454E+03  0.18060660794E+02  0.42603882317E+03  0.45833976958E+03  0.12500000000E+03 0.  0.
         25    1    1    2    0    0  0.73838605977E+02  0.12137326780E+02  0.46806838521E+02  0.15302069980E+03  0.12500000000E+03 0.  0.
</event>
<event>
 5    0  0.5749909E-005  0.2495024E+03  0.7546771E-02  0.1113620E+00
         21   -1    0    0  502  501  0.00000000000E+00  0.00000000000E+00  0.16884668351E+04  0.16884668351E+04  0.00000000000E+00 0.  1.
         21   -1    0    0  501  502 -0.00000000000E+00 -0.00000000000E+00 -0.36868632097E+02  0.36868632097E+02  0.00000000000E+00 0.  1.
         25    1    1    2    0    0  0.27939471853E+02  0.98588152622E+02  0.48004717301E+03  0.50652791260E+03  0.12500000000E+03 0.  0.
         25    1    1    2    0    0  0.17305400641E+02 -0.55562323453E+02  0.23960842515E+03  0.27644863190E+03  0.12500000000E+03 0.  0.
         25    1    1    2    0    0 -0.45244872494E+02 -0.43025829170E+02  0.93194260487E+03  0.94235892273E+03  0.12500000000E+03 0.  0.
</event>
<event>
 5    0  0.5749909E-005  0.3130568E+03  0.7546771E-02  0.1078890E+00
         21   -1    0    0  502  501  0.00000000000E+00  0.00000000000E+00  0.15976450325E+04  0.15976450325E+04  0.00000000000E+00 0. -1.
         21   -1    0    0  501  502 -0.00000000000E+00 -0.00000000000E+00 -0.61343140197E+02  0.61343140197E+02  0.00000000000E+00 0. -1.
         25    1    1    2    0    0  0.10779309228E+03 -0.32647863103E+01  0.19608996002E+03  0.25633236626E+03  0.12500000000E+03 0.  0.
         25    1    1    2    0    0 -0.26437601351E+02 -0.15111603828E+03  0.58734343136E+03  0.61978408350E+03  0.12500000000E+03 0.  0.
         25    1    1    2    0    0 -0.81355490925E+02  0.15438082459E+03  0.75286850094E+03  0.78287172297E+03  0.12500000000E+03 0.  0.
</event>
<event>
 5    0  0.5992129E-005  0.3407901E+03  0.7546771E-02  0.1066460E+00
         21   -1    0    0  502  501  0.00000000000E+00  0.00000000000E+00  0.50490535455E+03  0.50490535455E+03  0.00000000000E+00 0.  1.
         21   -1    0    0  501  502 -0.00000000000E+00 -0.00000000000E+00 -0.23001909948E+03  0.23001909948E+03  0.00000000000E+00 0.  1.
         25    1    1    2    0    0  0.18890070376E+03 -0.97520767404E+02 -0.14385311579E+02  0.24703382996E+03  0.12500000000E+03 0.  0.
         25    1    1    2    0    0 -0.15900896314E+03  0.11128021858E+03  0.84688983744E+02  0.24589502104E+03  0.12500000000E+03 0.  0.
         25    1    1    2    0    0 -0.29891740624E+02 -0.13759451174E+02  0.20458258290E+03  0.24199560302E+03  0.12500000000E+03 0.  0.
</event>
<event>
 5    0  0.5749909E-005  0.2995809E+03  0.7546771E-02  0.1085450E+00
         21   -1    0    0  502  501  0.00000000000E+00  0.00000000000E+00  0.12964842665E+03  0.12964842665E+03  0.00000000000E+00 0. -1.
         21   -1    0    0  501  502 -0.00000000000E+00 -0.00000000000E+00 -0.69224687905E+03  0.69224687905E+03  0.00000000000E+00 0. -1.
         25    1    1    2    0    0 -0.15105380834E+03 -0.44736344811E+02 -0.36140977984E+03  0.41359475640E+03  0.12500000000E+03 0.  0.
         25    1    1    2    0    0  0.15902829767E+03 -0.20987970861E+02 -0.69138418058E+02  0.21479202786E+03  0.12500000000E+03 0.  0.
         25    1    1    2    0    0 -0.79744893340E+01  0.65724315672E+02 -0.13205025451E+03  0.19350852143E+03  0.12500000000E+03 0.  0.
</event>
<event>
 5    0  0.5749909E-005  0.4305790E+03  0.7546771E-02  0.1033677E+00
         21   -1    0    0  502  501  0.00000000000E+00  0.00000000000E+00  0.14754278230E+03  0.14754278230E+03  0.00000000000E+00 0.  1.
         21   -1    0    0  501  502 -0.00000000000E+00 -0.00000000000E+00 -0.12565728401E+04  0.12565728401E+04  0.00000000000E+00 0.  1.
         25    1    1    2    0    0 -0.13500290656E+03 -0.89758449225E+02 -0.25152481427E+03  0.32430247637E+03  0.12500000000E+03 0.  0.
         25    1    1    2    0    0 -0.19847202225E+03  0.89043394890E+00 -0.56066423419E+03  0.60775103455E+03  0.12500000000E+03 0.  0.
         25    1    1    2    0    0  0.33347492881E+03  0.88868015276E+02 -0.29684100934E+03  0.47206211149E+03  0.12500000000E+03 0.  0.
</event>
<event>
 5    0  0.5749909E-005  0.2620836E+03  0.7546771E-02  0.1105898E+00
         21   -1    0    0  502  501  0.00000000000E+00  0.00000000000E+00  0.75872917985E+02  0.75872917985E+02  0.00000000000E+00 0. -1.
         21   -1    0    0  501  502 -0.00000000000E+00 -0.00000000000E+00 -0.90530071714E+03  0.90530071714E+03  0.00000000000E+00 0. -1.
         25    1    1    2    0    0 -0.50643934299E+02 -0.59257864599E+02 -0.13691120333E+03  0.20111185991E+03  0.12500000000E+03 0.  0.
         25    1    1    2    0    0 -0.56588348896E+02 -0.57747874836E+02 -0.21441158466E+03  0.26102564225E+03  0.12500000000E+03 0.  0.
         25    1    1    2    0    0  0.10723228320E+03  0.11700573943E+03 -0.47810501116E+03  0.51903613296E+03  0.12500000000E+03 0.  0.
</event>
<event>
 5    0  0.5749909E-005  0.3153112E+03  0.7546771E-02  0.1077828E+00
         21   -1    0    0  502  501  0.00000000000E+00  0.00000000000E+00  0.21087841364E+03  0.21087841364E+03  0.00000000000E+00 0. -1.
         21   -1    0    0  501  502 -0.00000000000E+00 -0.00000000000E+00 -0.47146211853E+03  0.47146211853E+03  0.00000000000E+00 0. -1.
         25    1    1    2    0    0 -0.97879545261E+02 -0.28393589036E+02 -0.15994135080E+02  0.16207224820E+03  0.12500000000E+03 0.  0.
         25    1    1    2    0    0 -0.44265524973E+02  0.95788974298E+02 -0.27207720845E+03  0.31746806399E+03  0.12500000000E+03 0.  0.
         25    1    1    2    0    0  0.14214507023E+03 -0.67395385262E+02  0.27487638639E+02  0.20280021998E+03  0.12500000000E+03 0.  0.
</event>
<event>
 5    0  0.5749909E-005  0.2379689E+03  0.7546771E-02  0.1121153E+00
         21   -1    0    0  502  501  0.00000000000E+00  0.00000000000E+00  0.84562104992E+03  0.84562104992E+03  0.00000000000E+00 0. -1.
         21   -1    0    0  501  502 -0.00000000000E+00 -0.00000000000E+00 -0.66967583866E+02  0.66967583866E+02  0.00000000000E+00 0. -1.
         25    1    1    2    0    0  0.11872097033E+03 -0.69620846422E+01  0.32759066978E+03  0.37024827663E+03  0.12500000000E+03 0.  0.
         25    1    1    2    0    0 -0.68440768526E+02 -0.12120277509E+02  0.33211858084E+03  0.36160585125E+03  0.12500000000E+03 0.  0.
         25    1    1    2    0    0 -0.50280201803E+02  0.19082362152E+02  0.11894421543E+03  0.18073450590E+03  0.12500000000E+03 0.  0.
</event>
<event>
 5    0  0.5749909E-005  0.2458486E+03  0.7546771E-02  0.1115957E+00
         21   -1    0    0  502  501  0.00000000000E+00  0.00000000000E+00  0.57089496267E+02  0.57089496267E+02  0.00000000000E+00 0.  1.
         21   -1    0    0  501  502 -0.00000000000E+00 -0.00000000000E+00 -0.10587154814E+04  0.10587154814E+04  0.00000000000E+00 0.  1.
         25    1    1    2    0    0 -0.24984734723E+02 -0.10820250493E+01 -0.18434092144E+03  0.22412492736E+03  0.12500000000E+03 0.  0.
         25    1    1    2    0    0  0.17658037756E+01  0.10936568385E+03 -0.24861693411E+03  0.29899724212E+03  0.12500000000E+03 0.  0.
         25    1    1    2    0    0  0.23218930948E+02 -0.10828365880E+03 -0.56866812955E+03  0.59268280815E+03  0.12500000000E+03 0.  0.
</event>
<event>
 5    0  0.5749909E-005  0.3208600E+03  0.7546771E-02  0.1075254E+00
         21   -1    0    0  502  501  0.00000000000E+00  0.00000000000E+00  0.37362457566E+03  0.37362457566E+03  0.00000000000E+00 0. -1.
         21   -1    0    0  501  502 -0.00000000000E+00 -0.00000000000E+00 -0.27554707930E+03  0.27554707930E+03  0.00000000000E+00 0. -1.
         25    1    1    2    0    0 -0.18116595655E+02  0.76986545957E+02  0.64697154694E+02  0.16144925247E+03  0.12500000000E+03 0.  0.
         25    1    1    2    0    0  0.46658246192E+02  0.30210614648E+02 -0.17402757970E+03  0.22136004985E+03  0.12500000000E+03 0.  0.
         25    1    1    2    0    0 -0.28541650537E+02 -0.10719716060E+03  0.20740792137E+03  0.26636235264E+03  0.12500000000E+03 0.  0.
</event>
<event>
 5    0  0.5749909E-005  0.3103896E+03  0.7546771E-02  0.1080159E+00
         21   -1    0    0  502  501  0.00000000000E+00  0.00000000000E+00  0.36553609319E+03  0.36553609319E+03  0.00000000000E+00 0.  1.
         21   -1    0    0  501  502 -0.00000000000E+00 -0.00000000000E+00 -0.26356280961E+03  0.26356280961E+03  0.00000000000E+00 0.  1.
         25    1    1    2    0    0 -0.51002129669E+02 -0.12387432942E+03  0.20149447089E+03  0.27234369558E+03  0.12500000000E+03 0.  0.
         25    1    1    2    0    0 -0.50697823259E+02  0.97548251868E+02 -0.98590087741E+02  0.19347076298E+03  0.12500000000E+03 0.  0.
         25    1    1    2    0    0  0.10169995293E+03  0.26326077553E+02 -0.93109957108E+00  0.16328444424E+03  0.12500000000E+03 0.  0.
</event>
<event>
 5    0  0.5749909E-005  0.3251213E+03  0.7546771E-02  0.1073316E+00
         21   -1    0    0  502  501  0.00000000000E+00  0.00000000000E+00  0.11379666281E+03  0.11379666281E+03  0.00000000000E+00 0.  1.
         21   -1    0    0  501  502 -0.00000000000E+00 -0.00000000000E+00 -0.92888356480E+03  0.92888356480E+03  0.00000000000E+00 0.  1.
         25    1    1    2    0    0 -0.39236090190E+01 -0.79019983054E+02 -0.13398819585E+03  0.19959305864E+03  0.12500000000E+03 0.  0.
         25    1    1    2    0    0 -0.13558664120E+02  0.58464683419E+02  0.11166038733E+02  0.13911016139E+03  0.12500000000E+03 0.  0.
         25    1    1    2    0    0  0.17482273139E+02  0.20555299635E+02 -0.69226474487E+03  0.70397700759E+03  0.12500000000E+03 0.  0.
</event>
<event>
 5    0  0.5749909E-005  0.3202134E+03  0.7546771E-02  0.1075551E+00
         21   -1    0    0  502  501  0.00000000000E+00  0.00000000000E+00  0.40511590299E+03  0.40511590299E+03  0.00000000000E+00 0.  1.
         21   -1    0    0  501  502 -0.00000000000E+00 -0.00000000000E+00 -0.25310433255E+03  0.25310433255E+03  0.00000000000E+00 0.  1.
         25    1    1    2    0    0  0.60503866507E+02 -0.64814671922E+02  0.22194244531E+03  0.26971301153E+03  0.12500000000E+03 0.  0.
         25    1    1    2    0    0  0.55934619181E+02 -0.74671749233E+02  0.36236477784E+01  0.15602141705E+03  0.12500000000E+03 0.  0.
         25    1    1    2    0    0 -0.11643848569E+03  0.13948642115E+03 -0.73554522645E+02  0.23248580696E+03  0.12500000000E+03 0.  0.
</event>
<event>
 5    0  0.5749909E-005  0.8829844E+03  0.7546771E-02  0.9447105E-01
         21   -1    0    0  502  501  0.00000000000E+00  0.00000000000E+00  0.68172115990E+03  0.68172115990E+03  0.00000000000E+00 0. -1.
         21   -1    0    0  501  502 -0.00000000000E+00 -0.00000000000E+00 -0.11436661263E+04  0.11436661263E+04  0.00000000000E+00 0. -1.
         25    1    1    2    0    0  0.44076191880E+01 -0.23810642186E+03 -0.23127551179E+03  0.35472166214E+03  0.12500000000E+03 0.  0.
         25    1    1    2    0    0 -0.14428442456E+03 -0.54985778106E+02 -0.78852920953E+03  0.81316956734E+03  0.12500000000E+03 0.  0.
         25    1    1    2    0    0  0.13987680538E+03  0.29309219996E+03  0.55785975495E+03  0.65749605669E+03  0.12500000000E+03 0.  0.
</event>
<event>
 5    0  0.5749909E-005  0.3284230E+03  0.7546771E-02  0.1071837E+00
         21   -1    0    0  502  501  0.00000000000E+00  0.00000000000E+00  0.61955472149E+02  0.61955472149E+02  0.00000000000E+00 0.  1.
         21   -1    0    0  501  502 -0.00000000000E+00 -0.00000000000E+00 -0.17409545143E+04  0.17409545143E+04  0.00000000000E+00 0.  1.
         25    1    1    2    0    0  0.12437529498E+03  0.21563268109E+02 -0.80217420489E+03  0.82160978787E+03  0.12500000000E+03 0.  0.
         25    1    1    2    0    0 -0.20215748939E+03 -0.10834108851E+03 -0.62038850059E+03  0.67313619249E+03  0.12500000000E+03 0.  0.
         25    1    1    2    0    0  0.77782194408E+02  0.86777820401E+02 -0.25643633664E+03  0.30816400606E+03  0.12500000000E+03 0.  0.
</event>
<event>
 5    0  0.5749909E-005  0.2244415E+03  0.7546771E-02  0.1130614E+00
         21   -1    0    0  502  501  0.00000000000E+00  0.00000000000E+00  0.76111869485E+02  0.76111869485E+02  0.00000000000E+00 0.  1.
         21   -1    0    0  501  502 -0.00000000000E+00 -0.00000000000E+00 -0.66184113028E+03  0.66184113028E+03  0.00000000000E+00 0.  1.
         25    1    1    2    0    0  0.46883448674E+02 -0.81848895126E+02 -0.25884091942E+03  0.30252424855E+03  0.12500000000E+03 0.  0.
         25    1    1    2    0    0 -0.38032962286E+02  0.13145038029E+01 -0.10237549937E+03  0.16599390655E+03  0.12500000000E+03 0.  0.
         25    1    1    2    0    0 -0.88504863886E+01  0.80534391324E+02 -0.22451284200E+03  0.26943484467E+03  0.12500000000E+03 0.  0.
</event>
<event>
 5    0  0.5749909E-005  0.5141145E+03  0.7546771E-02  0.1010159E+00
         21   -1    0    0  502  501  0.00000000000E+00  0.00000000000E+00  0.87537329707E+02  0.87537329707E+02  0.00000000000E+00 0.  1.
         21   -1    0    0  501  502 -0.00000000000E+00 -0.00000000000E+00 -0.30194399573E+04  0.30194399573E+04  0.00000000000E+00 0.  1.
         25    1    1    2    0    0  0.14895289472E+03  0.27258556264E+03 -0.17901947867E+04  0.18212392012E+04  0.12500000000E+03 0.  0.
         25    1    1    2    0    0 -0.21803430827E+03 -0.32007801038E+03 -0.99738804205E+03  0.10772171549E+04  0.12500000000E+03 0.  0.
         25    1    1    2    0    0  0.69081413545E+02  0.47492447734E+02 -0.14431979887E+03  0.20852093093E+03  0.12500000000E+03 0.  0.
</event>
<event>
 5    0  0.5749909E-005  0.2565284E+03  0.7546771E-02  0.1109247E+00
         21   -1    0    0  502  501  0.00000000000E+00  0.00000000000E+00  0.13248016251E+03  0.13248016251E+03  0.00000000000E+00 0. -1.
         21   -1    0    0  501  502 -0.00000000000E+00 -0.00000000000E+00 -0.49672954477E+03  0.49672954477E+03  0.00000000000E+00 0. -1.
         25    1    1    2    0    0 -0.13504514162E+02 -0.14251567024E+02 -0.19006672963E+03  0.22833274136E+03  0.12500000000E+03 0.  0.
         25    1    1    2    0    0  0.15077701327E+02 -0.12097885451E+03 -0.10733086933E+03  0.20495886375E+03  0.12500000000E+03 0.  0.
         25    1    1    2    0    0 -0.15731871648E+01  0.13523042153E+03 -0.66851783298E+02  0.19591810217E+03  0.12500000000E+03 0.  0.
</event>
<event>
 5    0  0.5749909E-005  0.3169430E+03  0.7546771E-02  0.1077065E+00
         21   -1    0    0  502  501  0.00000000000E+00  0.00000000000E+00  0.10509963953E+04  0.10509963953E+04  0.00000000000E+00 0.  1.
         21   -1    0    0  501  502 -0.00000000000E+00 -0.00000000000E+00 -0.95578684320E+02  0.95578684320E+02  0.00000000000E+00 0.  1.
         25    1    1    2    0    0  0.11328849287E+03 -0.65886167139E+02  0.26255674942E+03  0.31896130847E+03  0.12500000000E+03 0.  0.
         25    1    1    2    0    0 -0.10049437376E+03 -0.13074401097E+03  0.23084122044E+03  0.31000932989E+03  0.12500000000E+03 0.  0.
         25    1    1    2    0    0 -0.12794119112E+02  0.19663017811E+03  0.46201974111E+03  0.51760444125E+03  0.12500000000E+03 0.  0.
</event>
<event>
 5    0  0.5749909E-005  0.3342896E+03  0.7546771E-02  0.1069254E+00
         21   -1    0    0  502  501  0.00000000000E+00  0.00000000000E+00  0.58493844675E+03  0.58493844675E+03  0.00000000000E+00 0.  1.
         21   -1    0    0  501  502 -0.00000000000E+00 -0.00000000000E+00 -0.19104496271E+03  0.19104496271E+03  0.00000000000E+00 0.  1.
         25    1    1    2    0    0  0.12909206400E+03  0.12574952863E+03  0.70005436149E+02  0.23022481628E+03  0.12500000000E+03 0.  0.
         25    1    1    2    0    0  0.65257437540E+02  0.47406755141E+02  0.87543145678E+02  0.17261151741E+03  0.12500000000E+03 0.  0.
         25    1    1    2    0    0 -0.19434950154E+03 -0.17315628378E+03  0.23634490221E+03  0.37314707578E+03  0.12500000000E+03 0.  0.
</event>
<event>
 5    0  0.5749909E-005  0.2705665E+03  0.7546771E-02  0.1100956E+00
         21   -1    0    0  502  501  0.00000000000E+00  0.00000000000E+00  0.11903590056E+03  0.11903590056E+03  0.00000000000E+00 0. -1.
         21   -1    0    0  501  502 -0.00000000000E+00 -0.00000000000E+00 -0.61499277578E+03  0.61499277578E+03  0.00000000000E+00 0. -1.
         25    1    1    2    0    0  0.40190304457E+02  0.74359240414E+02 -0.36872904061E+03  0.39841016879E+03  0.12500000000E+03 0.  0.
         25    1    1    2    0    0 -0.39935668526E+02 -0.16955428110E+01 -0.13824201835E+03  0.19061371442E+03  0.12500000000E+03 0.  0.
         25    1    1    2    0    0 -0.25463593067E+00 -0.72663697603E+02  0.11014183742E+02  0.14500479314E+03  0.12500000000E+03 0.  0.
</event>
<event>
 5    0  0.5749909E-005  0.2442716E+03  0.7546771E-02  0.1116979E+00
         21   -1    0    0  502  501  0.00000000000E+00  0.00000000000E+00  0.49921054842E+03  0.49921054842E+03  0.00000000000E+00 0. -1.
         21   -1    0    0  501  502 -0.00000000000E+00 -0.00000000000E+00 -0.11952593124E+03  0.11952593124E+03  0.00000000000E+00 0. -1.
         25    1    1    2    0    0  0.16256690894E+02  0.10005879916E+02  0.24726126120E+03  0.27771843461E+03  0.12500000000E+03 0.  0.
         25    1    1    2    0    0  0.77098329507E+02  0.21885459939E+02  0.29431428389E+02  0.15137481543E+03  0.12500000000E+03 0.  0.
         25    1    1    2    0    0 -0.93355020401E+02 -0.31891339855E+02  0.10299192760E+03  0.18964322963E+03  0.12500000000E+03 0.  0.
</event>
<event>
 5    0  0.5749909E-005  0.2378506E+03  0.7546771E-02  0.1121233E+00
         21   -1    0    0  502  501  0.00000000000E+00  0.00000000000E+00  0.12104075522E+03  0.12104075522E+03  0.00000000000E+00 0.  1.
         21   -1    0    0  501  502 -0.00000000000E+00 -0.00000000000E+00 -0.46738709959E+03  0.46738709959E+03  0.00000000000E+00 0.  1.
         25    1    1    2    0    0 -0.82042385616E+02  0.99061181831E+02 -0.77991642363E+02  0.19558058969E+03  0.12500000000E+03 0.  0.
         25    1    1    2    0    0  0.54945561602E+02 -0.76663369909E+02 -0.13555618399E+03  0.20711534478E+03  0.12500000000E+03 0.  0.
         25    1    1    2    0    0  0.27096824014E+02 -0.22397811921E+02 -0.13279851802E+03  0.18573192036E+03  0.12500000000E+03 0.  0.
</event>
<event>
 5    0  0.5749909E-005  0.5287640E+03  0.7546771E-02  0.1006532E+00
         21   -1    0    0  502  501  0.00000000000E+00  0.00000000000E+00  0.49924218643E+03  0.49924218643E+03  0.00000000000E+00 0. -1.
         21   -1    0    0  501  502 -0.00000000000E+00 -0.00000000000E+00 -0.56003159132E+03  0.56003159132E+03  0.00000000000E+00 0.  1.
         25    1    1    2    0    0  0.52948244578E+02 -0.26051007348E+02 -0.27230820258E+03  0.30538324901E+03  0.12500000000E+03 0.  0.
         25    1    1    2    0    0  0.85413808715E+01 -0.25826214777E+03 -0.10552532777E+03  0.30583146823E+03  0.12500000000E+03 0.  0.
         25    1    1    2    0    0 -0.61489625449E+02  0.28431315512E+03  0.31704412547E+03  0.44805906051E+03  0.12500000000E+03 0.  0.
</event>
<event>
 5    0  0.5749909E-005  0.2519760E+03  0.7546771E-02  0.1112062E+00
         21   -1    0    0  502  501  0.00000000000E+00  0.00000000000E+00  0.20204888758E+03  0.20204888758E+03  0.00000000000E+00 0.  1.
         21   -1    0    0  501  502 -0.00000000000E+00 -0.00000000000E+00 -0.31424026973E+03  0.31424026973E+03  0.00000000000E+00 0.  1.
         25    1    1    2    0    0  0.15436068111E+02 -0.11490651608E+02 -0.12429603740E+03  0.17732685128E+03  0.12500000000E+03 0.  0.
         25    1    1    2    0    0  0.30872982717E+02 -0.94844996146E+02 -0.31421623964E+02  0.16297555893E+03  0.12500000000E+03 0.  0.
         25    1    1    2    0    0 -0.46309050828E+02  0.10633564775E+03  0.43526279213E+02  0.17598674710E+03  0.12500000000E+03 0.  0.
</event>
<event>
 5    0  0.5749909E-005  0.3906367E+03  0.7546771E-02  0.1047071E+00
         21   -1    0    0  502  501  0.00000000000E+00  0.00000000000E+00  0.19210659821E+04  0.19210659821E+04  0.00000000000E+00 0.  1.
         21   -1    0    0  501  502 -0.00000000000E+00 -0.00000000000E+00 -0.79433515765E+02  0.79433515765E+02  0.00000000000E+00 0.  1.
         25    1    1    2    0    0  0.26267979770E+02 -0.18463432731E+03  0.14100307978E+03  0.26511640856E+03  0.12500000000E+03 0.  0.
         25    1    1    2    0    0 -0.24108314906E+02  0.87320611784E+02  0.12100251780E+04  0.12198327883E+04  0.12500000000E+03 0.  0.
         25    1    1    2    0    0 -0.21596648649E+01  0.97313715521E+02  0.49060420855E+03  0.51555030097E+03  0.12500000000E+03 0.  0.
</event>
<event>
 5    0  0.5749909E-005  0.6462609E+03  0.7546771E-02  0.9813821E-01
         21   -1    0    0  502  501  0.00000000000E+00  0.00000000000E+00  0.14029507076E+04  0.14029507076E+04  0.00000000000E+00 0. -1.
         21   -1    0    0  501  502 -0.00000000000E+00 -0.00000000000E+00 -0.29769624609E+03  0.29769624609E+03  0.00000000000E+00 0. -1.
         25    1    1    2    0    0  0.41098805497E+03 -0.12714696874E+03  0.35031527940E+03  0.56870319849E+03  0.12500000000E+03 0.  0.
         25    1    1    2    0    0  0.78849439940E+02 -0.11668757845E+03  0.46184430927E+03  0.49875684572E+03  0.12500000000E+03 0.  0.
         25    1    1    2    0    0 -0.48983749492E+03  0.24383454718E+03  0.29309487279E+03  0.63318690944E+03  0.12500000000E+03 0.  0.
</event>
<event>
 5    0  0.6375418E-005  0.2913798E+03  0.7546771E-02  0.1089631E+00
         21   -1    0    0  502  501  0.00000000000E+00  0.00000000000E+00  0.46894501712E+03  0.46894501712E+03  0.00000000000E+00 0. -1.
         21   -1    0    0  501  502 -0.00000000000E+00 -0.00000000000E+00 -0.18104929514E+03  0.18104929514E+03  0.00000000000E+00 0. -1.
         25    1    1    2    0    0 -0.10727660311E+03 -0.33790207232E+02  0.80533681591E+01  0.16834460020E+03  0.12500000000E+03 0.  0.
         25    1    1    2    0    0  0.13865040778E+03 -0.76677214455E+02  0.22729647912E+03  0.30396055700E+03  0.12500000000E+03 0.  0.
         25    1    1    2    0    0 -0.31373804672E+02  0.11046742169E+03  0.52545874703E+02  0.17768915505E+03  0.12500000000E+03 0.  0.
</event>
<event>
 5    0  0.5749909E-005  0.4516559E+03  0.7546771E-02  0.1027229E+00
         21   -1    0    0  502  501  0.00000000000E+00  0.00000000000E+00  0.15630734334E+03  0.15630734334E+03  0.00000000000E+00 0. -1.
         21   -1    0    0  501  502 -0.00000000000E+00 -0.00000000000E+00 -0.13050763580E+04  0.13050763580E+04  0.00000000000E+00 0. -1.
         25    1    1    2    0    0  0.21228921493E+03  0.20565668250E+03 -0.94668903486E+03  0.99960317655E+03  0.12500000000E+03 0.  0.
         25    1    1    2    0    0 -0.11425622428E+03 -0.11932138045E+03 -0.18913531731E+03  0.28051603318E+03  0.12500000000E+03 0.  0.
         25    1    1    2    0    0 -0.98032990651E+02 -0.86335302057E+02 -0.12944662494E+02  0.18126449163E+03  0.12500000000E+03 0.  0.
</event>
<event>
 5    0  0.5749909E-005  0.3248797E+03  0.7546771E-02  0.1073425E+00
         21   -1    0    0  502  501  0.00000000000E+00  0.00000000000E+00  0.47068343953E+03  0.47068343953E+03  0.00000000000E+00 0. -1.
         21   -1    0    0  501  502 -0.00000000000E+00 -0.00000000000E+00 -0.22424157870E+03  0.22424157870E+03  0.00000000000E+00 0. -1.
         25    1    1    2    0    0 -0.15611486267E+03  0.70172086833E+02  0.18237526966E+03  0.27960992668E+03  0.12500000000E+03 0.  0.
         25    1    1    2    0    0  0.22051492649E+03 -0.87519988770E+02  0.32144155032E+02  0.27008300195E+03  0.12500000000E+03 0.  0.
         25    1    1    2    0    0 -0.64400063816E+02  0.17347901937E+02  0.31922436139E+02  0.14523208960E+03  0.12500000000E+03 0.  0.
</event>
<event>
 5    0  0.5749909E-005  0.2663373E+03  0.7546771E-02  0.1103394E+00
         21   -1    0    0  502  501  0.00000000000E+00  0.00000000000E+00  0.11489397909E+04  0.11489397909E+04  0.00000000000E+00 0. -1.
         21   -1    0    0  501  502 -0.00000000000E+00 -0.00000000000E+00 -0.61740005960E+02  0.61740005960E+02  0.00000000000E+00 0. -1.
         25    1    1    2    0    0 -0.36562373840E+02  0.14089666957E+02  0.37018798949E+03  0.39268240788E+03  0.12500000000E+03 0.  0.
         25    1    1    2    0    0  0.66718326539E+02  0.11889443932E+03  0.21853509256E+03  0.28630370147E+03  0.12500000000E+03 0.  0.
         25    1    1    2    0    0 -0.30155952699E+02 -0.13298410628E+03  0.49847670284E+03  0.53169368746E+03  0.12500000000E+03 0.  0.
</event>
<event>
 5    0  0.5749909E-005  0.2447973E+03  0.7546771E-02  0.1116638E+00
         21   -1    0    0  502  501  0.00000000000E+00  0.00000000000E+00  0.21836250636E+03  0.21836250636E+03  0.00000000000E+00 0. -1.
         21   -1    0    0  501  502 -0.00000000000E+00 -0.00000000000E+00 -0.27443219589E+03  0.27443219589E+03  0.00000000000E+00 0. -1.
         25    1    1    2    0    0  0.21473379051E+02 -0.21599038148E+02 -0.68400445584E+01  0.12883870019E+03  0.12500000000E+03 0.  0.
         25    1    1    2    0    0 -0.47092630378E+02 -0.11132993012E+03 -0.26841974884E+01  0.17390880970E+03  0.12500000000E+03 0.  0.
         25    1    1    2    0    0  0.25619251327E+02  0.13292896826E+03 -0.46545447479E+02  0.19004719236E+03  0.12500000000E+03 0.  0.
</event>
<event>
 5    0  0.5749909E-005  0.4111622E+03  0.7546771E-02  0.1039982E+00
         21   -1    0    0  502  501  0.00000000000E+00  0.00000000000E+00  0.24824280606E+03  0.24824280606E+03  0.00000000000E+00 0. -1.
         21   -1    0    0  501  502 -0.00000000000E+00 -0.00000000000E+00 -0.68100388587E+03  0.68100388587E+03  0.00000000000E+00 0. -1.
         25    1    1    2    0    0 -0.14138239763E+03  0.51749472826E+02  0.85246210629E+02  0.21344532491E+03  0.12500000000E+03 0.  0.
         25    1    1    2    0    0  0.46626818559E+02 -0.69643804791E+02  0.22987126167E+02  0.15224233223E+03  0.12500000000E+03 0.  0.
         25    1    1    2    0    0  0.94755579075E+02  0.17894331965E+02 -0.54099441661E+03  0.56355903478E+03  0.12500000000E+03 0.  0.
</event>
<event>
 5    0  0.5749909E-005  0.3826727E+03  0.7546771E-02  0.1049950E+00
         21   -1    0    0  502  501  0.00000000000E+00  0.00000000000E+00  0.38100498997E+03  0.38100498997E+03  0.00000000000E+00 0. -1.
         21   -1    0    0  501  502 -0.00000000000E+00 -0.00000000000E+00 -0.38434773353E+03  0.38434773353E+03  0.00000000000E+00 0. -1.
         25    1    1    2    0    0  0.20351050862E+03 -0.21170354877E+03 -0.42088492848E+01  0.31918275970E+03  0.12500000000E+03 0.  0.
         25    1    1    2    0    0 -0.19765442477E+03  0.18316544357E+03  0.62858453163E+02  0.30363306224E+03  0.12500000000E+03 0.  0.
         25    1    1    2    0    0 -0.58560838538E+01  0.28538105197E+02 -0.61992347431E+02  0.14253690156E+03  0.12500000000E+03 0.  0.
</event>
<event>
 5    0  0.5749909E-005  0.3819193E+03  0.7546771E-02  0.1050227E+00
         21   -1    0    0  502  501  0.00000000000E+00  0.00000000000E+00  0.26247108447E+03  0.26247108447E+03  0.00000000000E+00 0. -1.
         21   -1    0    0  501  502 -0.00000000000E+00 -0.00000000000E+00 -0.55572741733E+03  0.55572741733E+03  0.00000000000E+00 0. -1.
         25    1    1    2    0    0 -0.55573017268E+02 -0.83049785176E+01  0.72253776138E+02  0.15492882586E+03  0.12500000000E+03 0.  0.
         25    1    1    2    0    0  0.54195245428E+02 -0.34856534902E+01  0.10768677807E+03  0.17369719796E+03  0.12500000000E+03 0.  0.
         25    1    1    2    0    0  0.13777718403E+01  0.11790632008E+02 -0.47319688708E+03  0.48957247798E+03  0.12500000000E+03 0.  0.
</event>
<event>
 5    0  0.5749909E-005  0.4024588E+03  0.7546771E-02  0.1042932E+00
         21   -1    0    0  502  501  0.00000000000E+00  0.00000000000E+00  0.29479764767E+03  0.29479764767E+03  0.00000000000E+00 0. -1.
         21   -1    0    0  501  502 -0.00000000000E+00 -0.00000000000E+00 -0.54943811015E+03  0.54943811015E+03  0.00000000000E+00 0. -1.
         25    1    1    2    0    0  0.10640500795E+03  0.70651489532E+02  0.37145333559E+02  0.18253337913E+03  0.12500000000E+03 0.  0.
         25    1    1    2    0    0 -0.27284115448E+03 -0.12619220067E+03 -0.30466794085E+03  0.44588599582E+03  0.12500000000E+03 0.  0.
         25    1    1    2    0    0  0.16643614653E+03  0.55540711137E+02  0.12882144806E+02  0.21581638288E+03  0.12500000000E+03 0.  0.
</event>
<event>
 5    0  0.5749909E-005  0.3505506E+03  0.7546771E-02  0.1062389E+00
         21   -1    0    0  502  501  0.00000000000E+00  0.00000000000E+00  0.39598697232E+03  0.39598697232E+03  0.00000000000E+00 0. -1.
         21   -1    0    0  501  502 -0.00000000000E+00 -0.00000000000E+00 -0.31032770926E+03  0.31032770926E+03  0.00000000000E+00 0. -1.
         25    1    1    2    0    0 -0.21787685466E+03  0.26265872694E+02  0.51792380096E+02  0.25781324734E+03  0.12500000000E+03 0.  0.
         25    1    1    2    0    0  0.58753531808E+02 -0.10589423026E+02 -0.12822539057E+03  0.18876139480E+03  0.12500000000E+03 0.  0.
         25    1    1    2    0    0  0.15912332286E+03 -0.15676449669E+02  0.16209227353E+03  0.25974003944E+03  0.12500000000E+03 0.  0.
</event>
<event>
 5    0  0.5749909E-005  0.2834622E+03  0.7546771E-02  0.1093813E+00
         21   -1    0    0  502  501  0.00000000000E+00  0.00000000000E+00  0.39711864284E+02  0.39711864284E+02  0.00000000000E+00 0. -1.
         21   -1    0    0  501  502 -0.00000000000E+00 -0.00000000000E+00 -0.20233457175E+04  0.20233457175E+04  0.00000000000E+00 0. -1.
         25    1    1    2    0    0  0.51376509864E+02 -0.14020100549E+03 -0.11736924277E+04  0.11897372746E+04  0.12500000000E+03 0.  0.
         25    1    1    2    0    0  0.22125271431E+02  0.11502572955E+03 -0.33752040437E+03  0.37850425289E+03  0.12500000000E+03 0.  0.
         25    1    1    2    0    0 -0.73501781295E+02  0.25175275944E+02 -0.47242102120E+03  0.49481605435E+03  0.12500000000E+03 0.  0.
</event>
<event>
 5    0  0.5749909E-005  0.2727295E+03  0.7546771E-02  0.1099728E+00
         21   -1    0    0  502  501  0.00000000000E+00  0.00000000000E+00  0.15463790136E+03  0.15463790136E+03  0.00000000000E+00 0. -1.
         21   -1    0    0  501  502 -0.00000000000E+00 -0.00000000000E+00 -0.48100359827E+03  0.48100359827E+03  0.00000000000E+00 0. -1.
         25    1    1    2    0    0  0.63414338158E+02  0.80955277726E+02 -0.16634292802E+03  0.23209934291E+03  0.12500000000E+03 0.  0.
         25    1    1    2    0    0 -0.14230035850E+03  0.21109821408E+02 -0.89846651180E+02  0.21069512884E+03  0.12500000000E+03 0.  0.
         25    1    1    2    0    0  0.78886020347E+02 -0.10206509913E+03 -0.70176117707E+02  0.19284702788E+03  0.12500000000E+03 0.  0.
</event>
<event>
 5    0  0.5749909E-005  0.8313873E+03  0.7546771E-02  0.9515664E-01
         21   -1    0    0  502  501  0.00000000000E+00  0.00000000000E+00  0.80492543225E+03  0.80492543225E+03  0.00000000000E+00 0. -1.
         21   -1    0    0  501  502 -0.00000000000E+00 -0.00000000000E+00 -0.85871914971E+03  0.85871914971E+03  0.00000000000E+00 0. -1.
         25    1    1    2    0    0 -0.10074325895E+03  0.21740709380E+03 -0.47282168738E+02  0.27436408683E+03  0.12500000000E+03 0.  0.
         25    1    1    2    0    0  0.21064388396E+03  0.24023762710E+03 -0.55707860738E+03  0.65425265619E+03  0.12500000000E+03 0.  0.
         25    1    1    2    0    0 -0.10990062501E+03 -0.45764472091E+03  0.55056705866E+03  0.73502783895E+03  0.12500000000E+03 0.  0.
</event>
<event>
 5    0  0.5749909E-005  0.4075210E+03  0.7546771E-02  0.1041206E+00
         21   -1    0    0  502  501  0.00000000000E+00  0.00000000000E+00  0.19600788755E+03  0.19600788755E+03  0.00000000000E+00 0.  1.
         21   -1    0    0  501  502 -0.00000000000E+00 -0.00000000000E+00 -0.84727884813E+03  0.84727884813E+03  0.00000000000E+00 0.  1.
         25    1    1    2    0    0  0.49148486602E+02  0.29273569021E+03 -0.10620735409E+03  0.33913826107E+03  0.12500000000E+03 0.  0.
         25    1    1    2    0    0 -0.31733988647E+02 -0.18199908765E+03 -0.46997134867E+03  0.52021993667E+03  0.12500000000E+03 0.  0.
         25    1    1    2    0    0 -0.17414497955E+02 -0.11073660256E+03 -0.75092257812E+02  0.18392853794E+03  0.12500000000E+03 0.  0.
</event>
<event>
 5    0  0.5749909E-005  0.2363538E+03  0.7546771E-02  0.1122246E+00
         21   -1    0    0  502  501  0.00000000000E+00  0.00000000000E+00  0.13301069507E+03  0.13301069507E+03  0.00000000000E+00 0. -1.
         21   -1    0    0  501  502 -0.00000000000E+00 -0.00000000000E+00 -0.41998983067E+03  0.41998983067E+03  0.00000000000E+00 0. -1.
         25    1    1    2    0    0  0.17666758970E+02 -0.46516011552E+02 -0.72223390444E+02  0.15269928563E+03  0.12500000000E+03 0.  0.
         25    1    1    2    0    0 -0.16249513430E+02  0.35728891430E+01  0.23086443502E+02  0.12819826870E+03  0.12500000000E+03 0.  0.
         25    1    1    2    0    0 -0.14172455403E+01  0.42943122409E+02 -0.23784218866E+03  0.27210297141E+03  0.12500000000E+03 0.  0.
</event>
<event>
 5    0  0.5749909E-005  0.2636469E+03  0.7546771E-02  0.1104972E+00
         21   -1    0    0  502  501  0.00000000000E+00  0.00000000000E+00  0.19910459376E+03  0.19910459376E+03  0.00000000000E+00 0.  1.
         21   -1    0    0  501  502 -0.00000000000E+00 -0.00000000000E+00 -0.34911144772E+03  0.34911144772E+03  0.00000000000E+00 0.  1.
         25    1    1    2    0    0  0.11655702043E+03  0.94068468811E+02 -0.94202914982E+02  0.21664165118E+03  0.12500000000E+03 0.  0.
         25    1    1    2    0    0 -0.10767625889E+03 -0.11312888253E+03 -0.36842286634E+02  0.20340765687E+03  0.12500000000E+03 0.  0.
         25    1    1    2    0    0 -0.88807615425E+01  0.19060413717E+02 -0.18961652347E+02  0.12816673342E+03  0.12500000000E+03 0.  0.
</event>
<event>
 5    0  0.5749909E-005  0.3125785E+03  0.7546771E-02  0.1079116E+00
         21   -1    0    0  502  501  0.00000000000E+00  0.00000000000E+00  0.14446245893E+03  0.14446245893E+03  0.00000000000E+00 0.  1.
         21   -1    0    0  501  502 -0.00000000000E+00 -0.00000000000E+00 -0.67633702923E+03  0.67633702923E+03  0.00000000000E+00 0.  1.
         25    1    1    2    0    0  0.19470792117E+03 -0.11784756455E+03 -0.25670959888E+03  0.36513564766E+03  0.12500000000E+03 0.  0.
         25    1    1    2    0    0 -0.64108719596E+02  0.11342694952E+03 -0.11476301554E+03  0.21394193264E+03  0.12500000000E+03 0.  0.
         25    1    1    2    0    0 -0.13059920157E+03  0.44206150300E+01 -0.16040195588E+03  0.24172190786E+03  0.12500000000E+03 0.  0.
</event>
<event>
 5    0  0.5749909E-005  0.3418942E+03  0.7546771E-02  0.1065992E+00
         21   -1    0    0  502  501  0.00000000000E+00  0.00000000000E+00  0.14938267687E+04  0.14938267687E+04  0.00000000000E+00 0.  1.
         21   -1    0    0  501  502 -0.00000000000E+00 -0.00000000000E+00 -0.78249797236E+02  0.78249797236E+02  0.00000000000E+00 0.  1.
         25    1    1    2    0    0  0.10688283931E+03 -0.75671099850E+02  0.29103339883E+03  0.34274698529E+03  0.12500000000E+03 0.  0.
         25    1    1    2    0    0 -0.22389115420E+03  0.16355453452E+03  0.68078900976E+03  0.74563798891E+03  0.12500000000E+03 0.  0.
         25    1    1    2    0    0  0.11700831489E+03 -0.87883434674E+02  0.44375456285E+03  0.48369159171E+03  0.12500000000E+03 0.  0.
</event>
<event>
 5    0  0.5749909E-005  0.2157592E+03  0.7546771E-02  0.1137085E+00
         21   -1    0    0  502  501  0.00000000000E+00  0.00000000000E+00  0.46739904948E+02  0.46739904948E+02  0.00000000000E+00 0.  1.
         21   -1    0    0  501  502 -0.00000000000E+00 -0.00000000000E+00 -0.99598052019E+03  0.99598052019E+03  0.00000000000E+00 0.  1.
         25    1    1    2    0    0 -0.41040602975E+02 -0.16420955023E+02 -0.53893172930E+03  0.55500125018E+03  0.12500000000E+03 0.  0.
         25    1    1    2    0    0  0.96751909984E+01 -0.25222802448E+02 -0.18695095161E+03  0.22650708022E+03  0.12500000000E+03 0.  0.
         25    1    1    2    0    0  0.31365411977E+02  0.41643757471E+02 -0.22335793434E+03  0.26121209474E+03  0.12500000000E+03 0.  0.
</event>
<event>
 5    0  0.5749909E-005  0.6126388E+03  0.7546771E-02  0.9879526E-01
         21   -1    0    0  502  501  0.00000000000E+00  0.00000000000E+00  0.20343426809E+03  0.20343426809E+03  0.00000000000E+00 0. -1.
         21   -1    0    0  501  502 -0.00000000000E+00 -0.00000000000E+00 -0.18449513499E+04  0.18449513499E+04  0.00000000000E+00 0. -1.
         25    1    1    2    0    0 -0.89013044408E+02 -0.82737082892E+02 -0.39348150198E+02  0.17872331657E+03  0.12500000000E+03 0.  0.
         25    1    1    2    0    0 -0.36345124503E+03  0.66867751314E+02 -0.32130964129E+03  0.50540378834E+03  0.12500000000E+03 0.  0.
         25    1    1    2    0    0  0.45246428944E+03  0.15869331579E+02 -0.12808592903E+04  0.13642585130E+04  0.12500000000E+03 0.  0.
</event>
<event>
 5    0  0.6452409E-005  0.3429912E+03  0.7546771E-02  0.1065529E+00
         21   -1    0    0  502  501  0.00000000000E+00  0.00000000000E+00  0.35202263433E+03  0.35202263433E+03  0.00000000000E+00 0. -1.
         21   -1    0    0  501  502 -0.00000000000E+00 -0.00000000000E+00 -0.33419138847E+03  0.33419138847E+03  0.00000000000E+00 0. -1.
         25    1    1    2    0    0 -0.80027110453E+02  0.62761713320E+02  0.10087274732E+03  0.19011491845E+03  0.12500000000E+03 0.  0.
         25    1    1    2    0    0 -0.12127630816E+03 -0.13023516549E+03  0.39341707624E+02  0.22100206155E+03  0.12500000000E+03 0.  0.
         25    1    1    2    0    0  0.20130341861E+03  0.67473452173E+02 -0.12238320909E+03  0.27509704280E+03  0.12500000000E+03 0.  0.
</event>
<event>
 5    0  0.5819667E-005  0.2773500E+03  0.7546771E-02  0.1097145E+00
         21   -1    0    0  502  501  0.00000000000E+00  0.00000000000E+00  0.36864151567E+03  0.36864151567E+03  0.00000000000E+00 0. -1.
         21   -1    0    0  501  502 -0.00000000000E+00 -0.00000000000E+00 -0.20866621225E+03  0.20866621225E+03  0.00000000000E+00 0. -1.
         25    1    1    2    0    0  0.82930461161E+02  0.11015218851E+03 -0.71861022585E+02  0.19949930473E+03  0.12500000000E+03 0.  0.
         25    1    1    2    0    0 -0.74848785960E+02 -0.54778813825E+02  0.15974244114E+03  0.22303745584E+03  0.12500000000E+03 0.  0.
         25    1    1    2    0    0 -0.80816752001E+01 -0.55373374687E+02  0.72093884861E+02  0.15477096734E+03  0.12500000000E+03 0.  0.
</event>
<event>
 5    0  0.5749909E-005  0.3279267E+03  0.7546771E-02  0.1072058E+00
         21   -1    0    0  502  501  0.00000000000E+00  0.00000000000E+00  0.55261094155E+02  0.55261094155E+02  0.00000000000E+00 0. -1.
         21   -1    0    0  501  502 -0.00000000000E+00 -0.00000000000E+00 -0.19459610771E+04  0.19459610771E+04  0.00000000000E+00 0. -1.
         25    1    1    2    0    0 -0.23253999807E+03  0.22829534252E+02 -0.79155681406E+03  0.83473542408E+03  0.12500000000E+03 0.  0.
         25    1    1    2    0    0  0.21476284161E+02 -0.24439148112E+02 -0.23450517578E+03  0.26772407477E+03  0.12500000000E+03 0.  0.
         25    1    1    2    0    0  0.21106371391E+03  0.16096138599E+01 -0.86463799306E+03  0.89876267236E+03  0.12500000000E+03 0.  0.
</event>
<event>
 5    0  0.5749909E-005  0.3894543E+03  0.7546771E-02  0.1047494E+00
         21   -1    0    0  502  501  0.00000000000E+00  0.00000000000E+00  0.23115834638E+03  0.23115834638E+03  0.00000000000E+00 0.  1.
         21   -1    0    0  501  502 -0.00000000000E+00 -0.00000000000E+00 -0.65615045421E+03  0.65615045421E+03  0.00000000000E+00 0.  1.
         25    1    1    2    0    0  0.66600775386E+02 -0.21722249541E+03 -0.23297411169E+03  0.34860179648E+03  0.12500000000E+03 0.  0.
         25    1    1    2    0    0 -0.19967042988E+03  0.11117108608E+03 -0.19845556824E+03  0.32747046205E+03  0.12500000000E+03 0.  0.
         25    1    1    2    0    0  0.13306965450E+03  0.10605140933E+03  0.64375720910E+01  0.21123654206E+03  0.12500000000E+03 0.  0.
</event>
<event>
 5    0  0.5749909E-005  0.2381136E+03  0.7546771E-02  0.1121056E+00
         21   -1    0    0  502  501  0.00000000000E+00  0.00000000000E+00  0.33699782446E+02  0.33699782446E+02  0.00000000000E+00 0.  1.
         21   -1    0    0  501  502 -0.00000000000E+00 -0.00000000000E+00 -0.16824464252E+04  0.16824464252E+04  0.00000000000E+00 0.  1.
         25    1    1    2    0    0 -0.46323240666E+02 -0.18198325087E+02 -0.10421289504E+04  0.10507781739E+04  0.12500000000E+03 0.  0.
         25    1    1    2    0    0  0.98099805164E+01  0.51709720624E+02 -0.35590145324E+03  0.38086871142E+03  0.12500000000E+03 0.  0.
         25    1    1    2    0    0  0.36513260149E+02 -0.33511395537E+02 -0.25071623913E+03  0.28449932225E+03  0.12500000000E+03 0.  0.
</event>
<event>
 5    0  0.5749909E-005  0.3713793E+03  0.7546771E-02  0.1054167E+00
         21   -1    0    0  502  501  0.00000000000E+00  0.00000000000E+00  0.11720646311E+04  0.11720646311E+04  0.00000000000E+00 0. -1.
         21   -1    0    0  501  502 -0.00000000000E+00 -0.00000000000E+00 -0.11767492049E+03  0.11767492049E+03  0.00000000000E+00 0. -1.
         25    1    1    2    0    0 -0.98523915204E+02 -0.12974066640E+02  0.25984647805E+03  0.30499259078E+03  0.12500000000E+03 0.  0.
         25    1    1    2    0    0  0.23676209772E+03 -0.29885352047E+02  0.73753131468E+03  0.78519224736E+03  0.12500000000E+03 0.  0.
         25    1    1    2    0    0 -0.13823818252E+03  0.42859418688E+02  0.57011917852E+02  0.19955471343E+03  0.12500000000E+03 0.  0.
</event>
<event>
 5    0  0.5749909E-005  0.3478376E+03  0.7546771E-02  0.1063506E+00
         21   -1    0    0  502  501  0.00000000000E+00  0.00000000000E+00  0.10297219092E+03  0.10297219092E+03  0.00000000000E+00 0.  1.
         21   -1    0    0  501  502 -0.00000000000E+00 -0.00000000000E+00 -0.11749871481E+04  0.11749871481E+04  0.00000000000E+00 0.  1.
         25    1    1    2    0    0  0.25377518007E+02  0.31544047931E+02 -0.39264630278E+03  0.41404729738E+03  0.12500000000E+03 0.  0.
         25    1    1    2    0    0 -0.11924757543E+03  0.12073068705E+03 -0.78950581780E+02  0.22506460718E+03  0.12500000000E+03 0.  0.
         25    1    1    2    0    0  0.93870057420E+02 -0.15227473498E+03 -0.60041807265E+03  0.63884743450E+03  0.12500000000E+03 0.  0.
</event>
<event>
 5    0  0.5749909E-005  0.4473954E+03  0.7546771E-02  0.1028502E+00
         21   -1    0    0  502  501  0.00000000000E+00  0.00000000000E+00  0.29083611459E+03  0.29083611459E+03  0.00000000000E+00 0. -1.
         21   -1    0    0  501  502 -0.00000000000E+00 -0.00000000000E+00 -0.68823168671E+03  0.68823168671E+03  0.00000000000E+00 0. -1.
         25    1    1    2    0    0  0.88040766484E+02 -0.94379742789E+02 -0.54105000627E+03  0.57010422003E+03  0.12500000000E+03 0.  0.
         25    1    1    2    0    0 -0.70819674212E+02 -0.41048441067E+02  0.16504292353E+03  0.22263101171E+03  0.12500000000E+03 0.  0.
         25    1    1    2    0    0 -0.17221092272E+02  0.13542818386E+03 -0.21388489376E+02  0.18633256956E+03  0.12500000000E+03 0.  0.
</event>
<event>
 5    0  0.7501354E-005  0.2730694E+03  0.7546771E-02  0.1099536E+00
         21   -1    0    0  502  501  0.00000000000E+00  0.00000000000E+00  0.26538170452E+03  0.26538170452E+03  0.00000000000E+00 0. -1.
         21   -1    0    0  501  502 -0.00000000000E+00 -0.00000000000E+00 -0.28097970191E+03  0.28097970191E+03  0.00000000000E+00 0.  1.
         25    1    1    2    0    0  0.11131186201E+03 -0.53850130650E+02 -0.12123757825E+03  0.21357368184E+03  0.12500000000E+03 0.  0.
         25    1    1    2    0    0 -0.11962002304E+02 -0.25510904230E+02  0.83898700007E+02  0.15315968006E+03  0.12500000000E+03 0.  0.
         25    1    1    2    0    0 -0.99349859706E+02  0.79361034881E+02  0.21740880843E+02  0.17962804453E+03  0.12500000000E+03 0.  0.
</event>
<event>
 5    0  0.5749909E-005  0.4172426E+03  0.7546771E-02  0.1037968E+00
         21   -1    0    0  502  501  0.00000000000E+00  0.00000000000E+00  0.13826653003E+04  0.13826653003E+04  0.00000000000E+00 0. -1.
         21   -1    0    0  501  502 -0.00000000000E+00 -0.00000000000E+00 -0.12590998140E+03  0.12590998140E+03  0.00000000000E+00 0. -1.
         25    1    1    2    0    0  0.59789372470E+02 -0.10778127472E+03  0.50811252890E+03  0.53758247206E+03  0.12500000000E+03 0.  0.
         25    1    1    2    0    0 -0.17501405512E+02 -0.43715033919E+02  0.75818097444E+03  0.76985757993E+03  0.12500000000E+03 0.  0.
         25    1    1    2    0    0 -0.42287966958E+02  0.15149630864E+03 -0.95381844039E+01  0.20113522974E+03  0.12500000000E+03 0.  0.
</event>
<event>
 5    0  0.5749909E-005  0.2697318E+03  0.7546771E-02  0.1101433E+00
         21   -1    0    0  502  501  0.00000000000E+00  0.00000000000E+00  0.48207868334E+03  0.48207868334E+03  0.00000000000E+00 0.  1.
         21   -1    0    0  501  502 -0.00000000000E+00 -0.00000000000E+00 -0.15091989268E+03  0.15091989268E+03  0.00000000000E+00 0.  1.
         25    1    1    2    0    0  0.15785389858E+02  0.46616703287E+02  0.72621084557E+02  0.15271253217E+03  0.12500000000E+03 0.  0.
         25    1    1    2    0    0 -0.60656242833E+02  0.10811739907E+03  0.38347104019E+02  0.18017783483E+03  0.12500000000E+03 0.  0.
         25    1    1    2    0    0  0.44870852975E+02 -0.15473410235E+03  0.22019060209E+03  0.30010820903E+03  0.12500000000E+03 0.  0.
</event>
<event>
 5    0  0.5749909E-005  0.3806262E+03  0.7546771E-02  0.1050703E+00
         21   -1    0    0  502  501  0.00000000000E+00  0.00000000000E+00  0.16362038800E+04  0.16362038800E+04  0.00000000000E+00 0. -1.
         21   -1    0    0  501  502 -0.00000000000E+00 -0.00000000000E+00 -0.88544145992E+02  0.88544145992E+02  0.00000000000E+00 0. -1.
         25    1    1    2    0    0 -0.57076824657E+02  0.92157963829E+02  0.14172496944E+03  0.21785734134E+03  0.12500000000E+03 0.  0.
         25    1    1    2    0    0  0.22573852750E+03  0.36594195699E+02  0.45271744624E+03  0.52237448645E+03  0.12500000000E+03 0.  0.
         25    1    1    2    0    0 -0.16866170285E+03 -0.12875215953E+03  0.95321731832E+03  0.98451619821E+03  0.12500000000E+03 0.  0.
</event>
<event>
 5    0  0.5749909E-005  0.2675920E+03  0.7546771E-02  0.1102666E+00
         21   -1    0    0  502  501  0.00000000000E+00  0.00000000000E+00  0.11580717732E+03  0.11580717732E+03  0.00000000000E+00 0.  1.
         21   -1    0    0  501  502 -0.00000000000E+00 -0.00000000000E+00 -0.61831642271E+03  0.61831642271E+03  0.00000000000E+00 0.  1.
         25    1    1    2    0    0  0.32184479252E+02  0.18607464552E+02 -0.90442064237E+02  0.15870364024E+03  0.12500000000E+03 0.  0.
         25    1    1    2    0    0 -0.21337313438E+02  0.92400115190E+02 -0.37117377248E+03  0.40297398379E+03  0.12500000000E+03 0.  0.
         25    1    1    2    0    0 -0.10847165813E+02 -0.11100757974E+03 -0.40893408676E+02  0.17244597600E+03  0.12500000000E+03 0.  0.
</event>
<event>
 5    0  0.5749909E-005  0.4659709E+03  0.7546771E-02  0.1023064E+00
         21   -1    0    0  502  501  0.00000000000E+00  0.00000000000E+00  0.21944487551E+04  0.21944487551E+04  0.00000000000E+00 0.  1.
         21   -1    0    0  501  502 -0.00000000000E+00 -0.00000000000E+00 -0.98944606211E+02  0.98944606211E+02  0.00000000000E+00 0.  1.
         25    1    1    2    0    0 -0.56008786171E+02  0.27252984847E+02  0.21987123187E+03  0.26047661683E+03  0.12500000000E+03 0.  0.
         25    1    1    2    0    0  0.18175921040E+01  0.34857058125E+03  0.71217170589E+03  0.80269439541E+03  0.12500000000E+03 0.  0.
         25    1    1    2    0    0  0.54191194067E+02 -0.37582356610E+03  0.11634612112E+04  0.12302223491E+04  0.12500000000E+03 0.  0.
</event>
<event>
 5    0  0.5749909E-005  0.2561071E+03  0.7546771E-02  0.1109505E+00
         21   -1    0    0  502  501  0.00000000000E+00  0.00000000000E+00  0.73722885398E+03  0.73722885398E+03  0.00000000000E+00 0. -1.
         21   -1    0    0  501  502 -0.00000000000E+00 -0.00000000000E+00 -0.88969440040E+02  0.88969440040E+02  0.00000000000E+00 0. -1.
         25    1    1    2    0    0  0.27344868428E+02 -0.45453466426E+02  0.32068323339E+02  0.13952468169E+03  0.12500000000E+03 0.  0.
         25    1    1    2    0    0  0.37032554186E+02  0.39761719791E+02  0.16482192102E+03  0.21387769888E+03  0.12500000000E+03 0.  0.
         25    1    1    2    0    0 -0.64377422614E+02  0.56917466354E+01  0.45136916958E+03  0.47279591345E+03  0.12500000000E+03 0.  0.
</event>
<event>
 5    0  0.5749909E-005  0.3355830E+03  0.7546771E-02  0.1068693E+00
         21   -1    0    0  502  501  0.00000000000E+00  0.00000000000E+00  0.12285810637E+03  0.12285810637E+03  0.00000000000E+00 0.  1.
         21   -1    0    0  501  502 -0.00000000000E+00 -0.00000000000E+00 -0.91663407554E+03  0.91663407554E+03  0.00000000000E+00 0.  1.
         25    1    1    2    0    0 -0.10461954706E+03  0.19391553133E+03 -0.25446930290E+03  0.35906560548E+03  0.12500000000E+03 0.  0.
         25    1    1    2    0    0  0.14955132262E+03 -0.19339312110E+03 -0.29968747227E+03  0.40645304577E+03  0.12500000000E+03 0.  0.
         25    1    1    2    0    0 -0.44931775556E+02 -0.52241023695E+00 -0.23961919401E+03  0.27397353066E+03  0.12500000000E+03 0.  0.
</event>
<event>
 5    0  0.5749909E-005  0.4023732E+03  0.7546771E-02  0.1042961E+00
         21   -1    0    0  502  501  0.00000000000E+00  0.00000000000E+00  0.22491642959E+03  0.22491642959E+03  0.00000000000E+00 0.  1.
         21   -1    0    0  501  502 -0.00000000000E+00 -0.00000000000E+00 -0.71984146323E+03  0.71984146323E+03  0.00000000000E+00 0.  1.
         25    1    1    2    0    0 -0.12588083378E-01 -0.22170248490E+03  0.69355182211E+02  0.26379373243E+03  0.12500000000E+03 0.  0.
         25    1    1    2    0    0 -0.42823128927E+02  0.88024144864E+02 -0.40352192088E+03  0.43363234552E+03  0.12500000000E+03 0.  0.
         25    1    1    2    0    0  0.42835717011E+02  0.13367834004E+03 -0.16075829497E+03  0.24733181487E+03  0.12500000000E+03 0.  0.
</event>
<event>
 5    0  0.5749909E-005  0.4301472E+03  0.7546771E-02  0.1033813E+00
         21   -1    0    0  502  501  0.00000000000E+00  0.00000000000E+00  0.97115486897E+03  0.97115486897E+03  0.00000000000E+00 0.  1.
         21   -1    0    0  501  502 -0.00000000000E+00 -0.00000000000E+00 -0.19052226454E+03  0.19052226454E+03  0.00000000000E+00 0.  1.
         25    1    1    2    0    0  0.42349418329E+02 -0.65139554442E+01  0.44716145660E+02  0.13950067574E+03  0.12500000000E+03 0.  0.
         25    1    1    2    0    0  0.21838043148E+03 -0.21907382564E+03  0.43230137713E+03  0.54607035683E+03  0.12500000000E+03 0.  0.
         25    1    1    2    0    0 -0.26072984981E+03  0.22558778109E+03  0.30361508164E+03  0.47610610094E+03  0.12500000000E+03 0.  0.
</event>
<event>
 5    0  0.5749909E-005  0.2258119E+03  0.7546771E-02  0.1129623E+00
         21   -1    0    0  502  501  0.00000000000E+00  0.00000000000E+00  0.23501754115E+03  0.23501754115E+03  0.00000000000E+00 0.  1.
         21   -1    0    0  501  502 -0.00000000000E+00 -0.00000000000E+00 -0.21696693625E+03  0.21696693625E+03  0.00000000000E+00 0.  1.
         25    1    1    2    0    0  0.36315515652E+02  0.87226853907E+02 -0.49811042723E+02  0.16441861420E+03  0.12500000000E+03 0.  0.
         25    1    1    2    0    0 -0.36640772895E+02 -0.27817348505E+02  0.67145461173E+02  0.14916388327E+03  0.12500000000E+03 0.  0.
         25    1    1    2    0    0  0.32525724242E+00 -0.59409505402E+02  0.71618644846E+00  0.13840197993E+03  0.12500000000E+03 0.  0.
</event>
<event>
 5    0  0.5749909E-005  0.7867901E+03  0.7546771E-02  0.9579337E-01
         21   -1    0    0  502  501  0.00000000000E+00  0.00000000000E+00  0.20604208897E+03  0.20604208897E+03  0.00000000000E+00 0.  1.
         21   -1    0    0  501  502 -0.00000000000E+00 -0.00000000000E+00 -0.30044279286E+04  0.30044279286E+04  0.00000000000E+00 0.  1.
         25    1    1    2    0    0 -0.24129080991E+03  0.98912984237E+02 -0.17349899077E+04  0.17589258123E+04  0.12500000000E+03 0.  0.
         25    1    1    2    0    0  0.13958629182E+03 -0.27584287509E+03  0.27603581504E+02  0.33460511400E+03  0.12500000000E+03 0.  0.
         25    1    1    2    0    0  0.10170451808E+03  0.17692989085E+03 -0.10909995135E+04  0.11169390913E+04  0.12500000000E+03 0.  0.
</event>
<event>
 5    0  0.5749909E-005  0.3462645E+03  0.7546771E-02  0.1064159E+00
         21   -1    0    0  502  501  0.00000000000E+00  0.00000000000E+00  0.42698050582E+03  0.42698050582E+03  0.00000000000E+00 0. -1.
         21   -1    0    0  501  502 -0.00000000000E+00 -0.00000000000E+00 -0.28080697861E+03  0.28080697861E+03  0.00000000000E+00 0. -1.
         25    1    1    2    0    0 -0.24221713107E+03  0.23459197393E+02  0.12608785101E+02  0.27386758477E+03  0.12500000000E+03 0.  0.
         25    1    1    2    0    0  0.15310765824E+01  0.25895385706E+02  0.86649575593E+02  0.15429213897E+03  0.12500000000E+03 0.  0.
         25    1    1    2    0    0  0.24068605449E+03 -0.49354583099E+02  0.46915166512E+02  0.27962776069E+03  0.12500000000E+03 0.  0.
</event>
<event>
 5    0  0.5749909E-005  0.2579039E+03  0.7546771E-02  0.1108409E+00
         21   -1    0    0  502  501  0.00000000000E+00  0.00000000000E+00  0.99212173023E+02  0.99212173023E+02  0.00000000000E+00 0. -1.
         21   -1    0    0  501  502 -0.00000000000E+00 -0.00000000000E+00 -0.67042607640E+03  0.67042607640E+03  0.00000000000E+00 0. -1.
         25    1    1    2    0    0 -0.92176347086E+02 -0.56093998853E+02 -0.12461318134E+03  0.20687305439E+03  0.12500000000E+03 0.  0.
         25    1    1    2    0    0  0.98785966834E+02 -0.81057679116E+01 -0.36921956639E+03  0.40220947145E+03  0.12500000000E+03 0.  0.
         25    1    1    2    0    0 -0.66096197473E+01  0.64199766764E+02 -0.77381155643E+02  0.16055572358E+03  0.12500000000E+03 0.  0.
</event>
<event>
 5    0  0.5749909E-005  0.2678848E+03  0.7546771E-02  0.1102496E+00
         21   -1    0    0  502  501  0.00000000000E+00  0.00000000000E+00  0.33707658767E+03  0.33707658767E+03  0.00000000000E+00 0.  1.
         21   -1    0    0  501  502 -0.00000000000E+00 -0.00000000000E+00 -0.21289597029E+03  0.21289597029E+03  0.00000000000E+00 0.  1.
         25    1    1    2    0    0 -0.37303577289E+02 -0.24310171457E+01  0.22808239281E+02  0.13244879200E+03  0.12500000000E+03 0.  0.
         25    1    1    2    0    0 -0.25435931434E+02 -0.58760122660E+02 -0.94431888952E+02  0.16923983064E+03  0.12500000000E+03 0.  0.
         25    1    1    2    0    0  0.62739508723E+02  0.61191139805E+02  0.19580426705E+03  0.24828393532E+03  0.12500000000E+03 0.  0.
</event>
<event>
 5    0  0.5749909E-005  0.2837651E+03  0.7546771E-02  0.1093650E+00
         21   -1    0    0  502  501  0.00000000000E+00  0.00000000000E+00  0.24020531284E+04  0.24020531284E+04  0.00000000000E+00 0. -1.
         21   -1    0    0  501  502 -0.00000000000E+00 -0.00000000000E+00 -0.33522410607E+02  0.33522410607E+02  0.00000000000E+00 0. -1.
         25    1    1    2    0    0  0.44655355866E+02 -0.24706978487E+02  0.18008768059E+04  0.18059310080E+04  0.12500000000E+03 0.  0.
         25    1    1    2    0    0 -0.47841256388E+02  0.41926594653E+02  0.23272702692E+03  0.27172319410E+03  0.12500000000E+03 0.  0.
         25    1    1    2    0    0  0.31859005216E+01 -0.17219616166E+02  0.33492688497E+03  0.35792133691E+03  0.12500000000E+03 0.  0.
</event>
<event>
 5    0  0.5749909E-005  0.3918970E+03  0.7546771E-02  0.1046622E+00
         21   -1    0    0  502  501  0.00000000000E+00  0.00000000000E+00  0.22646208135E+03  0.22646208135E+03  0.00000000000E+00 0.  1.
         21   -1    0    0  501  502 -0.00000000000E+00 -0.00000000000E+00 -0.67818515916E+03  0.67818515916E+03  0.00000000000E+00 0.  1.
         25    1    1    2    0    0 -0.19477132342E+03 -0.56903962407E+02 -0.27533299564E+03  0.36415269854E+03  0.12500000000E+03 0.  0.
         25    1    1    2    0    0  0.14307900514E+03 -0.63785489071E+02  0.88848617525E+02  0.21922423945E+03  0.12500000000E+03 0.  0.
         25    1    1    2    0    0  0.51692318280E+02  0.12068945148E+03 -0.26523869969E+03  0.32127030252E+03  0.12500000000E+03 0.  0.
</event>
<event>
 5    0  0.5749909E-005  0.3036340E+03  0.7546771E-02  0.1083438E+00
         21   -1    0    0  502  501  0.00000000000E+00  0.00000000000E+00  0.45473448007E+02  0.45473448007E+02  0.00000000000E+00 0.  1.
         21   -1    0    0  501  502 -0.00000000000E+00 -0.00000000000E+00 -0.20274165152E+04  0.20274165152E+04  0.00000000000E+00 0.  1.
         25    1    1    2    0    0 -0.10492119662E+03  0.36770745154E+02 -0.10072617875E+04  0.10210591823E+04  0.12500000000E+03 0.  0.
         25    1    1    2    0    0  0.11679713602E+03  0.47799142270E+02 -0.80529748180E+03  0.82465469330E+03  0.12500000000E+03 0.  0.
         25    1    1    2    0    0 -0.11875939408E+02 -0.84569887424E+02 -0.16938379792E+03  0.22717608763E+03  0.12500000000E+03 0.  0.
</event>
<event>
 5    0  0.5749909E-005  0.2637368E+03  0.7546771E-02  0.1104919E+00
         21   -1    0    0  502  501  0.00000000000E+00  0.00000000000E+00  0.19834071669E+03  0.19834071669E+03  0.00000000000E+00 0.  1.
         21   -1    0    0  501  502 -0.00000000000E+00 -0.00000000000E+00 -0.35069496756E+03  0.35069496756E+03  0.00000000000E+00 0.  1.
         25    1    1    2    0    0  0.44106816539E+02 -0.10456168329E+03  0.55841049219E+02  0.17782513786E+03  0.12500000000E+03 0.  0.
         25    1    1    2    0    0  0.42699146432E+02  0.68365185164E+02 -0.12349617995E+03  0.19332180971E+03  0.12500000000E+03 0.  0.
         25    1    1    2    0    0 -0.86805962971E+02  0.36196498124E+02 -0.84699120133E+02  0.17788873667E+03  0.12500000000E+03 0.  0.
</event>
<event>
 5    0  0.6116201E-005  0.2968154E+03  0.7546771E-02  0.1086843E+00
         21   -1    0    0  502  501  0.00000000000E+00  0.00000000000E+00  0.24712294443E+03  0.24712294443E+03  0.00000000000E+00 0.  1.
         21   -1    0    0  501  502 -0.00000000000E+00 -0.00000000000E+00 -0.35650028047E+03  0.35650028047E+03  0.00000000000E+00 0.  1.
         25    1    1    2    0    0 -0.23036873863E+01 -0.10297710085E+03  0.53440087157E+02  0.17055917797E+03  0.12500000000E+03 0.  0.
         25    1    1    2    0    0  0.48700326494E+02  0.18373935765E+03 -0.15822037089E+03  0.27711109526E+03  0.12500000000E+03 0.  0.
         25    1    1    2    0    0 -0.46396639108E+02 -0.80762256803E+02 -0.45970523057E+01  0.15595295167E+03  0.12500000000E+03 0.  0.
</event>
<event>
 5    0  0.8560999E-005  0.6381794E+03  0.7546771E-02  0.9829216E-01
         21   -1    0    0  502  501  0.00000000000E+00  0.00000000000E+00  0.97757358208E+03  0.97757358208E+03  0.00000000000E+00 0. -1.
         21   -1    0    0  501  502 -0.00000000000E+00 -0.00000000000E+00 -0.41661609701E+03  0.41661609701E+03  0.00000000000E+00 0. -1.
         25    1    1    2    0    0  0.59634656184E+00  0.11568854742E+03 -0.15352818616E+03  0.22930350974E+03  0.12500000000E+03 0.  0.
         25    1    1    2    0    0 -0.38536344563E+03 -0.23806180748E+03  0.23394405957E+03  0.52491259503E+03  0.12500000000E+03 0.  0.
         25    1    1    2    0    0  0.38476709907E+03  0.12237326006E+03  0.48054161165E+03  0.63997357432E+03  0.12500000000E+03 0.  0.
</event>
<event>
 5    0  0.5749909E-005  0.4895506E+03  0.7546771E-02  0.1016543E+00
         21   -1    0    0  502  501  0.00000000000E+00  0.00000000000E+00  0.98778835979E+03  0.98778835979E+03  0.00000000000E+00 0. -1.
         21   -1    0    0  501  502 -0.00000000000E+00 -0.00000000000E+00 -0.24262264231E+03  0.24262264231E+03  0.00000000000E+00 0. -1.
         25    1    1    2    0    0 -0.21684391057E+02  0.35124000730E+03  0.36683842067E+02  0.37524719828E+03  0.12500000000E+03 0.  0.
         25    1    1    2    0    0 -0.81096557474E+02 -0.14456392243E+03  0.23327932520E+03  0.31228132008E+03  0.12500000000E+03 0.  0.
         25    1    1    2    0    0  0.10278094853E+03 -0.20667608488E+03  0.47520255020E+03  0.54288248375E+03  0.12500000000E+03 0.  0.
</event>
<event>
 5    0  0.5749909E-005  0.3126481E+03  0.7546771E-02  0.1079084E+00
         21   -1    0    0  502  501  0.00000000000E+00  0.00000000000E+00  0.48135933582E+03  0.48135933582E+03  0.00000000000E+00 0. -1.
         21   -1    0    0  501  502 -0.00000000000E+00 -0.00000000000E+00 -0.20306827066E+03  0.20306827066E+03  0.00000000000E+00 0. -1.
         25    1    1    2    0    0 -0.10411470990E+03  0.80732006034E+02  0.83116973519E+02  0.19972721623E+03  0.12500000000E+03 0.  0.
         25    1    1    2    0    0 -0.43291079546E+02  0.10532250706E+03  0.36400201723E+02  0.17296509112E+03  0.12500000000E+03 0.  0.
         25    1    1    2    0    0  0.14740578944E+03 -0.18605451309E+03  0.15877388992E+03  0.31173529913E+03  0.12500000000E+03 0.  0.
</event>
<event>
 5    0  0.5749909E-005  0.2430887E+03  0.7546771E-02  0.1117752E+00
         21   -1    0    0  502  501  0.00000000000E+00  0.00000000000E+00  0.50113967059E+03  0.50113967059E+03  0.00000000000E+00 0.  1.
         21   -1    0    0  501  502 -0.00000000000E+00 -0.00000000000E+00 -0.11791544534E+03  0.11791544534E+03  0.00000000000E+00 0.  1.
         25    1    1    2    0    0 -0.28805352129E+01  0.81287696154E+02  0.91319596820E+02  0.17487211268E+03  0.12500000000E+03 0.  0.
         25    1    1    2    0    0 -0.60347836908E+02 -0.12670957613E+02  0.35127311798E+02  0.14374053924E+03  0.12500000000E+03 0.  0.
         25    1    1    2    0    0  0.63228372121E+02 -0.68616738541E+02  0.25677731662E+03  0.30044246401E+03  0.12500000000E+03 0.  0.
</event>
<event>
 5    0  0.5749909E-005  0.3249358E+03  0.7546771E-02  0.1073400E+00
         21   -1    0    0  502  501  0.00000000000E+00  0.00000000000E+00  0.13081829454E+03  0.13081829454E+03  0.00000000000E+00 0.  1.
         21   -1    0    0  501  502 -0.00000000000E+00 -0.00000000000E+00 -0.80709873721E+03  0.80709873721E+03  0.00000000000E+00 0.  1.
         25    1    1    2    0    0 -0.15824852492E+03  0.11487674756E+03 -0.17397491512E+03  0.29005436363E+03  0.12500000000E+03 0.  0.
         25    1    1    2    0    0  0.18843001724E+03 -0.15180106604E+03 -0.37257412621E+03  0.46150397026E+03  0.12500000000E+03 0.  0.
         25    1    1    2    0    0 -0.30181492317E+02  0.36924318474E+02 -0.12973140134E+03  0.18635869786E+03  0.12500000000E+03 0.  0.
</event>
<event>
 5    0  0.5749909E-005  0.2972560E+03  0.7546771E-02  0.1086620E+00
         21   -1    0    0  502  501  0.00000000000E+00  0.00000000000E+00  0.97653153209E+03  0.97653153209E+03  0.00000000000E+00 0. -1.
         21   -1    0    0  501  502 -0.00000000000E+00 -0.00000000000E+00 -0.90484681672E+02  0.90484681672E+02  0.00000000000E+00 0. -1.
         25    1    1    2    0    0 -0.23904002681E+02 -0.11375596560E+03  0.20695850429E+03  0.26826972164E+03  0.12500000000E+03 0.  0.
         25    1    1    2    0    0  0.99761957770E+02  0.11835774723E+03  0.14825397266E+03  0.24812344701E+03  0.12500000000E+03 0.  0.
         25    1    1    2    0    0 -0.75857955089E+02 -0.46017816294E+01  0.53083437347E+03  0.55062304510E+03  0.12500000000E+03 0.  0.
</event>
<event>
 5    0  0.5749909E-005  0.2356523E+03  0.7546771E-02  0.1122724E+00
         21   -1    0    0  502  501  0.00000000000E+00  0.00000000000E+00  0.74226217550E+03  0.74226217550E+03  0.00000000000E+00 0.  1.
         21   -1    0    0  501  502 -0.00000000000E+00 -0.00000000000E+00 -0.74814531772E+02  0.74814531772E+02  0.00000000000E+00 0.  1.
         25    1    1    2    0    0  0.46895511192E+02  0.38756104283E+02  0.13953576208E+03  0.19696815349E+03  0.12500000000E+03 0.  0.
         25    1    1    2    0    0 -0.11623045298E+03 -0.49574715176E+01  0.21602507210E+03  0.27536507858E+03  0.12500000000E+03 0.  0.
         25    1    1    2    0    0  0.69334941783E+02 -0.33798632765E+02  0.31188680955E+03  0.34474347521E+03  0.12500000000E+03 0.  0.
</event>
<event>
 5    0  0.5749909E-005  0.2674081E+03  0.7546771E-02  0.1102772E+00
         21   -1    0    0  502  501  0.00000000000E+00  0.00000000000E+00  0.39508622060E+03  0.39508622060E+03  0.00000000000E+00 0.  1.
         21   -1    0    0  501  502 -0.00000000000E+00 -0.00000000000E+00 -0.18099110700E+03  0.18099110700E+03  0.00000000000E+00 0.  1.
         25    1    1    2    0    0 -0.43344679152E+01 -0.12518072628E+03  0.58979195873E+02  0.18652760490E+03  0.12500000000E+03 0.  0.
         25    1    1    2    0    0  0.10547893224E+03  0.66721881918E+02  0.12356823892E+03  0.21557301395E+03  0.12500000000E+03 0.  0.
         25    1    1    2    0    0 -0.10114446432E+03  0.58458844360E+02  0.31547678801E+02  0.17397670874E+03  0.12500000000E+03 0.  0.
</event>
<event>
 5    0  0.5749909E-005  0.3414555E+03  0.7546771E-02  0.1066178E+00
         21   -1    0    0  502  501  0.00000000000E+00  0.00000000000E+00  0.19703022756E+03  0.19703022756E+03  0.00000000000E+00 0. -1.
         21   -1    0    0  501  502 -0.00000000000E+00 -0.00000000000E+00 -0.59174593578E+03  0.59174593578E+03  0.00000000000E+00 0. -1.
         25    1    1    2    0    0  0.16941760025E+02  0.17950413707E+03  0.66899698059E+01  0.21949604587E+03  0.12500000000E+03 0.  0.
         25    1    1    2    0    0  0.75594458763E+02 -0.12571621445E+03 -0.34524752600E+03  0.39539846102E+03  0.12500000000E+03 0.  0.
         25    1    1    2    0    0 -0.92536218787E+02 -0.53787922614E+02 -0.56158152028E+02  0.17388165644E+03  0.12500000000E+03 0.  0.
</event>
<event>
 5    0  0.5749909E-005  0.4860030E+03  0.7546771E-02  0.1017498E+00
         21   -1    0    0  502  501  0.00000000000E+00  0.00000000000E+00  0.25940978208E+03  0.25940978208E+03  0.00000000000E+00 0.  1.
         21   -1    0    0  501  502 -0.00000000000E+00 -0.00000000000E+00 -0.91052435655E+03  0.91052435655E+03  0.00000000000E+00 0.  1.
         25    1    1    2    0    0 -0.94585186865E+02  0.22109531181E+03 -0.64948320440E+03  0.70376340291E+03  0.12500000000E+03 0.  0.
         25    1    1    2    0    0  0.14821661753E+03  0.71341850326E+01 -0.38899332378E+02  0.19788183436E+03  0.12500000000E+03 0.  0.
         25    1    1    2    0    0 -0.53631430669E+02 -0.22822949684E+03  0.37267962300E+02  0.26828890137E+03  0.12500000000E+03 0.  0.
</event>
<event>
 5    0  0.5749909E-005  0.2101043E+03  0.7546771E-02  0.1141483E+00
         21   -1    0    0  502  501  0.00000000000E+00  0.00000000000E+00  0.29718744863E+02  0.29718744863E+02  0.00000000000E+00 0.  1.
         21   -1    0    0  501  502 -0.00000000000E+00 -0.00000000000E+00 -0.14853857692E+04  0.14853857692E+04  0.00000000000E+00 0.  1.
         25    1    1    2    0    0  0.20238063277E+02 -0.67732759296E+02 -0.47694374005E+03  0.49809400424E+03  0.12500000000E+03 0.  0.
         25    1    1    2    0    0  0.27875241857E+02  0.96244337967E+01 -0.51930214361E+03  0.53494801168E+03  0.12500000000E+03 0.  0.
         25    1    1    2    0    0 -0.48113305134E+02  0.58108325500E+02 -0.45942114070E+03  0.48206249817E+03  0.12500000000E+03 0.  0.
</event>
<event>
 5    0  0.5749909E-005  0.3912302E+03  0.7546771E-02  0.1046859E+00
         21   -1    0    0  502  501  0.00000000000E+00  0.00000000000E+00  0.23777376384E+03  0.23777376384E+03  0.00000000000E+00 0. -1.
         21   -1    0    0  501  502 -0.00000000000E+00 -0.00000000000E+00 -0.64372558051E+03  0.64372558051E+03  0.00000000000E+00 0. -1.
         25    1    1    2    0    0 -0.19800141434E+03 -0.18384456893E+03 -0.37695037966E+02  0.30008215790E+03  0.12500000000E+03 0.  0.
         25    1    1    2    0    0  0.16998913476E+02 -0.35551162254E+02 -0.16256008988E+03  0.20881482471E+03  0.12500000000E+03 0.  0.
         25    1    1    2    0    0  0.18100250086E+03  0.21939573118E+03 -0.20569668882E+03  0.37260236174E+03  0.12500000000E+03 0.  0.
</event>
<event>
 5    0  0.6353425E-005  0.2688660E+03  0.7546771E-02  0.1101930E+00
         21   -1    0    0  502  501  0.00000000000E+00  0.00000000000E+00  0.23307492521E+03  0.23307492521E+03  0.00000000000E+00 0. -1.
         21   -1    0    0  501  502 -0.00000000000E+00 -0.00000000000E+00 -0.31015323527E+03  0.31015323527E+03  0.00000000000E+00 0. -1.
         25    1    1    2    0    0  0.88374196913E+02 -0.55017092453E+02 -0.47052027617E+02  0.16933922300E+03  0.12500000000E+03 0.  0.
         25    1    1    2    0    0 -0.85007530132E+02  0.12998273075E+03  0.52760391873E+02  0.20622911876E+03  0.12500000000E+03 0.  0.
         25    1    1    2    0    0 -0.33666667816E+01 -0.74965638299E+02 -0.82786674316E+02  0.16765981873E+03  0.12500000000E+03 0.  0.
</event>
<event>
 5    0  0.6088452E-005  0.3652610E+03  0.7546771E-02  0.1056520E+00
         21   -1    0    0  502  501  0.00000000000E+00  0.00000000000E+00  0.19833710123E+03  0.19833710123E+03  0.00000000000E+00 0.  1.
         21   -1    0    0  501  502 -0.00000000000E+00 -0.00000000000E+00 -0.67267106376E+03  0.67267106376E+03  0.00000000000E+00 0.  1.
         25    1    1    2    0    0 -0.70893171570E+02  0.15790834004E+03 -0.97273882069E+02  0.23462330183E+03  0.12500000000E+03 0.  0.
         25    1    1    2    0    0  0.16084784785E+03 -0.14811854999E+03 -0.26366404026E+02  0.25324162824E+03  0.12500000000E+03 0.  0.
         25    1    1    2    0    0 -0.89954676282E+02 -0.97897900445E+01 -0.35069367643E+03  0.38314323492E+03  0.12500000000E+03 0.  0.
</event>
<event>
 5    0  0.5791072E-005  0.2572085E+03  0.7546771E-02  0.1108832E+00
         21   -1    0    0  502  501  0.00000000000E+00  0.00000000000E+00  0.61124633143E+03  0.61124633143E+03  0.00000000000E+00 0.  1.
         21   -1    0    0  501  502 -0.00000000000E+00 -0.00000000000E+00 -0.10823167705E+03  0.10823167705E+03  0.00000000000E+00 0.  1.
         25    1    1    2    0    0 -0.12329310996E+03  0.42492596232E+01  0.79211661060E+02  0.19266222883E+03  0.12500000000E+03 0.  0.
         25    1    1    2    0    0  0.96878969823E+02 -0.21013841040E+02  0.12929255769E+03  0.20535014434E+03  0.12500000000E+03 0.  0.
         25    1    1    2    0    0  0.26414140136E+02  0.16764581417E+02  0.29451043562E+03  0.32146563530E+03  0.12500000000E+03 0.  0.
</event>
<event>
 5    0  0.5749909E-005  0.2663579E+03  0.7546771E-02  0.1103382E+00
         21   -1    0    0  502  501  0.00000000000E+00  0.00000000000E+00  0.11192902795E+03  0.11192902795E+03  0.00000000000E+00 0.  1.
         21   -1    0    0  501  502 -0.00000000000E+00 -0.00000000000E+00 -0.63385291024E+03  0.63385291024E+03  0.00000000000E+00 0.  1.
         25    1    1    2    0    0  0.71235073035E+02  0.49971546977E+02 -0.61853275087E+02  0.16438497126E+03  0.12500000000E+03 0.  0.
         25    1    1    2    0    0 -0.14853555077E+03  0.11466596834E+02 -0.22442689703E+03  0.29696249729E+03  0.12500000000E+03 0.  0.
         25    1    1    2    0    0  0.77300477734E+02 -0.61438143810E+02 -0.23564371018E+03  0.28443446964E+03  0.12500000000E+03 0.  0.
</event>
<event>
 5    0  0.5749909E-005  0.4078359E+03  0.7546771E-02  0.1041100E+00
         21   -1    0    0  502  501  0.00000000000E+00  0.00000000000E+00  0.71368869587E+03  0.71368869587E+03  0.00000000000E+00 0. -1.
         21   -1    0    0  501  502 -0.00000000000E+00 -0.00000000000E+00 -0.23305697471E+03  0.23305697471E+03  0.00000000000E+00 0. -1.
         25    1    1    2    0    0  0.14393142135E+02  0.13490475916E+03  0.13195651846E+03  0.22681265253E+03  0.12500000000E+03 0.  0.
         25    1    1    2    0    0 -0.13938165019E+03  0.17566417777E+03  0.22623393673E+03  0.34218699842E+03  0.12500000000E+03 0.  0.
         25    1    1    2    0    0  0.12498850805E+03 -0.31056893693E+03  0.12244126597E+03  0.37774601963E+03  0.12500000000E+03 0.  0.
</event>
<event>
 5    0  0.5749909E-005  0.3537830E+03  0.7546771E-02  0.1061073E+00
         21   -1    0    0  502  501  0.00000000000E+00  0.00000000000E+00  0.11768940381E+03  0.11768940381E+03  0.00000000000E+00 0.  1.
         21   -1    0    0  501  502 -0.00000000000E+00 -0.00000000000E+00 -0.10634974364E+04  0.10634974364E+04  0.00000000000E+00 0.  1.
         25    1    1    2    0    0  0.83832995952E+02  0.55392583744E+02 -0.26086247318E+03  0.30621975680E+03  0.12500000000E+03 0.  0.
         25    1    1    2    0    0 -0.10845723893E+03  0.54723901489E+02 -0.68473407230E+03  0.70657160135E+03  0.12500000000E+03 0.  0.
         25    1    1    2    0    0  0.24624242977E+02 -0.11011648523E+03 -0.21148714671E+00  0.16839548209E+03  0.12500000000E+03 0.  0.
</event>
<event>
 5    0  0.5749909E-005  0.3074580E+03  0.7546771E-02  0.1081571E+00
         21   -1    0    0  502  501  0.00000000000E+00  0.00000000000E+00  0.77853801712E+03  0.77853801712E+03  0.00000000000E+00 0. -1.
         21   -1    0    0  501  502 -0.00000000000E+00 -0.00000000000E+00 -0.12142044769E+03  0.12142044769E+03  0.00000000000E+00 0. -1.
         25    1    1    2    0    0 -0.15860709136E+03 -0.91231626643E+02  0.37913040704E+03  0.43914039289E+03  0.12500000000E+03 0.  0.
         25    1    1    2    0    0  0.12435990437E+03 -0.20936295945E+02  0.68921402734E+02  0.19047013955E+03  0.12500000000E+03 0.  0.
         25    1    1    2    0    0  0.34247186981E+02  0.11216792259E+03  0.20906575966E+03  0.27034793237E+03  0.12500000000E+03 0.  0.
</event>
<event>
 5    0  0.5749909E-005  0.3041442E+03  0.7546771E-02  0.1083187E+00
         21   -1    0    0  502  501  0.00000000000E+00  0.00000000000E+00  0.39634335128E+03  0.39634335128E+03  0.00000000000E+00 0. -1.
         21   -1    0    0  501  502 -0.00000000000E+00 -0.00000000000E+00 -0.23339287259E+03  0.23339287259E+03  0.00000000000E+00 0. -1.
         25    1    1    2    0    0 -0.12839468498E+03  0.71909596759E+02 -0.10513942912E+03  0.21985332563E+03  0.12500000000E+03 0.  0.
         25    1    1    2    0    0  0.98308060761E+02 -0.84079728389E+02  0.17230371913E+03  0.24909324993E+03  0.12500000000E+03 0.  0.
         25    1    1    2    0    0  0.30086624216E+02  0.12170131629E+02  0.95786188683E+02  0.16078964831E+03  0.12500000000E+03 0.  0.
</event>
<event>
 5    0  0.5749909E-005  0.3139702E+03  0.7546771E-02  0.1078458E+00
         21   -1    0    0  502  501  0.00000000000E+00  0.00000000000E+00  0.25661844586E+03  0.25661844586E+03  0.00000000000E+00 0.  1.
         21   -1    0    0  501  502 -0.00000000000E+00 -0.00000000000E+00 -0.38413944298E+03  0.38413944298E+03  0.00000000000E+00 0.  1.
         25    1    1    2    0    0  0.32619287811E+02  0.56051820593E+02 -0.17461120834E+02  0.14190037093E+03  0.12500000000E+03 0.  0.
         25    1    1    2    0    0  0.61363152907E+02 -0.12924059455E+02  0.14187253450E+03  0.19921165601E+03  0.12500000000E+03 0.  0.
         25    1    1    2    0    0 -0.93982440717E+02 -0.43127761139E+02 -0.25193241079E+03  0.29964586189E+03  0.12500000000E+03 0.  0.
</event>
<event>
 5    0  0.5749909E-005  0.3415004E+03  0.7546771E-02  0.1066159E+00
         21   -1    0    0  502  501  0.00000000000E+00  0.00000000000E+00  0.39231989629E+03  0.39231989629E+03  0.00000000000E+00 0. -1.
         21   -1    0    0  501  502 -0.00000000000E+00 -0.00000000000E+00 -0.29726382479E+03  0.29726382479E+03  0.00000000000E+00 0. -1.
         25    1    1    2    0    0  0.13967024632E+01 -0.10824608598E+03  0.87499619029E+02  0.18708380271E+03  0.12500000000E+03 0.  0.
         25    1    1    2    0    0  0.40855299348E+02 -0.11702618963E+03  0.12532919888E+03  0.21609417539E+03  0.12500000000E+03 0.  0.
         25    1    1    2    0    0 -0.42252001811E+02  0.22527227560E+03 -0.11777274642E+03  0.28640574298E+03  0.12500000000E+03 0.  0.
</event>
<event>
 5    0  0.5749909E-005  0.7047197E+03  0.7546771E-02  0.9709195E-01
         21   -1    0    0  502  501  0.00000000000E+00  0.00000000000E+00  0.19535190378E+04  0.19535190378E+04  0.00000000000E+00 0.  1.
         21   -1    0    0  501  502 -0.00000000000E+00 -0.00000000000E+00 -0.25422316243E+03  0.25422316243E+03  0.00000000000E+00 0.  1.
         25    1    1    2    0    0 -0.21263356029E+03 -0.94707356633E+02  0.64316156022E+03  0.69531597631E+03  0.12500000000E+03 0.  0.
         25    1    1    2    0    0 -0.23711178552E+03 -0.28202717927E+02  0.98901084290E+03  0.10250779675E+04  0.12500000000E+03 0.  0.
         25    1    1    2    0    0  0.44974534580E+03  0.12291007456E+03  0.67123472260E+02  0.48734825641E+03  0.12500000000E+03 0.  0.
</event>
<event>
 5    0  0.5749909E-005  0.3442373E+03  0.7546771E-02  0.1065005E+00
         21   -1    0    0  502  501  0.00000000000E+00  0.00000000000E+00  0.20802546765E+03  0.20802546765E+03  0.00000000000E+00 0. -1.
         21   -1    0    0  501  502 -0.00000000000E+00 -0.00000000000E+00 -0.56963853302E+03  0.56963853302E+03  0.00000000000E+00 0. -1.
         25    1    1    2    0    0  0.21668028623E+03 -0.11273437154E+03 -0.22016235846E+03  0.35178949537E+03  0.12500000000E+03 0.  0.
         25    1    1    2    0    0 -0.18542227915E+03 -0.89234065859E+01 -0.91307885730E+02  0.24170887197E+03  0.12500000000E+03 0.  0.
         25    1    1    2    0    0 -0.31258007075E+02  0.12165777813E+03 -0.50142821176E+02  0.18416563333E+03  0.12500000000E+03 0.  0.
</event>
<event>
 5    0  0.5749909E-005  0.2512295E+03  0.7546771E-02  0.1112530E+00
         21   -1    0    0  502  501  0.00000000000E+00  0.00000000000E+00  0.17120972071E+03  0.17120972071E+03  0.00000000000E+00 0. -1.
         21   -1    0    0  501  502 -0.00000000000E+00 -0.00000000000E+00 -0.36864889977E+03  0.36864889977E+03  0.00000000000E+00 0. -1.
         25    1    1    2    0    0  0.51383439441E+02  0.23967804223E-01 -0.13633339245E+03  0.19196888373E+03  0.12500000000E+03 0.  0.
         25    1    1    2    0    0 -0.30250362836E+02  0.10529472577E+03 -0.75281197197E+02  0.18246731866E+03  0.12500000000E+03 0.  0.
         25    1    1    2    0    0 -0.21133076605E+02 -0.10531869358E+03  0.14175410579E+02  0.16542241810E+03  0.12500000000E+03 0.  0.
</event>
<event>
 5    0  0.5749909E-005  0.2006550E+03  0.7546771E-02  0.1149188E+00
         21   -1    0    0  502  501  0.00000000000E+00  0.00000000000E+00  0.86614654811E+02  0.86614654811E+02  0.00000000000E+00 0.  1.
         21   -1    0    0  501  502 -0.00000000000E+00 -0.00000000000E+00 -0.46484535140E+03  0.46484535140E+03  0.00000000000E+00 0.  1.
         25    1    1    2    0    0 -0.85496260400E+01  0.29284234468E+02 -0.16532775280E+03  0.20949684566E+03  0.12500000000E+03 0.  0.
         25    1    1    2    0    0 -0.40391950431E+02 -0.72281578489E+01 -0.10493591279E+03  0.16828636819E+03  0.12500000000E+03 0.  0.
         25    1    1    2    0    0  0.48941576471E+02 -0.22056076619E+02 -0.10796703100E+03  0.17367679236E+03  0.12500000000E+03 0.  0.
</event>
<event>
 5    0  0.5749909E-005  0.3581978E+03  0.7546771E-02  0.1059300E+00
         21   -1    0    0  502  501  0.00000000000E+00  0.00000000000E+00  0.69029527045E+02  0.69029527045E+02  0.00000000000E+00 0. -1.
         21   -1    0    0  501  502 -0.00000000000E+00 -0.00000000000E+00 -0.18587070340E+04  0.18587070340E+04  0.00000000000E+00 0. -1.
         25    1    1    2    0    0 -0.21122307348E+03 -0.10689319527E+03 -0.11689596703E+04  0.11992218530E+04  0.12500000000E+03 0.  0.
         25    1    1    2    0    0  0.81512437544E+02 -0.32074957076E+02 -0.27816909788E+03  0.31729501629E+03  0.12500000000E+03 0.  0.
         25    1    1    2    0    0  0.12971063594E+03  0.13896815234E+03 -0.34254873879E+03  0.41121969175E+03  0.12500000000E+03 0.  0.
</event>
<event>
 5    0  0.5749909E-005  0.3439702E+03  0.7546771E-02  0.1065117E+00
         21   -1    0    0  502  501  0.00000000000E+00  0.00000000000E+00  0.29220508589E+03  0.29220508589E+03  0.00000000000E+00 0. -1.
         21   -1    0    0  501  502 -0.00000000000E+00 -0.00000000000E+00 -0.40490564883E+03  0.40490564883E+03  0.00000000000E+00 0. -1.
         25    1    1    2    0    0 -0.23279336294E+03 -0.40920326167E+01 -0.84825376690E+01  0.26439827534E+03  0.12500000000E+03 0.  0.
         25    1    1    2    0    0  0.14307221770E+03 -0.54789478630E+02  0.53291885261E+02  0.20478420711E+03  0.12500000000E+03 0.  0.
         25    1    1    2    0    0  0.89721145235E+02  0.58881511247E+02 -0.15750991053E+03  0.22792825227E+03  0.12500000000E+03 0.  0.
</event>
<event>
 5    0  0.5749909E-005  0.3623466E+03  0.7546771E-02  0.1057659E+00
         21   -1    0    0  502  501  0.00000000000E+00  0.00000000000E+00  0.17117222654E+03  0.17117222654E+03  0.00000000000E+00 0.  1.
         21   -1    0    0  501  502 -0.00000000000E+00 -0.00000000000E+00 -0.76703483848E+03  0.76703483848E+03  0.00000000000E+00 0.  1.
         25    1    1    2    0    0 -0.42361071441E+02 -0.40403080135E+02  0.65006818771E+02  0.15257049435E+03  0.12500000000E+03 0.  0.
         25    1    1    2    0    0 -0.40194699652E+02  0.83598744439E+02 -0.59733467482E+03  0.61728281824E+03  0.12500000000E+03 0.  0.
         25    1    1    2    0    0  0.82555771093E+02 -0.43195664303E+02 -0.63534755891E+02  0.16835375244E+03  0.12500000000E+03 0.  0.
</event>
<event>
 5    0  0.5749909E-005  0.3147704E+03  0.7546771E-02  0.1078082E+00
         21   -1    0    0  502  501  0.00000000000E+00  0.00000000000E+00  0.12984338819E+03  0.12984338819E+03  0.00000000000E+00 0.  1.
         21   -1    0    0  501  502 -0.00000000000E+00 -0.00000000000E+00 -0.76307646687E+03  0.76307646687E+03  0.00000000000E+00 0.  1.
         25    1    1    2    0    0  0.35540744863E+02  0.96898588906E+02 -0.16737102702E+03  0.23300330848E+03  0.12500000000E+03 0.  0.
         25    1    1    2    0    0 -0.73050402791E+02  0.13349738978E+03 -0.14880712080E+03  0.24683288603E+03  0.12500000000E+03 0.  0.
         25    1    1    2    0    0  0.37509657928E+02 -0.23039597868E+03 -0.31705493086E+03  0.41308366055E+03  0.12500000000E+03 0.  0.
</event>
<event>
 5    0  0.5749909E-005  0.5616421E+03  0.7546771E-02  0.9988346E-01
         21   -1    0    0  502  501  0.00000000000E+00  0.00000000000E+00  0.87910572040E+03  0.87910572040E+03  0.00000000000E+00 0. -1.
         21   -1    0    0  501  502 -0.00000000000E+00 -0.00000000000E+00 -0.35882130011E+03  0.35882130011E+03  0.00000000000E+00 0. -1.
         25    1    1    2    0    0  0.28281632733E+03 -0.33570266569E+02  0.26949242674E+03  0.41153761173E+03  0.12500000000E+03 0.  0.
         25    1    1    2    0    0 -0.34100872770E+03 -0.15656674452E+03 -0.96523836608E+02  0.40711417181E+03  0.12500000000E+03 0.  0.
         25    1    1    2    0    0  0.58192400374E+02  0.19013701109E+03  0.34731583016E+03  0.41927523696E+03  0.12500000000E+03 0.  0.
</event>
<event>
 5    0  0.6736691E-005  0.3131673E+03  0.7546771E-02  0.1078838E+00
         21   -1    0    0  502  501  0.00000000000E+00  0.00000000000E+00  0.11559826656E+03  0.11559826656E+03  0.00000000000E+00 0.  1.
         21   -1    0    0  501  502 -0.00000000000E+00 -0.00000000000E+00 -0.84840148128E+03  0.84840148128E+03  0.00000000000E+00 0.  1.
         25    1    1    2    0    0  0.93290725216E+02  0.15040739950E+03 -0.28395429010E+03  0.35718424391E+03  0.12500000000E+03 0.  0.
         25    1    1    2    0    0 -0.40364750211E+02 -0.10046983464E+03 -0.35840396715E+02  0.16921298640E+03  0.12500000000E+03 0.  0.
         25    1    1    2    0    0 -0.52925975005E+02 -0.49937564864E+02 -0.41300852791E+03  0.43760251753E+03  0.12500000000E+03 0.  0.
</event>
<event>
 5    0  0.5749909E-005  0.3046680E+03  0.7546771E-02  0.1082930E+00
         21   -1    0    0  502  501  0.00000000000E+00  0.00000000000E+00  0.48237122714E+03  0.48237122714E+03  0.00000000000E+00 0.  1.
         21   -1    0    0  501  502 -0.00000000000E+00 -0.00000000000E+00 -0.19242981097E+03  0.19242981097E+03  0.00000000000E+00 0.  1.
         25    1    1    2    0    0 -0.34906900949E+02 -0.12693014555E+02  0.35600686783E+03  0.37913783021E+03  0.12500000000E+03 0.  0.
         25    1    1    2    0    0 -0.13831934771E+02  0.15879783612E+02  0.30438156641E+02  0.13036476260E+03  0.12500000000E+03 0.  0.
         25    1    1    2    0    0  0.48738835720E+02 -0.31867690574E+01 -0.96503608300E+02  0.16529844530E+03  0.12500000000E+03 0.  0.
</event>
<event>
 5    0  0.5749909E-005  0.2518944E+03  0.7546771E-02  0.1112113E+00
         21   -1    0    0  502  501  0.00000000000E+00  0.00000000000E+00  0.36213587478E+03  0.36213587478E+03  0.00000000000E+00 0.  1.
         21   -1    0    0  501  502 -0.00000000000E+00 -0.00000000000E+00 -0.17521270450E+03  0.17521270450E+03  0.00000000000E+00 0.  1.
         25    1    1    2    0    0  0.97177129633E+02  0.11762456011E+03  0.12563930608E+03  0.23385715062E+03  0.12500000000E+03 0.  0.
         25    1    1    2    0    0 -0.28632869517E+02 -0.39027433591E+02  0.19809803375E+02  0.13550059077E+03  0.12500000000E+03 0.  0.
         25    1    1    2    0    0 -0.68544260116E+02 -0.78597126523E+02  0.41474060826E+02  0.16799083789E+03  0.12500000000E+03 0.  0.
</event>
<event>
 5    0  0.5749909E-005  0.5867981E+03  0.7546771E-02  0.9933181E-01
         21   -1    0    0  502  501  0.00000000000E+00  0.00000000000E+00  0.70327756801E+03  0.70327756801E+03  0.00000000000E+00 0. -1.
         21   -1    0    0  501  502 -0.00000000000E+00 -0.00000000000E+00 -0.48961033191E+03  0.48961033191E+03  0.00000000000E+00 0. -1.
         25    1    1    2    0    0  0.10869027856E+03  0.24596477217E+03 -0.11043480577E+03  0.31643813317E+03  0.12500000000E+03 0.  0.
         25    1    1    2    0    0 -0.31847901069E+03 -0.29380448739E+03 -0.20445695712E+02  0.45143436238E+03  0.12500000000E+03 0.  0.
         25    1    1    2    0    0  0.20978873213E+03  0.47839715226E+02  0.34454773758E+03  0.42501540437E+03  0.12500000000E+03 0.  0.
</event>
<event>
 5    0  0.5749909E-005  0.4136156E+03  0.7546771E-02  0.1039164E+00
         21   -1    0    0  502  501  0.00000000000E+00  0.00000000000E+00  0.19926766293E+04  0.19926766293E+04  0.00000000000E+00 0. -1.
         21   -1    0    0  501  502 -0.00000000000E+00 -0.00000000000E+00 -0.85853316669E+02  0.85853316669E+02  0.00000000000E+00 0. -1.
         25    1    1    2    0    0  0.37063749804E+01 -0.38863566500E+00  0.67506581582E+03  0.68655134109E+03  0.12500000000E+03 0.  0.
         25    1    1    2    0    0  0.20049121225E+03  0.51906989559E+02  0.15403283799E+03  0.28677896878E+03  0.12500000000E+03 0.  0.
         25    1    1    2    0    0 -0.20419758723E+03 -0.51518353894E+02  0.10777246588E+04  0.11051996361E+04  0.12500000000E+03 0.  0.
</event>
<event>
 5    0  0.5749909E-005  0.2260464E+03  0.7546771E-02  0.1129454E+00
         21   -1    0    0  502  501  0.00000000000E+00  0.00000000000E+00  0.40006118225E+02  0.40006118225E+02  0.00000000000E+00 0.  1.
         21   -1    0    0  501  502 -0.00000000000E+00 -0.00000000000E+00 -0.12772290395E+04  0.12772290395E+04  0.00000000000E+00 0.  1.
         25    1    1    2    0    0 -0.90091369286E+02  0.70616897823E+02 -0.46950737161E+03  0.49916467531E+03  0.12500000000E+03 0.  0.
         25    1    1    2    0    0  0.75828982624E+02 -0.27437705783E+02 -0.43612221949E+03  0.46079328623E+03  0.12500000000E+03 0.  0.
         25    1    1    2    0    0  0.14262386662E+02 -0.43179192039E+02 -0.33159333018E+03  0.35727719619E+03  0.12500000000E+03 0.  0.
</event>
<event>
 5    0  0.5749909E-005  0.4039528E+03  0.7546771E-02  0.1042419E+00
         21   -1    0    0  502  501  0.00000000000E+00  0.00000000000E+00  0.12833374026E+03  0.12833374026E+03  0.00000000000E+00 0.  1.
         21   -1    0    0  501  502 -0.00000000000E+00 -0.00000000000E+00 -0.12715117944E+04  0.12715117944E+04  0.00000000000E+00 0.  1.
         25    1    1    2    0    0 -0.44958215247E+02  0.11137461964E+03 -0.90020568204E+02  0.19533112839E+03  0.12500000000E+03 0.  0.
         25    1    1    2    0    0 -0.10917202339E+03  0.16683005079E+03 -0.33731591583E+03  0.41128800567E+03  0.12500000000E+03 0.  0.
         25    1    1    2    0    0  0.15413023864E+03 -0.27820467043E+03 -0.71584157007E+03  0.79322640056E+03  0.12500000000E+03 0.  0.
</event>
<event>
 5    0  0.5749909E-005  0.2806819E+03  0.7546771E-02  0.1095317E+00
         21   -1    0    0  502  501  0.00000000000E+00  0.00000000000E+00  0.91668426573E+02  0.91668426573E+02  0.00000000000E+00 0.  1.
         21   -1    0    0  501  502 -0.00000000000E+00 -0.00000000000E+00 -0.85942734297E+03  0.85942734297E+03  0.00000000000E+00 0.  1.
         25    1    1    2    0    0  0.26137309454E+02  0.94751374557E+02 -0.58027605562E+03  0.60166957930E+03  0.12500000000E+03 0.  0.
         25    1    1    2    0    0 -0.20896365635E+02 -0.69088643366E+02 -0.16589455037E+03  0.21989975121E+03  0.12500000000E+03 0.  0.
         25    1    1    2    0    0 -0.52409438187E+01 -0.25662731190E+02 -0.21588310412E+02  0.12952643904E+03  0.12500000000E+03 0.  0.
</event>
<event>
 5    0  0.5749909E-005  0.2293262E+03  0.7546771E-02  0.1127115E+00
         21   -1    0    0  502  501  0.00000000000E+00  0.00000000000E+00  0.90585005939E+03  0.90585005939E+03  0.00000000000E+00 0.  1.
         21   -1    0    0  501  502 -0.00000000000E+00 -0.00000000000E+00 -0.58056531515E+02  0.58056531515E+02  0.00000000000E+00 0.  1.
         25    1    1    2    0    0 -0.39158279893E+02  0.98760295719E+01  0.12524201078E+03  0.18149784601E+03  0.12500000000E+03 0.  0.
         25    1    1    2    0    0  0.47029402455E+02  0.59117534671E+02  0.25946410472E+03  0.29774698863E+03  0.12500000000E+03 0.  0.
         25    1    1    2    0    0 -0.78711225618E+01 -0.68993564243E+02  0.46308741238E+03  0.48466175626E+03  0.12500000000E+03 0.  0.
</event>
<event>
 5    0  0.5749909E-005  0.3067437E+03  0.7546771E-02  0.1081917E+00
         21   -1    0    0  502  501  0.00000000000E+00  0.00000000000E+00  0.20272346514E+03  0.20272346514E+03  0.00000000000E+00 0. -1.
         21   -1    0    0  501  502 -0.00000000000E+00 -0.00000000000E+00 -0.46413821480E+03  0.46413821480E+03  0.00000000000E+00 0. -1.
         25    1    1    2    0    0 -0.10142195646E+03  0.96754597135E+02  0.91619011117E+02  0.20896628560E+03  0.12500000000E+03 0.  0.
         25    1    1    2    0    0  0.61252563145E+02 -0.43177536626E+02 -0.14080745382E+03  0.20265220259E+03  0.12500000000E+03 0.  0.
         25    1    1    2    0    0  0.40169393317E+02 -0.53577060509E+02 -0.21222630696E+03  0.25524319175E+03  0.12500000000E+03 0.  0.
</event>
<event>
 5    0  0.5749909E-005  0.2410102E+03  0.7546771E-02  0.1119122E+00
         21   -1    0    0  502  501  0.00000000000E+00  0.00000000000E+00  0.50692001024E+03  0.50692001024E+03  0.00000000000E+00 0. -1.
         21   -1    0    0  501  502 -0.00000000000E+00 -0.00000000000E+00 -0.11458595017E+03  0.11458595017E+03  0.00000000000E+00 0. -1.
         25    1    1    2    0    0  0.35748389706E+02 -0.62923255583E+02  0.18199398876E+03  0.23234477701E+03  0.12500000000E+03 0.  0.
         25    1    1    2    0    0 -0.44424817613E+02  0.38496009814E+02  0.22147118935E+03  0.26101723105E+03  0.12500000000E+03 0.  0.
         25    1    1    2    0    0  0.86764279074E+01  0.24427245768E+02 -0.11131118030E+02  0.12814395236E+03  0.12500000000E+03 0.  0.
</event>
<event>
 5    0  0.5749909E-005  0.2399245E+03  0.7546771E-02  0.1119843E+00
         21   -1    0    0  502  501  0.00000000000E+00  0.00000000000E+00  0.33445406614E+03  0.33445406614E+03  0.00000000000E+00 0. -1.
         21   -1    0    0  501  502 -0.00000000000E+00 -0.00000000000E+00 -0.17211260702E+03  0.17211260702E+03  0.00000000000E+00 0. -1.
         25    1    1    2    0    0  0.91627090022E+02 -0.49197845388E+02  0.29454878200E+02  0.16525296205E+03  0.12500000000E+03 0.  0.
         25    1    1    2    0    0  0.31421765071E+02  0.51228684323E+02  0.51646195127E+02  0.14800011787E+03  0.12500000000E+03 0.  0.
         25    1    1    2    0    0 -0.12304885509E+03 -0.20308389350E+01  0.81240385796E+02  0.19331359324E+03  0.12500000000E+03 0.  0.
</event>
<event>
 5    0  0.5749909E-005  0.2375551E+03  0.7546771E-02  0.1121432E+00
         21   -1    0    0  502  501  0.00000000000E+00  0.00000000000E+00  0.95087924134E+02  0.95087924134E+02  0.00000000000E+00 0.  1.
         21   -1    0    0  501  502 -0.00000000000E+00 -0.00000000000E+00 -0.59347607598E+03  0.59347607598E+03  0.00000000000E+00 0.  1.
         25    1    1    2    0    0  0.95656358320E+02  0.24913240542E+02 -0.22909430885E+03  0.27906990305E+03  0.12500000000E+03 0.  0.
         25    1    1    2    0    0 -0.19211928229E+02 -0.42821268568E+02 -0.21324811755E+03  0.25159991825E+03  0.12500000000E+03 0.  0.
         25    1    1    2    0    0 -0.76444430091E+02  0.17908028027E+02 -0.56045725443E+02  0.15789417880E+03  0.12500000000E+03 0.  0.
</event>
<event>
 5    0  0.5749909E-005  0.4149147E+03  0.7546771E-02  0.1038734E+00
         21   -1    0    0  502  501  0.00000000000E+00  0.00000000000E+00  0.55779352170E+02  0.55779352170E+02  0.00000000000E+00 0. -1.
         21   -1    0    0  501  502 -0.00000000000E+00 -0.00000000000E+00 -0.30863432737E+04  0.30863432737E+04  0.00000000000E+00 0. -1.
         25    1    1    2    0    0 -0.72826788038E+02  0.48889134039E+02 -0.13787022332E+04  0.13871332799E+04  0.12500000000E+03 0.  0.
         25    1    1    2    0    0 -0.19712401176E+03  0.31760612481E+02 -0.38650977272E+03  0.45263828486E+03  0.12500000000E+03 0.  0.
         25    1    1    2    0    0  0.26995079979E+03 -0.80649746520E+02 -0.12653519156E+04  0.13023510611E+04  0.12500000000E+03 0.  0.
</event>
<event>
 5    0  0.5749909E-005  0.2864625E+03  0.7546771E-02  0.1092211E+00
         21   -1    0    0  502  501  0.00000000000E+00  0.00000000000E+00  0.10060095519E+03  0.10060095519E+03  0.00000000000E+00 0.  1.
         21   -1    0    0  501  502 -0.00000000000E+00 -0.00000000000E+00 -0.81570572144E+03  0.81570572144E+03  0.00000000000E+00 0.  1.
         25    1    1    2    0    0  0.12502739696E+03 -0.31643283740E+02 -0.95261371265E+02  0.20330488497E+03  0.12500000000E+03 0.  0.
         25    1    1    2    0    0  0.35689390812E+02  0.34012953923E+02 -0.15265764542E+03  0.20337150822E+03  0.12500000000E+03 0.  0.
         25    1    1    2    0    0 -0.16071678777E+03 -0.23696701829E+01 -0.46718574956E+03  0.50963028344E+03  0.12500000000E+03 0.  0.
</event>
<event>
 5    0  0.5749909E-005  0.2777411E+03  0.7546771E-02  0.1096929E+00
         21   -1    0    0  502  501  0.00000000000E+00  0.00000000000E+00  0.86562979195E+03  0.86562979195E+03  0.00000000000E+00 0. -1.
         21   -1    0    0  501  502 -0.00000000000E+00 -0.00000000000E+00 -0.89114429715E+02  0.89114429715E+02  0.00000000000E+00 0. -1.
         25    1    1    2    0    0  0.84716901812E+02  0.11846649369E+02  0.19472409491E+03  0.24669772940E+03  0.12500000000E+03 0.  0.
         25    1    1    2    0    0  0.38022193910E+02 -0.56956056936E+01  0.49587475534E+03  0.51283028395E+03  0.12500000000E+03 0.  0.
         25    1    1    2    0    0 -0.12273909572E+03 -0.61510436757E+01  0.85916511992E+02  0.19521620832E+03  0.12500000000E+03 0.  0.
</event>
<event>
 5    0  0.5749909E-005  0.3337947E+03  0.7546771E-02  0.1069470E+00
         21   -1    0    0  502  501  0.00000000000E+00  0.00000000000E+00  0.36222679516E+03  0.36222679516E+03  0.00000000000E+00 0.  1.
         21   -1    0    0  501  502 -0.00000000000E+00 -0.00000000000E+00 -0.30759430295E+03  0.30759430295E+03  0.00000000000E+00 0.  1.
         25    1    1    2    0    0 -0.82144973230E+02  0.11026925229E+03 -0.36677911298E+02  0.18941323556E+03  0.12500000000E+03 0.  0.
         25    1    1    2    0    0 -0.71042425308E+02  0.97313695901E+02 -0.15902891422E+02  0.17434128472E+03  0.12500000000E+03 0.  0.
         25    1    1    2    0    0  0.15318739854E+03 -0.20758294820E+03  0.10721329493E+03  0.30606657783E+03  0.12500000000E+03 0.  0.
</event>
<event>
 5    0  0.5749909E-005  0.4134868E+03  0.7546771E-02  0.1039207E+00
         21   -1    0    0  502  501  0.00000000000E+00  0.00000000000E+00  0.91681180002E+03  0.91681180002E+03  0.00000000000E+00 0.  1.
         21   -1    0    0  501  502 -0.00000000000E+00 -0.00000000000E+00 -0.18648468805E+03  0.18648468805E+03  0.00000000000E+00 0.  1.
         25    1    1    2    0    0  0.20794238108E+03  0.19867779259E+03  0.54563719319E+02  0.31830032765E+03  0.12500000000E+03 0.  0.
         25    1    1    2    0    0 -0.10264849776E+03 -0.51266447406E+02  0.21106298513E+03  0.27080905896E+03  0.12500000000E+03 0.  0.
         25    1    1    2    0    0 -0.10529388332E+03 -0.14741134519E+03  0.46470040753E+03  0.51418710146E+03  0.12500000000E+03 0.  0.
</event>
<event>
 5    0  0.5749909E-005  0.2392724E+03  0.7546771E-02  0.1120278E+00
         21   -1    0    0  502  501  0.00000000000E+00  0.00000000000E+00  0.23099554892E+03  0.23099554892E+03  0.00000000000E+00 0.  1.
         21   -1    0    0  501  502 -0.00000000000E+00 -0.00000000000E+00 -0.24784581114E+03  0.24784581114E+03  0.00000000000E+00 0.  1.
         25    1    1    2    0    0 -0.66722187052E+02  0.14407006192E+02 -0.69275029829E+02  0.15837752944E+03  0.12500000000E+03 0.  0.
         25    1    1    2    0    0  0.10525179321E+03 -0.57547877839E+02  0.57771737859E+02  0.18262604391E+03  0.12500000000E+03 0.  0.
         25    1    1    2    0    0 -0.38529606158E+02  0.43140871648E+02 -0.53469702519E+01  0.13783778672E+03  0.12500000000E+03 0.  0.
</event>
<event>
 5    0  0.5749909E-005  0.4752182E+03  0.7546771E-02  0.1020458E+00
         21   -1    0    0  502  501  0.00000000000E+00  0.00000000000E+00  0.77979136113E+02  0.77979136113E+02  0.00000000000E+00 0.  1.
         21   -1    0    0  501  502 -0.00000000000E+00 -0.00000000000E+00 -0.28960606815E+04  0.28960606815E+04  0.00000000000E+00 0.  1.
         25    1    1    2    0    0 -0.12549072784E+03 -0.12857435945E+03 -0.18458816419E+03  0.28631639674E+03  0.12500000000E+03 0.  0.
         25    1    1    2    0    0  0.11444776295E+02  0.25053247520E+03 -0.92410141701E+03  0.96565311212E+03  0.12500000000E+03 0.  0.
         25    1    1    2    0    0  0.11404595154E+03 -0.12195811575E+03 -0.17093919642E+04  0.17220703087E+04  0.12500000000E+03 0.  0.
</event>
<event>
 5    0  0.5749909E-005  0.4249968E+03  0.7546771E-02  0.1035452E+00
         21   -1    0    0  502  501  0.00000000000E+00  0.00000000000E+00  0.67080173902E+03  0.67080173902E+03  0.00000000000E+00 0.  1.
         21   -1    0    0  501  502 -0.00000000000E+00 -0.00000000000E+00 -0.26926327302E+03  0.26926327302E+03  0.00000000000E+00 0.  1.
         25    1    1    2    0    0 -0.25516313160E+03 -0.12098149279E+03  0.13682967356E+03  0.33777522836E+03  0.12500000000E+03 0.  0.
         25    1    1    2    0    0  0.20359537747E+03 -0.11526461347E+03  0.96293354306E+02  0.28219571033E+03  0.12500000000E+03 0.  0.
         25    1    1    2    0    0  0.51567754135E+02  0.23624610626E+03  0.16841543813E+03  0.32009407334E+03  0.12500000000E+03 0.  0.
</event>
<event>
 5    0  0.5749909E-005  0.3764485E+03  0.7546771E-02  0.1052254E+00
         21   -1    0    0  502  501  0.00000000000E+00  0.00000000000E+00  0.23865210524E+03  0.23865210524E+03  0.00000000000E+00 0. -1.
         21   -1    0    0  501  502 -0.00000000000E+00 -0.00000000000E+00 -0.59380789353E+03  0.59380789353E+03  0.00000000000E+00 0. -1.
         25    1    1    2    0    0 -0.17834125601E+03  0.92777221651E+02 -0.26772898590E+02  0.23823308870E+03  0.12500000000E+03 0.  0.
         25    1    1    2    0    0 -0.92828541929E+02 -0.11162974270E+03 -0.16775295562E+03  0.25464561998E+03  0.12500000000E+03 0.  0.
         25    1    1    2    0    0  0.27116979794E+03  0.18852521050E+02 -0.16062993407E+03  0.33958129009E+03  0.12500000000E+03 0.  0.
</event>
<event>
 5    0  0.5749909E-005  0.2530566E+03  0.7546771E-02  0.1111388E+00
         21   -1    0    0  502  501  0.00000000000E+00  0.00000000000E+00  0.22329865430E+03  0.22329865430E+03  0.00000000000E+00 0. -1.
         21   -1    0    0  501  502 -0.00000000000E+00 -0.00000000000E+00 -0.28678025473E+03  0.28678025473E+03  0.00000000000E+00 0. -1.
         25    1    1    2    0    0 -0.38098907634E+02  0.54328591140E+02 -0.74470680621E+02  0.15991874452E+03  0.12500000000E+03 0.  0.
         25    1    1    2    0    0  0.90758393506E+02 -0.45563299325E+02 -0.86574473866E+02  0.18284758615E+03  0.12500000000E+03 0.  0.
         25    1    1    2    0    0 -0.52659485871E+02 -0.87652918156E+01  0.97563554060E+02  0.16731257835E+03  0.12500000000E+03 0.  0.
</event>
<event>
 5    0  0.5749909E-005  0.3298942E+03  0.7546771E-02  0.1071184E+00
         21   -1    0    0  502  501  0.00000000000E+00  0.00000000000E+00  0.10454065426E+03  0.10454065426E+03  0.00000000000E+00 0. -1.
         21   -1    0    0  501  502 -0.00000000000E+00 -0.00000000000E+00 -0.10410320289E+04  0.10410320289E+04  0.00000000000E+00 0. -1.
         25    1    1    2    0    0 -0.34876543489E+02 -0.24363697407E+02 -0.21570454075E+02  0.13379180665E+03  0.12500000000E+03 0.  0.
         25    1    1    2    0    0 -0.14379491654E+03 -0.13972473453E+02 -0.57687140373E+03  0.60768233846E+03  0.12500000000E+03 0.  0.
         25    1    1    2    0    0  0.17867146003E+03  0.38336170860E+02 -0.33804951685E+03  0.40409853806E+03  0.12500000000E+03 0.  0.
</event>
<event>
 5    0  0.5749909E-005  0.2791877E+03  0.7546771E-02  0.1096133E+00
         21   -1    0    0  502  501  0.00000000000E+00  0.00000000000E+00  0.11882677149E+03  0.11882677149E+03  0.00000000000E+00 0.  1.
         21   -1    0    0  501  502 -0.00000000000E+00 -0.00000000000E+00 -0.65596136740E+03  0.65596136740E+03  0.00000000000E+00 0.  1.
         25    1    1    2    0    0  0.12481513936E+03  0.11456946042E+03 -0.18455339611E+03  0.27998202851E+03  0.12500000000E+03 0.  0.
         25    1    1    2    0    0  0.67423509897E+01 -0.30860235195E+02 -0.64423918630E+02  0.14412929856E+03  0.12500000000E+03 0.  0.
         25    1    1    2    0    0 -0.13155749035E+03 -0.83709225221E+02 -0.28815728117E+03  0.35067681181E+03  0.12500000000E+03 0.  0.
</event>
<event>
 5    0  0.5749909E-005  0.3055660E+03  0.7546771E-02  0.1082491E+00
         21   -1    0    0  502  501  0.00000000000E+00  0.00000000000E+00  0.24079171744E+03  0.24079171744E+03  0.00000000000E+00 0. -1.
         21   -1    0    0  501  502 -0.00000000000E+00 -0.00000000000E+00 -0.38776485961E+03  0.38776485961E+03  0.00000000000E+00 0. -1.
         25    1    1    2    0    0  0.63761756167E+02 -0.80656728043E+02  0.15262604157E+02  0.16257003541E+03  0.12500000000E+03 0.  0.
         25    1    1    2    0    0 -0.15195292430E+03 -0.24415261451E+02  0.27979008440E+02  0.20023391598E+03  0.12500000000E+03 0.  0.
         25    1    1    2    0    0  0.88191168137E+02  0.10507198949E+03 -0.19021475477E+03  0.26575262566E+03  0.12500000000E+03 0.  0.
</event>
<event>
 5    0  0.5749909E-005  0.4197436E+03  0.7546771E-02  0.1037150E+00
         21   -1    0    0  502  501  0.00000000000E+00  0.00000000000E+00  0.22298727552E+04  0.22298727552E+04  0.00000000000E+00 0. -1.
         21   -1    0    0  501  502 -0.00000000000E+00 -0.00000000000E+00 -0.79011083568E+02  0.79011083568E+02  0.00000000000E+00 0. -1.
         25    1    1    2    0    0  0.75916220593E+02  0.33862775794E+02  0.75370061731E+02  0.16797501701E+03  0.12500000000E+03 0.  0.
         25    1    1    2    0    0  0.13364522312E+03  0.33397746288E+02  0.34452075071E+03  0.39153033445E+03  0.12500000000E+03 0.  0.
         25    1    1    2    0    0 -0.20956144371E+03 -0.67260522082E+02  0.17309708592E+04  0.17493784873E+04  0.12500000000E+03 0.  0.
</event>
<event>
 5    0  0.5974172E-005  0.3095546E+03  0.7546771E-02  0.1080560E+00
         21   -1    0    0  502  501  0.00000000000E+00  0.00000000000E+00  0.57613714319E+03  0.57613714319E+03  0.00000000000E+00 0. -1.
         21   -1    0    0  501  502 -0.00000000000E+00 -0.00000000000E+00 -0.16632161350E+03  0.16632161350E+03  0.00000000000E+00 0. -1.
         25    1    1    2    0    0 -0.12223109863E+03 -0.44985962626E+02 -0.16028209725E+02  0.18123488023E+03  0.12500000000E+03 0.  0.
         25    1    1    2    0    0  0.73396654534E+02  0.13193819615E+03  0.16970317102E+03  0.25926612342E+03  0.12500000000E+03 0.  0.
         25    1    1    2    0    0  0.48834444098E+02 -0.86952233522E+02  0.25614056839E+03  0.30195775304E+03  0.12500000000E+03 0.  0.
</event>
<event>
 5    0  0.5749909E-005  0.3797973E+03  0.7546771E-02  0.1051009E+00
         21   -1    0    0  502  501  0.00000000000E+00  0.00000000000E+00  0.11792864527E+04  0.11792864527E+04  0.00000000000E+00 0. -1.
         21   -1    0    0  501  502 -0.00000000000E+00 -0.00000000000E+00 -0.12231633784E+03  0.12231633784E+03  0.00000000000E+00 0. -1.
         25    1    1    2    0    0 -0.13485634205E+03 -0.26332504422E+03  0.26729113102E+03  0.41784669512E+03  0.12500000000E+03 0.  0.
         25    1    1    2    0    0  0.41663753212E+02  0.84423703288E+02  0.26208774399E+03  0.30525106971E+03  0.12500000000E+03 0.  0.
         25    1    1    2    0    0  0.93192588834E+02  0.17890134093E+03  0.52759123989E+03  0.57850502575E+03  0.12500000000E+03 0.  0.
</event>
<event>
 5    0  0.5749909E-005  0.3741812E+03  0.7546771E-02  0.1053106E+00
         21   -1    0    0  502  501  0.00000000000E+00  0.00000000000E+00  0.14987877006E+04  0.14987877006E+04  0.00000000000E+00 0.  1.
         21   -1    0    0  501  502 -0.00000000000E+00 -0.00000000000E+00 -0.93416558007E+02  0.93416558007E+02  0.00000000000E+00 0.  1.
         25    1    1    2    0    0 -0.69598110305E+01  0.11977788708E+03  0.42951979835E+03  0.46314947735E+03  0.12500000000E+03 0.  0.
         25    1    1    2    0    0  0.23372205419E+03 -0.14220061527E+03  0.43332470274E+03  0.52748678808E+03  0.12500000000E+03 0.  0.
         25    1    1    2    0    0 -0.22676224316E+03  0.22422728189E+02  0.54252664155E+03  0.60156799321E+03  0.12500000000E+03 0.  0.
</event>
<event>
 5    0  0.6069333E-005  0.4069857E+03  0.7546771E-02  0.1041387E+00
         21   -1    0    0  502  501  0.00000000000E+00  0.00000000000E+00  0.40548272253E+03  0.40548272253E+03  0.00000000000E+00 0.  1.
         21   -1    0    0  501  502 -0.00000000000E+00 -0.00000000000E+00 -0.40849428273E+03  0.40849428273E+03  0.00000000000E+00 0.  1.
         25    1    1    2    0    0  0.60793864955E+02 -0.84748440995E+02  0.24205905642E+03  0.29171180823E+03  0.12500000000E+03 0.  0.
         25    1    1    2    0    0  0.27626584688E+02  0.21076958690E+03 -0.66501394301E+02  0.25541041949E+03  0.12500000000E+03 0.  0.
         25    1    1    2    0    0 -0.88420449643E+02 -0.12602114590E+03 -0.17856922232E+03  0.26685477753E+03  0.12500000000E+03 0.  0.
</event>
<event>
 5    0  0.5749909E-005  0.2732184E+03  0.7546771E-02  0.1099452E+00
         21   -1    0    0  502  501  0.00000000000E+00  0.00000000000E+00  0.44560047937E+03  0.44560047937E+03  0.00000000000E+00 0.  1.
         21   -1    0    0  501  502 -0.00000000000E+00 -0.00000000000E+00 -0.16752293438E+03  0.16752293438E+03  0.00000000000E+00 0.  1.
         25    1    1    2    0    0 -0.73733018469E+00  0.57937203405E+02  0.44015719471E+02  0.14463625671E+03  0.12500000000E+03 0.  0.
         25    1    1    2    0    0 -0.10277982199E+03 -0.19438782640E+01  0.24810938178E+03  0.29622750682E+03  0.12500000000E+03 0.  0.
         25    1    1    2    0    0  0.10351715218E+03 -0.55993325141E+02 -0.14047556261E+02  0.17225965022E+03  0.12500000000E+03 0.  0.
</event>
<event>
 5    0  0.5749909E-005  0.3519625E+03  0.7546771E-02  0.1061812E+00
         21   -1    0    0  502  501  0.00000000000E+00  0.00000000000E+00  0.10641122738E+04  0.10641122738E+04  0.00000000000E+00 0.  1.
         21   -1    0    0  501  502 -0.00000000000E+00 -0.00000000000E+00 -0.11641400884E+03  0.11641400884E+03  0.00000000000E+00 0.  1.
         25    1    1    2    0    0  0.14295056831E+03 -0.22723739845E+03  0.44057887176E+03  0.53085444566E+03  0.12500000000E+03 0.  0.
         25    1    1    2    0    0  0.16110302783E+02  0.12945594718E+03  0.24529181385E+03  0.30464973011E+03  0.12500000000E+03 0.  0.
         25    1    1    2    0    0 -0.15906087110E+03  0.97781451272E+02  0.26182757938E+03  0.34502210690E+03  0.12500000000E+03 0.  0.
</event>
<event>
 5    0  0.5749909E-005  0.2669611E+03  0.7546771E-02  0.1103032E+00
         21   -1    0    0  502  501  0.00000000000E+00  0.00000000000E+00  0.26862319029E+03  0.26862319029E+03  0.00000000000E+00 0.  1.
         21   -1    0    0  501  502 -0.00000000000E+00 -0.00000000000E+00 -0.26530929228E+03  0.26530929228E+03  0.00000000000E+00 0.  1.
         25    1    1    2    0    0 -0.68428688570E+02 -0.66339061284E+01 -0.13939216388E+03  0.19945342685E+03  0.12500000000E+03 0.  0.
         25    1    1    2    0    0  0.99001876030E+02 -0.31084554716E+01  0.28221875115E+02  0.16196452756E+03  0.12500000000E+03 0.  0.
         25    1    1    2    0    0 -0.30573187459E+02  0.97423616000E+01  0.11448418678E+03  0.17251452815E+03  0.12500000000E+03 0.  0.
</event>
<event>
 5    0  0.5749909E-005  0.3632000E+03  0.7546771E-02  0.1057324E+00
         21   -1    0    0  502  501  0.00000000000E+00  0.00000000000E+00  0.52948463048E+02  0.52948463048E+02  0.00000000000E+00 0. -1.
         21   -1    0    0  501  502 -0.00000000000E+00 -0.00000000000E+00 -0.24913711988E+04  0.24913711988E+04  0.00000000000E+00 0. -1.
         25    1    1    2    0    0 -0.99413585660E+02 -0.19230779852E+03 -0.53487384349E+03  0.59040696036E+03  0.12500000000E+03 0.  0.
         25    1    1    2    0    0  0.12642449025E+03  0.16243274245E+03 -0.16584885311E+04  0.16758808894E+04  0.12500000000E+03 0.  0.
         25    1    1    2    0    0 -0.27010904588E+02  0.29875056064E+02 -0.24506036116E+03  0.27803181212E+03  0.12500000000E+03 0.  0.
</event>
<event>
 5    0  0.5749909E-005  0.2902586E+03  0.7546771E-02  0.1090214E+00
         21   -1    0    0  502  501  0.00000000000E+00  0.00000000000E+00  0.89176154988E+02  0.89176154988E+02  0.00000000000E+00 0. -1.
         21   -1    0    0  501  502 -0.00000000000E+00 -0.00000000000E+00 -0.94476009513E+03  0.94476009513E+03  0.00000000000E+00 0. -1.
         25    1    1    2    0    0 -0.10541869639E+03  0.47068485402E+02 -0.22139596142E+03  0.27923057784E+03  0.12500000000E+03 0.  0.
         25    1    1    2    0    0  0.47552956532E+02 -0.17142885067E+03 -0.27655424443E+03  0.35179025659E+03  0.12500000000E+03 0.  0.
         25    1    1    2    0    0  0.57865739859E+02  0.12436036527E+03 -0.35763373429E+03  0.40291541569E+03  0.12500000000E+03 0.  0.
</event>
<event>
 5    0  0.5749909E-005  0.2704158E+03  0.7546771E-02  0.1101042E+00
         21   -1    0    0  502  501  0.00000000000E+00  0.00000000000E+00  0.19376530175E+03  0.19376530175E+03  0.00000000000E+00 0. -1.
         21   -1    0    0  501  502 -0.00000000000E+00 -0.00000000000E+00 -0.37738805019E+03  0.37738805019E+03  0.00000000000E+00 0. -1.
         25    1    1    2    0    0  0.46356364480E+01  0.14818778821E+03 -0.33002474919E+01  0.19395102818E+03  0.12500000000E+03 0.  0.
         25    1    1    2    0    0 -0.17967317340E+02  0.11490023554E+02 -0.85554743216E+02  0.15296881780E+03  0.12500000000E+03 0.  0.
         25    1    1    2    0    0  0.13331680892E+02 -0.15967781177E+03 -0.94767757732E+02  0.22423350595E+03  0.12500000000E+03 0.  0.
</event>
<event>
 5    0  0.5749909E-005  0.3692346E+03  0.7546771E-02  0.1054986E+00
         21   -1    0    0  502  501  0.00000000000E+00  0.00000000000E+00  0.11442715438E+04  0.11442715438E+04  0.00000000000E+00 0.  1.
         21   -1    0    0  501  502 -0.00000000000E+00 -0.00000000000E+00 -0.11914496084E+03  0.11914496084E+03  0.00000000000E+00 0.  1.
         25    1    1    2    0    0 -0.22250460809E+03 -0.18643611838E+03  0.51945802318E+03  0.60805292920E+03  0.12500000000E+03 0.  0.
         25    1    1    2    0    0  0.20511407741E+03  0.14093228754E+03  0.38323128943E+03  0.47373506902E+03  0.12500000000E+03 0.  0.
         25    1    1    2    0    0  0.17390530680E+02  0.45503830838E+02  0.12243727036E+03  0.18162850644E+03  0.12500000000E+03 0.  0.
</event>
<event>
 5    0  0.5749909E-005  0.2920159E+03  0.7546771E-02  0.1089301E+00
         21   -1    0    0  502  501  0.00000000000E+00  0.00000000000E+00  0.33832970326E+03  0.33832970326E+03  0.00000000000E+00 0.  1.
         21   -1    0    0  501  502 -0.00000000000E+00 -0.00000000000E+00 -0.25204198732E+03  0.25204198732E+03  0.00000000000E+00 0.  1.
         25    1    1    2    0    0 -0.75945429154E+02 -0.22848940002E+02 -0.97150818335E+01  0.14835486202E+03  0.12500000000E+03 0.  0.
         25    1    1    2    0    0  0.18968348730E+03  0.55098640791E+02 -0.19852431746E+02  0.23459497995E+03  0.12500000000E+03 0.  0.
         25    1    1    2    0    0 -0.11373805815E+03 -0.32249700789E+02  0.11585522952E+03  0.20742184861E+03  0.12500000000E+03 0.  0.
</event>
<event>
 5    0  0.5749909E-005  0.5261510E+03  0.7546771E-02  0.1007170E+00
         21   -1    0    0  502  501  0.00000000000E+00  0.00000000000E+00  0.36136316270E+03  0.36136316270E+03  0.00000000000E+00 0.  1.
         21   -1    0    0  501  502 -0.00000000000E+00 -0.00000000000E+00 -0.76608491621E+03  0.76608491621E+03  0.00000000000E+00 0.  1.
         25    1    1    2    0    0  0.13063923377E+01 -0.22974644120E+03 -0.12194282703E+03  0.28858306771E+03  0.12500000000E+03 0.  0.
         25    1    1    2    0    0  0.88631169268E+02  0.14127374687E+02  0.22121041729E+03  0.26947006438E+03  0.12500000000E+03 0.  0.
         25    1    1    2    0    0 -0.89937561606E+02  0.21561906651E+03 -0.50398934377E+03  0.56939494682E+03  0.12500000000E+03 0.  0.
</event>
<event>
 5    0  0.5749909E-005  0.2773192E+03  0.7546771E-02  0.1097162E+00
         21   -1    0    0  502  501  0.00000000000E+00  0.00000000000E+00  0.45043414037E+02  0.45043414037E+02  0.00000000000E+00 0.  1.
         21   -1    0    0  501  502 -0.00000000000E+00 -0.00000000000E+00 -0.17073730719E+04  0.17073730719E+04  0.00000000000E+00 0.  1.
         25    1    1    2    0    0  0.28588278675E+02  0.74192759501E+02 -0.41364786105E+03  0.43937615797E+03  0.12500000000E+03 0.  0.
         25    1    1    2    0    0 -0.43204227175E+02 -0.85940703217E+02 -0.11256626715E+04  0.11366590781E+04  0.12500000000E+03 0.  0.
         25    1    1    2    0    0  0.14615948500E+02  0.11747943716E+02 -0.12301912535E+03  0.17638124995E+03  0.12500000000E+03 0.  0.
</event>
<event>
 5    0  0.5749909E-005  0.3102741E+03  0.7546771E-02  0.1080215E+00
         21   -1    0    0  502  501  0.00000000000E+00  0.00000000000E+00  0.87425498158E+03  0.87425498158E+03  0.00000000000E+00 0. -1.
         21   -1    0    0  501  502 -0.00000000000E+00 -0.00000000000E+00 -0.11011661519E+03  0.11011661519E+03  0.00000000000E+00 0. -1.
         25    1    1    2    0    0  0.13830508379E+03 -0.64679822590E+02  0.36466152729E+03  0.41462610282E+03  0.12500000000E+03 0.  0.
         25    1    1    2    0    0 -0.13237993264E+03  0.51586277650E+02  0.46290987918E+02  0.19481644225E+03  0.12500000000E+03 0.  0.
         25    1    1    2    0    0 -0.59251511519E+01  0.13093544939E+02  0.35318585118E+03  0.37492905170E+03  0.12500000000E+03 0.  0.
</event>
<event>
 5    0  0.5749909E-005  0.2265776E+03  0.7546771E-02  0.1129072E+00
         21   -1    0    0  502  501  0.00000000000E+00  0.00000000000E+00  0.35669519579E+03  0.35669519579E+03  0.00000000000E+00 0.  1.
         21   -1    0    0  501  502 -0.00000000000E+00 -0.00000000000E+00 -0.14392520329E+03  0.14392520329E+03  0.00000000000E+00 0.  1.
         25    1    1    2    0    0  0.15374222391E+02 -0.69025926019E+02  0.16704533518E+03  0.22029545883E+03  0.12500000000E+03 0.  0.
         25    1    1    2    0    0  0.30757119916E+02  0.59509382466E+02  0.10654143072E+02  0.14221771265E+03  0.12500000000E+03 0.  0.
         25    1    1    2    0    0 -0.46131342307E+02  0.95165435532E+01  0.35070514256E+02  0.13810722760E+03  0.12500000000E+03 0.  0.
</event>
<event>
 5    0  0.5749909E-005  0.3151567E+03  0.7546771E-02  0.1077900E+00
         21   -1    0    0  502  501  0.00000000000E+00  0.00000000000E+00  0.43892519006E+02  0.43892519006E+02  0.00000000000E+00 0. -1.
         21   -1    0    0  501  502 -0.00000000000E+00 -0.00000000000E+00 -0.22628858254E+04  0.22628858254E+04  0.00000000000E+00 0. -1.
         25    1    1    2    0    0  0.36469522085E+02  0.14399360616E+03 -0.14127694687E+04  0.14260458465E+04  0.12500000000E+03 0.  0.
         25    1    1    2    0    0  0.81696409648E+02 -0.88060003842E+02 -0.37665670839E+03  0.41463736398E+03  0.12500000000E+03 0.  0.
         25    1    1    2    0    0 -0.11816593173E+03 -0.55933602318E+02 -0.42956712930E+03  0.46609513393E+03  0.12500000000E+03 0.  0.
</event>
<event>
 5    0  0.5749909E-005  0.3611537E+03  0.7546771E-02  0.1058128E+00
         21   -1    0    0  502  501  0.00000000000E+00  0.00000000000E+00  0.17361081369E+03  0.17361081369E+03  0.00000000000E+00 0.  1.
         21   -1    0    0  501  502 -0.00000000000E+00 -0.00000000000E+00 -0.75128977040E+03  0.75128977040E+03  0.00000000000E+00 0.  1.
         25    1    1    2    0    0 -0.71730651623E+02 -0.45211748406E+02  0.40776461744E+02  0.15645161683E+03  0.12500000000E+03 0.  0.
         25    1    1    2    0    0 -0.60180429393E+02 -0.62791699183E+02 -0.47349279858E+02  0.15947236711E+03  0.12500000000E+03 0.  0.
         25    1    1    2    0    0  0.13191108102E+03  0.10800344759E+03 -0.57110613860E+03  0.60897660015E+03  0.12500000000E+03 0.  0.
</event>
<event>
 5    0  0.5749909E-005  0.3589891E+03  0.7546771E-02  0.1058985E+00
         21   -1    0    0  502  501  0.00000000000E+00  0.00000000000E+00  0.79130845493E+02  0.79130845493E+02  0.00000000000E+00 0. -1.
         21   -1    0    0  501  502 -0.00000000000E+00 -0.00000000000E+00 -0.16286084902E+04  0.16286084902E+04  0.00000000000E+00 0. -1.
         25    1    1    2    0    0  0.17923237899E+03  0.90546833589E+02 -0.33209056795E+03  0.40771573440E+03  0.12500000000E+03 0.  0.
         25    1    1    2    0    0 -0.68726442381E+02 -0.83184318872E+02 -0.16138149731E+03  0.23089379043E+03  0.12500000000E+03 0.  0.
         25    1    1    2    0    0 -0.11050593661E+03 -0.73625147167E+01 -0.10560055794E+04  0.10691298108E+04  0.12500000000E+03 0.  0.
</event>
<event>
 5    0  0.5749909E-005  0.3226083E+03  0.7546771E-02  0.1074455E+00
         21   -1    0    0  502  501  0.00000000000E+00  0.00000000000E+00  0.11319852137E+03  0.11319852137E+03  0.00000000000E+00 0.  1.
         21   -1    0    0  501  502 -0.00000000000E+00 -0.00000000000E+00 -0.91941212881E+03  0.91941212881E+03  0.00000000000E+00 0.  1.
         25    1    1    2    0    0  0.11300969710E+03  0.52728548635E+01 -0.49118627708E+03  0.51931488851E+03  0.12500000000E+03 0.  0.
         25    1    1    2    0    0  0.13560775467E+02 -0.98246518136E+02 -0.26400005797E+02  0.16173507122E+03  0.12500000000E+03 0.  0.
         25    1    1    2    0    0 -0.12657047257E+03  0.92973663273E+02 -0.28862732455E+03  0.35156069044E+03  0.12500000000E+03 0.  0.
</event>
<event>
 5    0  0.5749909E-005  0.3756713E+03  0.7546771E-02  0.1052545E+00
         21   -1    0    0  502  501  0.00000000000E+00  0.00000000000E+00  0.14876401677E+03  0.14876401677E+03  0.00000000000E+00 0. -1.
         21   -1    0    0  501  502 -0.00000000000E+00 -0.00000000000E+00 -0.94867626082E+03  0.94867626082E+03  0.00000000000E+00 0. -1.
         25    1    1    2    0    0 -0.93102067175E+02 -0.18333044601E+03 -0.66407003230E+02  0.24962559449E+03  0.12500000000E+03 0.  0.
         25    1    1    2    0    0  0.61366970485E+02 -0.28478489299E+02 -0.11974919261E+03  0.18585424006E+03  0.12500000000E+03 0.  0.
         25    1    1    2    0    0  0.31735096690E+02  0.21180893531E+03 -0.61375604821E+03  0.66196044304E+03  0.12500000000E+03 0.  0.
</event>
<event>
 5    0  0.5749909E-005  0.4012059E+03  0.7546771E-02  0.1043363E+00
         21   -1    0    0  502  501  0.00000000000E+00  0.00000000000E+00  0.51423520456E+03  0.51423520456E+03  0.00000000000E+00 0. -1.
         21   -1    0    0  501  502 -0.00000000000E+00 -0.00000000000E+00 -0.31302046711E+03  0.31302046711E+03  0.00000000000E+00 0. -1.
         25    1    1    2    0    0 -0.27280789697E+02  0.31379959628E+02  0.11652711527E+03  0.17587641100E+03  0.12500000000E+03 0.  0.
         25    1    1    2    0    0  0.11249532935E+03  0.23953397765E+03  0.15792563870E+03  0.33256162276E+03  0.12500000000E+03 0.  0.
         25    1    1    2    0    0 -0.85214539652E+02 -0.27091393728E+03 -0.73238016523E+02  0.31881763791E+03  0.12500000000E+03 0.  0.
</event>
<event>
 5    0  0.5749909E-005  0.4346896E+03  0.7546771E-02  0.1032389E+00
         21   -1    0    0  502  501  0.00000000000E+00  0.00000000000E+00  0.89963897029E+03  0.89963897029E+03  0.00000000000E+00 0.  1.
         21   -1    0    0  501  502 -0.00000000000E+00 -0.00000000000E+00 -0.21003429668E+03  0.21003429668E+03  0.00000000000E+00 0.  1.
         25    1    1    2    0    0  0.40443059214E+02 -0.32441853666E+03  0.56269117414E+03  0.66266838270E+03  0.12500000000E+03 0.  0.
         25    1    1    2    0    0 -0.14041985035E+02  0.99671164047E+02  0.34763020734E+01  0.16052601958E+03  0.12500000000E+03 0.  0.
         25    1    1    2    0    0 -0.26401074179E+02  0.22474737261E+03  0.12343719740E+03  0.28647886469E+03  0.12500000000E+03 0.  0.
</event>
<event>
 5    0  0.5749909E-005  0.2491978E+03  0.7546771E-02  0.1113813E+00
         21   -1    0    0  502  501  0.00000000000E+00  0.00000000000E+00  0.73209767742E+02  0.73209767742E+02  0.00000000000E+00 0. -1.
         21   -1    0    0  501  502 -0.00000000000E+00 -0.00000000000E+00 -0.84824155586E+03  0.84824155586E+03  0.00000000000E+00 0. -1.
         25    1    1    2    0    0  0.10596697408E+03  0.24322739753E+02 -0.41663048989E+03  0.44835985589E+03  0.12500000000E+03 0.  0.
         25    1    1    2    0    0  0.22986771058E+02 -0.21301162757E+02 -0.13912110858E+03  0.18963600405E+03  0.12500000000E+03 0.  0.
         25    1    1    2    0    0 -0.12895374514E+03 -0.30215769959E+01 -0.21928018965E+03  0.28345546367E+03  0.12500000000E+03 0.  0.
</event>
<event>
 5    0  0.5749909E-005  0.3240805E+03  0.7546771E-02  0.1073787E+00
         21   -1    0    0  502  501  0.00000000000E+00  0.00000000000E+00  0.25320050568E+03  0.25320050568E+03  0.00000000000E+00 0.  1.
         21   -1    0    0  501  502 -0.00000000000E+00 -0.00000000000E+00 -0.41480228455E+03  0.41480228455E+03  0.00000000000E+00 0.  1.
         25    1    1    2    0    0 -0.17343719966E+03 -0.55106687632E+02 -0.14822257633E+03  0.26591754621E+03  0.12500000000E+03 0.  0.
         25    1    1    2    0    0  0.10128431107E+03  0.57364642896E+02  0.11743584332E+03  0.20728094755E+03  0.12500000000E+03 0.  0.
         25    1    1    2    0    0  0.72152888596E+02 -0.22579552649E+01 -0.13081504587E+03  0.19480429646E+03  0.12500000000E+03 0.  0.
</event>
<event>
 5    0  0.5749909E-005  0.3654233E+03  0.7546771E-02  0.1056457E+00
         21   -1    0    0  502  501  0.00000000000E+00  0.00000000000E+00  0.16387755514E+03  0.16387755514E+03  0.00000000000E+00 0. -1.
         21   -1    0    0  501  502 -0.00000000000E+00 -0.00000000000E+00 -0.81484130275E+03  0.81484130275E+03  0.00000000000E+00 0. -1.
         25    1    1    2    0    0  0.59357637516E+02  0.42834766627E+02 -0.98239342130E+02  0.17502604008E+03  0.12500000000E+03 0.  0.
         25    1    1    2    0    0  0.81776332587E+01  0.12914658517E+02  0.82395854598E+02  0.15049165739E+03  0.12500000000E+03 0.  0.
         25    1    1    2    0    0 -0.67535270775E+02 -0.55749425145E+02 -0.63512026008E+03  0.65320116042E+03  0.12500000000E+03 0.  0.
</event>
<event>
 5    0  0.5749909E-005  0.3536938E+03  0.7546771E-02  0.1061109E+00
         21   -1    0    0  502  501  0.00000000000E+00  0.00000000000E+00  0.10391055494E+03  0.10391055494E+03  0.00000000000E+00 0.  1.
         21   -1    0    0  501  502 -0.00000000000E+00 -0.00000000000E+00 -0.12039130370E+04  0.12039130370E+04  0.00000000000E+00 0.  1.
         25    1    1    2    0    0  0.16537157503E+03 -0.11487638600E+03 -0.59592929759E+03  0.64132758370E+03  0.12500000000E+03 0.  0.
         25    1    1    2    0    0  0.51268546602E+02 -0.41007240659E+02 -0.17087809703E+03  0.22166276571E+03  0.12500000000E+03 0.  0.
         25    1    1    2    0    0 -0.21664012163E+03  0.15588362666E+03 -0.33319508743E+03  0.44483324252E+03  0.12500000000E+03 0.  0.
</event>
<event>
 5    0  0.5749909E-005  0.2914161E+03  0.7546771E-02  0.1089612E+00
         21   -1    0    0  502  501  0.00000000000E+00  0.00000000000E+00  0.14080801476E+04  0.14080801476E+04  0.00000000000E+00 0. -1.
         21   -1    0    0  501  502 -0.00000000000E+00 -0.00000000000E+00 -0.60311440705E+02  0.60311440705E+02  0.00000000000E+00 0. -1.
         25    1    1    2    0    0 -0.33101736096E+02 -0.13592161099E+03  0.27655882432E+03  0.33418586531E+03  0.12500000000E+03 0.  0.
         25    1    1    2    0    0  0.49191291992E+02  0.14894876482E+03  0.36278977200E+03  0.41454425146E+03  0.12500000000E+03 0.  0.
         25    1    1    2    0    0 -0.16089555896E+02 -0.13027153829E+02  0.70842011061E+03  0.71966147157E+03  0.12500000000E+03 0.  0.
</event>
<event>
 5    0  0.5749909E-005  0.3020959E+03  0.7546771E-02  0.1084198E+00
         21   -1    0    0  502  501  0.00000000000E+00  0.00000000000E+00  0.13710104884E+04  0.13710104884E+04  0.00000000000E+00 0. -1.
         21   -1    0    0  501  502 -0.00000000000E+00 -0.00000000000E+00 -0.66565447664E+02  0.66565447664E+02  0.00000000000E+00 0. -1.
         25    1    1    2    0    0 -0.90738969824E+02  0.84088945482E+02  0.31639591592E+03  0.36198879403E+03  0.12500000000E+03 0.  0.
         25    1    1    2    0    0  0.66567018811E+02 -0.14506207752E+03  0.23922026058E+03  0.31356898347E+03  0.12500000000E+03 0.  0.
         25    1    1    2    0    0  0.24171951013E+02  0.60973132034E+02  0.74882886424E+03  0.76201815856E+03  0.12500000000E+03 0.  0.
</event>
<event>
 5    0  0.5749909E-005  0.2232900E+03  0.7546771E-02  0.1131454E+00
         21   -1    0    0  502  501  0.00000000000E+00  0.00000000000E+00  0.16324290805E+03  0.16324290805E+03  0.00000000000E+00 0.  1.
         21   -1    0    0  501  502 -0.00000000000E+00 -0.00000000000E+00 -0.30542476098E+03  0.30542476098E+03  0.00000000000E+00 0.  1.
         25    1    1    2    0    0 -0.32630700208E+02 -0.31039566235E+02 -0.15904996059E+03  0.20724407647E+03  0.12500000000E+03 0.  0.
         25    1    1    2    0    0  0.73543976846E+01  0.10831383878E+02 -0.19713699864E+02  0.12722042291E+03  0.12500000000E+03 0.  0.
         25    1    1    2    0    0  0.25276302524E+02  0.20208182357E+02  0.36581807522E+02  0.13420316965E+03  0.12500000000E+03 0.  0.
</event>
<event>
 5    0  0.5749909E-005  0.2845588E+03  0.7546771E-02  0.1093225E+00
         21   -1    0    0  502  501  0.00000000000E+00  0.00000000000E+00  0.68077418409E+02  0.68077418409E+02  0.00000000000E+00 0.  1.
         21   -1    0    0  501  502 -0.00000000000E+00 -0.00000000000E+00 -0.11894360738E+04  0.11894360738E+04  0.00000000000E+00 0.  1.
         25    1    1    2    0    0  0.51246310681E+02  0.24906453922E+02 -0.63170439634E+03  0.64646883928E+03  0.12500000000E+03 0.  0.
         25    1    1    2    0    0 -0.55802083992E+02 -0.74802940760E+02 -0.44113283404E+03  0.46790226521E+03  0.12500000000E+03 0.  0.
         25    1    1    2    0    0  0.45557733103E+01  0.49896486837E+02 -0.48521424976E+02  0.14314238768E+03  0.12500000000E+03 0.  0.
</event>
<event>
 5    0  0.5749909E-005  0.3009468E+03  0.7546771E-02  0.1084768E+00
         21   -1    0    0  502  501  0.00000000000E+00  0.00000000000E+00  0.86164076851E+03  0.86164076851E+03  0.00000000000E+00 0. -1.
         21   -1    0    0  501  502 -0.00000000000E+00 -0.00000000000E+00 -0.10511221568E+03  0.10511221568E+03  0.00000000000E+00 0. -1.
         25    1    1    2    0    0  0.69135595316E+02  0.10554726134E+03  0.26344701793E+03  0.31772517397E+03  0.12500000000E+03 0.  0.
         25    1    1    2    0    0 -0.98507300419E+02  0.80525260733E+02  0.12771228065E+03  0.21937053695E+03  0.12500000000E+03 0.  0.
         25    1    1    2    0    0  0.29371705103E+02 -0.18607252207E+03  0.36536925424E+03  0.42965727327E+03  0.12500000000E+03 0.  0.
</event>
<event>
 5    0  0.6714962E-005  0.4107584E+03  0.7546771E-02  0.1040117E+00
         21   -1    0    0  502  501  0.00000000000E+00  0.00000000000E+00  0.14886237777E+03  0.14886237777E+03  0.00000000000E+00 0.  1.
         21   -1    0    0  501  502 -0.00000000000E+00 -0.00000000000E+00 -0.11334124805E+04  0.11334124805E+04  0.00000000000E+00 0.  1.
         25    1    1    2    0    0  0.70862416451E+02  0.21375553160E+02  0.35121088314E+02  0.14945530162E+03  0.12500000000E+03 0.  0.
         25    1    1    2    0    0  0.14882784626E+03 -0.49651955905E+02 -0.67686912273E+03  0.70596873433E+03  0.12500000000E+03 0.  0.
         25    1    1    2    0    0 -0.21969026271E+03  0.28276402746E+02 -0.34280206833E+03  0.42685082235E+03  0.12500000000E+03 0.  0.
</event>
<event>
 5    0  0.5749909E-005  0.3147268E+03  0.7546771E-02  0.1078102E+00
         21   -1    0    0  502  501  0.00000000000E+00  0.00000000000E+00  0.40436885532E+03  0.40436885532E+03  0.00000000000E+00 0.  1.
         21   -1    0    0  501  502 -0.00000000000E+00 -0.00000000000E+00 -0.24495687592E+03  0.24495687592E+03  0.00000000000E+00 0.  1.
         25    1    1    2    0    0  0.79924353813E+02 -0.74056301591E+02 -0.58422711370E+02  0.17581368360E+03  0.12500000000E+03 0.  0.
         25    1    1    2    0    0 -0.38072758958E+02 -0.11808045810E+03  0.40546385081E+02  0.18072503674E+03  0.12500000000E+03 0.  0.
         25    1    1    2    0    0 -0.41851594856E+02  0.19213675969E+03  0.17728830569E+03  0.29278701090E+03  0.12500000000E+03 0.  0.
</event>
<event>
 5    0  0.5749909E-005  0.4847536E+03  0.7546771E-02  0.1017837E+00
         21   -1    0    0  502  501  0.00000000000E+00  0.00000000000E+00  0.20509432709E+04  0.20509432709E+04  0.00000000000E+00 0.  1.
         21   -1    0    0  501  502 -0.00000000000E+00 -0.00000000000E+00 -0.11457463756E+03  0.11457463756E+03  0.00000000000E+00 0.  1.
         25    1    1    2    0    0  0.92516309679E+02  0.14545446010E+03  0.69485130866E+03  0.72674590378E+03  0.12500000000E+03 0.  0.
         25    1    1    2    0    0  0.23736089469E+03 -0.24208532881E+03  0.62083623575E+03  0.71833706042E+03  0.12500000000E+03 0.  0.
         25    1    1    2    0    0 -0.32987720437E+03  0.96630868712E+02  0.62068108895E+03  0.72043494427E+03  0.12500000000E+03 0.  0.
</event>
<event>
 5    0  0.5749909E-005  0.2648577E+03  0.7546771E-02  0.1104259E+00
         21   -1    0    0  502  501  0.00000000000E+00  0.00000000000E+00  0.34774445917E+04  0.34774445917E+04  0.00000000000E+00 0.  1.
         21   -1    0    0  501  502 -0.00000000000E+00 -0.00000000000E+00 -0.20172748769E+02  0.20172748769E+02  0.00000000000E+00 0.  1.
         25    1    1    2    0    0  0.69907464097E+02 -0.91073565899E+00  0.38626132637E+03  0.41195957960E+03  0.12500000000E+03 0.  0.
         25    1    1    2    0    0 -0.10540885830E+03 -0.90025887351E+01  0.13925874502E+04  0.14021828984E+04  0.12500000000E+03 0.  0.
         25    1    1    2    0    0  0.35501394204E+02  0.99133243941E+01  0.16784230663E+04  0.16834748625E+04  0.12500000000E+03 0.  0.
</event>
<event>
 5    0  0.5749909E-005  0.2582728E+03  0.7546771E-02  0.1108185E+00
         21   -1    0    0  502  501  0.00000000000E+00  0.00000000000E+00  0.14225691187E+03  0.14225691187E+03  0.00000000000E+00 0.  1.
         21   -1    0    0  501  502 -0.00000000000E+00 -0.00000000000E+00 -0.46890417161E+03  0.46890417161E+03  0.00000000000E+00 0.  1.
         25    1    1    2    0    0 -0.83565227674E+02 -0.31947547819E+01 -0.28486218223E+02  0.15306801875E+03  0.12500000000E+03 0.  0.
         25    1    1    2    0    0 -0.55311727488E+02  0.61433179926E+02 -0.15506743862E+03  0.21564863393E+03  0.12500000000E+03 0.  0.
         25    1    1    2    0    0  0.13887695516E+03 -0.58238425145E+02 -0.14309360289E+03  0.24244443080E+03  0.12500000000E+03 0.  0.
</event>
<event>
 5    0  0.5749909E-005  0.3258978E+03  0.7546771E-02  0.1072967E+00
         21   -1    0    0  502  501  0.00000000000E+00  0.00000000000E+00  0.83625964515E+03  0.83625964515E+03  0.00000000000E+00 0.  1.
         21   -1    0    0  501  502 -0.00000000000E+00 -0.00000000000E+00 -0.12700524711E+03  0.12700524711E+03  0.00000000000E+00 0.  1.
         25    1    1    2    0    0  0.98759333743E+02  0.33008978202E+02  0.44970829371E+02  0.16879091841E+03  0.12500000000E+03 0.  0.
         25    1    1    2    0    0 -0.77218656438E+02 -0.11201722630E+03  0.98674618068E+02  0.20945706038E+03  0.12500000000E+03 0.  0.
         25    1    1    2    0    0 -0.21540677305E+02  0.79008248101E+02  0.56560895060E+03  0.58501691347E+03  0.12500000000E+03 0.  0.
</event>
<event>
 5    0  0.5749909E-005  0.2820022E+03  0.7546771E-02  0.1094600E+00
         21   -1    0    0  502  501  0.00000000000E+00  0.00000000000E+00  0.20848429457E+03  0.20848429457E+03  0.00000000000E+00 0. -1.
         21   -1    0    0  501  502 -0.00000000000E+00 -0.00000000000E+00 -0.38144488977E+03  0.38144488977E+03  0.00000000000E+00 0. -1.
         25    1    1    2    0    0  0.15604892387E+02 -0.86855596899E+02  0.75786205664E+02  0.17075115328E+03  0.12500000000E+03 0.  0.
         25    1    1    2    0    0  0.18061552031E+02  0.10765269022E+03 -0.36846635255E+02  0.16999410549E+03  0.12500000000E+03 0.  0.
         25    1    1    2    0    0 -0.33666444418E+02 -0.20797093317E+02 -0.21190016561E+03  0.24918392556E+03  0.12500000000E+03 0.  0.
</event>
<event>
 5    0  0.5749909E-005  0.3764078E+03  0.7546771E-02  0.1052269E+00
         21   -1    0    0  502  501  0.00000000000E+00  0.00000000000E+00  0.11028284009E+04  0.11028284009E+04  0.00000000000E+00 0. -1.
         21   -1    0    0  501  502 -0.00000000000E+00 -0.00000000000E+00 -0.12847222503E+03  0.12847222503E+03  0.00000000000E+00 0. -1.
         25    1    1    2    0    0  0.50280053793E+02 -0.54916680719E+02  0.38913337083E+02  0.15060934046E+03  0.12500000000E+03 0.  0.
         25    1    1    2    0    0 -0.69661006286E+02  0.25523520301E+03  0.40404632771E+03  0.49887483359E+03  0.12500000000E+03 0.  0.
         25    1    1    2    0    0  0.19380952492E+02 -0.20031852229E+03  0.53139651105E+03  0.58181645185E+03  0.12500000000E+03 0.  0.
</event>
<event>
 5    0  0.5749909E-005  0.2689261E+03  0.7546771E-02  0.1101896E+00
         21   -1    0    0  502  501  0.00000000000E+00  0.00000000000E+00  0.99246421035E+02  0.99246421035E+02  0.00000000000E+00 0. -1.
         21   -1    0    0  501  502 -0.00000000000E+00 -0.00000000000E+00 -0.72870376852E+03  0.72870376852E+03  0.00000000000E+00 0. -1.
         25    1    1    2    0    0  0.19068515377E+01  0.16840515721E+02 -0.19223600178E+03  0.22992807448E+03  0.12500000000E+03 0.  0.
         25    1    1    2    0    0  0.10221455991E+03 -0.24561549577E+02 -0.39198308862E+02  0.16796604833E+03  0.12500000000E+03 0.  0.
         25    1    1    2    0    0 -0.10412141145E+03  0.77210338556E+01 -0.39802303684E+03  0.43005606674E+03  0.12500000000E+03 0.  0.
</event>
<event>
 5    0  0.5749909E-005  0.3337049E+03  0.7546771E-02  0.1069509E+00
         21   -1    0    0  502  501  0.00000000000E+00  0.00000000000E+00  0.22142376341E+03  0.22142376341E+03  0.00000000000E+00 0. -1.
         21   -1    0    0  501  502 -0.00000000000E+00 -0.00000000000E+00 -0.50292241702E+03  0.50292241702E+03  0.00000000000E+00 0. -1.
         25    1    1    2    0    0  0.58719301964E+02  0.95856579528E+02  0.12144985398E+03  0.20739215822E+03  0.12500000000E+03 0.  0.
         25    1    1    2    0    0  0.50212432770E+02 -0.78717331364E+02 -0.17327029002E+03  0.23316367656E+03  0.12500000000E+03 0.  0.
         25    1    1    2    0    0 -0.10893173473E+03 -0.17139248164E+02 -0.22967821756E+03  0.28379034564E+03  0.12500000000E+03 0.  0.
</event>
<event>
 5    0  0.5749909E-005  0.3994666E+03  0.7546771E-02  0.1043965E+00
         21   -1    0    0  502  501  0.00000000000E+00  0.00000000000E+00  0.13679159509E+03  0.13679159509E+03  0.00000000000E+00 0.  1.
         21   -1    0    0  501  502 -0.00000000000E+00 -0.00000000000E+00 -0.11665449459E+04  0.11665449459E+04  0.00000000000E+00 0.  1.
         25    1    1    2    0    0  0.14473648467E+03 -0.68777491716E+02 -0.37596337901E+03  0.42737858594E+03  0.12500000000E+03 0.  0.
         25    1    1    2    0    0  0.97453560117E+02  0.30606149407E+02 -0.56373559920E+03  0.58639300692E+03  0.12500000000E+03 0.  0.
         25    1    1    2    0    0 -0.24219004479E+03  0.38171342309E+02 -0.90054372617E+02  0.28956494815E+03  0.12500000000E+03 0.  0.
</event>
<event>
 5    0  0.5749909E-005  0.2473017E+03  0.7546771E-02  0.1115022E+00
         21   -1    0    0  502  501  0.00000000000E+00  0.00000000000E+00  0.35992242983E+02  0.35992242983E+02  0.00000000000E+00 0.  1.
         21   -1    0    0  501  502 -0.00000000000E+00 -0.00000000000E+00 -0.16992036454E+04  0.16992036454E+04  0.00000000000E+00 0.  1.
         25    1    1    2    0    0  0.10751461249E+03 -0.19397619175E+02 -0.42759689995E+03  0.45869354516E+03  0.12500000000E+03 0.  0.
         25    1    1    2    0    0 -0.32078060478E+02 -0.50722747133E+02 -0.35503607165E+03  0.38115274001E+03  0.12500000000E+03 0.  0.
         25    1    1    2    0    0 -0.75436552013E+02  0.70120366309E+02 -0.88057843078E+03  0.89534960318E+03  0.12500000000E+03 0.  0.
</event>
<event>
 5    0  0.5749909E-005  0.2311859E+03  0.7546771E-02  0.1125808E+00
         21   -1    0    0  502  501  0.00000000000E+00  0.00000000000E+00  0.37670150736E+02  0.37670150736E+02  0.00000000000E+00 0. -1.
         21   -1    0    0  501  502 -0.00000000000E+00 -0.00000000000E+00 -0.14188137364E+04  0.14188137364E+04  0.00000000000E+00 0. -1.
         25    1    1    2    0    0  0.63518349173E+02  0.27224625984E+02 -0.33270826327E+03  0.36207119382E+03  0.12500000000E+03 0.  0.
         25    1    1    2    0    0  0.27114314804E+02 -0.10709643341E+02 -0.25007326328E+03  0.28108987804E+03  0.12500000000E+03 0.  0.
         25    1    1    2    0    0 -0.90632663977E+02 -0.16514982643E+02 -0.79836205913E+03  0.81332281530E+03  0.12500000000E+03 0.  0.
</event>
