<event>
 6    0  0.1361919E+003  0.1258941E+03  0.7546771E-02  0.1233678E+00
         21   -1    0    0  502  501  0.00000000000E+00  0.00000000000E+00  0.20850320038E+03  0.20850320038E+03  0.00000000000E+00 0.  1.
         21   -1    0    0  503  502 -0.00000000000E+00 -0.00000000000E+00 -0.56271527175E+03  0.56271527175E+03  0.00000000000E+00 0. -1.
         21    1    1    2  503  504  0.36775825533E+02  0.61169462816E+02 -0.31623797000E+03  0.32419225499E+03  0.00000000000E+00 0.  1.
         21    1    1    2  504  505 -0.14047851133E+03 -0.69199851911E+01 -0.19853639773E+03  0.24330803432E+03  0.00000000000E+00 0. -1.
         21    1    1    2  505  506  0.69262069095E+02 -0.26703257342E+02  0.13117534819E+03  0.15072249381E+03  0.00000000000E+00 0.  1.
         21    1    1    2  506  501  0.34440616703E+02 -0.27546220283E+02  0.29386948168E+02  0.52995689008E+02  0.00000000000E+00 0.  1.
<scales pt_clust_3="71.37342" pt_clust_4="117.58290" pt_clust_5="34.67329" pt_clust_6="34.67329"></scales>
<clustering>
<clus scale="   34.673">  5  6 -1 -1</clus>
<clus scale="   71.373">  2  3  1 -1</clus>
<clus scale="  117.583">  2  4  1 -1</clus>
<clus scale="  125.894">  1  3  2 -1</clus>
</clustering>
</event>
<event>
 6    0  0.1361919E+003  0.8379911E+02  0.7546771E-02  0.1318603E+00
         21   -1    0    0  504  501  0.00000000000E+00  0.00000000000E+00  0.17332246169E+03  0.17332246169E+03  0.00000000000E+00 0. -1.
         21   -1    0    0  506  502 -0.00000000000E+00 -0.00000000000E+00 -0.15925969129E+03  0.15925969129E+03  0.00000000000E+00 0. -1.
         21    1    1    2  503  505  0.64775877846E+02  0.80065095922E+02  0.57951923751E+02  0.11817258312E+03  0.00000000000E+00 0. -1.
         21    1    1    2  504  503  0.16542531753E+02 -0.56199364025E+02  0.34810806013E+02  0.68145550763E+02  0.00000000000E+00 0. -1.
         21    1    1    2  505  502 -0.87438519443E+02  0.72682334947E+01 -0.40589494381E+02  0.96673827661E+02  0.00000000000E+00 0. -1.
         21    1    1    2  506  501  0.61201098439E+01 -0.31133965392E+02 -0.38110464983E+02  0.49590191437E+02  0.00000000000E+00 0.  1.
<scales pt_clust_3="14000.00000" pt_clust_4="63.14784" pt_clust_5="83.79911" pt_clust_6="31.72979"></scales>
<clustering>
<clus scale="   31.730">  2  6  1 -1</clus>
<clus scale="   63.148">  1  4  2 -1</clus>
<clus scale="   83.799">  2  5  1 -1</clus>
<clus scale="   63.148">  1  3  2 -1</clus>
</clustering>
</event>
<event>
 6    0  0.1361919E+003  0.1096939E+03  0.7546771E-02  0.1261138E+00
         21   -1    0    0  504  501  0.00000000000E+00  0.00000000000E+00  0.29958247848E+03  0.29958247848E+03  0.00000000000E+00 0.  1.
         21   -1    0    0  506  502 -0.00000000000E+00 -0.00000000000E+00 -0.38436793808E+03  0.38436793808E+03  0.00000000000E+00 0. -1.
         21    1    1    2  503  501 -0.49834462789E+02 -0.33285760591E+02  0.83073421811E+02  0.10243343668E+03  0.00000000000E+00 0.  1.
         21    1    1    2  504  502  0.12414917506E+03  0.11602086406E+03  0.15621759544E+03  0.23081983384E+03  0.00000000000E+00 0.  1.
         21    1    1    2  505  503 -0.48464995235E+02 -0.64234587259E+02 -0.12207359579E+03  0.14620841546E+03  0.00000000000E+00 0. -1.
         21    1    1    2  506  505 -0.25849717039E+02 -0.18500516211E+02 -0.20200288108E+03  0.20448873058E+03  0.00000000000E+00 0. -1.
<scales pt_clust_3="61.62646" pt_clust_4="14000.00000" pt_clust_5="109.69393" pt_clust_6="31.78800"></scales>
<clustering>
<clus scale="   31.788">  2  6  1 -1</clus>
<clus scale="   61.626">  1  3  2 -1</clus>
<clus scale="  109.694">  2  5  1 -1</clus>
<clus scale="   61.626">  1  3  2 -1</clus>
</clustering>
</event>
<event>
 6    0  0.1361919E+003  0.8384033E+02  0.7546771E-02  0.1318493E+00
         21   -1    0    0  504  501  0.00000000000E+00  0.00000000000E+00  0.46250726915E+03  0.46250726915E+03  0.00000000000E+00 0.  1.
         21   -1    0    0  505  502 -0.00000000000E+00 -0.00000000000E+00 -0.15815268983E+03  0.15815268983E+03  0.00000000000E+00 0.  1.
         21    1    1    2  503  506 -0.16489497402E+03  0.22936687338E+02 -0.23243300762E+02  0.16809727872E+03  0.00000000000E+00 0.  1.
         21    1    1    2  504  502  0.45724756398E+02  0.10308207869E+02  0.20175116086E+02  0.51029871705E+02  0.00000000000E+00 0. -1.
         21    1    1    2  505  503  0.41103830013E+02 -0.51326717971E+02 -0.16541249952E+02  0.67805381566E+02  0.00000000000E+00 0. -1.
         21    1    1    2  506  501  0.78066387610E+02  0.18081822764E+02  0.32396401395E+03  0.33372742699E+03  0.00000000000E+00 0.  1.
<scales pt_clust_3="83.84033" pt_clust_4="46.87230" pt_clust_5="72.89593" pt_clust_6="14000.00000"></scales>
<clustering>
<clus scale="   46.872">  2  4  1 -1</clus>
<clus scale="   72.896">  2  5  1 -1</clus>
<clus scale="   83.840">  2  3  1 -1</clus>
<clus scale="   83.840">  1  3  2 -1</clus>
</clustering>
</event>
<event>
 6    0  0.1361919E+003  0.1042549E+03  0.7546771E-02  0.1271595E+00
         21   -1    0    0  506  501  0.00000000000E+00  0.00000000000E+00  0.10580329322E+03  0.10580329322E+03  0.00000000000E+00 0.  1.
         21   -1    0    0  504  502 -0.00000000000E+00 -0.00000000000E+00 -0.19409193708E+04  0.19409193708E+04  0.00000000000E+00 0. -1.
         21    1    1    2  503  501  0.12654947904E+03 -0.59508947090E+02 -0.27938132666E+03  0.31242600903E+03  0.00000000000E+00 0.  1.
         21    1    1    2  504  503 -0.70322988193E+02  0.95646950806E+01 -0.14647988235E+04  0.14665170982E+04  0.00000000000E+00 0. -1.
         21    1    1    2  505  502 -0.55768397414E+02  0.80013647215E+02 -0.16285488724E+03  0.18982626844E+03  0.00000000000E+00 0. -1.
         21    1    1    2  506  505 -0.45809343528E+00 -0.30069395205E+02  0.71918959833E+02  0.77953288327E+02  0.00000000000E+00 0.  1.
<scales pt_clust_3="14000.00000" pt_clust_4="70.87517" pt_clust_5="104.25493" pt_clust_6="30.07288"></scales>
<clustering>
<clus scale="   30.073">  1  6  2 -1</clus>
<clus scale="   70.875">  2  4  1 -1</clus>
<clus scale="  104.255">  1  5  2 -1</clus>
<clus scale="   30.073">  1  3  2 -1</clus>
</clustering>
</event>
<event>
 6    0  0.1361919E+003  0.1375679E+03  0.7546771E-02  0.1216639E+00
         21   -1    0    0  503  501  0.00000000000E+00  0.00000000000E+00  0.41905803945E+03  0.41905803945E+03  0.00000000000E+00 0.  1.
         21   -1    0    0  506  502 -0.00000000000E+00 -0.00000000000E+00 -0.12415937760E+03  0.12415937760E+03  0.00000000000E+00 0.  1.
         21    1    1    2  503  502 -0.25808195393E+02  0.25181257677E+02  0.24404661200E+02  0.43540167385E+02  0.00000000000E+00 0.  1.
         21    1    1    2  504  505 -0.12662656737E+03 -0.12291964470E+03  0.10676544367E+03  0.20625805822E+03  0.00000000000E+00 0.  1.
         21    1    1    2  505  501  0.35473282533E+02  0.53843051275E+02  0.15536397527E+03  0.16821234424E+03  0.00000000000E+00 0.  1.
         21    1    1    2  506  504  0.11696148023E+03  0.43895335753E+02  0.83645817027E+01  0.12520684720E+03  0.00000000000E+00 0.  1.
<scales pt_clust_3="36.05771" pt_clust_4="14000.00000" pt_clust_5="68.97046" pt_clust_6="137.56792"></scales>
<clustering>
<clus scale="   36.058">  1  3  2 -1</clus>
<clus scale="   68.970">  1  5  2 -1</clus>
<clus scale="  137.568">  2  6  1 -1</clus>
<clus scale="   36.058">  1  3  2 -1</clus>
</clustering>
</event>
<event>
 6    0  0.1361919E+003  0.9873588E+02  0.7546771E-02  0.1282977E+00
         21   -1    0    0  503  501  0.00000000000E+00  0.00000000000E+00  0.50158555320E+03  0.50158555320E+03  0.00000000000E+00 0.  1.
         21   -1    0    0  506  502 -0.00000000000E+00 -0.00000000000E+00 -0.10169693968E+04  0.10169693968E+04  0.00000000000E+00 0.  1.
         21    1    1    2  503  504  0.13553378282E+02 -0.32481383264E+02  0.38428199061E+03  0.38589037644E+03  0.00000000000E+00 0.  1.
         21    1    1    2  504  502 -0.66719618898E+02  0.13040719174E+02  0.88280638595E+02  0.11142279414E+03  0.00000000000E+00 0. -1.
         21    1    1    2  505  501 -0.19018870642E+02 -0.60943794290E+02 -0.61932377156E+02  0.88946516757E+02  0.00000000000E+00 0.  1.
         21    1    1    2  506  505  0.72185111258E+02  0.80384458380E+02 -0.92601409564E+03  0.93229526265E+03  0.00000000000E+00 0.  1.
<scales pt_clust_3="35.19566" pt_clust_4="57.05572" pt_clust_5="14000.00000" pt_clust_6="98.73588"></scales>
<clustering>
<clus scale="   35.196">  1  3  2 -1</clus>
<clus scale="   57.056">  1  4  2 -1</clus>
<clus scale="   98.736">  2  6  1 -1</clus>
<clus scale="   35.196">  1  3  2 -1</clus>
</clustering>
</event>
<event>
 6    0  0.1361919E+003  0.2254915E+03  0.7546771E-02  0.1129854E+00
         21   -1    0    0  505  501  0.00000000000E+00  0.00000000000E+00  0.29012312866E+03  0.29012312866E+03  0.00000000000E+00 0.  1.
         21   -1    0    0  501  502 -0.00000000000E+00 -0.00000000000E+00 -0.31843527027E+03  0.31843527027E+03  0.00000000000E+00 0. -1.
         21    1    1    2  503  506 -0.11778550701E+03  0.57155056791E+02 -0.88129457297E+02  0.15781928723E+03  0.00000000000E+00 0. -1.
         21    1    1    2  504  503  0.16395254857E+03 -0.56095338222E+02  0.11895681739E+03  0.21018527436E+03  0.00000000000E+00 0.  1.
         21    1    1    2  505  504  0.27259712561E+02 -0.36464203084E+02  0.72564354191E+02  0.85663968707E+02  0.00000000000E+00 0.  1.
         21    1    1    2  506  502 -0.73426754120E+02  0.35404484515E+02 -0.13170385590E+03  0.15488986863E+03  0.00000000000E+00 0. -1.
<scales pt_clust_3="222.39679" pt_clust_4="38.75627" pt_clust_5="38.75627" pt_clust_6="51.92905"></scales>
<clustering>
<clus scale="   38.756">  4  5 -1 -1</clus>
<clus scale="   51.929">  3  6 -1 -1</clus>
<clus scale="  222.397">  2  3  1 -1</clus>
<clus scale="  225.491">  1  3  2 -1</clus>
</clustering>
</event>
<event>
 6    0  0.1361919E+003  0.8578987E+02  0.7546771E-02  0.1313380E+00
         21   -1    0    0  506  501  0.00000000000E+00  0.00000000000E+00  0.88671973412E+02  0.88671973412E+02  0.00000000000E+00 0.  1.
         21   -1    0    0  503  502 -0.00000000000E+00 -0.00000000000E+00 -0.43607197544E+03  0.43607197544E+03  0.00000000000E+00 0.  1.
         21    1    1    2  503  505  0.67445695098E+02 -0.59233016912E+02 -0.19093046960E+03  0.21097847355E+03  0.00000000000E+00 0.  1.
         21    1    1    2  504  501  0.38275506974E+01 -0.48766347695E+02  0.34202136260E+02  0.59687460464E+02  0.00000000000E+00 0.  1.
         21    1    1    2  505  504 -0.51566551305E+01  0.97464989373E+02 -0.13730847018E+03  0.16846255141E+03  0.00000000000E+00 0.  1.
         21    1    1    2  506  502 -0.66116590665E+02  0.10534375233E+02 -0.53363198513E+02  0.85615463429E+02  0.00000000000E+00 0.  1.
<scales pt_clust_3="14000.00000" pt_clust_4="48.91632" pt_clust_5="85.78987" pt_clust_6="65.16964"></scales>
<clustering>
<clus scale="   48.916">  1  4  2 -1</clus>
<clus scale="   65.170">  1  6  2 -1</clus>
<clus scale="   85.790">  1  5  2 -1</clus>
<clus scale="   48.916">  1  3  2 -1</clus>
</clustering>
</event>
<event>
 6    0  0.1361919E+003  0.9911077E+02  0.7546771E-02  0.1282177E+00
         21   -1    0    0  505  501  0.00000000000E+00  0.00000000000E+00  0.53400695662E+03  0.53400695662E+03  0.00000000000E+00 0.  1.
         21   -1    0    0  504  502 -0.00000000000E+00 -0.00000000000E+00 -0.76709536370E+03  0.76709536370E+03  0.00000000000E+00 0.  1.
         21    1    1    2  503  502  0.43030393963E+02 -0.82598166031E+02 -0.54557799311E+03  0.55347034103E+03  0.00000000000E+00 0.  1.
         21    1    1    2  504  501 -0.62464361535E+02 -0.14116712092E+02  0.26750881227E+03  0.27506734205E+03  0.00000000000E+00 0.  1.
         21    1    1    2  505  506  0.10228002860E+03 -0.96890326494E+01  0.22517044656E+03  0.24750113456E+03  0.00000000000E+00 0.  1.
         21    1    1    2  506  503 -0.82846061032E+02  0.10640391077E+03 -0.18018967280E+03  0.22506350269E+03  0.00000000000E+00 0.  1.
<scales pt_clust_3="14000.00000" pt_clust_4="64.03966" pt_clust_5="51.23847" pt_clust_6="99.11077"></scales>
<clustering>
<clus scale="   64.040">  1  4  2 -1</clus>
<clus scale="   51.238">  1  5  2 -1</clus>
<clus scale="   99.111">  1  6  2 -1</clus>
<clus scale="   64.040">  1  3  2 -1</clus>
</clustering>
</event>
<event>
 6    0  0.1361919E+003  0.6662040E+02  0.7546771E-02  0.1371978E+00
         21   -1    0    0  505  501  0.00000000000E+00  0.00000000000E+00  0.14732854589E+04  0.14732854589E+04  0.00000000000E+00 0.  1.
         21   -1    0    0  506  502 -0.00000000000E+00 -0.00000000000E+00 -0.23194137829E+03  0.23194137829E+03  0.00000000000E+00 0.  1.
         21    1    1    2  503  502  0.11953086319E+02  0.35948724055E+02 -0.13739321934E+03  0.14252046784E+03  0.00000000000E+00 0.  1.
         21    1    1    2  504  501 -0.62577591431E+02  0.20949723254E+02  0.13974052121E+04  0.13989625344E+04  0.00000000000E+00 0.  1.
         21    1    1    2  505  503 -0.41910482502E+02  0.60495110174E+01 -0.29043614939E+02  0.51347996026E+02  0.00000000000E+00 0.  1.
         21    1    1    2  506  504  0.92534987615E+02 -0.62947958326E+02  0.10375702759E+02  0.11239583888E+03  0.00000000000E+00 0.  1.
<scales pt_clust_3="37.88386" pt_clust_4="66.62040" pt_clust_5="42.65422" pt_clust_6="14000.00000"></scales>
<clustering>
<clus scale="   37.884">  2  3  1 -1</clus>
<clus scale="   42.654">  2  5  1 -1</clus>
<clus scale="   66.620">  1  4  2 -1</clus>
<clus scale="   66.620">  1  3  2 -1</clus>
</clustering>
</event>
<event>
 6    0  0.1361919E+003  0.1163477E+03  0.7546771E-02  0.1249247E+00
         21   -1    0    0  503  501  0.00000000000E+00  0.00000000000E+00  0.62349808485E+02  0.62349808485E+02  0.00000000000E+00 0.  1.
         21   -1    0    0  504  502 -0.00000000000E+00 -0.00000000000E+00 -0.86498282275E+03  0.86498282275E+03  0.00000000000E+00 0.  1.
         21    1    1    2  503  502  0.58474361997E+02  0.36419062424E+02 -0.13807613791E+02  0.70258446591E+02  0.00000000000E+00 0.  1.
         21    1    1    2  504  505 -0.39006191818E+02 -0.50546031386E+02 -0.12753287518E+03  0.14262194271E+03  0.00000000000E+00 0.  1.
         21    1    1    2  505  506  0.40352631476E+02 -0.87216281001E+02 -0.52787037472E+03  0.53654650036E+03  0.00000000000E+00 0.  1.
         21    1    1    2  506  501 -0.59820801654E+02  0.10134324996E+03 -0.13342215057E+03  0.17790574158E+03  0.00000000000E+00 0.  1.
<scales pt_clust_3="65.45537" pt_clust_4="63.84657" pt_clust_5="116.34772" pt_clust_6="14000.00000"></scales>
<clustering>
<clus scale="   63.847">  2  4  1 -1</clus>
<clus scale="   65.455">  1  3  2 -1</clus>
<clus scale="  116.348">  2  5  1 -1</clus>
<clus scale="   65.455">  1  3  2 -1</clus>
</clustering>
</event>
<event>
 6    0  0.1361919E+003  0.9550977E+02  0.7546771E-02  0.1290032E+00
         21   -1    0    0  504  501  0.00000000000E+00  0.00000000000E+00  0.82103496168E+03  0.82103496168E+03  0.00000000000E+00 0.  1.
         21   -1    0    0  506  502 -0.00000000000E+00 -0.00000000000E+00 -0.12911683364E+03  0.12911683364E+03  0.00000000000E+00 0. -1.
         21    1    1    2  503  505  0.33152169662E+02  0.57585407336E+02  0.49663103046E+03  0.50105640990E+03  0.00000000000E+00 0.  1.
         21    1    1    2  504  503  0.92147851065E+01  0.48828548656E+02  0.11126738010E+03  0.12185880888E+03  0.00000000000E+00 0.  1.
         21    1    1    2  505  502  0.48821615412E+02 -0.85216876000E+02 -0.87690560012E+02  0.13166282847E+03  0.00000000000E+00 0. -1.
         21    1    1    2  506  501 -0.91188570180E+02 -0.21197079992E+02  0.17171027749E+03  0.19557374806E+03  0.00000000000E+00 0. -1.
<scales pt_clust_3="95.50977" pt_clust_4="49.69044" pt_clust_5="14000.00000" pt_clust_6="89.18940"></scales>
<clustering>
<clus scale="   49.690">  1  4  2 -1</clus>
<clus scale="   89.189">  1  6  2 -1</clus>
<clus scale="   95.510">  1  3  2 -1</clus>
<clus scale="   49.690">  1  3  2 -1</clus>
</clustering>
</event>
<event>
 6    0  0.1361919E+003  0.6747060E+02  0.7546771E-02  0.1368912E+00
         21   -1    0    0  503  501  0.00000000000E+00  0.00000000000E+00  0.33986524131E+03  0.33986524131E+03  0.00000000000E+00 0.  1.
         21   -1    0    0  506  502 -0.00000000000E+00 -0.00000000000E+00 -0.87665919993E+02  0.87665919993E+02  0.00000000000E+00 0.  1.
         21    1    1    2  503  505  0.15907835414E+02 -0.69197500132E+02  0.18771557309E+03  0.20069501646E+03  0.00000000000E+00 0.  1.
         21    1    1    2  504  502 -0.17517694853E+02  0.47100712813E+02  0.22988257694E+02  0.55261259235E+02  0.00000000000E+00 0.  1.
         21    1    1    2  505  504 -0.59721470796E+02 -0.19834830854E+02 -0.28879992565E+02  0.69239645866E+02  0.00000000000E+00 0.  1.
         21    1    1    2  506  501  0.61331330235E+02  0.41931618173E+02  0.70375483090E+02  0.10233523973E+03  0.00000000000E+00 0.  1.
<scales pt_clust_3="66.48431" pt_clust_4="50.25283" pt_clust_5="67.47060" pt_clust_6="14000.00000"></scales>
<clustering>
<clus scale="   50.253">  2  4  1 -1</clus>
<clus scale="   66.484">  1  3  2 -1</clus>
<clus scale="   67.471">  2  5  1 -1</clus>
<clus scale="   66.484">  1  3  2 -1</clus>
</clustering>
</event>
<event>
 6    0  0.1361919E+003  0.2192013E+03  0.7546771E-02  0.1134480E+00
         21   -1    0    0  504  501  0.00000000000E+00  0.00000000000E+00  0.80678092244E+03  0.80678092244E+03  0.00000000000E+00 0. -1.
         21   -1    0    0  501  502 -0.00000000000E+00 -0.00000000000E+00 -0.29548396293E+03  0.29548396293E+03  0.00000000000E+00 0. -1.
         21    1    1    2  503  505 -0.10748323996E+03  0.20976377811E+03 -0.61715567760E+01  0.23577866229E+03  0.00000000000E+00 0. -1.
         21    1    1    2  504  506  0.21585503663E+02 -0.72476489000E+02  0.38171144118E+03  0.38913031205E+03  0.00000000000E+00 0. -1.
         21    1    1    2  505  502  0.51927313275E+02  0.28790702729E+02 -0.14089751723E+03  0.15289689594E+03  0.00000000000E+00 0. -1.
         21    1    1    2  506  503  0.33970423023E+02 -0.16607799184E+03  0.27665459233E+03  0.32445901509E+03  0.00000000000E+00 0. -1.
<scales pt_clust_3="14000.00000" pt_clust_4="75.31767" pt_clust_5="59.37466" pt_clust_6="219.20129"></scales>
<clustering>
<clus scale="   59.375">  2  5  1 -1</clus>
<clus scale="   75.318">  1  4  2 -1</clus>
<clus scale="  219.201">  1  6  2 -1</clus>
<clus scale="   75.318">  1  3  2 -1</clus>
</clustering>
</event>
<event>
 6    0  0.1361919E+003  0.1408589E+03  0.7546771E-02  0.1212178E+00
         21   -1    0    0  506  501  0.00000000000E+00  0.00000000000E+00  0.43403606115E+03  0.43403606115E+03  0.00000000000E+00 0. -1.
         21   -1    0    0  503  502 -0.00000000000E+00 -0.00000000000E+00 -0.62001043269E+03  0.62001043269E+03  0.00000000000E+00 0.  1.
         21    1    1    2  503  504 -0.14997520346E+03 -0.11838352497E+03 -0.54937104949E+03  0.58164918177E+03  0.00000000000E+00 0.  1.
         21    1    1    2  504  501  0.41789050380E+02  0.73539855611E+02  0.31728124599E+03  0.32836233669E+03  0.00000000000E+00 0. -1.
         21    1    1    2  505  502  0.46295494847E+02  0.18093148884E+02 -0.16144504030E+02  0.52261648367E+02  0.00000000000E+00 0.  1.
         21    1    1    2  506  505  0.61890658233E+02  0.26750520472E+02  0.62259935985E+02  0.91773327012E+02  0.00000000000E+00 0. -1.
<scales pt_clust_3="14000.00000" pt_clust_4="140.85888" pt_clust_5="49.70548" pt_clust_6="68.67569"></scales>
<clustering>
<clus scale="   49.705">  2  5  1 -1</clus>
<clus scale="   68.676">  1  6  2 -1</clus>
<clus scale="  140.859">  1  4  2 -1</clus>
<clus scale="   68.676">  1  3  2 -1</clus>
</clustering>
</event>
<event>
 6    0  0.1361919E+003  0.1190835E+03  0.7546771E-02  0.1244617E+00
         21   -1    0    0  503  501  0.00000000000E+00  0.00000000000E+00  0.11634559664E+04  0.11634559664E+04  0.00000000000E+00 0.  1.
         21   -1    0    0  504  502 -0.00000000000E+00 -0.00000000000E+00 -0.53680332058E+03  0.53680332058E+03  0.00000000000E+00 0.  1.
         21    1    1    2  503  506 -0.12545148614E+03 -0.52132379630E+02  0.10989982212E+04  0.11073630618E+04  0.00000000000E+00 0.  1.
         21    1    1    2  504  505  0.50525926179E+02  0.81242294495E+01 -0.39753635115E+03  0.40081669477E+03  0.00000000000E+00 0.  1.
         21    1    1    2  505  501  0.25523686782E+02 -0.17562707137E+02  0.41329248370E+02  0.51652822186E+02  0.00000000000E+00 0.  1.
         21    1    1    2  506  502  0.49401873179E+02  0.61570857317E+02 -0.11613847266E+03  0.14042670820E+03  0.00000000000E+00 0.  1.
<scales pt_clust_3="14000.00000" pt_clust_4="51.20784" pt_clust_5="30.98237" pt_clust_6="119.08352"></scales>
<clustering>
<clus scale="   30.982">  1  5  2 -1</clus>
<clus scale="   51.208">  2  4  1 -1</clus>
<clus scale="  119.084">  2  6  1 -1</clus>
<clus scale="   30.982">  1  3  2 -1</clus>
</clustering>
</event>
<event>
 6    0  0.1361919E+003  0.1189141E+03  0.7546771E-02  0.1244899E+00
         21   -1    0    0  506  501  0.00000000000E+00  0.00000000000E+00  0.21561401517E+04  0.21561401517E+04  0.00000000000E+00 0. -1.
         21   -1    0    0  501  502 -0.00000000000E+00 -0.00000000000E+00 -0.36062119464E+02  0.36062119464E+02  0.00000000000E+00 0. -1.
         21    1    1    2  503  505  0.51120065316E+01  0.73331130382E+02  0.45336492195E+03  0.45928568424E+03  0.00000000000E+00 0. -1.
         21    1    1    2  504  502  0.22836535812E+02 -0.12457080292E+03  0.12722047268E+03  0.17951167365E+03  0.00000000000E+00 0. -1.
         21    1    1    2  505  504 -0.72509519896E+02  0.80344790309E+02  0.45838866389E+03  0.47099159546E+03  0.00000000000E+00 0. -1.
         21    1    1    2  506  503  0.44560977552E+02 -0.29105117766E+02  0.10811039737E+04  0.10824133178E+04  0.00000000000E+00 0. -1.
<scales pt_clust_3="65.53699" pt_clust_4="118.91407" pt_clust_5="14000.00000" pt_clust_6="53.22395"></scales>
<clustering>
<clus scale="   53.224">  1  6  2 -1</clus>
<clus scale="   65.537">  1  3  2 -1</clus>
<clus scale="  118.914">  2  4  1 -1</clus>
<clus scale="   53.224">  1  3  2 -1</clus>
</clustering>
</event>
<event>
 6    0  0.1361919E+003  0.1079224E+03  0.7546771E-02  0.1264466E+00
         21   -1    0    0  504  501  0.00000000000E+00  0.00000000000E+00  0.39100548167E+03  0.39100548167E+03  0.00000000000E+00 0.  1.
         21   -1    0    0  503  502 -0.00000000000E+00 -0.00000000000E+00 -0.29675643532E+03  0.29675643532E+03  0.00000000000E+00 0.  1.
         21    1    1    2  503  506  0.20011181386E+02  0.45755151657E+02 -0.17577897836E+03  0.18273541122E+03  0.00000000000E+00 0.  1.
         21    1    1    2  504  505  0.39084241172E+02  0.36452481771E+01  0.28301853919E+03  0.28572777126E+03  0.00000000000E+00 0.  1.
         21    1    1    2  505  502 -0.51225938268E+02 -0.98647678049E+02  0.63478605909E+02  0.12800388488E+03  0.00000000000E+00 0.  1.
         21    1    1    2  506  501 -0.78694842902E+01  0.49247278215E+02 -0.76469120390E+02  0.91294849624E+02  0.00000000000E+00 0.  1.
<scales pt_clust_3="47.47829" pt_clust_4="39.25386" pt_clust_5="96.72971" pt_clust_6="47.47829"></scales>
<clustering>
<clus scale="   39.254">  1  4  2 -1</clus>
<clus scale="   47.478">  3  6 -1 -1</clus>
<clus scale="   96.730">  1  5  2 -1</clus>
<clus scale="   39.254">  1  3  2 -1</clus>
</clustering>
</event>
<event>
 6    0  0.1361919E+003  0.8832139E+02  0.7546771E-02  0.1306968E+00
         21   -1    0    0  504  501  0.00000000000E+00  0.00000000000E+00  0.26560527713E+04  0.26560527713E+04  0.00000000000E+00 0.  1.
         21   -1    0    0  505  502 -0.00000000000E+00 -0.00000000000E+00 -0.30096900171E+02  0.30096900171E+02  0.00000000000E+00 0. -1.
         21    1    1    2  503  501 -0.35771608349E+02 -0.63625674058E+02  0.11608345922E+04  0.11631271576E+04  0.00000000000E+00 0.  1.
         21    1    1    2  504  502  0.61260470585E+02 -0.89892385733E+02  0.11374042849E+03  0.15738605828E+03  0.00000000000E+00 0. -1.
         21    1    1    2  505  506  0.18160048308E+02  0.55571304870E+02  0.17776499544E+03  0.18713190771E+03  0.00000000000E+00 0. -1.
         21    1    1    2  506  503 -0.43648910544E+02  0.97946754921E+02  0.11736158550E+04  0.11785045479E+04  0.00000000000E+00 0. -1.
<scales pt_clust_3="70.40754" pt_clust_4="88.32139" pt_clust_5="58.46330" pt_clust_6="14000.00000"></scales>
<clustering>
<clus scale="   58.463">  2  5  1 -1</clus>
<clus scale="   70.408">  1  3  2 -1</clus>
<clus scale="   88.321">  2  4  1 -1</clus>
<clus scale="   70.408">  1  3  2 -1</clus>
</clustering>
</event>
<event>
 6    0  0.1361919E+003  0.7492774E+02  0.7546771E-02  0.1344095E+00
         21   -1    0    0  505  501  0.00000000000E+00  0.00000000000E+00  0.19986041454E+03  0.19986041454E+03  0.00000000000E+00 0.  1.
         21   -1    0    0  504  502 -0.00000000000E+00 -0.00000000000E+00 -0.57771919380E+03  0.57771919380E+03  0.00000000000E+00 0.  1.
         21    1    1    2  503  502  0.59746483623E+02  0.50725929321E+02 -0.32344248349E+01  0.78442486670E+02  0.00000000000E+00 0.  1.
         21    1    1    2  504  506  0.87032165026E+01 -0.44608637211E+02 -0.50902135613E+03  0.51104639466E+03  0.00000000000E+00 0.  1.
         21    1    1    2  505  503  0.27813280661E+02 -0.14994182485E+02  0.53050223957E+02  0.61747310479E+02  0.00000000000E+00 0.  1.
         21    1    1    2  506  501 -0.96262980787E+02  0.88768903746E+01  0.81346777745E+02  0.12634341654E+03  0.00000000000E+00 0.  1.
<scales pt_clust_3="74.92774" pt_clust_4="45.59249" pt_clust_5="31.59753" pt_clust_6="14000.00000"></scales>
<clustering>
<clus scale="   31.598">  1  5  2 -1</clus>
<clus scale="   45.592">  2  4  1 -1</clus>
<clus scale="   74.928">  2  3  1 -1</clus>
<clus scale="   31.598">  1  3  2 -1</clus>
</clustering>
</event>
<event>
 6    0  0.1361919E+003  0.1524441E+03  0.7546771E-02  0.1197502E+00
         21   -1    0    0  505  501  0.00000000000E+00  0.00000000000E+00  0.15221195869E+03  0.15221195869E+03  0.00000000000E+00 0.  1.
         21   -1    0    0  506  502 -0.00000000000E+00 -0.00000000000E+00 -0.61576193468E+03  0.61576193468E+03  0.00000000000E+00 0. -1.
         21    1    1    2  503  501 -0.12861906886E+03 -0.44591754334E+02  0.19302968380E+02  0.13749143252E+03  0.00000000000E+00 0.  1.
         21    1    1    2  504  502  0.26350341598E+02 -0.15283387110E+02 -0.31222755657E+03  0.31371000861E+03  0.00000000000E+00 0. -1.
         21    1    1    2  505  504  0.10682122857E+02 -0.76780630922E+02  0.30142735006E+01  0.77578726969E+02  0.00000000000E+00 0.  1.
         21    1    1    2  506  503  0.91586604401E+02  0.13665577237E+03 -0.17363966131E+03  0.23919372527E+03  0.00000000000E+00 0. -1.
<scales pt_clust_3="14000.00000" pt_clust_4="30.46182" pt_clust_5="79.88572" pt_clust_6="152.44405"></scales>
<clustering>
<clus scale="   30.462">  2  4  1 -1</clus>
<clus scale="   79.886">  1  5  2 -1</clus>
<clus scale="  152.444">  2  6  1 -1</clus>
<clus scale="   79.886">  1  3  2 -1</clus>
</clustering>
</event>
<event>
 6    0  0.1361919E+003  0.2308413E+03  0.7546771E-02  0.1126049E+00
         21   -1    0    0  503  501  0.00000000000E+00  0.00000000000E+00  0.85655580784E+02  0.85655580784E+02  0.00000000000E+00 0.  1.
         21   -1    0    0  506  502 -0.00000000000E+00 -0.00000000000E+00 -0.14123614973E+04  0.14123614973E+04  0.00000000000E+00 0.  1.
         21    1    1    2  503  504  0.11798501131E+03 -0.16031785554E+03 -0.48610790108E+03  0.52528389390E+03  0.00000000000E+00 0.  1.
         21    1    1    2  504  505  0.97780400041E+02  0.26462721304E+01 -0.27194142675E+03  0.28899852763E+03  0.00000000000E+00 0.  1.
         21    1    1    2  505  502 -0.52457016750E+02  0.89733406082E+02 -0.46969008700E+03  0.48105363589E+03  0.00000000000E+00 0.  1.
         21    1    1    2  506  501 -0.16330839460E+03  0.67938177327E+02 -0.98966501691E+02  0.20268102068E+03  0.00000000000E+00 0.  1.
<scales pt_clust_3="91.40523" pt_clust_4="91.40523" pt_clust_5="103.94144" pt_clust_6="190.48793"></scales>
<clustering>
<clus scale="   91.405">  3  4 -1 -1</clus>
<clus scale="  103.941">  2  5  1 -1</clus>
<clus scale="  190.488">  1  6  2 -1</clus>
<clus scale="  190.488">  1  3  2 -1</clus>
</clustering>
</event>
<event>
 6    0  0.1361919E+003  0.8674641E+02  0.7546771E-02  0.1310928E+00
         21   -1    0    0  506  501  0.00000000000E+00  0.00000000000E+00  0.78738785368E+02  0.78738785368E+02  0.00000000000E+00 0. -1.
         21   -1    0    0  504  502 -0.00000000000E+00 -0.00000000000E+00 -0.59918334506E+03  0.59918334506E+03  0.00000000000E+00 0. -1.
         21    1    1    2  503  505  0.10461830452E+03 -0.47368329348E+02 -0.11095922040E+03  0.15968937615E+03  0.00000000000E+00 0. -1.
         21    1    1    2  504  501 -0.51384529199E+02 -0.16685224091E+01  0.12754876260E+02  0.52970186675E+02  0.00000000000E+00 0. -1.
         21    1    1    2  505  502 -0.79845679665E+02  0.20167612771E+02 -0.41769588741E+03  0.42573691351E+03  0.00000000000E+00 0. -1.
         21    1    1    2  506  503  0.26611904348E+02  0.28869238985E+02 -0.45443281391E+01  0.39525654085E+02  0.00000000000E+00 0.  1.
<scales pt_clust_3="86.74641" pt_clust_4="39.59645" pt_clust_5="14000.00000" pt_clust_6="39.26355"></scales>
<clustering>
<clus scale="   39.264">  1  6  2 -1</clus>
<clus scale="   39.596">  1  4  2 -1</clus>
<clus scale="   86.746">  1  3  2 -1</clus>
<clus scale="   39.264">  1  3  2 -1</clus>
</clustering>
</event>
<event>
 6    0  0.1361919E+003  0.1541070E+03  0.7546771E-02  0.1195515E+00
         21   -1    0    0  504  501  0.00000000000E+00  0.00000000000E+00  0.14321130085E+04  0.14321130085E+04  0.00000000000E+00 0. -1.
         21   -1    0    0  505  502 -0.00000000000E+00 -0.00000000000E+00 -0.15907569345E+03  0.15907569345E+03  0.00000000000E+00 0.  1.
         21    1    1    2  503  501  0.21769271036E+02  0.47871160017E+02  0.55448110728E+03  0.55696934158E+03  0.00000000000E+00 0. -1.
         21    1    1    2  504  506  0.59174715155E+02 -0.16877078436E+03 -0.69014975272E+02  0.19169843865E+03  0.00000000000E+00 0.  1.
         21    1    1    2  505  503 -0.10388884752E+03  0.84191925424E+02  0.78796441971E+03  0.79923031704E+03  0.00000000000E+00 0. -1.
         21    1    1    2  506  502  0.22944861333E+02  0.36707698923E+02 -0.39323663800E+00  0.43290604718E+02  0.00000000000E+00 0.  1.
<scales pt_clust_3="52.97755" pt_clust_4="14000.00000" pt_clust_5="154.10705" pt_clust_6="43.28882"></scales>
<clustering>
<clus scale="   43.289">  2  6  1 -1</clus>
<clus scale="   52.978">  1  3  2 -1</clus>
<clus scale="  154.107">  1  5  2 -1</clus>
<clus scale="   52.978">  1  3  2 -1</clus>
</clustering>
</event>
<event>
 6    0  0.1361919E+003  0.8469921E+02  0.7546771E-02  0.1316221E+00
         21   -1    0    0  504  501  0.00000000000E+00  0.00000000000E+00  0.11339295707E+03  0.11339295707E+03  0.00000000000E+00 0.  1.
         21   -1    0    0  506  502 -0.00000000000E+00 -0.00000000000E+00 -0.28493853369E+03  0.28493853369E+03  0.00000000000E+00 0.  1.
         21    1    1    2  503  505  0.45764878072E+02 -0.83544110542E+01 -0.10242868835E+03  0.11249825086E+03  0.00000000000E+00 0.  1.
         21    1    1    2  504  502 -0.16539711521E+02  0.65851762986E+02 -0.10235877315E+02  0.68664327930E+02  0.00000000000E+00 0.  1.
         21    1    1    2  505  501 -0.20785444928E+02 -0.10212873481E+03  0.37385165003E+02  0.11072472063E+03  0.00000000000E+00 0.  1.
         21    1    1    2  506  503 -0.84397216226E+01  0.44631382883E+02 -0.96266175956E+02  0.10644419135E+03  0.00000000000E+00 0.  1.
<scales pt_clust_3="44.52485" pt_clust_4="84.69921" pt_clust_5="14000.00000" pt_clust_6="45.42234"></scales>
<clustering>
<clus scale="   45.422">  2  6  1 -1</clus>
<clus scale="   44.525">  2  3  1 -1</clus>
<clus scale="   84.699">  2  4  1 -1</clus>
<clus scale="   84.699">  1  3  2 -1</clus>
</clustering>
</event>
<event>
 6    0  0.1361919E+003  0.8953916E+02  0.7546771E-02  0.1303972E+00
         21   -1    0    0  506  501  0.00000000000E+00  0.00000000000E+00  0.51675387665E+03  0.51675387665E+03  0.00000000000E+00 0.  1.
         21   -1    0    0  505  502 -0.00000000000E+00 -0.00000000000E+00 -0.66246516717E+03  0.66246516717E+03  0.00000000000E+00 0.  1.
         21    1    1    2  503  504  0.56852213105E+02 -0.92868536845E+02  0.11845003095E+03  0.16089483865E+03  0.00000000000E+00 0.  1.
         21    1    1    2  504  501  0.31588062343E+02  0.41353910341E+02  0.35450478286E+03  0.35830377148E+03  0.00000000000E+00 0.  1.
         21    1    1    2  505  503 -0.23774343892E+02  0.37683096253E+02 -0.58335606859E+03  0.58505515803E+03  0.00000000000E+00 0.  1.
         21    1    1    2  506  502 -0.64665931556E+02  0.13831530250E+02 -0.35310035737E+02  0.74965275674E+02  0.00000000000E+00 0. -1.
<scales pt_clust_3="14000.00000" pt_clust_4="52.42436" pt_clust_5="44.55598" pt_clust_6="89.53916"></scales>
<clustering>
<clus scale="   44.556">  2  5  1 -1</clus>
<clus scale="   52.424">  1  4  2 -1</clus>
<clus scale="   89.539">  2  6  1 -1</clus>
<clus scale="   52.424">  1  3  2 -1</clus>
</clustering>
</event>
<event>
 6    0  0.1361919E+003  0.1254614E+03  0.7546771E-02  0.1234350E+00
         21   -1    0    0  503  501  0.00000000000E+00  0.00000000000E+00  0.40160153947E+03  0.40160153947E+03  0.00000000000E+00 0. -1.
         21   -1    0    0  506  502 -0.00000000000E+00 -0.00000000000E+00 -0.28785951689E+03  0.28785951689E+03  0.00000000000E+00 0. -1.
         21    1    1    2  503  502 -0.11926554060E+03  0.55046642935E+02  0.33023957396E+02  0.13544365557E+03  0.00000000000E+00 0. -1.
         21    1    1    2  504  501  0.87895032056E+02 -0.89812833962E+02  0.23931182057E+03  0.27029988766E+03  0.00000000000E+00 0. -1.
         21    1    1    2  505  504  0.60721089521E+02  0.42804637544E+02  0.38922694668E+02  0.83870518468E+02  0.00000000000E+00 0. -1.
         21    1    1    2  506  505 -0.29350580976E+02 -0.80384465170E+01 -0.19751645006E+03  0.19984699465E+03  0.00000000000E+00 0. -1.
<scales pt_clust_3="125.46140" pt_clust_4="14000.00000" pt_clust_5="67.12975" pt_clust_6="30.43145"></scales>
<clustering>
<clus scale="   30.431">  2  6  1 -1</clus>
<clus scale="   67.130">  2  5  1 -1</clus>
<clus scale="  125.461">  2  3  1 -1</clus>
<clus scale="  125.461">  1  3  2 -1</clus>
</clustering>
</event>
<event>
 6    0  0.1361919E+003  0.9418852E+02  0.7546771E-02  0.1293014E+00
         21   -1    0    0  505  501  0.00000000000E+00  0.00000000000E+00  0.14986503136E+04  0.14986503136E+04  0.00000000000E+00 0.  1.
         21   -1    0    0  504  502 -0.00000000000E+00 -0.00000000000E+00 -0.18375595584E+04  0.18375595584E+04  0.00000000000E+00 0.  1.
         21    1    1    2  503  501  0.62916428789E+01 -0.39832194990E+02  0.65519764459E+03  0.65643746237E+03  0.00000000000E+00 0.  1.
         21    1    1    2  504  503  0.59860458296E+02 -0.52920089913E+01 -0.56605553145E+03  0.56923645747E+03  0.00000000000E+00 0.  1.
         21    1    1    2  505  506  0.90006570141E+01  0.13256343764E+03  0.83335021858E+03  0.84387597645E+03  0.00000000000E+00 0.  1.
         21    1    1    2  506  502 -0.75152758189E+02 -0.87439233656E+02 -0.12614015766E+04  0.12666599757E+04  0.00000000000E+00 0.  1.
<scales pt_clust_3="40.32603" pt_clust_4="60.11242" pt_clust_5="14000.00000" pt_clust_6="94.18852"></scales>
<clustering>
<clus scale="   40.326">  1  3  2 -1</clus>
<clus scale="   60.112">  2  4  1 -1</clus>
<clus scale="   94.189">  2  6  1 -1</clus>
<clus scale="   40.326">  1  3  2 -1</clus>
</clustering>
</event>
<event>
 6    0  0.1361919E+003  0.1712284E+03  0.7546771E-02  0.1176573E+00
         21   -1    0    0  504  501  0.00000000000E+00  0.00000000000E+00  0.77457809436E+03  0.77457809436E+03  0.00000000000E+00 0. -1.
         21   -1    0    0  506  502 -0.00000000000E+00 -0.00000000000E+00 -0.12218271496E+03  0.12218271496E+03  0.00000000000E+00 0. -1.
         21    1    1    2  503  502 -0.55275745030E+02  0.69829277670E+02  0.42623488577E+02  0.98733468424E+02  0.00000000000E+00 0. -1.
         21    1    1    2  504  503  0.32956628702E+02  0.17139945459E+02  0.12821060175E+03  0.13348361512E+03  0.00000000000E+00 0. -1.
         21    1    1    2  505  501 -0.12010116868E+03 -0.16167967892E+03  0.46015099071E+03  0.50229826154E+03  0.00000000000E+00 0. -1.
         21    1    1    2  506  505  0.14242028501E+03  0.74710455786E+02  0.21410298363E+02  0.16224546423E+03  0.00000000000E+00 0. -1.
<scales pt_clust_3="88.37966" pt_clust_4="37.14724" pt_clust_5="14000.00000" pt_clust_6="171.22836"></scales>
<clustering>
<clus scale="   37.147">  1  4  2 -1</clus>
<clus scale="   88.380">  2  3  1 -1</clus>
<clus scale="  171.228">  2  6  1 -1</clus>
<clus scale="   37.147">  1  3  2 -1</clus>
</clustering>
</event>
<event>
 6    0  0.1361919E+003  0.1878798E+03  0.7546771E-02  0.1160388E+00
         21   -1    0    0  504  501  0.00000000000E+00  0.00000000000E+00  0.93947242760E+02  0.93947242760E+02  0.00000000000E+00 0. -1.
         21   -1    0    0  505  502 -0.00000000000E+00 -0.00000000000E+00 -0.18655905423E+04  0.18655905423E+04  0.00000000000E+00 0. -1.
         21    1    1    2  503  501 -0.38852717917E+02  0.11021485158E+02 -0.18277303693E+02  0.44329072344E+02  0.00000000000E+00 0. -1.
         21    1    1    2  504  502  0.19893344228E+03  0.41652317329E+02 -0.60361051365E+02  0.21202095774E+03  0.00000000000E+00 0. -1.
         21    1    1    2  505  506 -0.10977390489E+03  0.41711703156E+01 -0.96176740583E+03  0.96802079098E+03  0.00000000000E+00 0. -1.
         21    1    1    2  506  503 -0.50306819477E+02 -0.56844972803E+02 -0.73123753864E+03  0.73516696399E+03  0.00000000000E+00 0. -1.
<scales pt_clust_3="40.38573" pt_clust_4="170.63533" pt_clust_5="65.09791" pt_clust_6="65.09791"></scales>
<clustering>
<clus scale="   40.386">  1  3  2 -1</clus>
<clus scale="   65.098">  5  6 -1 -1</clus>
<clus scale="  170.635">  1  4  2 -1</clus>
<clus scale="   40.386">  1  3  2 -1</clus>
</clustering>
</event>
<event>
 6    0  0.1361919E+003  0.1363475E+03  0.7546771E-02  0.1218330E+00
         21   -1    0    0  502  501  0.00000000000E+00  0.00000000000E+00  0.19369720868E+03  0.19369720868E+03  0.00000000000E+00 0. -1.
         21   -1    0    0  506  502 -0.00000000000E+00 -0.00000000000E+00 -0.30284849049E+04  0.30284849049E+04  0.00000000000E+00 0.  1.
         21    1    1    2  503  504 -0.62633345467E+01 -0.36342506231E+02 -0.58072867383E+03  0.58189844452E+03  0.00000000000E+00 0.  1.
         21    1    1    2  504  501  0.58681434197E+02  0.76903431620E+01  0.18316442038E+03  0.19248858925E+03  0.00000000000E+00 0. -1.
         21    1    1    2  505  503 -0.10695098580E+03 -0.60057773122E+02 -0.12402655510E+04  0.12463162064E+04  0.00000000000E+00 0.  1.
         21    1    1    2  506  505  0.54532886147E+02  0.88709936191E+02 -0.11969578918E+04  0.12014788734E+04  0.00000000000E+00 0.  1.
<scales pt_clust_3="35.69704" pt_clust_4="59.18321" pt_clust_5="35.69704" pt_clust_6="119.80110"></scales>
<clustering>
<clus scale="   35.697">  3  5 -1 -1</clus>
<clus scale="   59.183">  1  4  2 -1</clus>
<clus scale="  119.801">  2  6  1 -1</clus>
<clus scale="   59.183">  1  3  2 -1</clus>
</clustering>
</event>
<event>
 6    0  0.1361919E+003  0.6878876E+02  0.7546771E-02  0.1364261E+00
         21   -1    0    0  505  501  0.00000000000E+00  0.00000000000E+00  0.52981609264E+03  0.52981609264E+03  0.00000000000E+00 0.  1.
         21   -1    0    0  504  502 -0.00000000000E+00 -0.00000000000E+00 -0.43178803399E+02  0.43178803399E+02  0.00000000000E+00 0.  1.
         21    1    1    2  503  502  0.68642325391E+02  0.24629188879E+02  0.47384540809E+02  0.86969307733E+02  0.00000000000E+00 0.  1.
         21    1    1    2  504  506 -0.19280444501E+02 -0.25164528218E+02  0.26353968315E+02  0.41225243074E+02  0.00000000000E+00 0.  1.
         21    1    1    2  505  503 -0.10734478256E+03  0.27339670739E+01  0.27041293170E+03  0.29095279781E+03  0.00000000000E+00 0.  1.
         21    1    1    2  506  501  0.57982901673E+02 -0.21986277344E+01  0.14248584842E+03  0.15384754743E+03  0.00000000000E+00 0.  1.
<scales pt_clust_3="68.78876" pt_clust_4="31.70156" pt_clust_5="14000.00000" pt_clust_6="55.26722"></scales>
<clustering>
<clus scale="   31.702">  2  4  1 -1</clus>
<clus scale="   55.267">  1  6  2 -1</clus>
<clus scale="   68.789">  2  3  1 -1</clus>
<clus scale="   55.267">  1  3  2 -1</clus>
</clustering>
</event>
<event>
 6    0  0.1361919E+003  0.7066336E+02  0.7546771E-02  0.1357852E+00
         21   -1    0    0  503  501  0.00000000000E+00  0.00000000000E+00  0.10246259608E+03  0.10246259608E+03  0.00000000000E+00 0.  1.
         21   -1    0    0  505  502 -0.00000000000E+00 -0.00000000000E+00 -0.48540214982E+03  0.48540214982E+03  0.00000000000E+00 0.  1.
         21    1    1    2  503  506 -0.40961566801E+02 -0.81597031179E+02  0.31201887524E+02  0.96485663376E+02  0.00000000000E+00 0.  1.
         21    1    1    2  504  501  0.31392409204E+02  0.13663009494E+02  0.13660167956E+02  0.36861380504E+02  0.00000000000E+00 0.  1.
         21    1    1    2  505  504  0.58218561444E+02  0.47882313646E+02 -0.11622661298E+03  0.13853065517E+03  0.00000000000E+00 0.  1.
         21    1    1    2  506  502 -0.48649403847E+02  0.20051708039E+02 -0.31157499624E+03  0.31598704685E+03  0.00000000000E+00 0.  1.
<scales pt_clust_3="14000.00000" pt_clust_4="34.23684" pt_clust_5="70.66336" pt_clust_6="51.94391"></scales>
<clustering>
<clus scale="   34.237">  1  4  2 -1</clus>
<clus scale="   51.944">  2  6  1 -1</clus>
<clus scale="   70.663">  2  5  1 -1</clus>
<clus scale="   34.237">  1  3  2 -1</clus>
</clustering>
</event>
<event>
 6    0  0.1361919E+003  0.1508615E+03  0.7546771E-02  0.1199418E+00
         21   -1    0    0  505  501  0.00000000000E+00  0.00000000000E+00  0.50492279652E+03  0.50492279652E+03  0.00000000000E+00 0.  1.
         21   -1    0    0  504  502 -0.00000000000E+00 -0.00000000000E+00 -0.14715395767E+04  0.14715395767E+04  0.00000000000E+00 0.  1.
         21    1    1    2  503  501 -0.17338266544E+02 -0.10739927001E+03 -0.10245720716E+03  0.14944128608E+03  0.00000000000E+00 0. -1.
         21    1    1    2  504  503 -0.63844647169E+02 -0.64163138760E+02 -0.83230242330E+03  0.83720987284E+03  0.00000000000E+00 0.  1.
         21    1    1    2  505  506  0.72799100590E+02  0.13755489055E+03  0.46570303978E+03  0.49101973303E+03  0.00000000000E+00 0.  1.
         21    1    1    2  506  502  0.83838131230E+01  0.34007518215E+02 -0.49756018955E+03  0.49879148132E+03  0.00000000000E+00 0.  1.
<scales pt_clust_3="150.86154" pt_clust_4="66.59306" pt_clust_5="14000.00000" pt_clust_6="35.02570"></scales>
<clustering>
<clus scale="   35.026">  2  6  1 -1</clus>
<clus scale="   66.593">  2  4  1 -1</clus>
<clus scale="  150.862">  2  3  1 -1</clus>
<clus scale="  150.862">  1  3  2 -1</clus>
</clustering>
</event>
<event>
 6    0  0.1361919E+003  0.2271242E+03  0.7546771E-02  0.1128680E+00
         21   -1    0    0  504  501  0.00000000000E+00  0.00000000000E+00  0.46695190538E+03  0.46695190538E+03  0.00000000000E+00 0. -1.
         21   -1    0    0  503  502 -0.00000000000E+00 -0.00000000000E+00 -0.46411474757E+03  0.46411474757E+03  0.00000000000E+00 0. -1.
         21    1    1    2  503  505 -0.67861060253E+02 -0.32016807914E+02 -0.23094018088E+03  0.24282414755E+03  0.00000000000E+00 0. -1.
         21    1    1    2  504  506 -0.17535081418E+02 -0.31200897145E+02  0.17737497677E+03  0.18094987551E+03  0.00000000000E+00 0. -1.
         21    1    1    2  505  501  0.28002919525E+03  0.88391310531E+01 -0.40661974885E+02  0.28310400320E+03  0.00000000000E+00 0. -1.
         21    1    1    2  506  502 -0.19463305358E+03  0.54378574006E+02  0.97064336804E+02  0.22418862668E+03  0.00000000000E+00 0. -1.
<scales pt_clust_3="75.63818" pt_clust_4="35.79071" pt_clust_5="14000.00000" pt_clust_6="227.12420"></scales>
<clustering>
<clus scale="   35.791">  1  4  2 -1</clus>
<clus scale="   75.638">  2  3  1 -1</clus>
<clus scale="  227.124">  1  6  2 -1</clus>
<clus scale="   35.791">  1  3  2 -1</clus>
</clustering>
</event>
<event>
 6    0  0.1361919E+003  0.1200523E+03  0.7546771E-02  0.1243011E+00
         21   -1    0    0  505  501  0.00000000000E+00  0.00000000000E+00  0.42980269044E+03  0.42980269044E+03  0.00000000000E+00 0. -1.
         21   -1    0    0  504  502 -0.00000000000E+00 -0.00000000000E+00 -0.22038265124E+03  0.22038265124E+03  0.00000000000E+00 0. -1.
         21    1    1    2  503  502  0.33861926174E+02  0.11245440404E+03 -0.13182682120E+03  0.17655292073E+03  0.00000000000E+00 0. -1.
         21    1    1    2  504  501 -0.13516299646E+03 -0.11165407608E+03  0.21827400394E+03  0.27996287095E+03  0.00000000000E+00 0. -1.
         21    1    1    2  505  506  0.28112160474E+02  0.52040342902E+02  0.53604394500E+02  0.79824319387E+02  0.00000000000E+00 0. -1.
         21    1    1    2  506  503  0.73188909809E+02 -0.52840670864E+02  0.69368461956E+02  0.11384523060E+03  0.00000000000E+00 0. -1.
<scales pt_clust_3="14000.00000" pt_clust_4="120.05232" pt_clust_5="59.14804" pt_clust_6="89.56613"></scales>
<clustering>
<clus scale="   59.148">  1  5  2 -1</clus>
<clus scale="   89.566">  1  6  2 -1</clus>
<clus scale="  120.052">  1  4  2 -1</clus>
<clus scale="   59.148">  1  3  2 -1</clus>
</clustering>
</event>
<event>
 6    0  0.1361919E+003  0.9824904E+02  0.7546771E-02  0.1284022E+00
         21   -1    0    0  505  501  0.00000000000E+00  0.00000000000E+00  0.47813679731E+03  0.47813679731E+03  0.00000000000E+00 0. -1.
         21   -1    0    0  503  502 -0.00000000000E+00 -0.00000000000E+00 -0.97768076702E+02  0.97768076702E+02  0.00000000000E+00 0. -1.
         21    1    1    2  503  506  0.40851959556E+02  0.32494945779E+02 -0.32191091621E+02  0.61327567051E+02  0.00000000000E+00 0. -1.
         21    1    1    2  504  502 -0.94634679110E+02 -0.56405449761E+02  0.96344109644E+02  0.14635397062E+03  0.00000000000E+00 0. -1.
         21    1    1    2  505  504 -0.23983180997E+02 -0.43719700434E+02  0.22542927904E+03  0.23087868032E+03  0.00000000000E+00 0. -1.
         21    1    1    2  506  501  0.77765900550E+02  0.67630204416E+02  0.90786423538E+02  0.13734465602E+03  0.00000000000E+00 0. -1.
<scales pt_clust_3="49.53251" pt_clust_4="98.24904" pt_clust_5="49.86587" pt_clust_6="14000.00000"></scales>
<clustering>
<clus scale="   49.866">  1  5  2 -1</clus>
<clus scale="   49.533">  2  3  1 -1</clus>
<clus scale="   98.249">  2  4  1 -1</clus>
<clus scale="   49.866">  1  3  2 -1</clus>
</clustering>
</event>
<event>
 6    0  0.1361919E+003  0.3113571E+03  0.7546771E-02  0.1079697E+00
         21   -1    0    0  504  501  0.00000000000E+00  0.00000000000E+00  0.43886912128E+03  0.43886912128E+03  0.00000000000E+00 0. -1.
         21   -1    0    0  506  502 -0.00000000000E+00 -0.00000000000E+00 -0.53192064039E+03  0.53192064039E+03  0.00000000000E+00 0. -1.
         21    1    1    2  503  505 -0.30957559183E+03  0.13753422379E+03  0.38336551235E+02  0.34091406678E+03  0.00000000000E+00 0. -1.
         21    1    1    2  504  503  0.36387358435E+02 -0.44437295275E+02  0.15573757312E+03  0.16599067669E+03  0.00000000000E+00 0. -1.
         21    1    1    2  505  502 -0.12821034379E+02  0.40967377838E+02 -0.64364021849E+02  0.77365575536E+02  0.00000000000E+00 0. -1.
         21    1    1    2  506  501  0.28600926777E+03 -0.13406430635E+03 -0.22276162162E+03  0.38651944266E+03  0.00000000000E+00 0. -1.
<scales pt_clust_3="311.35713" pt_clust_4="56.99195" pt_clust_5="42.92674" pt_clust_6="14000.00000"></scales>
<clustering>
<clus scale="   42.927">  2  5  1 -1</clus>
<clus scale="   56.992">  1  4  2 -1</clus>
<clus scale="  311.357">  1  3  2 -1</clus>
<clus scale="   56.992">  1  3  2 -1</clus>
</clustering>
</event>
<event>
 6    0  0.1361919E+003  0.1056913E+03  0.7546771E-02  0.1268764E+00
         21   -1    0    0  505  501  0.00000000000E+00  0.00000000000E+00  0.17537124920E+04  0.17537124920E+04  0.00000000000E+00 0.  1.
         21   -1    0    0  503  502 -0.00000000000E+00 -0.00000000000E+00 -0.30695470487E+03  0.30695470487E+03  0.00000000000E+00 0.  1.
         21    1    1    2  503  504  0.16783418349E+02  0.10828289023E+03 -0.16685828713E+03  0.19962102953E+03  0.00000000000E+00 0.  1.
         21    1    1    2  504  501  0.74735180660E+02 -0.97757652199E+02 -0.90504653505E+02  0.15275142584E+03  0.00000000000E+00 0.  1.
         21    1    1    2  505  506 -0.15128454635E+02  0.27954609370E+02  0.61475516145E+03  0.61557634690E+03  0.00000000000E+00 0.  1.
         21    1    1    2  506  502 -0.76390144374E+02 -0.38479847400E+02  0.10893655664E+04  0.10927183946E+04  0.00000000000E+00 0.  1.
<scales pt_clust_3="14000.00000" pt_clust_4="105.69130" pt_clust_5="31.78569" pt_clust_6="91.63629"></scales>
<clustering>
<clus scale="   31.786">  1  5  2 -1</clus>
<clus scale="   91.636">  1  6  2 -1</clus>
<clus scale="  105.691">  1  4  2 -1</clus>
<clus scale="   31.786">  1  3  2 -1</clus>
</clustering>
</event>
<event>
 6    0  0.1361919E+003  0.1983190E+03  0.7546771E-02  0.1151165E+00
         21   -1    0    0  504  501  0.00000000000E+00  0.00000000000E+00  0.29929319373E+03  0.29929319373E+03  0.00000000000E+00 0.  1.
         21   -1    0    0  505  502 -0.00000000000E+00 -0.00000000000E+00 -0.56725118608E+03  0.56725118608E+03  0.00000000000E+00 0.  1.
         21    1    1    2  503  501 -0.66008784179E+02  0.47808825092E+02  0.14291112869E+03  0.16451879542E+03  0.00000000000E+00 0.  1.
         21    1    1    2  504  502  0.31925897775E+02 -0.17998695281E+03 -0.25859438995E+03  0.31667905621E+03  0.00000000000E+00 0.  1.
         21    1    1    2  505  506  0.13387569713E+03 -0.12080248656E+02 -0.16097725211E+03  0.20971959943E+03  0.00000000000E+00 0.  1.
         21    1    1    2  506  503 -0.99792810725E+02  0.14425837637E+03  0.87025210162E+01  0.17562692874E+03  0.00000000000E+00 0.  1.
<scales pt_clust_3="81.50364" pt_clust_4="14000.00000" pt_clust_5="122.89284" pt_clust_6="198.31902"></scales>
<clustering>
<clus scale="   81.504">  1  3  2 -1</clus>
<clus scale="  122.893">  2  5  1 -1</clus>
<clus scale="  198.319">  1  6  2 -1</clus>
<clus scale="   81.504">  1  3  2 -1</clus>
</clustering>
</event>
<event>
 6    0  0.1361919E+003  0.8267511E+02  0.7546771E-02  0.1321627E+00
         21   -1    0    0  506  501  0.00000000000E+00  0.00000000000E+00  0.10012852137E+04  0.10012852137E+04  0.00000000000E+00 0.  1.
         21   -1    0    0  503  502 -0.00000000000E+00 -0.00000000000E+00 -0.87908431086E+03  0.87908431086E+03  0.00000000000E+00 0. -1.
         21    1    1    2  503  504  0.39407410490E+02  0.23834445666E+02 -0.35926430276E+03  0.36220417452E+03  0.00000000000E+00 0.  1.
         21    1    1    2  504  505  0.23254751352E+02  0.73179798417E+02 -0.10914300618E+03  0.13344760078E+03  0.00000000000E+00 0.  1.
         21    1    1    2  505  501  0.40072265020E+02 -0.32223875423E+02  0.97768299572E+03  0.97903432253E+03  0.00000000000E+00 0.  1.
         21    1    1    2  506  502 -0.10273442686E+03 -0.64790368659E+02 -0.38707478396E+03  0.40568342672E+03  0.00000000000E+00 0. -1.
<scales pt_clust_3="46.05459" pt_clust_4="82.67511" pt_clust_5="51.44203" pt_clust_6="14000.00000"></scales>
<clustering>
<clus scale="   46.055">  2  3  1 -1</clus>
<clus scale="   51.442">  1  5  2 -1</clus>
<clus scale="   82.675">  1  4  2 -1</clus>
<clus scale="   51.442">  1  3  2 -1</clus>
</clustering>
</event>
<event>
 6    0  0.1361919E+003  0.1080635E+03  0.7546771E-02  0.1264198E+00
         21   -1    0    0  504  501  0.00000000000E+00  0.00000000000E+00  0.10001517026E+04  0.10001517026E+04  0.00000000000E+00 0.  1.
         21   -1    0    0  503  502 -0.00000000000E+00 -0.00000000000E+00 -0.33503633366E+03  0.33503633366E+03  0.00000000000E+00 0.  1.
         21    1    1    2  503  505 -0.43119523760E+02 -0.12129692727E+03 -0.20732400017E+03  0.24403991260E+03  0.00000000000E+00 0.  1.
         21    1    1    2  504  502 -0.19706727896E+02  0.32147033067E+02 -0.83076554120E+02  0.91233221492E+02  0.00000000000E+00 0. -1.
         21    1    1    2  505  506  0.19893063761E+02  0.95594081259E+02  0.88402880568E+02  0.13171572287E+03  0.00000000000E+00 0. -1.
         21    1    1    2  506  501  0.42933187894E+02 -0.64441870561E+01  0.86711304268E+03  0.86819917931E+03  0.00000000000E+00 0.  1.
<scales pt_clust_3="14000.00000" pt_clust_4="37.70659" pt_clust_5="108.06355" pt_clust_6="43.36102"></scales>
<clustering>
<clus scale="   37.707">  2  4  1 -1</clus>
<clus scale="   43.361">  1  6  2 -1</clus>
<clus scale="  108.064">  1  5  2 -1</clus>
<clus scale="   43.361">  1  3  2 -1</clus>
</clustering>
</event>
<event>
 6    0  0.1361919E+003  0.9989727E+02  0.7546771E-02  0.1280512E+00
         21   -1    0    0  503  501  0.00000000000E+00  0.00000000000E+00  0.82270040080E+03  0.82270040080E+03  0.00000000000E+00 0. -1.
         21   -1    0    0  506  502 -0.00000000000E+00 -0.00000000000E+00 -0.25555832272E+03  0.25555832272E+03  0.00000000000E+00 0.  1.
         21    1    1    2  503  505 -0.80922537440E+02 -0.10447176327E+03  0.45521609903E+03  0.47400896953E+03  0.00000000000E+00 0. -1.
         21    1    1    2  504  502  0.24338785907E+02  0.38278218300E+02 -0.22494854758E+03  0.22947646405E+03  0.00000000000E+00 0.  1.
         21    1    1    2  505  504  0.58844224340E+02  0.33674548291E+02  0.45660311249E+02  0.81740332542E+02  0.00000000000E+00 0. -1.
         21    1    1    2  506  501 -0.22604728068E+01  0.32518996677E+02  0.29121421538E+03  0.29303295740E+03  0.00000000000E+00 0. -1.
<scales pt_clust_3="14000.00000" pt_clust_4="45.47275" pt_clust_5="99.89727" pt_clust_6="32.59747"></scales>
<clustering>
<clus scale="   32.597">  1  6  2 -1</clus>
<clus scale="   45.473">  2  4  1 -1</clus>
<clus scale="   99.897">  2  5  1 -1</clus>
<clus scale="   32.597">  1  3  2 -1</clus>
</clustering>
</event>
<event>
 6    0  0.1361919E+003  0.1390305E+03  0.7546771E-02  0.1214639E+00
         21   -1    0    0  502  501  0.00000000000E+00  0.00000000000E+00  0.12930172539E+04  0.12930172539E+04  0.00000000000E+00 0. -1.
         21   -1    0    0  504  502 -0.00000000000E+00 -0.00000000000E+00 -0.28696320532E+03  0.28696320532E+03  0.00000000000E+00 0.  1.
         21    1    1    2  503  501  0.12791370783E+03 -0.10151926910E+02  0.11363908719E+04  0.11436123434E+04  0.00000000000E+00 0. -1.
         21    1    1    2  504  506 -0.10174992715E+02  0.70628354470E+02 -0.24320501646E+03  0.25345724484E+03  0.00000000000E+00 0.  1.
         21    1    1    2  505  503 -0.39488196216E+02 -0.73680033777E+01  0.66243352259E+02  0.77471200021E+02  0.00000000000E+00 0. -1.
         21    1    1    2  506  505 -0.78250518898E+02 -0.53108424182E+02  0.46624840919E+02  0.10543967099E+03  0.00000000000E+00 0.  1.
<scales pt_clust_3="127.01234" pt_clust_4="71.35751" pt_clust_5="36.85242" pt_clust_6="36.85242"></scales>
<clustering>
<clus scale="   36.852">  5  6 -1 -1</clus>
<clus scale="   71.358">  2  4  1 -1</clus>
<clus scale="  127.012">  1  3  2 -1</clus>
<clus scale="  127.012">  1  3  2 -1</clus>
</clustering>
</event>
<event>
 6    0  0.1361919E+003  0.1037530E+03  0.7546771E-02  0.1272596E+00
         21   -1    0    0  505  501  0.00000000000E+00  0.00000000000E+00  0.13619715757E+03  0.13619715757E+03  0.00000000000E+00 0.  1.
         21   -1    0    0  503  502 -0.00000000000E+00 -0.00000000000E+00 -0.45502370266E+03  0.45502370266E+03  0.00000000000E+00 0.  1.
         21    1    1    2  503  504  0.39910487635E+02  0.18539328210E+02 -0.25179239864E+03  0.25560900947E+03  0.00000000000E+00 0.  1.
         21    1    1    2  504  506  0.47712955271E+02  0.18141507288E+02 -0.13029377408E+03  0.13993608524E+03  0.00000000000E+00 0.  1.
         21    1    1    2  505  502 -0.98260182857E+02 -0.81337118432E+02  0.75421637871E+02  0.14818641581E+03  0.00000000000E+00 0.  1.
         21    1    1    2  506  501  0.10636739952E+02  0.44656282934E+02 -0.12162010245E+02  0.47489349706E+02  0.00000000000E+00 0. -1.
<scales pt_clust_3="35.26719" pt_clust_4="35.26719" pt_clust_5="96.55031" pt_clust_6="45.90560"></scales>
<clustering>
<clus scale="   35.267">  3  4 -1 -1</clus>
<clus scale="   45.906">  1  6  2 -1</clus>
<clus scale="   96.550">  1  5  2 -1</clus>
<clus scale="   45.906">  1  3  2 -1</clus>
</clustering>
</event>
<event>
 6    0  0.1361919E+003  0.2795050E+03  0.7546771E-02  0.1095960E+00
         21   -1    0    0  506  501  0.00000000000E+00  0.00000000000E+00  0.12617771597E+04  0.12617771597E+04  0.00000000000E+00 0. -1.
         21   -1    0    0  503  502 -0.00000000000E+00 -0.00000000000E+00 -0.18225743054E+03  0.18225743054E+03  0.00000000000E+00 0. -1.
         21    1    1    2  503  504 -0.17039711357E+02 -0.39008337242E+02  0.34637990535E+02  0.54879800708E+02  0.00000000000E+00 0. -1.
         21    1    1    2  504  501 -0.24900460539E+03  0.80314920235E+02  0.46158784939E+02  0.26567727292E+03  0.00000000000E+00 0. -1.
         21    1    1    2  505  502 -0.67372657629E+01  0.32655320364E+02 -0.37045180595E+02  0.49840807611E+02  0.00000000000E+00 0. -1.
         21    1    1    2  506  505  0.27278158251E+03 -0.73961903358E+02  0.10357681343E+04  0.10736367090E+04  0.00000000000E+00 0. -1.
<scales pt_clust_3="40.60669" pt_clust_4="279.50496" pt_clust_5="33.34308" pt_clust_6="14000.00000"></scales>
<clustering>
<clus scale="   33.343">  2  5  1 -1</clus>
<clus scale="   40.607">  2  3  1 -1</clus>
<clus scale="  279.505">  2  4  1 -1</clus>
<clus scale="  279.505">  1  3  2 -1</clus>
</clustering>
</event>
<event>
 6    0  0.1361919E+003  0.9493065E+02  0.7546771E-02  0.1291332E+00
         21   -1    0    0  504  501  0.00000000000E+00  0.00000000000E+00  0.26354958800E+02  0.26354958800E+02  0.00000000000E+00 0.  1.
         21   -1    0    0  503  502 -0.00000000000E+00 -0.00000000000E+00 -0.19233081306E+04  0.19233081306E+04  0.00000000000E+00 0. -1.
         21    1    1    2  503  506  0.15941559451E+02  0.53384941068E+02 -0.29009969415E+03  0.29540128266E+03  0.00000000000E+00 0. -1.
         21    1    1    2  504  505  0.30207560719E+01 -0.36717379108E+02 -0.58323982625E+02  0.68985345147E+02  0.00000000000E+00 0.  1.
         21    1    1    2  505  502  0.78920448024E+02 -0.23912371647E+02 -0.14255418363E+04  0.14279249860E+04  0.00000000000E+00 0. -1.
         21    1    1    2  506  501 -0.97882763547E+02  0.72448096867E+01 -0.12298765868E+03  0.15735147554E+03  0.00000000000E+00 0.  1.
<scales pt_clust_3="51.41520" pt_clust_4="36.84143" pt_clust_5="14000.00000" pt_clust_6="94.93065"></scales>
<clustering>
<clus scale="   36.841">  1  4  2 -1</clus>
<clus scale="   51.415">  2  3  1 -1</clus>
<clus scale="   94.931">  1  6  2 -1</clus>
<clus scale="   36.841">  1  3  2 -1</clus>
</clustering>
</event>
<event>
 6    0  0.1361919E+003  0.7262665E+02  0.7546771E-02  0.1351382E+00
         21   -1    0    0  506  501  0.00000000000E+00  0.00000000000E+00  0.58002026595E+03  0.58002026595E+03  0.00000000000E+00 0. -1.
         21   -1    0    0  503  502 -0.00000000000E+00 -0.00000000000E+00 -0.25309576241E+03  0.25309576241E+03  0.00000000000E+00 0. -1.
         21    1    1    2  503  504 -0.10251464586E+00 -0.46093854793E+02 -0.22481890375E+03  0.22949551944E+03  0.00000000000E+00 0. -1.
         21    1    1    2  504  505  0.72447241672E+02  0.10069772878E+02  0.72429190662E+02  0.10293682923E+03  0.00000000000E+00 0. -1.
         21    1    1    2  505  501 -0.73172968292E+02 -0.29605872080E+02  0.25057944141E+03  0.26271819010E+03  0.00000000000E+00 0. -1.
         21    1    1    2  506  502  0.82824126662E+00  0.65629953995E+02  0.22873477521E+03  0.23796548959E+03  0.00000000000E+00 0. -1.
<scales pt_clust_3="46.09397" pt_clust_4="14000.00000" pt_clust_5="72.62665" pt_clust_6="57.43399"></scales>
<clustering>
<clus scale="   46.094">  2  3  1 -1</clus>
<clus scale="   57.434">  1  6  2 -1</clus>
<clus scale="   72.627">  1  5  2 -1</clus>
<clus scale="   57.434">  1  3  2 -1</clus>
</clustering>
</event>
<event>
 6    0  0.1361919E+003  0.1477922E+03  0.7546771E-02  0.1203212E+00
         21   -1    0    0  503  501  0.00000000000E+00  0.00000000000E+00  0.86949626359E+02  0.86949626359E+02  0.00000000000E+00 0. -1.
         21   -1    0    0  506  502 -0.00000000000E+00 -0.00000000000E+00 -0.14477708828E+04  0.14477708828E+04  0.00000000000E+00 0. -1.
         21    1    1    2  503  502 -0.43452337855E+02  0.39996029756E+02 -0.14178538276E+03  0.15359323822E+03  0.00000000000E+00 0. -1.
         21    1    1    2  504  505  0.10104408489E+03 -0.17677398984E+03 -0.25462370517E+03  0.32602481778E+03  0.00000000000E+00 0. -1.
         21    1    1    2  505  501  0.20719464027E+01  0.13474177559E+03 -0.57971616203E+02  0.14669815042E+03  0.00000000000E+00 0.  1.
         21    1    1    2  506  504 -0.59663693443E+02  0.20361844885E+01 -0.90644055232E+03  0.90840430275E+03  0.00000000000E+00 0. -1.
<scales pt_clust_3="59.05750" pt_clust_4="14000.00000" pt_clust_5="147.79220" pt_clust_6="94.84594"></scales>
<clustering>
<clus scale="   59.057">  2  3  1 -1</clus>
<clus scale="   94.846">  2  6  1 -1</clus>
<clus scale="  147.792">  1  5  2 -1</clus>
<clus scale="  147.792">  1  3  2 -1</clus>
</clustering>
</event>
<event>
 6    0  0.1361919E+003  0.1421440E+03  0.7546771E-02  0.1210473E+00
         21   -1    0    0  503  501  0.00000000000E+00  0.00000000000E+00  0.92573953989E+03  0.92573953989E+03  0.00000000000E+00 0.  1.
         21   -1    0    0  504  502 -0.00000000000E+00 -0.00000000000E+00 -0.53538602123E+03  0.53538602123E+03  0.00000000000E+00 0. -1.
         21    1    1    2  503  505  0.37459410321E+02  0.16014162365E+02  0.89544963668E+02  0.98376630031E+02  0.00000000000E+00 0. -1.
         21    1    1    2  504  506  0.10345904105E+03 -0.53308116751E+02 -0.55913018708E+02  0.12911930199E+03  0.00000000000E+00 0. -1.
         21    1    1    2  505  502 -0.13122122630E+03  0.75487955727E+02 -0.42487566585E+03  0.45103965804E+03  0.00000000000E+00 0. -1.
         21    1    1    2  506  501 -0.96972250693E+01 -0.38194001340E+02  0.78159723956E+03  0.78258997106E+03  0.00000000000E+00 0.  1.
<scales pt_clust_3="32.38317" pt_clust_4="14000.00000" pt_clust_5="142.14398" pt_clust_6="39.40581"></scales>
<clustering>
<clus scale="   39.406">  1  6  2 -1</clus>
<clus scale="   32.383">  1  3  2 -1</clus>
<clus scale="  142.144">  2  5  1 -1</clus>
<clus scale="   39.406">  1  3  2 -1</clus>
</clustering>
</event>
<event>
 6    0  0.1361919E+003  0.1779423E+03  0.7546771E-02  0.1169810E+00
         21   -1    0    0  503  501  0.00000000000E+00  0.00000000000E+00  0.19818033031E+03  0.19818033031E+03  0.00000000000E+00 0. -1.
         21   -1    0    0  501  502 -0.00000000000E+00 -0.00000000000E+00 -0.41967968098E+03  0.41967968098E+03  0.00000000000E+00 0. -1.
         21    1    1    2  503  506  0.40195910520E+02  0.11908553000E+02  0.48336998811E+02  0.63984297379E+02  0.00000000000E+00 0. -1.
         21    1    1    2  504  502 -0.42540184426E+02  0.80155227234E+01 -0.17445471955E+03  0.17974527830E+03  0.00000000000E+00 0. -1.
         21    1    1    2  505  504 -0.77880072561E+02 -0.13013935921E+03 -0.16241782039E+03  0.22221860160E+03  0.00000000000E+00 0. -1.
         21    1    1    2  506  505  0.80224346467E+02  0.11021528349E+03  0.67036190471E+02  0.15191183401E+03  0.00000000000E+00 0. -1.
<scales pt_clust_3="34.56480" pt_clust_4="43.28875" pt_clust_5="166.66900" pt_clust_6="34.56480"></scales>
<clustering>
<clus scale="   34.565">  3  6 -1 -1</clus>
<clus scale="   43.289">  2  4  1 -1</clus>
<clus scale="  166.669">  2  5  1 -1</clus>
<clus scale="  177.942">  1  3  2 -1</clus>
</clustering>
</event>
<event>
 6    0  0.1361919E+003  0.6754172E+02  0.7546771E-02  0.1368658E+00
         21   -1    0    0  504  501  0.00000000000E+00  0.00000000000E+00  0.26310779703E+03  0.26310779703E+03  0.00000000000E+00 0. -1.
         21   -1    0    0  503  502 -0.00000000000E+00 -0.00000000000E+00 -0.36413747067E+03  0.36413747067E+03  0.00000000000E+00 0.  1.
         21    1    1    2  503  506 -0.21419123390E+02  0.59263934813E+02 -0.15130924804E+03  0.16390692895E+03  0.00000000000E+00 0.  1.
         21    1    1    2  504  505  0.45943521057E+02 -0.49688781935E+02  0.20248548388E+03  0.21349508978E+03  0.00000000000E+00 0. -1.
         21    1    1    2  505  502  0.62740583006E+02 -0.15444709934E+02 -0.14890423850E+03  0.16231879763E+03  0.00000000000E+00 0.  1.
         21    1    1    2  506  501 -0.87264980673E+02  0.58695570567E+01 -0.33016709888E+01  0.87524451345E+02  0.00000000000E+00 0.  1.
<scales pt_clust_3="63.01581" pt_clust_4="14000.00000" pt_clust_5="54.99893" pt_clust_6="67.54172"></scales>
<clustering>
<clus scale="   63.016">  2  3  1 -1</clus>
<clus scale="   54.999">  2  5  1 -1</clus>
<clus scale="   67.542">  2  6  1 -1</clus>
<clus scale="   67.542">  1  3  2 -1</clus>
</clustering>
</event>
<event>
 6    0  0.1361919E+003  0.1611916E+03  0.7546771E-02  0.1187358E+00
         21   -1    0    0  506  501  0.00000000000E+00  0.00000000000E+00  0.25517887315E+04  0.25517887315E+04  0.00000000000E+00 0.  1.
         21   -1    0    0  505  502 -0.00000000000E+00 -0.00000000000E+00 -0.81043105548E+02  0.81043105548E+02  0.00000000000E+00 0.  1.
         21    1    1    2  503  501 -0.10067822459E+03 -0.53703358384E+02  0.18141390684E+04  0.18177240481E+04  0.00000000000E+00 0.  1.
         21    1    1    2  504  503 -0.28387010170E+02 -0.33865073663E+02  0.39906634324E+03  0.40150543193E+03  0.00000000000E+00 0.  1.
         21    1    1    2  505  504  0.15293451895E+03  0.18254892725E+02  0.29386997293E+03  0.33178572781E+03  0.00000000000E+00 0.  1.
         21    1    1    2  506  502 -0.23869284188E+02  0.69313539322E+02 -0.36329758572E+02  0.81816629232E+02  0.00000000000E+00 0.  1.
<scales pt_clust_3="30.32881" pt_clust_4="30.32881" pt_clust_5="153.64735" pt_clust_6="73.30832"></scales>
<clustering>
<clus scale="   30.329">  3  4 -1 -1</clus>
<clus scale="   73.308">  2  6  1 -1</clus>
<clus scale="  153.647">  2  5  1 -1</clus>
<clus scale="  161.192">  1  3  2 -1</clus>
</clustering>
</event>
<event>
 6    0  0.1361919E+003  0.9389569E+02  0.7546771E-02  0.1293683E+00
         21   -1    0    0  503  501  0.00000000000E+00  0.00000000000E+00  0.54109020730E+03  0.54109020730E+03  0.00000000000E+00 0. -1.
         21   -1    0    0  506  502 -0.00000000000E+00 -0.00000000000E+00 -0.86543281893E+03  0.86543281893E+03  0.00000000000E+00 0. -1.
         21    1    1    2  503  505 -0.48303393715E+01 -0.32755350227E+02  0.28682023494E+03  0.28872494232E+03  0.00000000000E+00 0. -1.
         21    1    1    2  504  501 -0.50735661633E+02 -0.47368462115E+02  0.14922885899E+03  0.16458168465E+03  0.00000000000E+00 0. -1.
         21    1    1    2  505  502 -0.50690114398E+02  0.62055456930E+01 -0.81219336201E+03  0.81379730510E+03  0.00000000000E+00 0. -1.
         21    1    1    2  506  504  0.10625611540E+03  0.73918266649E+02  0.51801656452E+02  0.13941909416E+03  0.00000000000E+00 0.  1.
<scales pt_clust_3="33.10959" pt_clust_4="93.89569" pt_clust_5="51.07123" pt_clust_6="14000.00000"></scales>
<clustering>
<clus scale="   33.110">  1  3  2 -1</clus>
<clus scale="   51.071">  2  5  1 -1</clus>
<clus scale="   93.896">  1  4  2 -1</clus>
<clus scale="   33.110">  1  3  2 -1</clus>
</clustering>
</event>
<event>
 6    0  0.1361919E+003  0.1690288E+03  0.7546771E-02  0.1178864E+00
         21   -1    0    0  504  501  0.00000000000E+00  0.00000000000E+00  0.78902435039E+03  0.78902435039E+03  0.00000000000E+00 0.  1.
         21   -1    0    0  503  502 -0.00000000000E+00 -0.00000000000E+00 -0.35254932493E+02  0.35254932493E+02  0.00000000000E+00 0. -1.
         21    1    1    2  503  505 -0.76470140758E+00  0.31402850968E+02  0.13534638511E+03  0.13894375761E+03  0.00000000000E+00 0.  1.
         21    1    1    2  504  506  0.35454064689E+02 -0.62556242429E+02  0.23060569533E+03  0.24155591669E+03  0.00000000000E+00 0. -1.
         21    1    1    2  505  501 -0.51670261202E+02  0.11698345550E+03  0.21780658606E+03  0.25257603545E+03  0.00000000000E+00 0.  1.
         21    1    1    2  506  502  0.16980897921E+02 -0.85830064037E+02  0.17001075139E+03  0.19120357313E+03  0.00000000000E+00 0. -1.
<scales pt_clust_3="30.56249" pt_clust_4="40.73730" pt_clust_5="30.56249" pt_clust_6="163.66807"></scales>
<clustering>
<clus scale="   30.562">  3  5 -1 -1</clus>
<clus scale="   40.737">  4  6 -1 -1</clus>
<clus scale="  163.668">  1  4  2 -1</clus>
<clus scale="  163.668">  1  3  2 -1</clus>
</clustering>
</event>
<event>
 6    0  0.1361919E+003  0.1291334E+03  0.7546771E-02  0.1228747E+00
         21   -1    0    0  505  501  0.00000000000E+00  0.00000000000E+00  0.56175088419E+02  0.56175088419E+02  0.00000000000E+00 0.  1.
         21   -1    0    0  504  502 -0.00000000000E+00 -0.00000000000E+00 -0.28158007376E+04  0.28158007376E+04  0.00000000000E+00 0.  1.
         21    1    1    2  503  506  0.71021393218E+02 -0.14280902620E+02 -0.17951873639E+03  0.19358450142E+03  0.00000000000E+00 0.  1.
         21    1    1    2  504  503  0.30985407922E+02 -0.29951929298E+01 -0.18213984647E+04  0.18216644680E+04  0.00000000000E+00 0.  1.
         21    1    1    2  505  502 -0.13310588368E+03 -0.45795015086E+02 -0.57586824546E+02  0.15208748153E+03  0.00000000000E+00 0.  1.
         21    1    1    2  506  501  0.31099082536E+02  0.63071110635E+02 -0.70112162356E+03  0.70463937511E+03  0.00000000000E+00 0.  1.
<scales pt_clust_3="78.25562" pt_clust_4="31.12984" pt_clust_5="129.13342" pt_clust_6="14000.00000"></scales>
<clustering>
<clus scale="   31.130">  2  4  1 -1</clus>
<clus scale="   78.256">  2  3  1 -1</clus>
<clus scale="  129.133">  1  5  2 -1</clus>
<clus scale="  129.133">  1  3  2 -1</clus>
</clustering>
</event>
<event>
 6    0  0.1361919E+003  0.1161487E+03  0.7546771E-02  0.1249589E+00
         21   -1    0    0  506  501  0.00000000000E+00  0.00000000000E+00  0.19101203767E+03  0.19101203767E+03  0.00000000000E+00 0.  1.
         21   -1    0    0  503  502 -0.00000000000E+00 -0.00000000000E+00 -0.36007480856E+03  0.36007480856E+03  0.00000000000E+00 0.  1.
         21    1    1    2  503  505 -0.38174176237E+01  0.32628244828E+02 -0.12047681697E+03  0.12487529165E+03  0.00000000000E+00 0.  1.
         21    1    1    2  504  502 -0.10710121000E+03 -0.80315079546E+02 -0.16968070372E+03  0.21613126197E+03  0.00000000000E+00 0.  1.
         21    1    1    2  505  501  0.27339678853E+02  0.50946666159E+02 -0.57891446436E+01  0.58107960111E+02  0.00000000000E+00 0. -1.
         21    1    1    2  506  504  0.83578948770E+02 -0.32598314410E+01  0.12688389444E+03  0.15197233250E+03  0.00000000000E+00 0.  1.
<scales pt_clust_3="32.85080" pt_clust_4="116.14867" pt_clust_5="61.49709" pt_clust_6="14000.00000"></scales>
<clustering>
<clus scale="   32.851">  2  3  1 -1</clus>
<clus scale="   61.497">  1  5  2 -1</clus>
<clus scale="  116.149">  2  4  1 -1</clus>
<clus scale="   61.497">  1  3  2 -1</clus>
</clustering>
</event>
<event>
 6    0  0.1361919E+003  0.1564478E+03  0.7546771E-02  0.1192767E+00
         21   -1    0    0  505  501  0.00000000000E+00  0.00000000000E+00  0.45851291049E+03  0.45851291049E+03  0.00000000000E+00 0.  1.
         21   -1    0    0  506  502 -0.00000000000E+00 -0.00000000000E+00 -0.18846588852E+03  0.18846588852E+03  0.00000000000E+00 0.  1.
         21    1    1    2  503  504 -0.75521085340E+02 -0.18169925782E+02  0.16757928387E+03  0.18470624493E+03  0.00000000000E+00 0.  1.
         21    1    1    2  504  502  0.69349229734E+02  0.13566900286E+03 -0.61501667834E+02  0.16431022229E+03  0.00000000000E+00 0.  1.
         21    1    1    2  505  503 -0.31225893137E+02 -0.71121614687E+02  0.20920402129E+03  0.22315838098E+03  0.00000000000E+00 0.  1.
         21    1    1    2  506  501  0.37397748742E+02 -0.46377462396E+02 -0.45234615355E+02  0.74803950802E+02  0.00000000000E+00 0.  1.
<scales pt_clust_3="69.42591" pt_clust_4="139.48446" pt_clust_5="69.42591" pt_clust_6="59.57735"></scales>
<clustering>
<clus scale="   59.577">  2  6  1 -1</clus>
<clus scale="   69.426">  3  5 -1 -1</clus>
<clus scale="  139.484">  2  4  1 -1</clus>
<clus scale="  156.448">  1  3  2 -1</clus>
</clustering>
</event>
<event>
 6    0  0.1361919E+003  0.9765964E+02  0.7546771E-02  0.1285296E+00
         21   -1    0    0  502  501  0.00000000000E+00  0.00000000000E+00  0.56704186944E+03  0.56704186944E+03  0.00000000000E+00 0. -1.
         21   -1    0    0  506  502 -0.00000000000E+00 -0.00000000000E+00 -0.20328849935E+03  0.20328849935E+03  0.00000000000E+00 0. -1.
         21    1    1    2  503  504 -0.46475571197E+01 -0.89028033989E+02  0.19933861434E+03  0.21836545924E+03  0.00000000000E+00 0. -1.
         21    1    1    2  504  501 -0.80406680289E+02  0.23026536322E+01  0.32354299469E+03  0.33339257019E+03  0.00000000000E+00 0. -1.
         21    1    1    2  505  503  0.60681746538E+02  0.39215190560E+02 -0.28888826510E+02  0.77811758948E+02  0.00000000000E+00 0.  1.
         21    1    1    2  506  505  0.24372490871E+02  0.47510189797E+02 -0.13023941243E+03  0.14076058040E+03  0.00000000000E+00 0. -1.
<scales pt_clust_3="97.65964" pt_clust_4="78.84629" pt_clust_5="14000.00000" pt_clust_6="53.39697"></scales>
<clustering>
<clus scale="   53.397">  2  6  1 -1</clus>
<clus scale="   78.846">  1  4  2 -1</clus>
<clus scale="   97.660">  1  3  2 -1</clus>
<clus scale="   78.846">  1  3  2 -1</clus>
</clustering>
</event>
<event>
 6    0  0.1361919E+003  0.6984697E+02  0.7546771E-02  0.1360614E+00
         21   -1    0    0  505  501  0.00000000000E+00  0.00000000000E+00  0.13822081714E+03  0.13822081714E+03  0.00000000000E+00 0.  1.
         21   -1    0    0  503  502 -0.00000000000E+00 -0.00000000000E+00 -0.80876442155E+03  0.80876442155E+03  0.00000000000E+00 0. -1.
         21    1    1    2  503  504  0.35669659495E+02  0.15670157938E+02 -0.24625490729E+03  0.24931778481E+03  0.00000000000E+00 0. -1.
         21    1    1    2  504  501  0.66217738343E+02 -0.29891644918E+02  0.62746428721E+02  0.95996945911E+02  0.00000000000E+00 0.  1.
         21    1    1    2  505  506 -0.76034477186E+02 -0.38903445868E+02  0.22818783063E+02  0.88404845352E+02  0.00000000000E+00 0.  1.
         21    1    1    2  506  502 -0.25852920652E+02  0.53124932847E+02 -0.50985390891E+03  0.51326566262E+03  0.00000000000E+00 0. -1.
<scales pt_clust_3="38.95996" pt_clust_4="14000.00000" pt_clust_5="69.84697" pt_clust_6="67.74426"></scales>
<clustering>
<clus scale="   38.960">  2  3  1 -1</clus>
<clus scale="   67.744">  2  6  1 -1</clus>
<clus scale="   69.847">  2  5  1 -1</clus>
<clus scale="   69.847">  1  3  2 -1</clus>
</clustering>
</event>
<event>
 6    0  0.1361919E+003  0.1469209E+03  0.7546771E-02  0.1204308E+00
         21   -1    0    0  504  501  0.00000000000E+00  0.00000000000E+00  0.30539027568E+03  0.30539027568E+03  0.00000000000E+00 0. -1.
         21   -1    0    0  506  502 -0.00000000000E+00 -0.00000000000E+00 -0.30537816615E+04  0.30537816615E+04  0.00000000000E+00 0.  1.
         21    1    1    2  503  501 -0.40752237504E+02 -0.64925760657E+02  0.15509069746E+03  0.17300064652E+03  0.00000000000E+00 0. -1.
         21    1    1    2  504  505 -0.44561865428E+02  0.62762355058E+01  0.12529262657E+03  0.13312923516E+03  0.00000000000E+00 0. -1.
         21    1    1    2  505  502 -0.11317638572E+02 -0.53077000728E+02 -0.61214166391E+02  0.81807280336E+02  0.00000000000E+00 0.  1.
         21    1    1    2  506  503  0.96631741505E+02  0.11172652588E+03 -0.29675605434E+04  0.29712347751E+04  0.00000000000E+00 0.  1.
<scales pt_clust_3="146.92087" pt_clust_4="45.00168" pt_clust_5="54.51776" pt_clust_6="14000.00000"></scales>
<clustering>
<clus scale="   45.002">  1  4  2 -1</clus>
<clus scale="   54.518">  1  5  2 -1</clus>
<clus scale="  146.921">  1  3  2 -1</clus>
<clus scale="   45.002">  1  3  2 -1</clus>
</clustering>
</event>
<event>
 6    0  0.1361919E+003  0.6787540E+02  0.7546771E-02  0.1367471E+00
         21   -1    0    0  504  501  0.00000000000E+00  0.00000000000E+00  0.28947664686E+03  0.28947664686E+03  0.00000000000E+00 0. -1.
         21   -1    0    0  505  502 -0.00000000000E+00 -0.00000000000E+00 -0.10274049501E+03  0.10274049501E+03  0.00000000000E+00 0. -1.
         21    1    1    2  503  501 -0.70588401420E+02  0.12203638756E+02  0.14646500104E+03  0.16304492554E+03  0.00000000000E+00 0. -1.
         21    1    1    2  504  506  0.46078667991E+02 -0.54786096734E+02  0.53748203362E+02  0.89518877360E+02  0.00000000000E+00 0. -1.
         21    1    1    2  505  503  0.80707625057E+01  0.76553191806E+02  0.29519599348E+02  0.82443526907E+02  0.00000000000E+00 0. -1.
         21    1    1    2  506  502  0.16438970923E+02 -0.33970733828E+02 -0.42996651897E+02  0.57209812062E+02  0.00000000000E+00 0. -1.
<scales pt_clust_3="14000.00000" pt_clust_4="67.87540" pt_clust_5="61.67776" pt_clust_6="37.73924"></scales>
<clustering>
<clus scale="   37.739">  2  6  1 -1</clus>
<clus scale="   61.678">  2  5  1 -1</clus>
<clus scale="   67.875">  2  4  1 -1</clus>
<clus scale="   67.875">  1  3  2 -1</clus>
</clustering>
</event>
<event>
 6    0  0.1361919E+003  0.6872559E+02  0.7546771E-02  0.1364481E+00
         21   -1    0    0  505  501  0.00000000000E+00  0.00000000000E+00  0.39118856815E+03  0.39118856815E+03  0.00000000000E+00 0. -1.
         21   -1    0    0  506  502 -0.00000000000E+00 -0.00000000000E+00 -0.23517155966E+03  0.23517155966E+03  0.00000000000E+00 0. -1.
         21    1    1    2  503  501 -0.32788897546E+02  0.27591816108E+02  0.10058960009E+03  0.10933749478E+03  0.00000000000E+00 0. -1.
         21    1    1    2  504  503 -0.98039904289E+01 -0.53991869567E+02  0.17053052731E+03  0.17914212501E+03  0.00000000000E+00 0. -1.
         21    1    1    2  505  502  0.97899477970E+02  0.62769181865E+02  0.73787526003E+02  0.13772754616E+03  0.00000000000E+00 0. -1.
         21    1    1    2  506  504 -0.55306589995E+02 -0.36369128406E+02 -0.18889064492E+03  0.20015296185E+03  0.00000000000E+00 0. -1.
<scales pt_clust_3="42.85347" pt_clust_4="47.63614" pt_clust_5="68.72559" pt_clust_6="14000.00000"></scales>
<clustering>
<clus scale="   42.853">  1  3  2 -1</clus>
<clus scale="   47.636">  1  4  2 -1</clus>
<clus scale="   68.726">  1  5  2 -1</clus>
<clus scale="   42.853">  1  3  2 -1</clus>
</clustering>
</event>
<event>
 6    0  0.1361919E+003  0.1102871E+03  0.7546771E-02  0.1260039E+00
         21   -1    0    0  504  501  0.00000000000E+00  0.00000000000E+00  0.10816774064E+04  0.10816774064E+04  0.00000000000E+00 0.  1.
         21   -1    0    0  506  502 -0.00000000000E+00 -0.00000000000E+00 -0.12394312499E+03  0.12394312499E+03  0.00000000000E+00 0.  1.
         21    1    1    2  503  505  0.47169017820E+02 -0.73651958800E+02  0.12504614113E+02  0.88350962933E+02  0.00000000000E+00 0.  1.
         21    1    1    2  504  503  0.34262047637E+02  0.28410192378E+02  0.86997062227E+03  0.87110843788E+03  0.00000000000E+00 0.  1.
         21    1    1    2  505  502  0.45326179731E+02 -0.13516034407E+02 -0.42387313373E+02  0.63512440435E+02  0.00000000000E+00 0.  1.
         21    1    1    2  506  501 -0.12675724519E+03  0.58757800829E+02  0.11764635843E+03  0.18264869016E+03  0.00000000000E+00 0.  1.
<scales pt_clust_3="110.28705" pt_clust_4="44.50873" pt_clust_5="48.57020" pt_clust_6="14000.00000"></scales>
<clustering>
<clus scale="   44.509">  1  4  2 -1</clus>
<clus scale="   48.570">  2  5  1 -1</clus>
<clus scale="  110.287">  2  3  1 -1</clus>
<clus scale="   44.509">  1  3  2 -1</clus>
</clustering>
</event>
<event>
 6    0  0.1361919E+003  0.8439176E+02  0.7546771E-02  0.1317031E+00
         21   -1    0    0  505  501  0.00000000000E+00  0.00000000000E+00  0.59896541063E+03  0.59896541063E+03  0.00000000000E+00 0.  1.
         21   -1    0    0  503  502 -0.00000000000E+00 -0.00000000000E+00 -0.15438309725E+03  0.15438309725E+03  0.00000000000E+00 0.  1.
         21    1    1    2  503  506  0.97710673897E+02  0.77457102727E+01 -0.48557822311E+02  0.10938571172E+03  0.00000000000E+00 0.  1.
         21    1    1    2  504  501  0.34912662758E+02 -0.16259036655E+02  0.44719756745E+03  0.44885288751E+03  0.00000000000E+00 0.  1.
         21    1    1    2  505  502 -0.74998091179E+02  0.86879358506E+00 -0.44785649031E+02  0.87356870605E+02  0.00000000000E+00 0.  1.
         21    1    1    2  506  504 -0.57625245476E+02  0.76445327970E+01  0.90728217270E+02  0.10775303804E+03  0.00000000000E+00 0.  1.
<scales pt_clust_3="14000.00000" pt_clust_4="38.51299" pt_clust_5="84.39176" pt_clust_6="34.80426"></scales>
<clustering>
<clus scale="   38.513">  1  4  2 -1</clus>
<clus scale="   34.804">  1  6  2 -1</clus>
<clus scale="   84.392">  2  5  1 -1</clus>
<clus scale="   38.513">  1  3  2 -1</clus>
</clustering>
</event>
<event>
 6    0  0.1361919E+003  0.1429596E+03  0.7546771E-02  0.1209401E+00
         21   -1    0    0  504  501  0.00000000000E+00  0.00000000000E+00  0.30693504722E+03  0.30693504722E+03  0.00000000000E+00 0. -1.
         21   -1    0    0  506  502 -0.00000000000E+00 -0.00000000000E+00 -0.22444630553E+03  0.22444630553E+03  0.00000000000E+00 0. -1.
         21    1    1    2  503  502 -0.48942451015E+02  0.99150538180E+02 -0.19585316574E+02  0.11229326497E+03  0.00000000000E+00 0. -1.
         21    1    1    2  504  503 -0.61453238631E+02  0.39707206188E+01  0.91695186819E+02  0.11045485252E+03  0.00000000000E+00 0. -1.
         21    1    1    2  505  501  0.13670994251E+03 -0.13305361928E+03  0.96463020441E+02  0.21377087804E+03  0.00000000000E+00 0. -1.
         21    1    1    2  506  505 -0.26314252864E+02  0.29932360484E+02 -0.86084148991E+02  0.94862357210E+02  0.00000000000E+00 0. -1.
<scales pt_clust_3="142.95958" pt_clust_4="63.58562" pt_clust_5="14000.00000" pt_clust_6="39.85456"></scales>
<clustering>
<clus scale="   39.855">  2  6  1 -1</clus>
<clus scale="   63.586">  1  4  2 -1</clus>
<clus scale="  142.960">  2  3  1 -1</clus>
<clus scale="   63.586">  1  3  2 -1</clus>
</clustering>
</event>
<event>
 6    0  0.1361919E+003  0.9856831E+02  0.7546771E-02  0.1283336E+00
         21   -1    0    0  506  501  0.00000000000E+00  0.00000000000E+00  0.25360009490E+04  0.25360009490E+04  0.00000000000E+00 0.  1.
         21   -1    0    0  505  502 -0.00000000000E+00 -0.00000000000E+00 -0.76926116116E+02  0.76926116116E+02  0.00000000000E+00 0. -1.
         21    1    1    2  503  502  0.11607975125E+03  0.73717732129E+02  0.16322269103E+02  0.13847465165E+03  0.00000000000E+00 0. -1.
         21    1    1    2  504  501 -0.43034208250E+02 -0.35575916503E+02  0.20883299648E+04  0.20890762625E+04  0.00000000000E+00 0.  1.
         21    1    1    2  505  504 -0.30325609442E+02 -0.24384189511E+02  0.13016054990E+02  0.41032291840E+02  0.00000000000E+00 0. -1.
         21    1    1    2  506  503 -0.42719933554E+02 -0.13757626115E+02  0.34140654400E+03  0.34434385907E+03  0.00000000000E+00 0.  1.
<scales pt_clust_3="98.56831" pt_clust_4="14000.00000" pt_clust_5="38.91312" pt_clust_6="45.72999"></scales>
<clustering>
<clus scale="   38.913">  2  5  1 -1</clus>
<clus scale="   45.730">  1  6  2 -1</clus>
<clus scale="   98.568">  2  3  1 -1</clus>
<clus scale="   45.730">  1  3  2 -1</clus>
</clustering>
</event>
<event>
 6    0  0.1361919E+003  0.1710151E+03  0.7546771E-02  0.1176793E+00
         21   -1    0    0  504  501  0.00000000000E+00  0.00000000000E+00  0.22462076943E+03  0.22462076943E+03  0.00000000000E+00 0.  1.
         21   -1    0    0  503  502 -0.00000000000E+00 -0.00000000000E+00 -0.32729608913E+04  0.32729608913E+04  0.00000000000E+00 0.  1.
         21    1    1    2  503  506 -0.15498623944E+02  0.33716919142E+02 -0.14206111819E+04  0.14210957631E+04  0.00000000000E+00 0. -1.
         21    1    1    2  504  505  0.64036521722E+02  0.40684842410E+02  0.15551472099E+03  0.17303398787E+03  0.00000000000E+00 0.  1.
         21    1    1    2  505  502 -0.16014796805E+03 -0.53834451619E+02 -0.17819637411E+04  0.17899553890E+04  0.00000000000E+00 0.  1.
         21    1    1    2  506  501  0.11161007027E+03 -0.20567309933E+02 -0.12799198675E+01  0.11349652073E+03  0.00000000000E+00 0.  1.
<scales pt_clust_3="37.10846" pt_clust_4="75.89171" pt_clust_5="14000.00000" pt_clust_6="171.01512"></scales>
<clustering>
<clus scale="   37.108">  2  3  1 -1</clus>
<clus scale="   75.892">  1  4  2 -1</clus>
<clus scale="  171.015">  1  6  2 -1</clus>
<clus scale="   75.892">  1  3  2 -1</clus>
</clustering>
</event>
<event>
 6    0  0.1361919E+003  0.1728387E+03  0.7546771E-02  0.1174919E+00
         21   -1    0    0  505  501  0.00000000000E+00  0.00000000000E+00  0.19154128944E+04  0.19154128944E+04  0.00000000000E+00 0. -1.
         21   -1    0    0  504  502 -0.00000000000E+00 -0.00000000000E+00 -0.12806935419E+03  0.12806935419E+03  0.00000000000E+00 0. -1.
         21    1    1    2  503  502  0.75895572199E+01  0.52043845107E+02 -0.68800253375E+02  0.86600450673E+02  0.00000000000E+00 0. -1.
         21    1    1    2  504  501  0.86362059696E+02  0.83775674337E+02  0.10639413695E+04  0.10707231232E+04  0.00000000000E+00 0. -1.
         21    1    1    2  505  506  0.43647922015E+02 -0.21594914584E+03  0.58308371306E+03  0.62331837059E+03  0.00000000000E+00 0. -1.
         21    1    1    2  506  503 -0.13759953893E+03  0.80129626393E+02  0.20911871107E+03  0.26284030410E+03  0.00000000000E+00 0. -1.
<scales pt_clust_3="52.59433" pt_clust_4="123.14461" pt_clust_5="14000.00000" pt_clust_6="172.83871"></scales>
<clustering>
<clus scale="   52.594">  2  3  1 -1</clus>
<clus scale="  123.145">  1  4  2 -1</clus>
<clus scale="  172.839">  2  6  1 -1</clus>
<clus scale="  123.145">  1  3  2 -1</clus>
</clustering>
</event>
<event>
 6    0  0.1361919E+003  0.9638141E+02  0.7546771E-02  0.1288095E+00
         21   -1    0    0  506  501  0.00000000000E+00  0.00000000000E+00  0.74875818925E+02  0.74875818925E+02  0.00000000000E+00 0. -1.
         21   -1    0    0  503  502 -0.00000000000E+00 -0.00000000000E+00 -0.90578715980E+03  0.90578715980E+03  0.00000000000E+00 0.  1.
         21    1    1    2  503  504  0.44503659891E+02 -0.92043885012E+02 -0.57553792476E+03  0.58454816341E+03  0.00000000000E+00 0.  1.
         21    1    1    2  504  501 -0.14913735526E+02  0.76539680157E+02  0.15819980989E+02  0.79567668964E+02  0.00000000000E+00 0. -1.
         21    1    1    2  505  502 -0.56035262250E+02  0.67298073512E+02 -0.22760349953E+03  0.24386950263E+03  0.00000000000E+00 0.  1.
         21    1    1    2  506  505  0.26445337885E+02 -0.51793868657E+02 -0.43589897577E+02  0.72677643723E+02  0.00000000000E+00 0.  1.
<scales pt_clust_3="14000.00000" pt_clust_4="36.09621" pt_clust_5="96.38141" pt_clust_6="58.15463"></scales>
<clustering>
<clus scale="   58.155">  1  6  2 -1</clus>
<clus scale="   36.096">  1  4  2 -1</clus>
<clus scale="   96.381">  1  5  2 -1</clus>
<clus scale="   58.155">  1  3  2 -1</clus>
</clustering>
</event>
<event>
 6    0  0.1361919E+003  0.7408649E+02  0.7546771E-02  0.1346723E+00
         21   -1    0    0  505  501  0.00000000000E+00  0.00000000000E+00  0.12995570123E+04  0.12995570123E+04  0.00000000000E+00 0.  1.
         21   -1    0    0  506  502 -0.00000000000E+00 -0.00000000000E+00 -0.21546207844E+03  0.21546207844E+03  0.00000000000E+00 0. -1.
         21    1    1    2  503  504 -0.58220157952E+02 -0.46449257972E+02  0.93908514724E+02  0.11985795550E+03  0.00000000000E+00 0.  1.
         21    1    1    2  504  502 -0.79988994670E+01 -0.32171956089E+02 -0.18366211559E+03  0.18663008829E+03  0.00000000000E+00 0. -1.
         21    1    1    2  505  503 -0.16249538073E+02  0.69875581087E+02  0.10835737736E+04  0.10859460241E+04  0.00000000000E+00 0.  1.
         21    1    1    2  506  501  0.82468595492E+02  0.87456329743E+01  0.90274761098E+02  0.12258502286E+03  0.00000000000E+00 0.  1.
<scales pt_clust_3="74.08649" pt_clust_4="33.15143" pt_clust_5="70.58744" pt_clust_6="14000.00000"></scales>
<clustering>
<clus scale="   33.151">  2  4  1 -1</clus>
<clus scale="   70.587">  1  5  2 -1</clus>
<clus scale="   74.086">  1  3  2 -1</clus>
<clus scale="   70.587">  1  3  2 -1</clus>
</clustering>
</event>
<event>
 6    0  0.1361919E+003  0.8291299E+02  0.7546771E-02  0.1320982E+00
         21   -1    0    0  506  501  0.00000000000E+00  0.00000000000E+00  0.63077393032E+03  0.63077393032E+03  0.00000000000E+00 0. -1.
         21   -1    0    0  505  502 -0.00000000000E+00 -0.00000000000E+00 -0.58761601031E+03  0.58761601031E+03  0.00000000000E+00 0. -1.
         21    1    1    2  503  501  0.16195971449E+03  0.78526816220E+02 -0.22956180600E+03  0.29171224307E+03  0.00000000000E+00 0. -1.
         21    1    1    2  504  502 -0.46051419562E+02  0.16466317354E+01 -0.14738985428E+02  0.48380598706E+02  0.00000000000E+00 0. -1.
         21    1    1    2  505  503 -0.50481757251E+02 -0.30954048564E+02 -0.28953253885E+03  0.29552605975E+03  0.00000000000E+00 0. -1.
         21    1    1    2  506  504 -0.65426537677E+02 -0.49219399391E+02  0.57699125029E+03  0.58277103911E+03  0.00000000000E+00 0. -1.
<scales pt_clust_3="82.91299" pt_clust_4="46.08085" pt_clust_5="80.53958" pt_clust_6="14000.00000"></scales>
<clustering>
<clus scale="   46.081">  2  4  1 -1</clus>
<clus scale="   80.540">  2  5  1 -1</clus>
<clus scale="   82.913">  2  3  1 -1</clus>
<clus scale="   82.913">  1  3  2 -1</clus>
</clustering>
</event>
<event>
 6    0  0.1361919E+003  0.1302878E+03  0.7546771E-02  0.1227029E+00
         21   -1    0    0  505  501  0.00000000000E+00  0.00000000000E+00  0.17324914447E+03  0.17324914447E+03  0.00000000000E+00 0. -1.
         21   -1    0    0  501  502 -0.00000000000E+00 -0.00000000000E+00 -0.14913762885E+03  0.14913762885E+03  0.00000000000E+00 0. -1.
         21    1    1    2  503  506  0.33161486070E+02 -0.44849942597E+02 -0.67961753089E+01  0.56190653210E+02  0.00000000000E+00 0. -1.
         21    1    1    2  504  503  0.71363034341E+01 -0.73967998597E+02  0.16722926244E+02  0.76169862185E+02  0.00000000000E+00 0. -1.
         21    1    1    2  505  504  0.17068285897E+02  0.12717642678E+03  0.25844561223E+02  0.13089351113E+03  0.00000000000E+00 0. -1.
         21    1    1    2  506  502 -0.57366075400E+02 -0.83584855860E+01 -0.11659796537E+02  0.59132746794E+02  0.00000000000E+00 0. -1.
<scales pt_clust_3="35.50169" pt_clust_4="35.50169" pt_clust_5="123.67605" pt_clust_6="57.97181"></scales>
<clustering>
<clus scale="   35.502">  3  4 -1 -1</clus>
<clus scale="   57.972">  2  6  1 -1</clus>
<clus scale="  123.676">  1  5  2 -1</clus>
<clus scale="  123.676">  1  3  2 -1</clus>
</clustering>
</event>
<event>
 6    0  0.1361919E+003  0.1219554E+03  0.7546771E-02  0.1239906E+00
         21   -1    0    0  505  501  0.00000000000E+00  0.00000000000E+00  0.41616533867E+03  0.41616533867E+03  0.00000000000E+00 0. -1.
         21   -1    0    0  503  502 -0.00000000000E+00 -0.00000000000E+00 -0.13809184315E+03  0.13809184315E+03  0.00000000000E+00 0.  1.
         21    1    1    2  503  501 -0.13741238653E+02  0.37775169981E+02  0.17246535097E+03  0.17708778160E+03  0.00000000000E+00 0. -1.
         21    1    1    2  504  506 -0.77166350032E+02 -0.57284071038E+02  0.35566663992E+02  0.10247486501E+03  0.00000000000E+00 0. -1.
         21    1    1    2  505  504 -0.59936955380E+02  0.35489588860E+00  0.10294194014E+03  0.11912013940E+03  0.00000000000E+00 0.  1.
         21    1    1    2  506  502  0.15084454407E+03  0.19154005168E+02 -0.32900459578E+02  0.15557439580E+03  0.00000000000E+00 0.  1.
<scales pt_clust_3="40.19683" pt_clust_4="14000.00000" pt_clust_5="68.58874" pt_clust_6="121.95544"></scales>
<clustering>
<clus scale="   40.197">  1  3  2 -1</clus>
<clus scale="   68.589">  1  5  2 -1</clus>
<clus scale="  121.955">  2  6  1 -1</clus>
<clus scale="   40.197">  1  3  2 -1</clus>
</clustering>
</event>
<event>
 6    0  0.1361919E+003  0.2841835E+03  0.7546771E-02  0.1093426E+00
         21   -1    0    0  504  501  0.00000000000E+00  0.00000000000E+00  0.58768061103E+03  0.58768061103E+03  0.00000000000E+00 0.  1.
         21   -1    0    0  506  502 -0.00000000000E+00 -0.00000000000E+00 -0.83142983311E+03  0.83142983311E+03  0.00000000000E+00 0. -1.
         21    1    1    2  503  502  0.52237303281E+02 -0.10953484771E+03 -0.39912351013E+03  0.41716447002E+03  0.00000000000E+00 0. -1.
         21    1    1    2  504  503 -0.17380296757E+03 -0.48151933728E+02 -0.27824146290E+03  0.33157863613E+03  0.00000000000E+00 0.  1.
         21    1    1    2  505  501  0.26383004705E+03  0.14471054290E+03  0.43326831925E+03  0.52751196330E+03  0.00000000000E+00 0.  1.
         21    1    1    2  506  505 -0.14226438276E+03  0.12976238533E+02  0.34743168861E+00  0.14285537469E+03  0.00000000000E+00 0. -1.
<scales pt_clust_3="121.35328" pt_clust_4="284.18348" pt_clust_5="14000.00000" pt_clust_6="133.58273"></scales>
<clustering>
<clus scale="  121.353">  2  3  1 -1</clus>
<clus scale="  133.583">  2  6  1 -1</clus>
<clus scale="  284.183">  2  4  1 -1</clus>
<clus scale="  284.183">  1  3  2 -1</clus>
</clustering>
</event>
<event>
 6    0  0.1361919E+003  0.7869071E+02  0.7546771E-02  0.1332809E+00
         21   -1    0    0  506  501  0.00000000000E+00  0.00000000000E+00  0.48119762729E+03  0.48119762729E+03  0.00000000000E+00 0.  1.
         21   -1    0    0  503  502 -0.00000000000E+00 -0.00000000000E+00 -0.13251542104E+03  0.13251542104E+03  0.00000000000E+00 0. -1.
         21    1    1    2  503  505 -0.28156337559E+02  0.26106470241E+02 -0.56632370590E+02  0.68421871736E+02  0.00000000000E+00 0. -1.
         21    1    1    2  504  502 -0.80515873000E+02 -0.26310724362E+02 -0.16276211555E+02  0.86255290180E+02  0.00000000000E+00 0.  1.
         21    1    1    2  505  501  0.46464997167E+02 -0.47781957740E+02  0.62221855002E+02  0.91179332565E+02  0.00000000000E+00 0.  1.
         21    1    1    2  506  504  0.62207213392E+02  0.47986211861E+02  0.35936893339E+03  0.36785655385E+03  0.00000000000E+00 0.  1.
<scales pt_clust_3="38.39697" pt_clust_4="14000.00000" pt_clust_5="58.71791" pt_clust_6="78.69071"></scales>
<clustering>
<clus scale="   38.397">  2  3  1 -1</clus>
<clus scale="   58.718">  2  5  1 -1</clus>
<clus scale="   78.691">  1  6  2 -1</clus>
<clus scale="   78.691">  1  3  2 -1</clus>
</clustering>
</event>
<event>
 6    0  0.1361919E+003  0.1537517E+03  0.7546771E-02  0.1195937E+00
         21   -1    0    0  506  501  0.00000000000E+00  0.00000000000E+00  0.20450030850E+04  0.20450030850E+04  0.00000000000E+00 0.  1.
         21   -1    0    0  504  502 -0.00000000000E+00 -0.00000000000E+00 -0.57720258332E+03  0.57720258332E+03  0.00000000000E+00 0.  1.
         21    1    1    2  503  501  0.33775793164E+02  0.37666429628E+02  0.65630478540E+02  0.82866904360E+02  0.00000000000E+00 0. -1.
         21    1    1    2  504  503 -0.82933654334E+02  0.97124624742E+01 -0.47874494432E+03  0.48597226738E+03  0.00000000000E+00 0.  1.
         21    1    1    2  505  502 -0.73697191243E+02 -0.58061852210E+02 -0.58152320726E+02  0.11038182407E+03  0.00000000000E+00 0. -1.
         21    1    1    2  506  505  0.12285505241E+03  0.10682960108E+02  0.19390672882E+04  0.19429846726E+04  0.00000000000E+00 0.  1.
<scales pt_clust_3="50.59214" pt_clust_4="83.44699" pt_clust_5="153.75172" pt_clust_6="14000.00000"></scales>
<clustering>
<clus scale="   50.592">  1  3  2 -1</clus>
<clus scale="   83.447">  2  4  1 -1</clus>
<clus scale="  153.752">  2  5  1 -1</clus>
<clus scale="   50.592">  1  3  2 -1</clus>
</clustering>
</event>
<event>
 6    0  0.1361919E+003  0.9311817E+02  0.7546771E-02  0.1295472E+00
         21   -1    0    0  503  501  0.00000000000E+00  0.00000000000E+00  0.52342076539E+02  0.52342076539E+02  0.00000000000E+00 0.  1.
         21   -1    0    0  501  502 -0.00000000000E+00 -0.00000000000E+00 -0.71491028113E+03  0.71491028113E+03  0.00000000000E+00 0.  1.
         21    1    1    2  503  505  0.50446366435E+02  0.58437728580E+02 -0.21186322325E+01  0.77228832767E+02  0.00000000000E+00 0.  1.
         21    1    1    2  504  506 -0.61361576247E+02 -0.21873850592E+02 -0.14741969725E+03  0.16117157167E+03  0.00000000000E+00 0.  1.
         21    1    1    2  505  504 -0.39954770453E+02 -0.56002143777E+02 -0.21039436227E+03  0.22135584805E+03  0.00000000000E+00 0.  1.
         21    1    1    2  506  502  0.50869980265E+02  0.19438265789E+02 -0.30263551285E+03  0.30749610519E+03  0.00000000000E+00 0.  1.
<scales pt_clust_3="81.88004" pt_clust_4="43.15437" pt_clust_5="43.15437" pt_clust_6="54.45733"></scales>
<clustering>
<clus scale="   43.154">  4  5 -1 -1</clus>
<clus scale="   54.457">  2  6  1 -1</clus>
<clus scale="   81.880">  1  3  2 -1</clus>
<clus scale="   81.880">  1  3  2 -1</clus>
</clustering>
</event>
<event>
 6    0  0.1361919E+003  0.6514886E+02  0.7546771E-02  0.1377412E+00
         21   -1    0    0  504  501  0.00000000000E+00  0.00000000000E+00  0.18842713218E+04  0.18842713218E+04  0.00000000000E+00 0.  1.
         21   -1    0    0  506  502 -0.00000000000E+00 -0.00000000000E+00 -0.79090674199E+02  0.79090674199E+02  0.00000000000E+00 0.  1.
         21    1    1    2  503  505  0.25825476209E+02 -0.29046436220E+02  0.15092760361E+01  0.38896382771E+02  0.00000000000E+00 0.  1.
         21    1    1    2  504  502 -0.76289776367E+02  0.93759683264E+02  0.80243449893E+03  0.81148760511E+03  0.00000000000E+00 0.  1.
         21    1    1    2  505  501  0.20339429906E+02 -0.55366202253E+02  0.10517625942E+04  0.10534152378E+04  0.00000000000E+00 0.  1.
         21    1    1    2  506  503  0.30124870253E+02 -0.93470447908E+01 -0.50525721603E+02  0.59562770231E+02  0.00000000000E+00 0.  1.
<scales pt_clust_3="65.14886" pt_clust_4="14000.00000" pt_clust_5="59.64865" pt_clust_6="31.54164"></scales>
<clustering>
<clus scale="   31.542">  2  6  1 -1</clus>
<clus scale="   59.649">  1  5  2 -1</clus>
<clus scale="   65.149">  2  3  1 -1</clus>
<clus scale="   59.649">  1  3  2 -1</clus>
</clustering>
</event>
<event>
 6    0  0.1361919E+003  0.2021993E+03  0.7546771E-02  0.1147897E+00
         21   -1    0    0  504  501  0.00000000000E+00  0.00000000000E+00  0.39189668683E+03  0.39189668683E+03  0.00000000000E+00 0. -1.
         21   -1    0    0  506  502 -0.00000000000E+00 -0.00000000000E+00 -0.37461591235E+03  0.37461591235E+03  0.00000000000E+00 0.  1.
         21    1    1    2  503  502 -0.39541968817E+02  0.20859302394E+02 -0.11897775170E+03  0.12709989454E+03  0.00000000000E+00 0.  1.
         21    1    1    2  504  503  0.21943916852E+03  0.98813627016E+02 -0.95570291477E+01  0.24085061422E+03  0.00000000000E+00 0.  1.
         21    1    1    2  505  501 -0.17794715199E+03 -0.71118817499E+02  0.23121490365E+03  0.30030552238E+03  0.00000000000E+00 0. -1.
         21    1    1    2  506  505 -0.19500477073E+01 -0.48554111912E+02 -0.85399348316E+02  0.98256568037E+02  0.00000000000E+00 0.  1.
<scales pt_clust_3="44.70657" pt_clust_4="14000.00000" pt_clust_5="202.19934" pt_clust_6="44.09667"></scales>
<clustering>
<clus scale="   44.707">  2  3  1 -1</clus>
<clus scale="   44.097">  2  6  1 -1</clus>
<clus scale="  202.199">  1  5  2 -1</clus>
<clus scale="  202.199">  1  3  2 -1</clus>
</clustering>
</event>
<event>
 6    0  0.1361919E+003  0.2244127E+03  0.7546771E-02  0.1130635E+00
         21   -1    0    0  506  501  0.00000000000E+00  0.00000000000E+00  0.16787851080E+04  0.16787851080E+04  0.00000000000E+00 0.  1.
         21   -1    0    0  504  502 -0.00000000000E+00 -0.00000000000E+00 -0.22601702108E+03  0.22601702108E+03  0.00000000000E+00 0. -1.
         21    1    1    2  503  501  0.37777708502E+02 -0.27602971024E+02  0.55606143538E+03  0.55802634274E+03  0.00000000000E+00 0.  1.
         21    1    1    2  504  505 -0.22061714862E+03  0.16809254004E+03 -0.58689227842E+02  0.28349859567E+03  0.00000000000E+00 0. -1.
         21    1    1    2  505  503  0.33146698285E+02 -0.19449435210E+03  0.84953903915E+03  0.87214868896E+03  0.00000000000E+00 0.  1.
         21    1    1    2  506  502  0.14969274183E+03  0.54004783079E+02  0.10585684027E+03  0.19112850176E+03  0.00000000000E+00 0.  1.
<scales pt_clust_3="46.78760" pt_clust_4="14000.00000" pt_clust_5="224.41272" pt_clust_6="162.68166"></scales>
<clustering>
<clus scale="   46.788">  1  3  2 -1</clus>
<clus scale="  162.682">  2  6  1 -1</clus>
<clus scale="  224.413">  1  5  2 -1</clus>
<clus scale="   46.788">  1  3  2 -1</clus>
</clustering>
</event>
<event>
 6    0  0.1361919E+003  0.1024198E+03  0.7546771E-02  0.1275288E+00
         21   -1    0    0  503  501  0.00000000000E+00  0.00000000000E+00  0.13238083657E+03  0.13238083657E+03  0.00000000000E+00 0. -1.
         21   -1    0    0  504  502 -0.00000000000E+00 -0.00000000000E+00 -0.32577231799E+03  0.32577231799E+03  0.00000000000E+00 0.  1.
         21    1    1    2  503  505  0.67065509844E+02 -0.75138236229E+02  0.45085391134E+02  0.11034595438E+03  0.00000000000E+00 0. -1.
         21    1    1    2  504  501  0.56166673339E+02  0.40459044351E+02 -0.13132055123E+03  0.14844768991E+03  0.00000000000E+00 0. -1.
         21    1    1    2  505  506 -0.81055512556E+02  0.70238541483E+02 -0.45164430724E+02  0.11637557574E+03  0.00000000000E+00 0.  1.
         21    1    1    2  506  502 -0.42176670627E+02 -0.35559349605E+02 -0.61991890602E+02  0.82983934529E+02  0.00000000000E+00 0.  1.
<scales pt_clust_3="14000.00000" pt_clust_4="38.91194" pt_clust_5="102.41978" pt_clust_6="55.16647"></scales>
<clustering>
<clus scale="   55.166">  2  6  1 -1</clus>
<clus scale="   38.912">  2  4  1 -1</clus>
<clus scale="  102.420">  2  5  1 -1</clus>
<clus scale="  102.420">  1  3  2 -1</clus>
</clustering>
</event>
<event>
 6    0  0.1361919E+003  0.1078637E+03  0.7546771E-02  0.1264578E+00
         21   -1    0    0  502  501  0.00000000000E+00  0.00000000000E+00  0.26785786751E+04  0.26785786751E+04  0.00000000000E+00 0.  1.
         21   -1    0    0  503  502 -0.00000000000E+00 -0.00000000000E+00 -0.81655693715E+02  0.81655693715E+02  0.00000000000E+00 0.  1.
         21    1    1    2  503  505  0.35967323171E+02  0.37232621381E+02 -0.26295949771E+02  0.58063701271E+02  0.00000000000E+00 0.  1.
         21    1    1    2  504  506 -0.69562446517E+02  0.34287039556E+02  0.67338458386E+03  0.67783577128E+03  0.00000000000E+00 0. -1.
         21    1    1    2  505  504  0.75871688597E+02 -0.64790443145E+02  0.30226098845E+02  0.10424937268E+03  0.00000000000E+00 0.  1.
         21    1    1    2  506  501 -0.42276565252E+02 -0.67292177916E+01  0.19196082485E+04  0.19200855236E+04  0.00000000000E+00 0.  1.
<scales pt_clust_3="51.05452" pt_clust_4="107.86370" pt_clust_5="14000.00000" pt_clust_6="42.80876"></scales>
<clustering>
<clus scale="   42.809">  1  6  2 -1</clus>
<clus scale="   51.055">  2  3  1 -1</clus>
<clus scale="  107.864">  1  4  2 -1</clus>
<clus scale="   42.809">  1  3  2 -1</clus>
</clustering>
</event>
<event>
 6    0  0.1361919E+003  0.7663943E+02  0.7546771E-02  0.1338868E+00
         21   -1    0    0  504  501  0.00000000000E+00  0.00000000000E+00  0.10541050976E+04  0.10541050976E+04  0.00000000000E+00 0.  1.
         21   -1    0    0  505  502 -0.00000000000E+00 -0.00000000000E+00 -0.29206052048E+02  0.29206052048E+02  0.00000000000E+00 0.  1.
         21    1    1    2  503  502  0.20610359498E+02 -0.11237692651E+03  0.30226989646E+03  0.32314153376E+03  0.00000000000E+00 0.  1.
         21    1    1    2  504  503  0.31680584153E+02  0.23605490830E+02  0.29219432940E+03  0.29485319184E+03  0.00000000000E+00 0.  1.
         21    1    1    2  505  506 -0.24988592265E+02  0.63737357069E+02  0.54349732113E+02  0.87411519895E+02  0.00000000000E+00 0.  1.
         21    1    1    2  506  501 -0.27302351386E+02  0.25034078608E+02  0.37608508758E+03  0.37790490415E+03  0.00000000000E+00 0.  1.
<scales pt_clust_3="14000.00000" pt_clust_4="39.76379" pt_clust_5="76.63943" pt_clust_6="37.04219"></scales>
<clustering>
<clus scale="   37.042">  1  6  2 -1</clus>
<clus scale="   39.764">  1  4  2 -1</clus>
<clus scale="   76.639">  2  5  1 -1</clus>
<clus scale="   37.042">  1  3  2 -1</clus>
</clustering>
</event>
<event>
 6    0  0.1361919E+003  0.1065489E+03  0.7546771E-02  0.1267098E+00
         21   -1    0    0  503  501  0.00000000000E+00  0.00000000000E+00  0.42526673650E+02  0.42526673650E+02  0.00000000000E+00 0. -1.
         21   -1    0    0  506  502 -0.00000000000E+00 -0.00000000000E+00 -0.17825484693E+04  0.17825484693E+04  0.00000000000E+00 0.  1.
         21    1    1    2  503  502 -0.13377927697E+03  0.29093516177E+02 -0.22689283498E+03  0.26499752111E+03  0.00000000000E+00 0. -1.
         21    1    1    2  504  501  0.33219535502E+02  0.20955306530E+02 -0.22729071507E+01  0.39342451851E+02  0.00000000000E+00 0.  1.
         21    1    1    2  505  504  0.82682962054E+02 -0.48610591100E+01 -0.38395879287E+03  0.39279060164E+03  0.00000000000E+00 0.  1.
         21    1    1    2  506  505  0.17876779411E+02 -0.45187763597E+02 -0.11268972607E+04  0.11279445684E+04  0.00000000000E+00 0.  1.
<scales pt_clust_3="106.54887" pt_clust_4="39.27674" pt_clust_5="14000.00000" pt_clust_6="48.44415"></scales>
<clustering>
<clus scale="   39.277">  1  4  2 -1</clus>
<clus scale="   48.444">  2  6  1 -1</clus>
<clus scale="  106.549">  1  3  2 -1</clus>
<clus scale="   39.277">  1  3  2 -1</clus>
</clustering>
</event>
<event>
 6    0  0.1361919E+003  0.1299422E+03  0.7546771E-02  0.1227542E+00
         21   -1    0    0  504  501  0.00000000000E+00  0.00000000000E+00  0.81131339968E+02  0.81131339968E+02  0.00000000000E+00 0.  1.
         21   -1    0    0  505  502 -0.00000000000E+00 -0.00000000000E+00 -0.96915690824E+03  0.96915690824E+03  0.00000000000E+00 0.  1.
         21    1    1    2  503  501 -0.14051401037E+01  0.38335186725E+02  0.12042342932E+02  0.40206703213E+02  0.00000000000E+00 0.  1.
         21    1    1    2  504  502  0.28921047418E+02 -0.16662414038E+03 -0.10158184314E+03  0.19727874188E+03  0.00000000000E+00 0.  1.
         21    1    1    2  505  506  0.18567322657E+02  0.36348172769E+02 -0.36543439945E+03  0.36770672476E+03  0.00000000000E+00 0.  1.
         21    1    1    2  506  503 -0.46083229972E+02  0.91940780890E+02 -0.43305166862E+03  0.44509607836E+03  0.00000000000E+00 0.  1.
<scales pt_clust_3="38.36093" pt_clust_4="14000.00000" pt_clust_5="41.50960" pt_clust_6="129.94221"></scales>
<clustering>
<clus scale="   38.361">  1  3  2 -1</clus>
<clus scale="   41.510">  2  5  1 -1</clus>
<clus scale="  129.942">  2  6  1 -1</clus>
<clus scale="   38.361">  1  3  2 -1</clus>
</clustering>
</event>
<event>
 6    0  0.1361919E+003  0.1007363E+03  0.7546771E-02  0.1278755E+00
         21   -1    0    0  506  501  0.00000000000E+00  0.00000000000E+00  0.38569018620E+03  0.38569018620E+03  0.00000000000E+00 0.  1.
         21   -1    0    0  505  502 -0.00000000000E+00 -0.00000000000E+00 -0.19453757813E+03  0.19453757813E+03  0.00000000000E+00 0.  1.
         21    1    1    2  503  502 -0.65145030427E+02 -0.11347516833E+03 -0.12886425716E+03  0.18364772144E+03  0.00000000000E+00 0.  1.
         21    1    1    2  504  501  0.68277467801E+02  0.27362928978E+02  0.28471481863E+03  0.29406303820E+03  0.00000000000E+00 0.  1.
         21    1    1    2  505  504  0.40261844481E+01  0.32312580089E+02 -0.74778745323E+01  0.33410052390E+02  0.00000000000E+00 0. -1.
         21    1    1    2  506  503 -0.71586218226E+01  0.53799659267E+02  0.42779921133E+02  0.69106952297E+02  0.00000000000E+00 0. -1.
<scales pt_clust_3="100.73629" pt_clust_4="14000.00000" pt_clust_5="32.56245" pt_clust_6="56.65898"></scales>
<clustering>
<clus scale="   32.562">  2  5  1 -1</clus>
<clus scale="   56.659">  1  6  2 -1</clus>
<clus scale="  100.736">  2  3  1 -1</clus>
<clus scale="   56.659">  1  3  2 -1</clus>
</clustering>
</event>
<event>
 6    0  0.1361919E+003  0.1103311E+03  0.7546771E-02  0.1259958E+00
         21   -1    0    0  505  501  0.00000000000E+00  0.00000000000E+00  0.49977735211E+03  0.49977735211E+03  0.00000000000E+00 0. -1.
         21   -1    0    0  503  502 -0.00000000000E+00 -0.00000000000E+00 -0.19730077508E+03  0.19730077508E+03  0.00000000000E+00 0. -1.
         21    1    1    2  503  501 -0.93280750533E+02 -0.18024049886E+01  0.20053759608E+02  0.95429033098E+02  0.00000000000E+00 0. -1.
         21    1    1    2  504  502 -0.66879727831E+01 -0.38945334413E+02 -0.11565453284E+03  0.12221881614E+03  0.00000000000E+00 0. -1.
         21    1    1    2  505  506 -0.40872229880E+02  0.54474202597E+02  0.29906798390E+03  0.30672404033E+03  0.00000000000E+00 0. -1.
         21    1    1    2  506  504  0.14084095320E+03 -0.13726463196E+02  0.99009366350E+02  0.17270623762E+03  0.00000000000E+00 0. -1.
<scales pt_clust_3="110.33111" pt_clust_4="39.51542" pt_clust_5="66.79177" pt_clust_6="14000.00000"></scales>
<clustering>
<clus scale="   39.515">  2  4  1 -1</clus>
<clus scale="   66.792">  1  5  2 -1</clus>
<clus scale="  110.331">  2  3  1 -1</clus>
<clus scale="   66.792">  1  3  2 -1</clus>
</clustering>
</event>
<event>
 6    0  0.1361919E+003  0.7551458E+02  0.7546771E-02  0.1342285E+00
         21   -1    0    0  504  501  0.00000000000E+00  0.00000000000E+00  0.60957957899E+03  0.60957957899E+03  0.00000000000E+00 0. -1.
         21   -1    0    0  503  502 -0.00000000000E+00 -0.00000000000E+00 -0.20361471053E+03  0.20361471053E+03  0.00000000000E+00 0.  1.
         21    1    1    2  503  501 -0.81438609391E+02  0.22273636185E+02 -0.63271831884E+02  0.10550680868E+03  0.00000000000E+00 0. -1.
         21    1    1    2  504  505 -0.56530359816E+02  0.17647745882E+02  0.52695004706E+03  0.53026736333E+03  0.00000000000E+00 0. -1.
         21    1    1    2  505  506  0.10381448813E+03 -0.34834958150E+02  0.76707882225E+00  0.10950575631E+03  0.00000000000E+00 0.  1.
         21    1    1    2  506  502  0.34154481081E+02 -0.50864239175E+01 -0.58480425542E+02  0.67914361204E+02  0.00000000000E+00 0.  1.
<scales pt_clust_3="14000.00000" pt_clust_4="58.81799" pt_clust_5="75.51458" pt_clust_6="34.53115"></scales>
<clustering>
<clus scale="   34.531">  2  6  1 -1</clus>
<clus scale="   58.818">  1  4  2 -1</clus>
<clus scale="   75.515">  1  5  2 -1</clus>
<clus scale="   58.818">  1  3  2 -1</clus>
</clustering>
</event>
<event>
 6    0  0.1361919E+003  0.1703157E+03  0.7546771E-02  0.1177519E+00
         21   -1    0    0  503  501  0.00000000000E+00  0.00000000000E+00  0.90771677068E+03  0.90771677068E+03  0.00000000000E+00 0.  1.
         21   -1    0    0  506  502 -0.00000000000E+00 -0.00000000000E+00 -0.12251913685E+03  0.12251913685E+03  0.00000000000E+00 0.  1.
         21    1    1    2  503  505  0.21961363154E+02  0.95411120729E+02  0.60138166640E+03  0.60929918112E+03  0.00000000000E+00 0.  1.
         21    1    1    2  504  501  0.49970043502E+01  0.32257711219E+02  0.25669080731E+02  0.41526277116E+02  0.00000000000E+00 0. -1.
         21    1    1    2  505  502  0.27078454201E+02 -0.22171178022E+03  0.15317250306E+03  0.27083421473E+03  0.00000000000E+00 0.  1.
         21    1    1    2  506  504 -0.54036821705E+02  0.94042948277E+02  0.49743836429E+01  0.10857623457E+03  0.00000000000E+00 0.  1.
<scales pt_clust_3="97.90599" pt_clust_4="31.20241" pt_clust_5="160.53798" pt_clust_6="31.20241"></scales>
<clustering>
<clus scale="   31.202">  4  6 -1 -1</clus>
<clus scale="   97.906">  1  3  2 -1</clus>
<clus scale="  160.538">  1  5  2 -1</clus>
<clus scale="   97.906">  1  3  2 -1</clus>
</clustering>
</event>
<event>
 6    0  0.1361919E+003  0.1210674E+03  0.7546771E-02  0.1241347E+00
         21   -1    0    0  504  501  0.00000000000E+00  0.00000000000E+00  0.13908172981E+02  0.13908172981E+02  0.00000000000E+00 0.  1.
         21   -1    0    0  503  502 -0.00000000000E+00 -0.00000000000E+00 -0.23359227704E+04  0.23359227704E+04  0.00000000000E+00 0.  1.
         21    1    1    2  503  501 -0.19877591679E+02  0.25687750232E+02 -0.15439783738E+03  0.15777728402E+03  0.00000000000E+00 0.  1.
         21    1    1    2  504  506  0.96202321402E+02  0.68958887033E+02 -0.51563695350E+03  0.52904790195E+03  0.00000000000E+00 0.  1.
         21    1    1    2  505  502  0.31087438732E+02 -0.29425003547E+02 -0.86480764357E+03  0.86586634076E+03  0.00000000000E+00 0.  1.
         21    1    1    2  506  505 -0.10741216845E+03 -0.65221633717E+02 -0.78717216299E+03  0.79713941668E+03  0.00000000000E+00 0.  1.
<scales pt_clust_3="32.48044" pt_clust_4="121.06737" pt_clust_5="41.41501" pt_clust_6="14000.00000"></scales>
<clustering>
<clus scale="   32.480">  1  3  2 -1</clus>
<clus scale="   41.415">  2  5  1 -1</clus>
<clus scale="  121.067">  1  4  2 -1</clus>
<clus scale="   32.480">  1  3  2 -1</clus>
</clustering>
</event>
<event>
 6    0  0.1361919E+003  0.1009632E+03  0.7546771E-02  0.1278283E+00
         21   -1    0    0  504  501  0.00000000000E+00  0.00000000000E+00  0.95603388477E+03  0.95603388477E+03  0.00000000000E+00 0. -1.
         21   -1    0    0  505  502 -0.00000000000E+00 -0.00000000000E+00 -0.70178234280E+02  0.70178234280E+02  0.00000000000E+00 0. -1.
         21    1    1    2  503  502  0.25065336464E+02  0.95453342375E+02  0.18828168604E+03  0.21257846777E+03  0.00000000000E+00 0. -1.
         21    1    1    2  504  503  0.29627945992E+01  0.37006318601E+02  0.62906644002E+03  0.63016095700E+03  0.00000000000E+00 0. -1.
         21    1    1    2  505  506 -0.14039185414E+02 -0.36337863780E+02 -0.26883249136E+02  0.47331259811E+02  0.00000000000E+00 0.  1.
         21    1    1    2  506  501 -0.13988945649E+02 -0.96121797196E+02  0.95390773559E+02  0.13614143446E+03  0.00000000000E+00 0. -1.
<scales pt_clust_3="14000.00000" pt_clust_4="37.12473" pt_clust_5="37.84240" pt_clust_6="100.96316"></scales>
<clustering>
<clus scale="   37.125">  1  4  2 -1</clus>
<clus scale="   37.842">  2  5  1 -1</clus>
<clus scale="  100.963">  1  6  2 -1</clus>
<clus scale="   37.125">  1  3  2 -1</clus>
</clustering>
</event>
<event>
 6    0  0.1361919E+003  0.1244965E+03  0.7546771E-02  0.1235858E+00
         21   -1    0    0  505  501  0.00000000000E+00  0.00000000000E+00  0.28961428284E+03  0.28961428284E+03  0.00000000000E+00 0. -1.
         21   -1    0    0  506  502 -0.00000000000E+00 -0.00000000000E+00 -0.15074429022E+03  0.15074429022E+03  0.00000000000E+00 0.  1.
         21    1    1    2  503  504 -0.36967880212E+02 -0.23785608949E+02  0.13041398087E+02  0.45852561810E+02  0.00000000000E+00 0.  1.
         21    1    1    2  504  501 -0.84954406812E+02 -0.69225115427E+01  0.97114685508E+02  0.12921468393E+03  0.00000000000E+00 0.  1.
         21    1    1    2  505  502  0.10738710363E+03 -0.15808781732E+02  0.12000150126E+03  0.16180935668E+03  0.00000000000E+00 0. -1.
         21    1    1    2  506  503  0.14535183393E+02  0.46516902224E+02 -0.91287592235E+02  0.10348197063E+03  0.00000000000E+00 0.  1.
<scales pt_clust_3="37.35830" pt_clust_4="37.35830" pt_clust_5="113.10713" pt_clust_6="48.73493"></scales>
<clustering>
<clus scale="   37.358">  3  4 -1 -1</clus>
<clus scale="   48.735">  2  6  1 -1</clus>
<clus scale="  113.107">  1  5  2 -1</clus>
<clus scale="  113.107">  1  3  2 -1</clus>
</clustering>
</event>
<event>
 6    0  0.1361919E+003  0.9902646E+02  0.7546771E-02  0.1282357E+00
         21   -1    0    0  505  501  0.00000000000E+00  0.00000000000E+00  0.15223066290E+03  0.15223066290E+03  0.00000000000E+00 0. -1.
         21   -1    0    0  506  502 -0.00000000000E+00 -0.00000000000E+00 -0.31282048310E+03  0.31282048310E+03  0.00000000000E+00 0. -1.
         21    1    1    2  503  501  0.71264256848E+02  0.10532362670E+01 -0.12230720426E+01  0.71282533036E+02  0.00000000000E+00 0. -1.
         21    1    1    2  504  503  0.68876091382E+02 -0.81148941868E+02 -0.10790859595E+03  0.15156956096E+03  0.00000000000E+00 0. -1.
         21    1    1    2  505  502 -0.13661267201E+03  0.46755459528E+02  0.35764009816E+02  0.14875536813E+03  0.00000000000E+00 0. -1.
         21    1    1    2  506  504 -0.35276762202E+01  0.33340246073E+02 -0.87222162027E+02  0.93443683877E+02  0.00000000000E+00 0. -1.
<scales pt_clust_3="70.98636" pt_clust_4="14000.00000" pt_clust_5="99.02646" pt_clust_6="33.52636"></scales>
<clustering>
<clus scale="   33.526">  2  6  1 -1</clus>
<clus scale="   70.986">  1  3  2 -1</clus>
<clus scale="   99.026">  1  5  2 -1</clus>
<clus scale="   70.986">  1  3  2 -1</clus>
</clustering>
</event>
<event>
 6    0  0.1361919E+003  0.1142338E+03  0.7546771E-02  0.1252924E+00
         21   -1    0    0  506  501  0.00000000000E+00  0.00000000000E+00  0.24200873260E+03  0.24200873260E+03  0.00000000000E+00 0.  1.
         21   -1    0    0  503  502 -0.00000000000E+00 -0.00000000000E+00 -0.15639884919E+04  0.15639884919E+04  0.00000000000E+00 0.  1.
         21    1    1    2  503  504  0.10759880543E+03  0.39946695681E+02 -0.13695666859E+04  0.13743675449E+04  0.00000000000E+00 0.  1.
         21    1    1    2  504  501  0.61451033496E+00  0.45526541452E+02  0.74824961267E+02  0.87588917268E+02  0.00000000000E+00 0.  1.
         21    1    1    2  505  502 -0.79663377339E+02 -0.95185687805E+02 -0.16305100078E+03  0.20491997879E+03  0.00000000000E+00 0.  1.
         21    1    1    2  506  505 -0.28549938430E+02  0.97124506716E+01  0.13581296604E+03  0.13912078359E+03  0.00000000000E+00 0.  1.
<scales pt_clust_3="114.23381" pt_clust_4="57.28430" pt_clust_5="14000.00000" pt_clust_6="30.15677"></scales>
<clustering>
<clus scale="   30.157">  1  6  2 -1</clus>
<clus scale="   57.284">  1  4  2 -1</clus>
<clus scale="  114.234">  2  3  1 -1</clus>
<clus scale="   30.157">  1  3  2 -1</clus>
</clustering>
</event>
<event>
 6    0  0.1361919E+003  0.1066670E+03  0.7546771E-02  0.1266870E+00
         21   -1    0    0  505  501  0.00000000000E+00  0.00000000000E+00  0.84079385446E+03  0.84079385446E+03  0.00000000000E+00 0. -1.
         21   -1    0    0  504  502 -0.00000000000E+00 -0.00000000000E+00 -0.27424792018E+03  0.27424792018E+03  0.00000000000E+00 0. -1.
         21    1    1    2  503  501  0.62361644050E+02 -0.21874046529E+02  0.60145273323E+03  0.60507258976E+03  0.00000000000E+00 0. -1.
         21    1    1    2  504  503  0.75747685114E+02 -0.29388673379E+02 -0.21042338518E+03  0.22556464030E+03  0.00000000000E+00 0. -1.
         21    1    1    2  505  506  0.37343679822E+02  0.21859649354E+02  0.52892620108E+02  0.68337573519E+02  0.00000000000E+00 0. -1.
         21    1    1    2  506  502 -0.17545300899E+03  0.29403070554E+02  0.12262396612E+03  0.21606697107E+03  0.00000000000E+00 0. -1.
<scales pt_clust_3="14000.00000" pt_clust_4="81.51081" pt_clust_5="43.27118" pt_clust_6="106.66702"></scales>
<clustering>
<clus scale="   43.271">  1  5  2 -1</clus>
<clus scale="   81.511">  2  4  1 -1</clus>
<clus scale="  106.667">  2  6  1 -1</clus>
<clus scale="   43.271">  1  3  2 -1</clus>
</clustering>
</event>
<event>
 6    0  0.1361919E+003  0.9590769E+02  0.7546771E-02  0.1289145E+00
         21   -1    0    0  505  501  0.00000000000E+00  0.00000000000E+00  0.93137886907E+03  0.93137886907E+03  0.00000000000E+00 0. -1.
         21   -1    0    0  506  502 -0.00000000000E+00 -0.00000000000E+00 -0.12841660973E+03  0.12841660973E+03  0.00000000000E+00 0.  1.
         21    1    1    2  503  501  0.62176375581E+02 -0.30921188260E+02  0.34448810850E+03  0.35141724269E+03  0.00000000000E+00 0. -1.
         21    1    1    2  504  502  0.84131355670E+01 -0.29401109227E+02 -0.96404993832E+02  0.10113915616E+03  0.00000000000E+00 0.  1.
         21    1    1    2  505  504  0.38845705079E+02  0.15777443058E+02  0.44149805293E+03  0.44348443857E+03  0.00000000000E+00 0. -1.
         21    1    1    2  506  503 -0.10943521623E+03  0.44544854430E+02  0.11338109174E+03  0.16375464137E+03  0.00000000000E+00 0. -1.
<scales pt_clust_3="95.90769" pt_clust_4="30.58114" pt_clust_5="41.83040" pt_clust_6="14000.00000"></scales>
<clustering>
<clus scale="   30.581">  2  4  1 -1</clus>
<clus scale="   41.830">  1  5  2 -1</clus>
<clus scale="   95.908">  1  3  2 -1</clus>
<clus scale="   41.830">  1  3  2 -1</clus>
</clustering>
</event>
<event>
 6    0  0.1361919E+003  0.1691134E+03  0.7546771E-02  0.1178776E+00
         21   -1    0    0  504  501  0.00000000000E+00  0.00000000000E+00  0.12235914115E+04  0.12235914115E+04  0.00000000000E+00 0.  1.
         21   -1    0    0  503  502 -0.00000000000E+00 -0.00000000000E+00 -0.25849783565E+03  0.25849783565E+03  0.00000000000E+00 0.  1.
         21    1    1    2  503  501  0.46929653906E+02 -0.40527947826E+02 -0.91275956468E+02  0.11034585266E+03  0.00000000000E+00 0.  1.
         21    1    1    2  504  506 -0.35368355701E+02  0.16682095285E+03  0.11164842759E+04  0.11294322863E+04  0.00000000000E+00 0.  1.
         21    1    1    2  505  502  0.10174202343E+02  0.33729248264E+02 -0.72231836966E+02  0.80365507858E+02  0.00000000000E+00 0.  1.
         21    1    1    2  506  505 -0.21735500548E+02 -0.16002225328E+03  0.12117093391E+02  0.16194560038E+03  0.00000000000E+00 0.  1.
<scales pt_clust_3="56.92587" pt_clust_4="169.11338" pt_clust_5="35.23034" pt_clust_6="14000.00000"></scales>
<clustering>
<clus scale="   35.230">  2  5  1 -1</clus>
<clus scale="   56.926">  2  3  1 -1</clus>
<clus scale="  169.113">  1  4  2 -1</clus>
<clus scale="  169.113">  1  3  2 -1</clus>
</clustering>
</event>
<event>
 6    0  0.1361919E+003  0.9695640E+02  0.7546771E-02  0.1286830E+00
         21   -1    0    0  504  501  0.00000000000E+00  0.00000000000E+00  0.12367519309E+04  0.12367519309E+04  0.00000000000E+00 0. -1.
         21   -1    0    0  505  502 -0.00000000000E+00 -0.00000000000E+00 -0.66468948003E+03  0.66468948003E+03  0.00000000000E+00 0.  1.
         21    1    1    2  503  501 -0.34731885327E+02 -0.22011304194E+02  0.70168997112E+02  0.81329512026E+02  0.00000000000E+00 0.  1.
         21    1    1    2  504  502  0.30285922162E+02  0.11829393283E+03  0.11464237742E+04  0.11529085661E+04  0.00000000000E+00 0. -1.
         21    1    1    2  505  506 -0.34385908360E+02  0.24395090708E+02 -0.10892302030E+03  0.11679784029E+03  0.00000000000E+00 0. -1.
         21    1    1    2  506  503  0.38831871525E+02 -0.12067771935E+03 -0.53560730018E+03  0.55040549253E+03  0.00000000000E+00 0.  1.
<scales pt_clust_3="41.11936" pt_clust_4="14000.00000" pt_clust_5="42.21361" pt_clust_6="96.95640"></scales>
<clustering>
<clus scale="   41.119">  1  3  2 -1</clus>
<clus scale="   42.214">  2  5  1 -1</clus>
<clus scale="   96.956">  2  6  1 -1</clus>
<clus scale="   41.119">  1  3  2 -1</clus>
</clustering>
</event>
<event>
 6    0  0.1361919E+003  0.9554569E+02  0.7546771E-02  0.1289952E+00
         21   -1    0    0  506  501  0.00000000000E+00  0.00000000000E+00  0.95709965859E+02  0.95709965859E+02  0.00000000000E+00 0.  1.
         21   -1    0    0  505  502 -0.00000000000E+00 -0.00000000000E+00 -0.10906010748E+04  0.10906010748E+04  0.00000000000E+00 0.  1.
         21    1    1    2  503  502  0.65149484213E+02  0.45836514946E+02 -0.73761706475E+02  0.10856440825E+03  0.00000000000E+00 0. -1.
         21    1    1    2  504  501 -0.80369233529E+02 -0.31002468619E+02 -0.36764774094E+03  0.37760459237E+03  0.00000000000E+00 0.  1.
         21    1    1    2  505  504 -0.35938392269E+02  0.13174114122E+02 -0.61452454281E+03  0.61571546922E+03  0.00000000000E+00 0.  1.
         21    1    1    2  506  503  0.51158141585E+02 -0.28008160449E+02  0.61042881296E+02  0.84426570812E+02  0.00000000000E+00 0.  1.
<scales pt_clust_3="14000.00000" pt_clust_4="95.54569" pt_clust_5="38.27696" pt_clust_6="57.39281"></scales>
<clustering>
<clus scale="   38.277">  2  5  1 -1</clus>
<clus scale="   57.393">  1  6  2 -1</clus>
<clus scale="   95.546">  2  4  1 -1</clus>
<clus scale="   57.393">  1  3  2 -1</clus>
</clustering>
</event>
<event>
 6    0  0.1361919E+003  0.1071972E+03  0.7546771E-02  0.1265850E+00
         21   -1    0    0  505  501  0.00000000000E+00  0.00000000000E+00  0.14994325858E+04  0.14994325858E+04  0.00000000000E+00 0. -1.
         21   -1    0    0  506  502 -0.00000000000E+00 -0.00000000000E+00 -0.89916135825E+02  0.89916135825E+02  0.00000000000E+00 0. -1.
         21    1    1    2  503  501  0.82494786783E+02  0.27560835608E+02  0.28255129326E+03  0.29563528684E+03  0.00000000000E+00 0. -1.
         21    1    1    2  504  502 -0.71611949406E+00 -0.76869551071E+02  0.40045760731E+02  0.86678161387E+02  0.00000000000E+00 0. -1.
         21    1    1    2  505  504 -0.11557509588E+03  0.57504237067E+02  0.11379682134E+04  0.11452667789E+04  0.00000000000E+00 0. -1.
         21    1    1    2  506  503  0.33796428590E+02 -0.81955216046E+01 -0.51048817400E+02  0.61768494540E+02  0.00000000000E+00 0. -1.
<scales pt_clust_3="14000.00000" pt_clust_4="85.66268" pt_clust_5="107.19724" pt_clust_6="34.77593"></scales>
<clustering>
<clus scale="   34.776">  2  6  1 -1</clus>
<clus scale="   85.663">  2  4  1 -1</clus>
<clus scale="  107.197">  1  5  2 -1</clus>
<clus scale="  107.197">  1  3  2 -1</clus>
</clustering>
</event>
<event>
 6    0  0.1361919E+003  0.6764546E+02  0.7546771E-02  0.1368288E+00
         21   -1    0    0  502  501  0.00000000000E+00  0.00000000000E+00  0.18126700919E+03  0.18126700919E+03  0.00000000000E+00 0. -1.
         21   -1    0    0  503  502 -0.00000000000E+00 -0.00000000000E+00 -0.18171205761E+03  0.18171205761E+03  0.00000000000E+00 0. -1.
         21    1    1    2  503  505  0.39719039234E+02  0.56825013549E+01 -0.42055228156E+02  0.58125167652E+02  0.00000000000E+00 0. -1.
         21    1    1    2  504  506  0.45771786940E+02 -0.76004299747E+02 -0.88723899542E+01  0.89165180217E+02  0.00000000000E+00 0. -1.
         21    1    1    2  505  504 -0.81578662074E+02  0.12334428942E+02 -0.52247575012E+02  0.97657694719E+02  0.00000000000E+00 0. -1.
         21    1    1    2  506  501 -0.39121640999E+01  0.57987369451E+02  0.10273014471E+03  0.11803102421E+03  0.00000000000E+00 0. -1.
<scales pt_clust_3="40.12347" pt_clust_4="67.64546" pt_clust_5="14000.00000" pt_clust_6="58.33970"></scales>
<clustering>
<clus scale="   40.123">  2  3  1 -1</clus>
<clus scale="   58.340">  1  6  2 -1</clus>
<clus scale="   67.645">  1  4  2 -1</clus>
<clus scale="   58.340">  1  3  2 -1</clus>
</clustering>
</event>
<event>
 6    0  0.1361919E+003  0.1094721E+03  0.7546771E-02  0.1261551E+00
         21   -1    0    0  504  501  0.00000000000E+00  0.00000000000E+00  0.86885122246E+02  0.86885122246E+02  0.00000000000E+00 0. -1.
         21   -1    0    0  506  502 -0.00000000000E+00 -0.00000000000E+00 -0.19609457965E+04  0.19609457965E+04  0.00000000000E+00 0. -1.
         21    1    1    2  503  501  0.55950959517E+02  0.36955844157E+02  0.51027067440E+02  0.84261532740E+02  0.00000000000E+00 0. -1.
         21    1    1    2  504  505  0.36650172104E+02  0.25486225184E+02 -0.17052590399E+02  0.47786751602E+02  0.00000000000E+00 0.  1.
         21    1    1    2  505  502 -0.68287673164E+02 -0.10217002528E+03 -0.12203506219E+04  0.12265225480E+04  0.00000000000E+00 0. -1.
         21    1    1    2  506  503 -0.24313458457E+02  0.39727955937E+02 -0.68768452936E+03  0.68926008638E+03  0.00000000000E+00 0.  1.
<scales pt_clust_3="14000.00000" pt_clust_4="44.64060" pt_clust_5="109.47206" pt_clust_6="46.60871"></scales>
<clustering>
<clus scale="   44.641">  1  4  2 -1</clus>
<clus scale="   46.609">  2  6  1 -1</clus>
<clus scale="  109.472">  2  5  1 -1</clus>
<clus scale="   44.641">  1  3  2 -1</clus>
</clustering>
</event>
<event>
 6    0  0.1361919E+003  0.1733781E+03  0.7546771E-02  0.1174370E+00
         21   -1    0    0  504  501  0.00000000000E+00  0.00000000000E+00  0.12823910691E+04  0.12823910691E+04  0.00000000000E+00 0.  1.
         21   -1    0    0  505  502 -0.00000000000E+00 -0.00000000000E+00 -0.32760572702E+03  0.32760572702E+03  0.00000000000E+00 0.  1.
         21    1    1    2  503  501 -0.31347680729E+02 -0.22699511440E+03  0.88700240602E+03  0.91612375110E+03  0.00000000000E+00 0.  1.
         21    1    1    2  504  502  0.34206446048E+02  0.51042639127E+02  0.30746564678E+03  0.31354514174E+03  0.00000000000E+00 0.  1.
         21    1    1    2  505  506  0.28854678860E+02  0.42982791337E+02 -0.23805481529E+03  0.24361898104E+03  0.00000000000E+00 0.  1.
         21    1    1    2  506  503 -0.31713444179E+02  0.13296968393E+03 -0.16278953922E+01  0.13670892228E+03  0.00000000000E+00 0.  1.
<scales pt_clust_3="14000.00000" pt_clust_4="63.25818" pt_clust_5="51.76981" pt_clust_6="173.37815"></scales>
<clustering>
<clus scale="   51.770">  2  5  1 -1</clus>
<clus scale="   63.258">  1  4  2 -1</clus>
<clus scale="  173.378">  2  6  1 -1</clus>
<clus scale="   63.258">  1  3  2 -1</clus>
</clustering>
</event>
<event>
 6    0  0.1361919E+003  0.7626530E+02  0.7546771E-02  0.1339997E+00
         21   -1    0    0  503  501  0.00000000000E+00  0.00000000000E+00  0.48784924202E+03  0.48784924202E+03  0.00000000000E+00 0. -1.
         21   -1    0    0  505  502 -0.00000000000E+00 -0.00000000000E+00 -0.20537029831E+03  0.20537029831E+03  0.00000000000E+00 0. -1.
         21    1    1    2  503  506  0.88152975579E+02 -0.46650057570E+02  0.29965786814E+03  0.31581958918E+03  0.00000000000E+00 0. -1.
         21    1    1    2  504  501 -0.28100872285E+02  0.12645530986E+02  0.12594338710E+03  0.12965841751E+03  0.00000000000E+00 0. -1.
         21    1    1    2  505  504  0.66392863201E+01 -0.38798720396E+02 -0.14371437380E+03  0.14900752351E+03  0.00000000000E+00 0. -1.
         21    1    1    2  506  502 -0.66691389614E+02  0.72803246980E+02  0.59206227901E+00  0.98734010134E+02  0.00000000000E+00 0. -1.
<scales pt_clust_3="14000.00000" pt_clust_4="30.81507" pt_clust_5="39.23667" pt_clust_6="76.26530"></scales>
<clustering>
<clus scale="   30.815">  1  4  2 -1</clus>
<clus scale="   39.237">  2  5  1 -1</clus>
<clus scale="   76.265">  2  6  1 -1</clus>
<clus scale="   30.815">  1  3  2 -1</clus>
</clustering>
</event>
<event>
 6    0  0.1361919E+003  0.1220806E+03  0.7546771E-02  0.1239704E+00
         21   -1    0    0  502  501  0.00000000000E+00  0.00000000000E+00  0.18325525162E+03  0.18325525162E+03  0.00000000000E+00 0. -1.
         21   -1    0    0  503  502 -0.00000000000E+00 -0.00000000000E+00 -0.19975631124E+03  0.19975631124E+03  0.00000000000E+00 0.  1.
         21    1    1    2  503  505 -0.12243961808E+03  0.66620128773E+02 -0.78112015352E+02  0.15978481960E+03  0.00000000000E+00 0.  1.
         21    1    1    2  504  501  0.24173064433E+02  0.19714722204E+02  0.61713412986E+02  0.69148771920E+02  0.00000000000E+00 0. -1.
         21    1    1    2  505  506  0.96006317850E+02 -0.37767731310E+02 -0.12445864094E+02  0.10391589931E+03  0.00000000000E+00 0. -1.
         21    1    1    2  506  504  0.22602357965E+01 -0.48567119667E+02  0.12343406838E+02  0.50162072037E+02  0.00000000000E+00 0. -1.
<scales pt_clust_3="14000.00000" pt_clust_4="31.19307" pt_clust_5="122.08058" pt_clust_6="44.19696"></scales>
<clustering>
<clus scale="   31.193">  1  4  2 -1</clus>
<clus scale="   44.197">  1  6  2 -1</clus>
<clus scale="  122.081">  1  5  2 -1</clus>
<clus scale="   31.193">  1  3  2 -1</clus>
</clustering>
</event>
<event>
 6    0  0.3524140E+003  0.9670889E+02  0.7546771E-02  0.1287373E+00
         21   -1    0    0  505  501  0.00000000000E+00  0.00000000000E+00  0.88836216497E+03  0.88836216497E+03  0.00000000000E+00 0.  1.
         21   -1    0    0  506  502 -0.00000000000E+00 -0.00000000000E+00 -0.94662312224E+03  0.94662312224E+03  0.00000000000E+00 0.  1.
         21    1    1    2  503  501 -0.32581066585E+02 -0.63186766072E+01  0.48718420784E+03  0.48831332558E+03  0.00000000000E+00 0.  1.
         21    1    1    2  504  502  0.96351410393E+02  0.73063234293E+01 -0.92264353693E+03  0.92768964254E+03  0.00000000000E+00 0.  1.
         21    1    1    2  505  504  0.44136723340E+02 -0.46679409143E+02  0.15479570305E+03  0.16759691903E+03  0.00000000000E+00 0.  1.
         21    1    1    2  506  503 -0.10790706715E+03  0.45691762321E+02  0.22240266877E+03  0.25138540006E+03  0.00000000000E+00 0.  1.
<scales pt_clust_3="33.18812" pt_clust_4="96.70889" pt_clust_5="58.18475" pt_clust_6="14000.00000"></scales>
<clustering>
<clus scale="   33.188">  1  3  2 -1</clus>
<clus scale="   58.185">  1  5  2 -1</clus>
<clus scale="   96.709">  2  4  1 -1</clus>
<clus scale="   33.188">  1  3  2 -1</clus>
</clustering>
</event>
<event>
 6    0  0.1361919E+003  0.8439535E+02  0.7546771E-02  0.1317021E+00
         21   -1    0    0  503  501  0.00000000000E+00  0.00000000000E+00  0.32243576231E+03  0.32243576231E+03  0.00000000000E+00 0. -1.
         21   -1    0    0  506  502 -0.00000000000E+00 -0.00000000000E+00 -0.31524501456E+03  0.31524501456E+03  0.00000000000E+00 0.  1.
         21    1    1    2  503  505 -0.82223280288E+02 -0.11358388164E+02  0.17978666701E+03  0.19802254022E+03  0.00000000000E+00 0. -1.
         21    1    1    2  504  501  0.45938065639E+02 -0.64849110709E+02  0.90729096777E+02  0.12061294307E+03  0.00000000000E+00 0. -1.
         21    1    1    2  505  502  0.54778929862E+02  0.11346890397E+03 -0.24071895478E+03  0.27170119344E+03  0.00000000000E+00 0.  1.
         21    1    1    2  506  504 -0.18493715213E+02 -0.37261405099E+02 -0.22606061254E+02  0.47344100137E+02  0.00000000000E+00 0. -1.
<scales pt_clust_3="84.39535" pt_clust_4="80.54621" pt_clust_5="14000.00000" pt_clust_6="41.59844"></scales>
<clustering>
<clus scale="   41.598">  2  6  1 -1</clus>
<clus scale="   80.546">  1  4  2 -1</clus>
<clus scale="   84.395">  1  3  2 -1</clus>
<clus scale="   80.546">  1  3  2 -1</clus>
</clustering>
</event>
<event>
 6    0  0.1361919E+003  0.6557844E+02  0.7546771E-02  0.1375809E+00
         21   -1    0    0  506  501  0.00000000000E+00  0.00000000000E+00  0.61267730828E+03  0.61267730828E+03  0.00000000000E+00 0. -1.
         21   -1    0    0  504  502 -0.00000000000E+00 -0.00000000000E+00 -0.87757617860E+02  0.87757617860E+02  0.00000000000E+00 0. -1.
         21    1    1    2  503  502  0.44928426155E+02 -0.21124405614E+02 -0.57002481378E+02  0.75591579376E+02  0.00000000000E+00 0. -1.
         21    1    1    2  504  505 -0.68215483215E+02  0.72247242807E+02  0.30656807593E+03  0.32226852378E+03  0.00000000000E+00 0. -1.
         21    1    1    2  505  501  0.56311801951E+02 -0.17336472750E+01  0.19280765951E+03  0.20087015243E+03  0.00000000000E+00 0. -1.
         21    1    1    2  506  503 -0.33024744892E+02 -0.49389189918E+02  0.82546436361E+02  0.10170467055E+03  0.00000000000E+00 0. -1.
<scales pt_clust_3="49.64679" pt_clust_4="65.57844" pt_clust_5="14000.00000" pt_clust_6="60.23140"></scales>
<clustering>
<clus scale="   49.647">  2  3  1 -1</clus>
<clus scale="   60.231">  2  6  1 -1</clus>
<clus scale="   65.578">  2  4  1 -1</clus>
<clus scale="   65.578">  1  3  2 -1</clus>
</clustering>
</event>
<event>
 6    0  0.1361919E+003  0.1085702E+03  0.7546771E-02  0.1263241E+00
         21   -1    0    0  504  501  0.00000000000E+00  0.00000000000E+00  0.30259389868E+02  0.30259389868E+02  0.00000000000E+00 0.  1.
         21   -1    0    0  505  502 -0.00000000000E+00 -0.00000000000E+00 -0.15152618222E+04  0.15152618222E+04  0.00000000000E+00 0.  1.
         21    1    1    2  503  506  0.12165561849E+03  0.55935563056E+02 -0.10047802740E+04  0.10136628018E+04  0.00000000000E+00 0.  1.
         21    1    1    2  504  503 -0.75146097051E+02 -0.56501219416E+02 -0.83203321264E+02  0.12554726746E+03  0.00000000000E+00 0.  1.
         21    1    1    2  505  501 -0.27256721722E+02  0.24532750853E+02 -0.82373070781E+02  0.90167108933E+02  0.00000000000E+00 0.  1.
         21    1    1    2  506  502 -0.19252799715E+02 -0.23967094493E+02 -0.31464576631E+03  0.31614403390E+03  0.00000000000E+00 0.  1.
<scales pt_clust_3="14000.00000" pt_clust_4="108.57017" pt_clust_5="36.61394" pt_clust_6="30.74235"></scales>
<clustering>
<clus scale="   30.742">  2  6  1 -1</clus>
<clus scale="   36.614">  1  5  2 -1</clus>
<clus scale="  108.570">  1  4  2 -1</clus>
<clus scale="   36.614">  1  3  2 -1</clus>
</clustering>
</event>
<event>
 6    0  0.1361919E+003  0.9855306E+02  0.7546771E-02  0.1283368E+00
         21   -1    0    0  504  501  0.00000000000E+00  0.00000000000E+00  0.76377695382E+02  0.76377695382E+02  0.00000000000E+00 0. -1.
         21   -1    0    0  506  502 -0.00000000000E+00 -0.00000000000E+00 -0.68173978204E+03  0.68173978204E+03  0.00000000000E+00 0. -1.
         21    1    1    2  503  505  0.46983792239E+02  0.25026968486E+02 -0.17931233138E+03  0.18704742198E+03  0.00000000000E+00 0. -1.
         21    1    1    2  504  503 -0.67921646081E+02 -0.88490874910E+02  0.16747355273E+02  0.11280274313E+03  0.00000000000E+00 0. -1.
         21    1    1    2  505  502  0.35027524124E+02 -0.16384307685E+01 -0.28269735176E+03  0.28486383518E+03  0.00000000000E+00 0. -1.
         21    1    1    2  506  501 -0.14089670283E+02  0.65102337193E+02 -0.16009975880E+03  0.17340347714E+03  0.00000000000E+00 0. -1.
<scales pt_clust_3="98.55306" pt_clust_4="14000.00000" pt_clust_5="35.06582" pt_clust_6="64.41849"></scales>
<clustering>
<clus scale="   35.066">  2  5  1 -1</clus>
<clus scale="   64.418">  2  6  1 -1</clus>
<clus scale="   98.553">  2  3  1 -1</clus>
<clus scale="   98.553">  1  3  2 -1</clus>
</clustering>
</event>
<event>
 6    0  0.1361919E+003  0.1520246E+03  0.7546771E-02  0.1198007E+00
         21   -1    0    0  504  501  0.00000000000E+00  0.00000000000E+00  0.29799152464E+03  0.29799152464E+03  0.00000000000E+00 0.  1.
         21   -1    0    0  506  502 -0.00000000000E+00 -0.00000000000E+00 -0.69496374242E+03  0.69496374242E+03  0.00000000000E+00 0.  1.
         21    1    1    2  503  502 -0.28036639264E+02 -0.46234176588E+02 -0.45467292437E+03  0.45787675240E+03  0.00000000000E+00 0.  1.
         21    1    1    2  504  505  0.73508288648E+02 -0.10596375353E+01  0.17405352022E+03  0.18894237013E+03  0.00000000000E+00 0.  1.
         21    1    1    2  505  503  0.10954372493E+02 -0.12264019472E+03 -0.11288742651E+03  0.16704546298E+03  0.00000000000E+00 0.  1.
         21    1    1    2  506  501 -0.56426021876E+02  0.16993400885E+03 -0.34653871098E+01  0.17909068154E+03  0.00000000000E+00 0.  1.
<scales pt_clust_3="54.07081" pt_clust_4="72.67693" pt_clust_5="14000.00000" pt_clust_6="152.02460"></scales>
<clustering>
<clus scale="   54.071">  2  3  1 -1</clus>
<clus scale="   72.677">  1  4  2 -1</clus>
<clus scale="  152.025">  1  6  2 -1</clus>
<clus scale="   72.677">  1  3  2 -1</clus>
</clustering>
</event>
<event>
 6    0  0.1361919E+003  0.1815973E+03  0.7546771E-02  0.1166266E+00
         21   -1    0    0  504  501  0.00000000000E+00  0.00000000000E+00  0.19180612883E+04  0.19180612883E+04  0.00000000000E+00 0. -1.
         21   -1    0    0  506  502 -0.00000000000E+00 -0.00000000000E+00 -0.44235463524E+03  0.44235463524E+03  0.00000000000E+00 0. -1.
         21    1    1    2  503  501  0.52168520854E+02 -0.15131830139E+01  0.10838242718E+03  0.12029378543E+03  0.00000000000E+00 0. -1.
         21    1    1    2  504  505 -0.63610043633E+02 -0.18278690767E+03  0.15596681800E+04  0.15716304028E+04  0.00000000000E+00 0. -1.
         21    1    1    2  505  502  0.90001520662E+02  0.11375266052E+02 -0.38642859417E+03  0.39693416178E+03  0.00000000000E+00 0. -1.
         21    1    1    2  506  503 -0.78559997883E+02  0.17292482464E+03  0.19408464005E+03  0.27155757354E+03  0.00000000000E+00 0. -1.
<scales pt_clust_3="52.19046" pt_clust_4="14000.00000" pt_clust_5="90.86771" pt_clust_6="181.59734"></scales>
<clustering>
<clus scale="   52.190">  1  3  2 -1</clus>
<clus scale="   90.868">  2  5  1 -1</clus>
<clus scale="  181.597">  2  6  1 -1</clus>
<clus scale="   52.190">  1  3  2 -1</clus>
</clustering>
</event>
<event>
 6    0  0.1361919E+003  0.1096697E+03  0.7546771E-02  0.1261183E+00
         21   -1    0    0  504  501  0.00000000000E+00  0.00000000000E+00  0.49915644450E+03  0.49915644450E+03  0.00000000000E+00 0.  1.
         21   -1    0    0  506  502 -0.00000000000E+00 -0.00000000000E+00 -0.44455521046E+03  0.44455521046E+03  0.00000000000E+00 0. -1.
         21    1    1    2  503  502 -0.96136294640E+02 -0.36116900168E+02 -0.41892749612E+03  0.43133150201E+03  0.00000000000E+00 0. -1.
         21    1    1    2  504  505  0.57889349455E+02  0.33996516035E+02  0.18708511813E+03  0.19876564419E+03  0.00000000000E+00 0.  1.
         21    1    1    2  505  503  0.32748876415E+02  0.45218269167E+02  0.25216818910E+03  0.25827500143E+03  0.00000000000E+00 0.  1.
         21    1    1    2  506  501  0.54980687694E+01 -0.43097885035E+02  0.34275422923E+02  0.55339507327E+02  0.00000000000E+00 0.  1.
<scales pt_clust_3="102.83499" pt_clust_4="34.75483" pt_clust_5="34.75483" pt_clust_6="43.44717"></scales>
<clustering>
<clus scale="   34.755">  4  5 -1 -1</clus>
<clus scale="   43.447">  1  6  2 -1</clus>
<clus scale="  102.835">  2  3  1 -1</clus>
<clus scale="   43.447">  1  3  2 -1</clus>
</clustering>
</event>
<event>
 6    0  0.1361919E+003  0.9666138E+02  0.7546771E-02  0.1287477E+00
         21   -1    0    0  506  501  0.00000000000E+00  0.00000000000E+00  0.10956081989E+04  0.10956081989E+04  0.00000000000E+00 0.  1.
         21   -1    0    0  503  502 -0.00000000000E+00 -0.00000000000E+00 -0.54821753711E+02  0.54821753711E+02  0.00000000000E+00 0.  1.
         21    1    1    2  503  505 -0.34975215222E+02 -0.12551149685E+02 -0.10982772194E+02  0.38748139611E+02  0.00000000000E+00 0.  1.
         21    1    1    2  504  501 -0.62943048616E+02  0.11639723105E+02  0.19756436432E+03  0.20767519971E+03  0.00000000000E+00 0.  1.
         21    1    1    2  505  504 -0.66895662793E+02  0.63651355354E+01  0.51836802344E+02  0.84868125514E+02  0.00000000000E+00 0.  1.
         21    1    1    2  506  502  0.16481392663E+03 -0.54537089550E+01  0.80236805073E+03  0.81913848779E+03  0.00000000000E+00 0.  1.
<scales pt_clust_3="37.15908" pt_clust_4="69.50078" pt_clust_5="14000.00000" pt_clust_6="96.66138"></scales>
<clustering>
<clus scale="   37.159">  2  3  1 -1</clus>
<clus scale="   69.501">  1  4  2 -1</clus>
<clus scale="   96.661">  1  6  2 -1</clus>
<clus scale="   69.501">  1  3  2 -1</clus>
</clustering>
</event>
<event>
 6    0  0.1361919E+003  0.1039911E+03  0.7546771E-02  0.1272120E+00
         21   -1    0    0  503  501  0.00000000000E+00  0.00000000000E+00  0.88060202435E+03  0.88060202435E+03  0.00000000000E+00 0. -1.
         21   -1    0    0  504  502 -0.00000000000E+00 -0.00000000000E+00 -0.50814030913E+03  0.50814030913E+03  0.00000000000E+00 0. -1.
         21    1    1    2  503  505 -0.77152518179E+02  0.14885503266E+02  0.63366694179E+03  0.63852007203E+03  0.00000000000E+00 0. -1.
         21    1    1    2  504  506  0.99758300104E+02  0.33581580365E+02 -0.43657021034E+03  0.44908015937E+03  0.00000000000E+00 0. -1.
         21    1    1    2  505  502  0.81930243296E+02 -0.85980635601E+02  0.14211650135E+03  0.18520889401E+03  0.00000000000E+00 0. -1.
         21    1    1    2  506  501 -0.10453602522E+03  0.37513551970E+02  0.33248482438E+02  0.11593320808E+03  0.00000000000E+00 0. -1.
<scales pt_clust_3="78.57537" pt_clust_4="103.99110" pt_clust_5="81.82871" pt_clust_6="14000.00000"></scales>
<clustering>
<clus scale="   78.575">  1  3  2 -1</clus>
<clus scale="   81.829">  1  5  2 -1</clus>
<clus scale="  103.991">  2  4  1 -1</clus>
<clus scale="   78.575">  1  3  2 -1</clus>
</clustering>
</event>
<event>
 6    0  0.1361919E+003  0.8692437E+02  0.7546771E-02  0.1310475E+00
         21   -1    0    0  504  501  0.00000000000E+00  0.00000000000E+00  0.18863463949E+03  0.18863463949E+03  0.00000000000E+00 0. -1.
         21   -1    0    0  505  502 -0.00000000000E+00 -0.00000000000E+00 -0.28637899800E+04  0.28637899800E+04  0.00000000000E+00 0. -1.
         21    1    1    2  503  501  0.31100208794E+02  0.28558363544E+02  0.62760188790E+02  0.75641552154E+02  0.00000000000E+00 0.  1.
         21    1    1    2  504  502 -0.46412580157E+02 -0.11535916629E+03  0.84674442900E+02  0.15043811393E+03  0.00000000000E+00 0. -1.
         21    1    1    2  505  506 -0.18741811826E+02  0.39784068333E+02 -0.23194421272E+04  0.23198590063E+04  0.00000000000E+00 0. -1.
         21    1    1    2  506  503  0.34054183189E+02  0.47016734412E+02 -0.50314784503E+03  0.50648594715E+03  0.00000000000E+00 0.  1.
<scales pt_clust_3="42.22325" pt_clust_4="86.92437" pt_clust_5="43.99959" pt_clust_6="14000.00000"></scales>
<clustering>
<clus scale="   42.223">  1  3  2 -1</clus>
<clus scale="   44.000">  2  5  1 -1</clus>
<clus scale="   86.924">  1  4  2 -1</clus>
<clus scale="   42.223">  1  3  2 -1</clus>
</clustering>
</event>
<event>
 6    0  0.1361919E+003  0.9901080E+02  0.7546771E-02  0.1282390E+00
         21   -1    0    0  503  501  0.00000000000E+00  0.00000000000E+00  0.10382875990E+04  0.10382875990E+04  0.00000000000E+00 0.  1.
         21   -1    0    0  505  502 -0.00000000000E+00 -0.00000000000E+00 -0.23416801975E+03  0.23416801975E+03  0.00000000000E+00 0.  1.
         21    1    1    2  503  504 -0.90703792017E+02 -0.42534431000E+02  0.94502046904E+03  0.95031575943E+03  0.00000000000E+00 0.  1.
         21    1    1    2  504  502  0.24408602281E+01  0.11366414309E+03 -0.76681296446E+02  0.13713320695E+03  0.00000000000E+00 0.  1.
         21    1    1    2  505  506  0.39699369778E+02 -0.53558458892E+01 -0.90629076158E+02  0.99087610180E+02  0.00000000000E+00 0.  1.
         21    1    1    2  506  501  0.48563562011E+02 -0.65773866202E+02  0.26409482818E+02  0.85919042203E+02  0.00000000000E+00 0.  1.
<scales pt_clust_3="14000.00000" pt_clust_4="99.01080" pt_clust_5="40.05902" pt_clust_6="87.93110"></scales>
<clustering>
<clus scale="   40.059">  2  5  1 -1</clus>
<clus scale="   87.931">  2  6  1 -1</clus>
<clus scale="   99.011">  2  4  1 -1</clus>
<clus scale="   99.011">  1  3  2 -1</clus>
</clustering>
</event>
<event>
 6    0  0.1361919E+003  0.1213752E+03  0.7546771E-02  0.1240845E+00
         21   -1    0    0  506  501  0.00000000000E+00  0.00000000000E+00  0.38740719696E+03  0.38740719696E+03  0.00000000000E+00 0.  1.
         21   -1    0    0  504  502 -0.00000000000E+00 -0.00000000000E+00 -0.12322291156E+04  0.12322291156E+04  0.00000000000E+00 0.  1.
         21    1    1    2  503  502  0.59619908894E+02 -0.32414193587E+02 -0.11177038764E+04  0.11197621036E+04  0.00000000000E+00 0.  1.
         21    1    1    2  504  501 -0.17928964104E+03  0.77513801185E+02  0.14872393040E+03  0.24550350758E+03  0.00000000000E+00 0.  1.
         21    1    1    2  505  503  0.66255679769E+02 -0.20697417352E+02 -0.39938530626E+02  0.80082984555E+02  0.00000000000E+00 0.  1.
         21    1    1    2  506  505  0.53414052377E+02 -0.24402190246E+02  0.16409655797E+03  0.17428771677E+03  0.00000000000E+00 0.  1.
<scales pt_clust_3="68.13800" pt_clust_4="14000.00000" pt_clust_5="121.37521" pt_clust_6="58.72417"></scales>
<clustering>
<clus scale="   58.724">  1  6  2 -1</clus>
<clus scale="   68.138">  2  3  1 -1</clus>
<clus scale="  121.375">  2  5  1 -1</clus>
<clus scale="   58.724">  1  3  2 -1</clus>
</clustering>
</event>
<event>
 6    0  0.1361919E+003  0.1083177E+03  0.7546771E-02  0.1263717E+00
         21   -1    0    0  503  501  0.00000000000E+00  0.00000000000E+00  0.88040359615E+02  0.88040359615E+02  0.00000000000E+00 0.  1.
         21   -1    0    0  505  502 -0.00000000000E+00 -0.00000000000E+00 -0.65342797303E+03  0.65342797303E+03  0.00000000000E+00 0.  1.
         21    1    1    2  503  504 -0.19759053897E+02  0.27645659981E+02  0.49602736976E+02  0.60125986414E+02  0.00000000000E+00 0.  1.
         21    1    1    2  504  502 -0.94188640986E+01  0.34396373822E+02 -0.12698193503E+03  0.13189479655E+03  0.00000000000E+00 0.  1.
         21    1    1    2  505  506 -0.33979610060E+02 -0.13261780569E+03 -0.38921613433E+03  0.41259095422E+03  0.00000000000E+00 0.  1.
         21    1    1    2  506  501  0.63157528055E+02  0.70575771890E+02 -0.98792281028E+02  0.13685659545E+03  0.00000000000E+00 0.  1.
<scales pt_clust_3="33.98092" pt_clust_4="38.03329" pt_clust_5="14000.00000" pt_clust_6="108.31766"></scales>
<clustering>
<clus scale="   33.981">  1  3  2 -1</clus>
<clus scale="   38.033">  2  4  1 -1</clus>
<clus scale="  108.318">  1  6  2 -1</clus>
<clus scale="   33.981">  1  3  2 -1</clus>
</clustering>
</event>
<event>
 6    0  0.1361919E+003  0.1378810E+03  0.7546771E-02  0.1216209E+00
         21   -1    0    0  505  501  0.00000000000E+00  0.00000000000E+00  0.35987560584E+03  0.35987560584E+03  0.00000000000E+00 0. -1.
         21   -1    0    0  504  502 -0.00000000000E+00 -0.00000000000E+00 -0.10296304243E+04  0.10296304243E+04  0.00000000000E+00 0. -1.
         21    1    1    2  503  502  0.14656304667E+02  0.40620483752E+02 -0.47853343315E+03  0.48047796787E+03  0.00000000000E+00 0. -1.
         21    1    1    2  504  506 -0.48336279648E+02  0.24135715042E+02 -0.72884498595E+02  0.90725293090E+02  0.00000000000E+00 0. -1.
         21    1    1    2  505  503 -0.61162428457E+02  0.38228585708E+02 -0.45133956647E+03  0.45706637557E+03  0.00000000000E+00 0. -1.
         21    1    1    2  506  501  0.94842403439E+02 -0.10298478450E+03  0.33300267976E+03  0.36123639360E+03  0.00000000000E+00 0. -1.
<scales pt_clust_3="43.18369" pt_clust_4="55.14572" pt_clust_5="137.88098" pt_clust_6="14000.00000"></scales>
<clustering>
<clus scale="   43.184">  2  3  1 -1</clus>
<clus scale="   55.146">  2  4  1 -1</clus>
<clus scale="  137.881">  2  5  1 -1</clus>
<clus scale="  137.881">  1  3  2 -1</clus>
</clustering>
</event>
<event>
 6    0  0.1361919E+003  0.9329230E+02  0.7546771E-02  0.1295069E+00
         21   -1    0    0  503  501  0.00000000000E+00  0.00000000000E+00  0.17704044362E+04  0.17704044362E+04  0.00000000000E+00 0.  1.
         21   -1    0    0  506  502 -0.00000000000E+00 -0.00000000000E+00 -0.21060160877E+03  0.21060160877E+03  0.00000000000E+00 0.  1.
         21    1    1    2  503  502  0.10955164151E+02  0.37327432553E+02 -0.19383303736E+03  0.19769825293E+03  0.00000000000E+00 0.  1.
         21    1    1    2  504  501  0.67855775402E+02  0.68626712318E+02  0.69697843486E+03  0.70362843217E+03  0.00000000000E+00 0.  1.
         21    1    1    2  505  504 -0.10192034447E+03 -0.90152271553E+01  0.75704661371E+03  0.76392971291E+03  0.00000000000E+00 0.  1.
         21    1    1    2  506  505  0.23109404921E+02 -0.96938917716E+02  0.29961081621E+03  0.31574964696E+03  0.00000000000E+00 0.  1.
<scales pt_clust_3="38.90184" pt_clust_4="14000.00000" pt_clust_5="93.29230" pt_clust_6="81.96374"></scales>
<clustering>
<clus scale="   38.902">  2  3  1 -1</clus>
<clus scale="   81.964">  2  6  1 -1</clus>
<clus scale="   93.292">  2  5  1 -1</clus>
<clus scale="   93.292">  1  3  2 -1</clus>
</clustering>
</event>
<event>
 6    0  0.1361919E+003  0.9581672E+02  0.7546771E-02  0.1289347E+00
         21   -1    0    0  506  501  0.00000000000E+00  0.00000000000E+00  0.23504244144E+03  0.23504244144E+03  0.00000000000E+00 0. -1.
         21   -1    0    0  505  502 -0.00000000000E+00 -0.00000000000E+00 -0.50659781501E+03  0.50659781501E+03  0.00000000000E+00 0. -1.
         21    1    1    2  503  502 -0.33864714365E+02 -0.12729878479E+02 -0.64906149654E+02  0.74307987107E+02  0.00000000000E+00 0. -1.
         21    1    1    2  504  501 -0.74634584844E+02  0.53388566720E+02  0.79878101594E+02  0.12166006504E+03  0.00000000000E+00 0. -1.
         21    1    1    2  505  504 -0.10869997468E+00 -0.35238605548E+02 -0.39235466166E+03  0.39393394327E+03  0.00000000000E+00 0. -1.
         21    1    1    2  506  503  0.10860799918E+03 -0.54200826929E+01  0.10582733615E+03  0.15173826103E+03  0.00000000000E+00 0. -1.
<scales pt_clust_3="48.28301" pt_clust_4="14000.00000" pt_clust_5="35.23877" pt_clust_6="95.81672"></scales>
<clustering>
<clus scale="   35.239">  2  5  1 -1</clus>
<clus scale="   48.283">  2  3  1 -1</clus>
<clus scale="   95.817">  2  6  1 -1</clus>
<clus scale="   95.817">  1  3  2 -1</clus>
</clustering>
</event>
<event>
 6    0  0.1361919E+003  0.1153647E+03  0.7546771E-02  0.1250946E+00
         21   -1    0    0  503  501  0.00000000000E+00  0.00000000000E+00  0.13426066558E+04  0.13426066558E+04  0.00000000000E+00 0. -1.
         21   -1    0    0  504  502 -0.00000000000E+00 -0.00000000000E+00 -0.94555682234E+03  0.94555682234E+03  0.00000000000E+00 0.  1.
         21    1    1    2  503  506 -0.37042355810E+02 -0.39252703754E+02  0.30582144928E+03  0.31054737113E+03  0.00000000000E+00 0. -1.
         21    1    1    2  504  501 -0.26733970892E+02  0.50054459990E+02  0.10135409504E+04  0.10151282738E+04  0.00000000000E+00 0. -1.
         21    1    1    2  505  502 -0.24188524448E+02  0.10555849440E+03 -0.58571925714E+03  0.59564647959E+03  0.00000000000E+00 0.  1.
         21    1    1    2  506  505  0.87964851150E+02 -0.11636025064E+03 -0.33659330910E+03  0.36684135358E+03  0.00000000000E+00 0.  1.
<scales pt_clust_3="53.97139" pt_clust_4="64.10859" pt_clust_5="115.36470" pt_clust_6="14000.00000"></scales>
<clustering>
<clus scale="   53.971">  1  3  2 -1</clus>
<clus scale="   64.109">  1  4  2 -1</clus>
<clus scale="  115.365">  2  5  1 -1</clus>
<clus scale="   53.971">  1  3  2 -1</clus>
</clustering>
</event>
<event>
 6    0  0.1361919E+003  0.1913359E+03  0.7546771E-02  0.1157262E+00
         21   -1    0    0  504  501  0.00000000000E+00  0.00000000000E+00  0.26100828962E+03  0.26100828962E+03  0.00000000000E+00 0. -1.
         21   -1    0    0  503  502 -0.00000000000E+00 -0.00000000000E+00 -0.34371506371E+03  0.34371506371E+03  0.00000000000E+00 0.  1.
         21    1    1    2  503  501 -0.15227568721E+03 -0.10333054399E+03  0.16452004501E+03  0.24684394148E+03  0.00000000000E+00 0. -1.
         21    1    1    2  504  506  0.14268134867E+03  0.26989090587E+02 -0.12303236423E+03  0.19032430459E+03  0.00000000000E+00 0.  1.
         21    1    1    2  505  502 -0.20569728084E+02  0.48885809413E+02 -0.11366459330E+03  0.12542956528E+03  0.00000000000E+00 0.  1.
         21    1    1    2  506  505  0.30164066625E+02  0.27455643987E+02 -0.10529861566E+02  0.42125541975E+02  0.00000000000E+00 0. -1.
<scales pt_clust_3="182.35993" pt_clust_4="30.69502" pt_clust_5="53.03712" pt_clust_6="30.69502"></scales>
<clustering>
<clus scale="   30.695">  4  6 -1 -1</clus>
<clus scale="   53.037">  2  5  1 -1</clus>
<clus scale="  182.360">  1  3  2 -1</clus>
<clus scale="  182.360">  1  3  2 -1</clus>
</clustering>
</event>
<event>
 6    0  0.1361919E+003  0.9401844E+02  0.7546771E-02  0.1293402E+00
         21   -1    0    0  505  501  0.00000000000E+00  0.00000000000E+00  0.19075646253E+03  0.19075646253E+03  0.00000000000E+00 0. -1.
         21   -1    0    0  506  502 -0.00000000000E+00 -0.00000000000E+00 -0.68508486189E+03  0.68508486189E+03  0.00000000000E+00 0.  1.
         21    1    1    2  503  501 -0.47809634706E+01 -0.35759285804E+02  0.11584387939E+03  0.12133172926E+03  0.00000000000E+00 0. -1.
         21    1    1    2  504  503  0.63897072819E+02  0.61533190819E+02  0.22338808348E+02  0.91477821605E+02  0.00000000000E+00 0. -1.
         21    1    1    2  505  502 -0.62804329561E+02  0.75008653051E+02 -0.29779501823E+03  0.31345263554E+03  0.00000000000E+00 0.  1.
         21    1    1    2  506  504  0.36882202126E+01 -0.10078255807E+03 -0.33471606887E+03  0.34957913802E+03  0.00000000000E+00 0. -1.
<scales pt_clust_3="36.07747" pt_clust_4="68.74961" pt_clust_5="14000.00000" pt_clust_6="94.01844"></scales>
<clustering>
<clus scale="   36.077">  1  3  2 -1</clus>
<clus scale="   68.750">  1  4  2 -1</clus>
<clus scale="   94.018">  2  6  1 -1</clus>
<clus scale="   36.077">  1  3  2 -1</clus>
</clustering>
</event>
<event>
 6    0  0.1361919E+003  0.8041988E+02  0.7546771E-02  0.1327864E+00
         21   -1    0    0  504  501  0.00000000000E+00  0.00000000000E+00  0.92366256091E+02  0.92366256091E+02  0.00000000000E+00 0. -1.
         21   -1    0    0  501  502 -0.00000000000E+00 -0.00000000000E+00 -0.62912158123E+03  0.62912158123E+03  0.00000000000E+00 0.  1.
         21    1    1    2  503  505  0.47008693308E+02 -0.28186990462E+02  0.54583883011E+02  0.77354534207E+02  0.00000000000E+00 0. -1.
         21    1    1    2  504  503 -0.46935010304E+01 -0.32492425612E+02 -0.13462397584E+02  0.35482711604E+02  0.00000000000E+00 0. -1.
         21    1    1    2  505  506  0.46695376244E+02  0.67558651350E+02 -0.14480498179E+03  0.16647255716E+03  0.00000000000E+00 0. -1.
         21    1    1    2  506  502 -0.89010568522E+02 -0.68792352759E+01 -0.43307182877E+03  0.44217803435E+03  0.00000000000E+00 0.  1.
<scales pt_clust_3="69.57340" pt_clust_4="32.82966" pt_clust_5="80.41988" pt_clust_6="14000.00000"></scales>
<clustering>
<clus scale="   32.830">  1  4  2 -1</clus>
<clus scale="   69.573">  1  3  2 -1</clus>
<clus scale="   80.420">  1  5  2 -1</clus>
<clus scale="   32.830">  1  3  2 -1</clus>
</clustering>
</event>
<event>
 6    0  0.1361919E+003  0.8174691E+02  0.7546771E-02  0.1324166E+00
         21   -1    0    0  506  501  0.00000000000E+00  0.00000000000E+00  0.40809701686E+03  0.40809701686E+03  0.00000000000E+00 0.  1.
         21   -1    0    0  503  502 -0.00000000000E+00 -0.00000000000E+00 -0.30071749587E+03  0.30071749587E+03  0.00000000000E+00 0. -1.
         21    1    1    2  503  504 -0.11243493164E+02  0.77084744462E+02 -0.17684635217E+03  0.19324364477E+03  0.00000000000E+00 0. -1.
         21    1    1    2  504  501  0.30256689167E+02  0.61471771463E+02 -0.27574485879E+02  0.73855251659E+02  0.00000000000E+00 0. -1.
         21    1    1    2  505  502  0.10241096084E+01 -0.10143685450E+03 -0.23207227647E+02  0.10406276791E+03  0.00000000000E+00 0.  1.
         21    1    1    2  506  505 -0.20037305611E+02 -0.37119661426E+02  0.33500758669E+03  0.33765284838E+03  0.00000000000E+00 0.  1.
<scales pt_clust_3="81.74691" pt_clust_4="54.92529" pt_clust_5="14000.00000" pt_clust_6="42.18249"></scales>
<clustering>
<clus scale="   42.182">  1  6  2 -1</clus>
<clus scale="   54.925">  1  4  2 -1</clus>
<clus scale="   81.747">  2  3  1 -1</clus>
<clus scale="   42.182">  1  3  2 -1</clus>
</clustering>
</event>
<event>
 6    0  0.1361919E+003  0.1665959E+03  0.7546771E-02  0.1181445E+00
         21   -1    0    0  504  501  0.00000000000E+00  0.00000000000E+00  0.15836135863E+03  0.15836135863E+03  0.00000000000E+00 0. -1.
         21   -1    0    0  505  502 -0.00000000000E+00 -0.00000000000E+00 -0.10818219817E+04  0.10818219817E+04  0.00000000000E+00 0.  1.
         21    1    1    2  503  502 -0.50450839224E+02  0.14518002970E+03 -0.68511241543E+03  0.70214069101E+03  0.00000000000E+00 0.  1.
         21    1    1    2  504  506 -0.11532007134E+02 -0.41458391051E+02  0.17162296734E+02  0.46328498856E+02  0.00000000000E+00 0. -1.
         21    1    1    2  505  501 -0.11835023911E+02  0.10465283255E+03  0.48399013185E+02  0.11590835876E+03  0.00000000000E+00 0. -1.
         21    1    1    2  506  503  0.73817870269E+02 -0.20837447120E+03 -0.30390951758E+03  0.37580579172E+03  0.00000000000E+00 0. -1.
<scales pt_clust_3="14000.00000" pt_clust_4="43.03238" pt_clust_5="80.11666" pt_clust_6="166.59587"></scales>
<clustering>
<clus scale="   43.032">  1  4  2 -1</clus>
<clus scale="   80.117">  1  5  2 -1</clus>
<clus scale="  166.596">  1  6  2 -1</clus>
<clus scale="   43.032">  1  3  2 -1</clus>
</clustering>
</event>
<event>
 6    0  0.1361919E+003  0.2269138E+03  0.7546771E-02  0.1128831E+00
         21   -1    0    0  502  501  0.00000000000E+00  0.00000000000E+00  0.67357491300E+03  0.67357491300E+03  0.00000000000E+00 0.  1.
         21   -1    0    0  505  502 -0.00000000000E+00 -0.00000000000E+00 -0.56729305528E+03  0.56729305528E+03  0.00000000000E+00 0. -1.
         21    1    1    2  503  506  0.10169681120E+03  0.82691449812E+02  0.12778939408E+03  0.18305804139E+03  0.00000000000E+00 0. -1.
         21    1    1    2  504  503 -0.14921691659E+03 -0.12362379348E+03 -0.43647677235E+03  0.47755680637E+03  0.00000000000E+00 0. -1.
         21    1    1    2  505  504 -0.45388619082E+02  0.43786983126E+00 -0.70757637732E+02  0.84065223307E+02  0.00000000000E+00 0. -1.
         21    1    1    2  506  501  0.92908724472E+02  0.40494473838E+02  0.48572687372E+03  0.49618789722E+03  0.00000000000E+00 0.  1.
<scales pt_clust_3="215.41453" pt_clust_4="34.51784" pt_clust_5="34.51784" pt_clust_6="101.35005"></scales>
<clustering>
<clus scale="   34.518">  4  5 -1 -1</clus>
<clus scale="  101.350">  1  6  2 -1</clus>
<clus scale="  215.415">  1  3  2 -1</clus>
<clus scale="  101.350">  1  3  2 -1</clus>
</clustering>
</event>
<event>
 6    0  0.1361919E+003  0.8123005E+02  0.7546771E-02  0.1325597E+00
         21   -1    0    0  505  501  0.00000000000E+00  0.00000000000E+00  0.10686897767E+04  0.10686897767E+04  0.00000000000E+00 0.  1.
         21   -1    0    0  504  502 -0.00000000000E+00 -0.00000000000E+00 -0.35346035106E+03  0.35346035106E+03  0.00000000000E+00 0.  1.
         21    1    1    2  503  506  0.52862753957E+01 -0.59474368968E+02 -0.81844463191E+02  0.10130973017E+03  0.00000000000E+00 0.  1.
         21    1    1    2  504  501 -0.97906308631E+02  0.34591389458E+02  0.94387215621E+02  0.14032517938E+03  0.00000000000E+00 0.  1.
         21    1    1    2  505  503  0.50646133077E+02  0.42537720271E+02  0.93825646702E+03  0.94058475766E+03  0.00000000000E+00 0.  1.
         21    1    1    2  506  502  0.41973900158E+02 -0.17654740760E+02 -0.23556979378E+03  0.23993046057E+03  0.00000000000E+00 0.  1.
<scales pt_clust_3="14000.00000" pt_clust_4="81.23005" pt_clust_5="66.35030" pt_clust_6="45.53568"></scales>
<clustering>
<clus scale="   45.536">  2  6  1 -1</clus>
<clus scale="   66.350">  1  5  2 -1</clus>
<clus scale="   81.230">  1  4  2 -1</clus>
<clus scale="   66.350">  1  3  2 -1</clus>
</clustering>
</event>
<event>
 6    0  0.1361919E+003  0.7606939E+02  0.7546771E-02  0.1340591E+00
         21   -1    0    0  502  501  0.00000000000E+00  0.00000000000E+00  0.70484810832E+03  0.70484810832E+03  0.00000000000E+00 0. -1.
         21   -1    0    0  504  502 -0.00000000000E+00 -0.00000000000E+00 -0.49551828689E+02  0.49551828689E+02  0.00000000000E+00 0. -1.
         21    1    1    2  503  506  0.34712917567E+02  0.89383820736E+02  0.19372019816E+03  0.21615265261E+03  0.00000000000E+00 0. -1.
         21    1    1    2  504  503 -0.32585320830E+02 -0.22560630582E+02 -0.17936307001E+02  0.43502830881E+02  0.00000000000E+00 0. -1.
         21    1    1    2  505  501 -0.37571658724E+02  0.43767426834E+01  0.98363892222E+02  0.10538615046E+03  0.00000000000E+00 0. -1.
         21    1    1    2  506  505  0.35444061988E+02 -0.71199932838E+02  0.38114849625E+03  0.38935830306E+03  0.00000000000E+00 0. -1.
<scales pt_clust_3="76.06939" pt_clust_4="40.23869" pt_clust_5="37.82572" pt_clust_6="14000.00000"></scales>
<clustering>
<clus scale="   37.826">  1  5  2 -1</clus>
<clus scale="   40.239">  2  4  1 -1</clus>
<clus scale="   76.069">  2  3  1 -1</clus>
<clus scale="   37.826">  1  3  2 -1</clus>
</clustering>
</event>
<event>
 6    0  0.1361919E+003  0.1373891E+03  0.7546771E-02  0.1216886E+00
         21   -1    0    0  503  501  0.00000000000E+00  0.00000000000E+00  0.47046625873E+03  0.47046625873E+03  0.00000000000E+00 0. -1.
         21   -1    0    0  506  502 -0.00000000000E+00 -0.00000000000E+00 -0.37747550877E+03  0.37747550877E+03  0.00000000000E+00 0.  1.
         21    1    1    2  503  505 -0.84779731249E+02 -0.10688557474E+03  0.33417952695E+03  0.36095440869E+03  0.00000000000E+00 0. -1.
         21    1    1    2  504  501 -0.93095783951E+02 -0.14597805922E+02  0.44280451445E+02  0.10411858291E+03  0.00000000000E+00 0. -1.
         21    1    1    2  505  502  0.13421050300E+03  0.80398394140E+02 -0.94650105132E+02  0.18285240851E+03  0.00000000000E+00 0.  1.
         21    1    1    2  506  504  0.43665012204E+02  0.41084986520E+02 -0.19081912330E+03  0.20001636740E+03  0.00000000000E+00 0.  1.
<scales pt_clust_3="137.38909" pt_clust_4="86.27744" pt_clust_5="14000.00000" pt_clust_6="59.95506"></scales>
<clustering>
<clus scale="   59.955">  2  6  1 -1</clus>
<clus scale="   86.277">  2  4  1 -1</clus>
<clus scale="  137.389">  1  3  2 -1</clus>
<clus scale="  137.389">  1  3  2 -1</clus>
</clustering>
</event>
<event>
 6    0  0.1361919E+003  0.1089189E+03  0.7546771E-02  0.1262585E+00
         21   -1    0    0  506  501  0.00000000000E+00  0.00000000000E+00  0.14865522107E+03  0.14865522107E+03  0.00000000000E+00 0.  1.
         21   -1    0    0  505  502 -0.00000000000E+00 -0.00000000000E+00 -0.58916243275E+03  0.58916243275E+03  0.00000000000E+00 0. -1.
         21    1    1    2  503  502  0.99247444628E+01  0.52432458602E+02 -0.19514017791E+02  0.56819540284E+02  0.00000000000E+00 0. -1.
         21    1    1    2  504  501  0.74653580659E+02 -0.76412952396E+01 -0.80945484898E+02  0.11037988052E+03  0.00000000000E+00 0.  1.
         21    1    1    2  505  504  0.77003251946E+01  0.49562198720E+02 -0.41555303536E+03  0.41856902865E+03  0.00000000000E+00 0. -1.
         21    1    1    2  506  503 -0.92278650316E+02 -0.94353362082E+02  0.75505326365E+02  0.15204920437E+03  0.00000000000E+00 0.  1.
<scales pt_clust_3="64.48174" pt_clust_4="14000.00000" pt_clust_5="50.15682" pt_clust_6="108.91894"></scales>
<clustering>
<clus scale="   50.157">  2  5  1 -1</clus>
<clus scale="   64.482">  2  3  1 -1</clus>
<clus scale="  108.919">  1  6  2 -1</clus>
<clus scale="  108.919">  1  3  2 -1</clus>
</clustering>
</event>
<event>
 6    0  0.1361919E+003  0.6289846E+02  0.7546771E-02  0.1386056E+00
         21   -1    0    0  504  501  0.00000000000E+00  0.00000000000E+00  0.17428259677E+04  0.17428259677E+04  0.00000000000E+00 0. -1.
         21   -1    0    0  505  502 -0.00000000000E+00 -0.00000000000E+00 -0.24358542191E+02  0.24358542191E+02  0.00000000000E+00 0. -1.
         21    1    1    2  503  502  0.54759810895E+01  0.59146945431E+02  0.38947894481E+02  0.71030176737E+02  0.00000000000E+00 0. -1.
         21    1    1    2  504  506 -0.49987652243E+02 -0.86645918118E+01  0.98338276484E+03  0.98469056191E+03  0.00000000000E+00 0. -1.
         21    1    1    2  505  501  0.48027931404E+01  0.43696539226E+02  0.24287535750E+03  0.24682158262E+03  0.00000000000E+00 0. -1.
         21    1    1    2  506  503  0.39708878013E+02 -0.94178892845E+02  0.45326140865E+03  0.46464218860E+03  0.00000000000E+00 0. -1.
<scales pt_clust_3="14000.00000" pt_clust_4="50.94019" pt_clust_5="43.95969" pt_clust_6="62.89846"></scales>
<clustering>
<clus scale="   43.960">  1  5  2 -1</clus>
<clus scale="   50.940">  1  4  2 -1</clus>
<clus scale="   62.898">  1  6  2 -1</clus>
<clus scale="   43.960">  1  3  2 -1</clus>
</clustering>
</event>
<event>
 6    0  0.1361919E+003  0.9311719E+02  0.7546771E-02  0.1295474E+00
         21   -1    0    0  505  501  0.00000000000E+00  0.00000000000E+00  0.14497888073E+03  0.14497888073E+03  0.00000000000E+00 0.  1.
         21   -1    0    0  504  502 -0.00000000000E+00 -0.00000000000E+00 -0.54978038564E+03  0.54978038564E+03  0.00000000000E+00 0.  1.
         21    1    1    2  503  501  0.19413971131E+02 -0.61048606879E+02 -0.41129174548E+02  0.76127811448E+02  0.00000000000E+00 0.  1.
         21    1    1    2  504  506 -0.10100610968E+03 -0.34989179928E+01 -0.57695601005E+02  0.11637550857E+03  0.00000000000E+00 0.  1.
         21    1    1    2  505  502  0.10164001275E+02  0.71341718531E+02 -0.38721803631E+03  0.39386641818E+03  0.00000000000E+00 0.  1.
         21    1    1    2  506  503  0.71428137275E+02 -0.67941936596E+01  0.81241306957E+02  0.10838952818E+03  0.00000000000E+00 0.  1.
<scales pt_clust_3="64.06118" pt_clust_4="93.11719" pt_clust_5="70.56124" pt_clust_6="14000.00000"></scales>
<clustering>
<clus scale="   64.061">  1  3  2 -1</clus>
<clus scale="   70.561">  2  5  1 -1</clus>
<clus scale="   93.117">  2  4  1 -1</clus>
<clus scale="   64.061">  1  3  2 -1</clus>
</clustering>
</event>
<event>
 6    0  0.1361919E+003  0.1004649E+03  0.7546771E-02  0.1279321E+00
         21   -1    0    0  504  501  0.00000000000E+00  0.00000000000E+00  0.54734107013E+03  0.54734107013E+03  0.00000000000E+00 0.  1.
         21   -1    0    0  506  502 -0.00000000000E+00 -0.00000000000E+00 -0.93929766156E+03  0.93929766156E+03  0.00000000000E+00 0. -1.
         21    1    1    2  503  502 -0.66412314093E+02 -0.45971738453E+01 -0.99015825897E+02  0.11931413683E+03  0.00000000000E+00 0. -1.
         21    1    1    2  504  503 -0.30103917412E+02 -0.29027854855E+02  0.47959229400E+03  0.48141212143E+03  0.00000000000E+00 0.  1.
         21    1    1    2  505  501  0.13872058224E+03  0.41936378131E+02 -0.37596598537E+02  0.14971828201E+03  0.00000000000E+00 0. -1.
         21    1    1    2  506  505 -0.42204350734E+02 -0.83113494305E+01 -0.73493646100E+03  0.73619419141E+03  0.00000000000E+00 0. -1.
<scales pt_clust_3="14000.00000" pt_clust_4="41.81940" pt_clust_5="100.46488" pt_clust_6="43.34614"></scales>
<clustering>
<clus scale="   41.819">  1  4  2 -1</clus>
<clus scale="   43.346">  2  6  1 -1</clus>
<clus scale="  100.465">  1  5  2 -1</clus>
<clus scale="   41.819">  1  3  2 -1</clus>
</clustering>
</event>
<event>
 6    0  0.1361919E+003  0.8859525E+02  0.7546771E-02  0.1306290E+00
         21   -1    0    0  503  501  0.00000000000E+00  0.00000000000E+00  0.69435637816E+02  0.69435637816E+02  0.00000000000E+00 0.  1.
         21   -1    0    0  501  502 -0.00000000000E+00 -0.00000000000E+00 -0.70105085500E+03  0.70105085500E+03  0.00000000000E+00 0.  1.
         21    1    1    2  503  505  0.36305749862E+02  0.74393111072E+01  0.30100318630E+02  0.47743900180E+02  0.00000000000E+00 0.  1.
         21    1    1    2  504  506 -0.89245784160E+02 -0.56254236393E+02 -0.12728959983E+03  0.16532389823E+03  0.00000000000E+00 0.  1.
         21    1    1    2  505  504 -0.29519676399E+02  0.24614130663E+02 -0.39598855387E+02  0.55184563702E+02  0.00000000000E+00 0.  1.
         21    1    1    2  506  502  0.82459710697E+02  0.24200794623E+02 -0.49482708060E+03  0.50223413071E+03  0.00000000000E+00 0.  1.
<scales pt_clust_3="37.06010" pt_clust_4="88.59525" pt_clust_5="33.36103" pt_clust_6="14000.00000"></scales>
<clustering>
<clus scale="   37.060">  1  3  2 -1</clus>
<clus scale="   33.361">  1  5  2 -1</clus>
<clus scale="   88.595">  1  4  2 -1</clus>
<clus scale="   37.060">  1  3  2 -1</clus>
</clustering>
</event>
<event>
 6    0  0.1361919E+003  0.1336028E+03  0.7546771E-02  0.1222206E+00
         21   -1    0    0  505  501  0.00000000000E+00  0.00000000000E+00  0.16495536292E+03  0.16495536292E+03  0.00000000000E+00 0. -1.
         21   -1    0    0  503  502 -0.00000000000E+00 -0.00000000000E+00 -0.56724403521E+03  0.56724403521E+03  0.00000000000E+00 0. -1.
         21    1    1    2  503  501  0.48607336159E+01 -0.79434094960E+02 -0.12923278489E+03  0.15177125836E+03  0.00000000000E+00 0.  1.
         21    1    1    2  504  506 -0.90003609354E+02 -0.53434802296E+02 -0.84459041136E+02  0.13449631007E+03  0.00000000000E+00 0. -1.
         21    1    1    2  505  504  0.13892279028E+03  0.45744296027E+02  0.74119846087E+02  0.16396900275E+03  0.00000000000E+00 0. -1.
         21    1    1    2  506  502 -0.53779914543E+02  0.87124601228E+02 -0.26271669235E+03  0.28196282696E+03  0.00000000000E+00 0. -1.
<scales pt_clust_3="79.58268" pt_clust_4="14000.00000" pt_clust_5="133.60277" pt_clust_6="62.41369"></scales>
<clustering>
<clus scale="   79.583">  2  3  1 -1</clus>
<clus scale="   62.414">  2  6  1 -1</clus>
<clus scale="  133.603">  1  5  2 -1</clus>
<clus scale="  133.603">  1  3  2 -1</clus>
</clustering>
</event>
<event>
 6    0  0.1361919E+003  0.1363175E+03  0.7546771E-02  0.1218372E+00
         21   -1    0    0  504  501  0.00000000000E+00  0.00000000000E+00  0.90694131119E+02  0.90694131119E+02  0.00000000000E+00 0. -1.
         21   -1    0    0  506  502 -0.00000000000E+00 -0.00000000000E+00 -0.15682474001E+04  0.15682474001E+04  0.00000000000E+00 0.  1.
         21    1    1    2  503  502 -0.42649806355E+02  0.28143847955E+02 -0.65765375850E+03  0.65963592097E+03  0.00000000000E+00 0.  1.
         21    1    1    2  504  503 -0.29900838994E+02  0.80184984629E+02 -0.83406179461E+03  0.83844067719E+03  0.00000000000E+00 0.  1.
         21    1    1    2  505  501  0.54355467683E+02 -0.47196819773E+01 -0.10863758081E+01  0.54570802426E+02  0.00000000000E+00 0. -1.
         21    1    1    2  506  505  0.18195177666E+02 -0.10360915061E+03  0.15248659933E+02  0.10629413064E+03  0.00000000000E+00 0. -1.
<scales pt_clust_3="34.72493" pt_clust_4="34.72493" pt_clust_5="54.55999" pt_clust_6="128.69729"></scales>
<clustering>
<clus scale="   34.725">  3  4 -1 -1</clus>
<clus scale="   54.560">  1  5  2 -1</clus>
<clus scale="  128.697">  1  6  2 -1</clus>
<clus scale="   54.560">  1  3  2 -1</clus>
</clustering>
</event>
<event>
 6    0  0.1361919E+003  0.8115581E+02  0.7546771E-02  0.1325803E+00
         21   -1    0    0  505  501  0.00000000000E+00  0.00000000000E+00  0.29156020588E+03  0.29156020588E+03  0.00000000000E+00 0. -1.
         21   -1    0    0  504  502 -0.00000000000E+00 -0.00000000000E+00 -0.22048134428E+03  0.22048134428E+03  0.00000000000E+00 0.  1.
         21    1    1    2  503  502 -0.16417856505E+02 -0.52471991776E+02 -0.11271608065E+03  0.12541040934E+03  0.00000000000E+00 0.  1.
         21    1    1    2  504  501  0.19425820233E+02 -0.23194245505E+02  0.16867817891E+03  0.17136996106E+03  0.00000000000E+00 0. -1.
         21    1    1    2  505  506 -0.68502173189E+02  0.89496413422E+02  0.66513333570E+02  0.13086702904E+03  0.00000000000E+00 0. -1.
         21    1    1    2  506  503  0.65494209461E+02 -0.13830176142E+02 -0.51396570223E+02  0.84394150720E+02  0.00000000000E+00 0. -1.
<scales pt_clust_3="55.84944" pt_clust_4="30.25451" pt_clust_5="81.15581" pt_clust_6="14000.00000"></scales>
<clustering>
<clus scale="   30.255">  1  4  2 -1</clus>
<clus scale="   55.849">  2  3  1 -1</clus>
<clus scale="   81.156">  1  5  2 -1</clus>
<clus scale="   30.255">  1  3  2 -1</clus>
</clustering>
</event>
<event>
 6    0  0.1361919E+003  0.6526167E+02  0.7546771E-02  0.1376990E+00
         21   -1    0    0  504  501  0.00000000000E+00  0.00000000000E+00  0.76010974877E+03  0.76010974877E+03  0.00000000000E+00 0. -1.
         21   -1    0    0  505  502 -0.00000000000E+00 -0.00000000000E+00 -0.10251056568E+04  0.10251056568E+04  0.00000000000E+00 0. -1.
         21    1    1    2  503  501 -0.61025494362E+02 -0.36343036142E+02  0.48348652138E+03  0.48867590855E+03  0.00000000000E+00 0. -1.
         21    1    1    2  504  506  0.25356504291E+02 -0.18309633062E+02  0.25834670318E+03  0.26023299947E+03  0.00000000000E+00 0. -1.
         21    1    1    2  505  503  0.42459892970E+02 -0.40030982312E+02 -0.56424437029E+02  0.81172896647E+02  0.00000000000E+00 0. -1.
         21    1    1    2  506  502 -0.67909028992E+01  0.94683651517E+02 -0.95040469557E+03  0.95513360092E+03  0.00000000000E+00 0. -1.
<scales pt_clust_3="65.26167" pt_clust_4="31.27611" pt_clust_5="59.12141" pt_clust_6="14000.00000"></scales>
<clustering>
<clus scale="   31.276">  1  4  2 -1</clus>
<clus scale="   59.121">  2  5  1 -1</clus>
<clus scale="   65.262">  1  3  2 -1</clus>
<clus scale="   31.276">  1  3  2 -1</clus>
</clustering>
</event>
<event>
 6    0  0.1361919E+003  0.1800033E+03  0.7546771E-02  0.1167800E+00
         21   -1    0    0  505  501  0.00000000000E+00  0.00000000000E+00  0.11993312430E+03  0.11993312430E+03  0.00000000000E+00 0. -1.
         21   -1    0    0  506  502 -0.00000000000E+00 -0.00000000000E+00 -0.13226560603E+04  0.13226560603E+04  0.00000000000E+00 0. -1.
         21    1    1    2  503  502 -0.13277786706E+02 -0.40470334025E+02 -0.10238821050E+04  0.10247676383E+04  0.00000000000E+00 0. -1.
         21    1    1    2  504  503  0.38771978370E+01  0.41418827400E+02  0.12345506661E+02  0.43393126886E+02  0.00000000000E+00 0.  1.
         21    1    1    2  505  504 -0.69585441524E+02  0.12779760461E+03 -0.21232490298E+02  0.14705502392E+03  0.00000000000E+00 0. -1.
         21    1    1    2  506  501  0.78986030393E+02 -0.12874609798E+03 -0.16995384731E+03  0.22737339545E+03  0.00000000000E+00 0. -1.
<scales pt_clust_3="42.59281" pt_clust_4="30.43330" pt_clust_5="30.43330" pt_clust_6="170.76718"></scales>
<clustering>
<clus scale="   30.433">  4  5 -1 -1</clus>
<clus scale="   42.593">  2  3  1 -1</clus>
<clus scale="  170.767">  2  6  1 -1</clus>
<clus scale="  180.003">  1  3  2 -1</clus>
</clustering>
</event>
<event>
 6    0  0.1361919E+003  0.8059073E+02  0.7546771E-02  0.1327383E+00
         21   -1    0    0  503  501  0.00000000000E+00  0.00000000000E+00  0.11342847315E+04  0.11342847315E+04  0.00000000000E+00 0. -1.
         21   -1    0    0  506  502 -0.00000000000E+00 -0.00000000000E+00 -0.62086013980E+03  0.62086013980E+03  0.00000000000E+00 0. -1.
         21    1    1    2  503  505 -0.38745039699E+02 -0.19291564064E+02  0.40784689091E+03  0.41013708558E+03  0.00000000000E+00 0. -1.
         21    1    1    2  504  501  0.11748599344E+02 -0.33251776117E+02  0.71268374363E+03  0.71355576420E+03  0.00000000000E+00 0. -1.
         21    1    1    2  505  502  0.12951526483E+02  0.11102715293E+03 -0.43526690850E+03  0.44939075687E+03  0.00000000000E+00 0. -1.
         21    1    1    2  506  504  0.14044913871E+02 -0.58483812753E+02 -0.17183913439E+03  0.18206126460E+03  0.00000000000E+00 0. -1.
<scales pt_clust_3="58.37797" pt_clust_4="35.26628" pt_clust_5="14000.00000" pt_clust_6="80.59073"></scales>
<clustering>
<clus scale="   35.266">  1  4  2 -1</clus>
<clus scale="   58.378">  1  3  2 -1</clus>
<clus scale="   80.591">  2  6  1 -1</clus>
<clus scale="   35.266">  1  3  2 -1</clus>
</clustering>
</event>
<event>
 6    0  0.1361919E+003  0.6791141E+02  0.7546771E-02  0.1367343E+00
         21   -1    0    0  506  501  0.00000000000E+00  0.00000000000E+00  0.12957956966E+04  0.12957956966E+04  0.00000000000E+00 0. -1.
         21   -1    0    0  503  502 -0.00000000000E+00 -0.00000000000E+00 -0.21412510787E+03  0.21412510787E+03  0.00000000000E+00 0.  1.
         21    1    1    2  503  505 -0.11662666545E+02 -0.37879504551E+02 -0.46090769774E+02  0.60788434050E+02  0.00000000000E+00 0.  1.
         21    1    1    2  504  502 -0.42050056786E+02  0.38257776057E+02 -0.13121329359E+03  0.14299927664E+03  0.00000000000E+00 0.  1.
         21    1    1    2  505  501  0.74048554497E+02  0.63704950390E+02  0.82838946312E+02  0.12807732100E+03  0.00000000000E+00 0.  1.
         21    1    1    2  506  504 -0.20335831166E+02 -0.64083221896E+02  0.11761357058E+04  0.11780557728E+04  0.00000000000E+00 0. -1.
<scales pt_clust_3="39.63426" pt_clust_4="52.33912" pt_clust_5="14000.00000" pt_clust_6="67.91141"></scales>
<clustering>
<clus scale="   39.634">  2  3  1 -1</clus>
<clus scale="   52.339">  2  4  1 -1</clus>
<clus scale="   67.911">  1  6  2 -1</clus>
<clus scale="   67.911">  1  3  2 -1</clus>
</clustering>
</event>
<event>
 6    0  0.1361919E+003  0.1329017E+03  0.7546771E-02  0.1223212E+00
         21   -1    0    0  503  501  0.00000000000E+00  0.00000000000E+00  0.84600746147E+03  0.84600746147E+03  0.00000000000E+00 0.  1.
         21   -1    0    0  504  502 -0.00000000000E+00 -0.00000000000E+00 -0.14869672642E+03  0.14869672642E+03  0.00000000000E+00 0. -1.
         21    1    1    2  503  506  0.22067875225E+02 -0.26307244665E+02  0.12869951721E+03  0.13320145634E+03  0.00000000000E+00 0. -1.
         21    1    1    2  504  501 -0.57658334133E+02 -0.59760020714E+02  0.54602359986E+03  0.55230201446E+03  0.00000000000E+00 0.  1.
         21    1    1    2  505  502 -0.11983457879E+03  0.52137756529E+02 -0.42344270321E+02  0.13737433952E+03  0.00000000000E+00 0. -1.
         21    1    1    2  506  505  0.15542503770E+03  0.33929508851E+02  0.64931888296E+02  0.17182637758E+03  0.00000000000E+00 0. -1.
<scales pt_clust_3="34.33748" pt_clust_4="89.73047" pt_clust_5="14000.00000" pt_clust_6="132.90175"></scales>
<clustering>
<clus scale="   34.337">  1  3  2 -1</clus>
<clus scale="   89.730">  1  4  2 -1</clus>
<clus scale="  132.902">  1  6  2 -1</clus>
<clus scale="   34.337">  1  3  2 -1</clus>
</clustering>
</event>
<event>
 6    0  0.1361919E+003  0.2739198E+03  0.7546771E-02  0.1099057E+00
         21   -1    0    0  504  501  0.00000000000E+00  0.00000000000E+00  0.30870512541E+03  0.30870512541E+03  0.00000000000E+00 0.  1.
         21   -1    0    0  506  502 -0.00000000000E+00 -0.00000000000E+00 -0.66593182518E+03  0.66593182518E+03  0.00000000000E+00 0.  1.
         21    1    1    2  503  502  0.28399003975E+03  0.63774725769E+02 -0.42355061060E+03  0.51391894114E+03  0.00000000000E+00 0.  1.
         21    1    1    2  504  503 -0.24963245633E+03  0.27390342301E+02  0.16164382359E+03  0.29865585514E+03  0.00000000000E+00 0.  1.
         21    1    1    2  505  501 -0.24969573562E+02 -0.62502101467E+02 -0.57499724524E+01  0.67550384713E+02  0.00000000000E+00 0. -1.
         21    1    1    2  506  505 -0.93880098588E+01 -0.28662966602E+02 -0.89569940310E+02  0.94511769588E+02  0.00000000000E+00 0.  1.
<scales pt_clust_3="14000.00000" pt_clust_4="273.91983" pt_clust_5="69.22761" pt_clust_6="30.16124"></scales>
<clustering>
<clus scale="   30.161">  2  6  1 -1</clus>
<clus scale="   69.228">  1  5  2 -1</clus>
<clus scale="  273.920">  1  4  2 -1</clus>
<clus scale="   69.228">  1  3  2 -1</clus>
</clustering>
</event>
<event>
 6    0  0.1361919E+003  0.1058433E+03  0.7546771E-02  0.1268467E+00
         21   -1    0    0  503  501  0.00000000000E+00  0.00000000000E+00  0.10228791442E+04  0.10228791442E+04  0.00000000000E+00 0.  1.
         21   -1    0    0  504  502 -0.00000000000E+00 -0.00000000000E+00 -0.33707988025E+02  0.33707988025E+02  0.00000000000E+00 0.  1.
         21    1    1    2  503  506 -0.68369175482E+02 -0.12240397684E+02  0.61875130763E+03  0.62263741631E+03  0.00000000000E+00 0.  1.
         21    1    1    2  504  505  0.12773564465E+03  0.20994136062E+02  0.15327607362E+03  0.20062577952E+03  0.00000000000E+00 0.  1.
         21    1    1    2  505  501 -0.46146674737E+02  0.22270234505E+02  0.14193050624E+03  0.15089647953E+03  0.00000000000E+00 0.  1.
         21    1    1    2  506  502 -0.13219794433E+02 -0.31023972883E+02  0.75213268674E+02  0.82427456851E+02  0.00000000000E+00 0.  1.
<scales pt_clust_3="14000.00000" pt_clust_4="105.84334" pt_clust_5="51.25054" pt_clust_6="33.72314"></scales>
<clustering>
<clus scale="   33.723">  2  6  1 -1</clus>
<clus scale="   51.251">  1  5  2 -1</clus>
<clus scale="  105.843">  2  4  1 -1</clus>
<clus scale="   51.251">  1  3  2 -1</clus>
</clustering>
</event>
<event>
 6    0  0.1361919E+003  0.1590407E+03  0.7546771E-02  0.1189784E+00
         21   -1    0    0  504  501  0.00000000000E+00  0.00000000000E+00  0.46820761415E+03  0.46820761415E+03  0.00000000000E+00 0. -1.
         21   -1    0    0  503  502 -0.00000000000E+00 -0.00000000000E+00 -0.11289047359E+04  0.11289047359E+04  0.00000000000E+00 0. -1.
         21    1    1    2  503  501 -0.34921117944E+01 -0.33325536137E+02 -0.24265761038E+02  0.41371649258E+02  0.00000000000E+00 0.  1.
         21    1    1    2  504  506  0.12369328494E+03 -0.98840983097E+02  0.43079356671E+03  0.45896913382E+03  0.00000000000E+00 0. -1.
         21    1    1    2  505  502  0.36328277814E+02 -0.63966718129E+01 -0.86892254218E+02  0.94397696064E+02  0.00000000000E+00 0. -1.
         21    1    1    2  506  505 -0.15652945096E+03  0.13856319105E+03 -0.98033267317E+03  0.10023738709E+04  0.00000000000E+00 0. -1.
<scales pt_clust_3="33.50800" pt_clust_4="159.04066" pt_clust_5="37.18354" pt_clust_6="14000.00000"></scales>
<clustering>
<clus scale="   33.508">  2  3  1 -1</clus>
<clus scale="   37.184">  2  5  1 -1</clus>
<clus scale="  159.041">  1  4  2 -1</clus>
<clus scale="  159.041">  1  3  2 -1</clus>
</clustering>
</event>
<event>
 6    0  0.1361919E+003  0.8260369E+02  0.7546771E-02  0.1321821E+00
         21   -1    0    0  506  501  0.00000000000E+00  0.00000000000E+00  0.14957408810E+02  0.14957408810E+02  0.00000000000E+00 0.  1.
         21   -1    0    0  505  502 -0.00000000000E+00 -0.00000000000E+00 -0.31015062869E+04  0.31015062869E+04  0.00000000000E+00 0. -1.
         21    1    1    2  503  504  0.57074465585E+02  0.59799701757E+02 -0.85057398373E+03  0.85458153546E+03  0.00000000000E+00 0. -1.
         21    1    1    2  504  501  0.37291738215E+02  0.16776256375E+02 -0.13436998396E+03  0.14045429544E+03  0.00000000000E+00 0.  1.
         21    1    1    2  505  503 -0.74730738370E+02  0.24738824937E+02 -0.18167562227E+04  0.18184608507E+04  0.00000000000E+00 0. -1.
         21    1    1    2  506  502 -0.19635465429E+02 -0.10131478307E+03 -0.28484868766E+03  0.30296701410E+03  0.00000000000E+00 0.  1.
<scales pt_clust_3="14000.00000" pt_clust_4="40.89152" pt_clust_5="76.58936" pt_clust_6="82.60369"></scales>
<clustering>
<clus scale="   40.892">  1  4  2 -1</clus>
<clus scale="   76.589">  2  5  1 -1</clus>
<clus scale="   82.604">  1  6  2 -1</clus>
<clus scale="   40.892">  1  3  2 -1</clus>
</clustering>
</event>
<event>
 6    0  0.1361919E+003  0.1302101E+03  0.7546771E-02  0.1227144E+00
         21   -1    0    0  506  501  0.00000000000E+00  0.00000000000E+00  0.17454739878E+03  0.17454739878E+03  0.00000000000E+00 0. -1.
         21   -1    0    0  501  502 -0.00000000000E+00 -0.00000000000E+00 -0.53641745795E+03  0.53641745795E+03  0.00000000000E+00 0.  1.
         21    1    1    2  503  502  0.33302491386E+02 -0.11012116555E+02 -0.24154464645E+03  0.24407814092E+03  0.00000000000E+00 0.  1.
         21    1    1    2  504  503 -0.58660411876E+02 -0.35036981061E+02 -0.18057540748E+03  0.19307022492E+03  0.00000000000E+00 0.  1.
         21    1    1    2  505  504 -0.75572622785E+02 -0.69037235495E+02 -0.14646133939E+02  0.10340150114E+03  0.00000000000E+00 0.  1.
         21    1    1    2  506  505  0.10093054328E+03  0.11508633311E+03  0.74896128714E+02  0.17041498975E+03  0.00000000000E+00 0. -1.
<scales pt_clust_3="35.07596" pt_clust_4="56.31779" pt_clust_5="14000.00000" pt_clust_6="130.21012"></scales>
<clustering>
<clus scale="   35.076">  2  3  1 -1</clus>
<clus scale="   56.318">  2  4  1 -1</clus>
<clus scale="  130.210">  1  6  2 -1</clus>
<clus scale="  130.210">  1  3  2 -1</clus>
</clustering>
</event>
<event>
 6    0  0.1361919E+003  0.9263071E+02  0.7546771E-02  0.1296603E+00
         21   -1    0    0  506  501  0.00000000000E+00  0.00000000000E+00  0.12605638469E+04  0.12605638469E+04  0.00000000000E+00 0.  1.
         21   -1    0    0  503  502 -0.00000000000E+00 -0.00000000000E+00 -0.20323311060E+04  0.20323311060E+04  0.00000000000E+00 0. -1.
         21    1    1    2  503  504 -0.75518180672E+01  0.48241294061E+02 -0.16397583978E+04  0.16404852500E+04  0.00000000000E+00 0. -1.
         21    1    1    2  504  505  0.50105474320E+02 -0.78885198518E+00 -0.14017771100E+03  0.14886561559E+03  0.00000000000E+00 0. -1.
         21    1    1    2  505  501 -0.83671794772E+02  0.40030329391E+02  0.12446334217E+04  0.12480848333E+04  0.00000000000E+00 0.  1.
         21    1    1    2  506  502  0.41118138519E+02 -0.87482771468E+02 -0.23646457211E+03  0.25545925405E+03  0.00000000000E+00 0. -1.
<scales pt_clust_3="48.82881" pt_clust_4="50.27930" pt_clust_5="92.63071" pt_clust_6="14000.00000"></scales>
<clustering>
<clus scale="   48.829">  2  3  1 -1</clus>
<clus scale="   50.279">  2  4  1 -1</clus>
<clus scale="   92.631">  1  5  2 -1</clus>
<clus scale="   92.631">  1  3  2 -1</clus>
</clustering>
</event>
<event>
 6    0  0.1361919E+003  0.9231325E+02  0.7546771E-02  0.1297345E+00
         21   -1    0    0  505  501  0.00000000000E+00  0.00000000000E+00  0.23721648339E+03  0.23721648339E+03  0.00000000000E+00 0.  1.
         21   -1    0    0  503  502 -0.00000000000E+00 -0.00000000000E+00 -0.10150449880E+04  0.10150449880E+04  0.00000000000E+00 0. -1.
         21    1    1    2  503  501  0.61742285769E+02 -0.56976999550E+01  0.18408363401E+03  0.19424561243E+03  0.00000000000E+00 0.  1.
         21    1    1    2  504  506 -0.71634705106E+02 -0.31153312208E+02 -0.11314014617E+03  0.13748728128E+03  0.00000000000E+00 0.  1.
         21    1    1    2  505  504  0.35928998902E+02 -0.24805404819E+02  0.20816238975E+02  0.48368552546E+02  0.00000000000E+00 0. -1.
         21    1    1    2  506  502 -0.26036579565E+02  0.61656416982E+02 -0.86958823139E+03  0.87216002512E+03  0.00000000000E+00 0. -1.
<scales pt_clust_3="92.31325" pt_clust_4="14000.00000" pt_clust_5="43.66006" pt_clust_6="66.69489"></scales>
<clustering>
<clus scale="   43.660">  1  5  2 -1</clus>
<clus scale="   66.695">  2  6  1 -1</clus>
<clus scale="   92.313">  1  3  2 -1</clus>
<clus scale="   43.660">  1  3  2 -1</clus>
</clustering>
</event>
<event>
 6    0  0.1361919E+003  0.9193667E+02  0.7546771E-02  0.1298228E+00
         21   -1    0    0  506  501  0.00000000000E+00  0.00000000000E+00  0.21877652215E+03  0.21877652215E+03  0.00000000000E+00 0. -1.
         21   -1    0    0  504  502 -0.00000000000E+00 -0.00000000000E+00 -0.85461971352E+02  0.85461971352E+02  0.00000000000E+00 0. -1.
         21    1    1    2  503  502  0.88975239846E+02  0.29491382520E+02  0.51492595411E+02  0.10694775515E+03  0.00000000000E+00 0. -1.
         21    1    1    2  504  505 -0.68246884301E+02 -0.65157853034E+02  0.70369846022E+01  0.94618720035E+02  0.00000000000E+00 0. -1.
         21    1    1    2  505  501 -0.32297808414E+02 -0.35642360587E+00  0.30485164877E+02  0.44414195295E+02  0.00000000000E+00 0. -1.
         21    1    1    2  506  503  0.11569452869E+02  0.36022894119E+02  0.44299805913E+02  0.58257823031E+02  0.00000000000E+00 0. -1.
<scales pt_clust_3="14000.00000" pt_clust_4="91.93667" pt_clust_5="32.29978" pt_clust_6="36.00458"></scales>
<clustering>
<clus scale="   32.300">  1  5  2 -1</clus>
<clus scale="   36.005">  1  6  2 -1</clus>
<clus scale="   91.937">  2  4  1 -1</clus>
<clus scale="   32.300">  1  3  2 -1</clus>
</clustering>
</event>
<event>
 6    0  0.1361919E+003  0.8961501E+02  0.7546771E-02  0.1303787E+00
         21   -1    0    0  503  501  0.00000000000E+00  0.00000000000E+00  0.18351990976E+03  0.18351990976E+03  0.00000000000E+00 0. -1.
         21   -1    0    0  506  502 -0.00000000000E+00 -0.00000000000E+00 -0.49043507594E+03  0.49043507594E+03  0.00000000000E+00 0.  1.
         21    1    1    2  503  505  0.32496184393E+02  0.49071857036E+02 -0.30926302235E+02  0.66486730428E+02  0.00000000000E+00 0.  1.
         21    1    1    2  504  501 -0.51197738074E+02  0.73153994058E+02  0.13357143041E+03  0.16066748972E+03  0.00000000000E+00 0. -1.
         21    1    1    2  505  502  0.36898801399E+02  0.42875692332E+01 -0.18245765578E+03  0.18620070071E+03  0.00000000000E+00 0.  1.
         21    1    1    2  506  504 -0.18197247718E+02 -0.12651342033E+03 -0.22710263858E+03  0.26060006484E+03  0.00000000000E+00 0.  1.
<scales pt_clust_3="62.82934" pt_clust_4="89.61501" pt_clust_5="37.14707" pt_clust_6="14000.00000"></scales>
<clustering>
<clus scale="   37.147">  2  5  1 -1</clus>
<clus scale="   62.829">  2  3  1 -1</clus>
<clus scale="   89.615">  1  4  2 -1</clus>
<clus scale="   89.615">  1  3  2 -1</clus>
</clustering>
</event>
<event>
 6    0  0.1361919E+003  0.1071394E+03  0.7546771E-02  0.1265961E+00
         21   -1    0    0  504  501  0.00000000000E+00  0.00000000000E+00  0.13290634528E+03  0.13290634528E+03  0.00000000000E+00 0. -1.
         21   -1    0    0  505  502 -0.00000000000E+00 -0.00000000000E+00 -0.59595119407E+03  0.59595119407E+03  0.00000000000E+00 0.  1.
         21    1    1    2  503  506 -0.84723152062E+02  0.25476028318E+02 -0.10080584654E+03  0.13412255295E+03  0.00000000000E+00 0.  1.
         21    1    1    2  504  502 -0.48177662360E+01  0.32763779259E+02 -0.34314556336E+03  0.34473983488E+03  0.00000000000E+00 0.  1.
         21    1    1    2  505  503 -0.21540155275E+02 -0.44451199824E+02 -0.10023505788E+03  0.11174504142E+03  0.00000000000E+00 0.  1.
         21    1    1    2  506  501  0.11108107357E+03 -0.13788607753E+02  0.81141618987E+02  0.13825011010E+03  0.00000000000E+00 0. -1.
<scales pt_clust_3="14000.00000" pt_clust_4="33.11610" pt_clust_5="38.67957" pt_clust_6="107.13938"></scales>
<clustering>
<clus scale="   33.116">  2  4  1 -1</clus>
<clus scale="   38.680">  2  5  1 -1</clus>
<clus scale="  107.139">  1  6  2 -1</clus>
<clus scale="  107.139">  1  3  2 -1</clus>
</clustering>
</event>
<event>
 6    0  0.1361919E+003  0.1430763E+03  0.7546771E-02  0.1209249E+00
         21   -1    0    0  506  501  0.00000000000E+00  0.00000000000E+00  0.89206476234E+03  0.89206476234E+03  0.00000000000E+00 0.  1.
         21   -1    0    0  503  502 -0.00000000000E+00 -0.00000000000E+00 -0.15784110265E+04  0.15784110265E+04  0.00000000000E+00 0.  1.
         21    1    1    2  503  501 -0.97192902490E+01 -0.21008813731E+03  0.68894869020E+03  0.72033449715E+03  0.00000000000E+00 0.  1.
         21    1    1    2  504  502  0.20823237760E+02  0.35661567031E+02 -0.51062655929E+03  0.51229370252E+03  0.00000000000E+00 0.  1.
         21    1    1    2  505  504 -0.51439057454E+02  0.10428840187E+03 -0.10390886564E+04  0.10455750969E+04  0.00000000000E+00 0.  1.
         21    1    1    2  506  505  0.40335109943E+02  0.70138168412E+02  0.17442026127E+03  0.19227249232E+03  0.00000000000E+00 0.  1.
<scales pt_clust_3="143.07629" pt_clust_4="41.29594" pt_clust_5="14000.00000" pt_clust_6="81.25458"></scales>
<clustering>
<clus scale="   41.296">  2  4  1 -1</clus>
<clus scale="   81.255">  1  6  2 -1</clus>
<clus scale="  143.076">  1  3  2 -1</clus>
<clus scale="   81.255">  1  3  2 -1</clus>
</clustering>
</event>
<event>
 6    0  0.1361919E+003  0.1428369E+03  0.7546771E-02  0.1209562E+00
         21   -1    0    0  503  501  0.00000000000E+00  0.00000000000E+00  0.13969080609E+04  0.13969080609E+04  0.00000000000E+00 0.  1.
         21   -1    0    0  506  502 -0.00000000000E+00 -0.00000000000E+00 -0.44162610153E+03  0.44162610153E+03  0.00000000000E+00 0.  1.
         21    1    1    2  503  502  0.95850118287E+02  0.23978347115E+02  0.12171600916E+04  0.12211637462E+04  0.00000000000E+00 0.  1.
         21    1    1    2  504  501 -0.16425942428E+02  0.10638786799E+03  0.14280423468E+03  0.17883299327E+03  0.00000000000E+00 0. -1.
         21    1    1    2  505  504 -0.88669070377E+02 -0.98706123540E+02 -0.28463593359E+03  0.31404254100E+03  0.00000000000E+00 0.  1.
         21    1    1    2  506  505  0.92448945182E+01 -0.31660091560E+02 -0.12004643337E+03  0.12449488197E+03  0.00000000000E+00 0.  1.
<scales pt_clust_3="98.81215" pt_clust_4="14000.00000" pt_clust_5="142.83690" pt_clust_6="32.98226"></scales>
<clustering>
<clus scale="   32.982">  2  6  1 -1</clus>
<clus scale="   98.812">  1  3  2 -1</clus>
<clus scale="  142.837">  2  5  1 -1</clus>
<clus scale="   98.812">  1  3  2 -1</clus>
</clustering>
</event>
<event>
 6    0  0.1361919E+003  0.9683566E+02  0.7546771E-02  0.1287094E+00
         21   -1    0    0  503  501  0.00000000000E+00  0.00000000000E+00  0.13685368725E+04  0.13685368725E+04  0.00000000000E+00 0.  1.
         21   -1    0    0  505  502 -0.00000000000E+00 -0.00000000000E+00 -0.14007870136E+03  0.14007870136E+03  0.00000000000E+00 0. -1.
         21    1    1    2  503  506 -0.85210479444E+02 -0.45443951569E+02  0.11591146862E+04  0.11631306179E+04  0.00000000000E+00 0.  1.
         21    1    1    2  504  502 -0.30222572985E+02  0.11872726013E+02 -0.10310673158E+03  0.10809886048E+03  0.00000000000E+00 0. -1.
         21    1    1    2  505  501  0.73661708407E+02  0.73293073116E+02  0.94644410313E+02  0.14055421109E+03  0.00000000000E+00 0.  1.
         21    1    1    2  506  504  0.41771344022E+02 -0.39721847560E+02  0.77805806228E+02  0.96831884406E+02  0.00000000000E+00 0.  1.
<scales pt_clust_3="96.83566" pt_clust_4="32.47100" pt_clust_5="14000.00000" pt_clust_6="49.45694"></scales>
<clustering>
<clus scale="   32.471">  2  4  1 -1</clus>
<clus scale="   49.457">  2  6  1 -1</clus>
<clus scale="   96.836">  1  3  2 -1</clus>
<clus scale="   96.836">  1  3  2 -1</clus>
</clustering>
</event>
<event>
 6    0  0.1361919E+003  0.8408590E+02  0.7546771E-02  0.1317840E+00
         21   -1    0    0  503  501  0.00000000000E+00  0.00000000000E+00  0.70487830144E+03  0.70487830144E+03  0.00000000000E+00 0.  1.
         21   -1    0    0  505  502 -0.00000000000E+00 -0.00000000000E+00 -0.45690399236E+02  0.45690399236E+02  0.00000000000E+00 0.  1.
         21    1    1    2  503  504  0.50948555045E+02 -0.74835748772E+02  0.25115179791E+03  0.26697072902E+03  0.00000000000E+00 0.  1.
         21    1    1    2  504  506 -0.50913864781E+02  0.66275100024E+02  0.73748549540E+02  0.11146057182E+03  0.00000000000E+00 0.  1.
         21    1    1    2  505  501  0.32535892523E+02  0.44152308836E+02  0.31571068603E+03  0.32043914859E+03  0.00000000000E+00 0.  1.
         21    1    1    2  506  502 -0.32570582786E+02 -0.35591660088E+02  0.18576868719E+02  0.51698251250E+02  0.00000000000E+00 0.  1.
<scales pt_clust_3="84.08590" pt_clust_4="14000.00000" pt_clust_5="50.95332" pt_clust_6="48.24530"></scales>
<clustering>
<clus scale="   48.245">  2  6  1 -1</clus>
<clus scale="   50.953">  1  5  2 -1</clus>
<clus scale="   84.086">  1  3  2 -1</clus>
<clus scale="   50.953">  1  3  2 -1</clus>
</clustering>
</event>
<event>
 6    0  0.1361919E+003  0.8740880E+02  0.7546771E-02  0.1309251E+00
         21   -1    0    0  505  501  0.00000000000E+00  0.00000000000E+00  0.11916071763E+03  0.11916071763E+03  0.00000000000E+00 0. -1.
         21   -1    0    0  506  502 -0.00000000000E+00 -0.00000000000E+00 -0.24040620673E+03  0.24040620673E+03  0.00000000000E+00 0. -1.
         21    1    1    2  503  501 -0.15324287565E+02  0.35290489438E+02  0.38239565093E+02  0.54244970021E+02  0.00000000000E+00 0. -1.
         21    1    1    2  504  502  0.12143109070E+03 -0.35374987607E+02 -0.65508984223E+02  0.14243709682E+03  0.00000000000E+00 0. -1.
         21    1    1    2  505  504 -0.63787871063E+02  0.24255899949E+01 -0.46373421585E+01  0.64002194680E+02  0.00000000000E+00 0. -1.
         21    1    1    2  506  503 -0.42318932068E+02 -0.23410918255E+01 -0.89338727820E+02  0.98882662842E+02  0.00000000000E+00 0. -1.
<scales pt_clust_3="38.47405" pt_clust_4="87.40880" pt_clust_5="14000.00000" pt_clust_6="43.32180"></scales>
<clustering>
<clus scale="   38.474">  1  3  2 -1</clus>
<clus scale="   43.322">  2  6  1 -1</clus>
<clus scale="   87.409">  2  4  1 -1</clus>
<clus scale="   38.474">  1  3  2 -1</clus>
</clustering>
</event>
<event>
 6    0  0.1361919E+003  0.1933514E+03  0.7546771E-02  0.1155473E+00
         21   -1    0    0  503  501  0.00000000000E+00  0.00000000000E+00  0.11896060715E+04  0.11896060715E+04  0.00000000000E+00 0.  1.
         21   -1    0    0  505  502 -0.00000000000E+00 -0.00000000000E+00 -0.36484347364E+03  0.36484347364E+03  0.00000000000E+00 0. -1.
         21    1    1    2  503  504  0.24319859459E+02 -0.44511675838E+02  0.96222332709E+03  0.96355927480E+03  0.00000000000E+00 0.  1.
         21    1    1    2  504  502 -0.18747954144E+03  0.10730065423E+03 -0.27456693432E+03  0.34935513490E+03  0.00000000000E+00 0. -1.
         21    1    1    2  505  506  0.23351125557E+01 -0.30822869674E+02  0.57579039917E+01  0.31442892742E+02  0.00000000000E+00 0.  1.
         21    1    1    2  506  501  0.16082456942E+03 -0.31966108719E+02  0.13134830107E+03  0.21009224267E+03  0.00000000000E+00 0.  1.
<scales pt_clust_3="50.77569" pt_clust_4="14000.00000" pt_clust_5="30.91120" pt_clust_6="193.35136"></scales>
<clustering>
<clus scale="   30.911">  2  5  1 -1</clus>
<clus scale="   50.776">  1  3  2 -1</clus>
<clus scale="  193.351">  1  6  2 -1</clus>
<clus scale="   50.776">  1  3  2 -1</clus>
</clustering>
</event>
<event>
 6    0  0.1361919E+003  0.1451063E+03  0.7546771E-02  0.1206619E+00
         21   -1    0    0  505  501  0.00000000000E+00  0.00000000000E+00  0.70211679063E+03  0.70211679063E+03  0.00000000000E+00 0. -1.
         21   -1    0    0  506  502 -0.00000000000E+00 -0.00000000000E+00 -0.20048284114E+03  0.20048284114E+03  0.00000000000E+00 0. -1.
         21    1    1    2  503  502  0.14878092582E+02 -0.43741663537E+02 -0.14124170586E+03  0.14860656191E+03  0.00000000000E+00 0. -1.
         21    1    1    2  504  501  0.37439141719E+02  0.40320619118E+01  0.28989193154E+03  0.29232734875E+03  0.00000000000E+00 0. -1.
         21    1    1    2  505  503  0.11495468223E+03 -0.25772026800E+02  0.14604230878E+03  0.18763563704E+03  0.00000000000E+00 0. -1.
         21    1    1    2  506  504 -0.16727191653E+03  0.65481628425E+02  0.20694141504E+03  0.27403008408E+03  0.00000000000E+00 0. -1.
<scales pt_clust_3="46.27770" pt_clust_4="37.65564" pt_clust_5="145.10631" pt_clust_6="14000.00000"></scales>
<clustering>
<clus scale="   37.656">  1  4  2 -1</clus>
<clus scale="   46.278">  2  3  1 -1</clus>
<clus scale="  145.106">  1  5  2 -1</clus>
<clus scale="   37.656">  1  3  2 -1</clus>
</clustering>
</event>
<event>
 6    0  0.1361919E+003  0.1565842E+03  0.7546771E-02  0.1192608E+00
         21   -1    0    0  506  501  0.00000000000E+00  0.00000000000E+00  0.50110671747E+03  0.50110671747E+03  0.00000000000E+00 0.  1.
         21   -1    0    0  505  502 -0.00000000000E+00 -0.00000000000E+00 -0.13743913411E+03  0.13743913411E+03  0.00000000000E+00 0.  1.
         21    1    1    2  503  502 -0.12279669519E+02 -0.32431945218E+02 -0.41221593161E+02  0.53868739514E+02  0.00000000000E+00 0. -1.
         21    1    1    2  504  503 -0.86009736981E+02 -0.98728842598E+02  0.36415867654E+02  0.13590869962E+03  0.00000000000E+00 0.  1.
         21    1    1    2  505  501  0.15514236930E+03  0.10730906728E+03  0.23198157151E+03  0.29899806052E+03  0.00000000000E+00 0.  1.
         21    1    1    2  506  504 -0.56852962802E+02  0.23851720540E+02  0.13649173735E+03  0.14977035193E+03  0.00000000000E+00 0. -1.
<scales pt_clust_3="34.67883" pt_clust_4="14000.00000" pt_clust_5="156.58421" pt_clust_6="61.61642"></scales>
<clustering>
<clus scale="   34.679">  2  3  1 -1</clus>
<clus scale="   61.616">  1  6  2 -1</clus>
<clus scale="  156.584">  1  5  2 -1</clus>
<clus scale="   61.616">  1  3  2 -1</clus>
</clustering>
</event>
<event>
 6    0  0.1361919E+003  0.9719823E+02  0.7546771E-02  0.1286300E+00
         21   -1    0    0  504  501  0.00000000000E+00  0.00000000000E+00  0.37624937682E+03  0.37624937682E+03  0.00000000000E+00 0.  1.
         21   -1    0    0  506  502 -0.00000000000E+00 -0.00000000000E+00 -0.11849538133E+04  0.11849538133E+04  0.00000000000E+00 0.  1.
         21    1    1    2  503  505  0.34845436615E+02  0.70386829515E+02 -0.24098020816E+03  0.25345605329E+03  0.00000000000E+00 0.  1.
         21    1    1    2  504  503  0.46546753567E+02 -0.62489266730E+02  0.34392067618E+03  0.35263712259E+03  0.00000000000E+00 0.  1.
         21    1    1    2  505  502 -0.91703640318E+02 -0.63718570900E+02 -0.88567366568E+03  0.89268553030E+03  0.00000000000E+00 0.  1.
         21    1    1    2  506  501  0.10311450135E+02  0.55821008114E+02 -0.25971238823E+02  0.62424483952E+02  0.00000000000E+00 0.  1.
<scales pt_clust_3="97.19823" pt_clust_4="57.16691" pt_clust_5="14000.00000" pt_clust_6="56.76540"></scales>
<clustering>
<clus scale="   56.765">  1  6  2 -1</clus>
<clus scale="   57.167">  1  4  2 -1</clus>
<clus scale="   97.198">  1  3  2 -1</clus>
<clus scale="   56.765">  1  3  2 -1</clus>
</clustering>
</event>
<event>
 6    0  0.1361919E+003  0.1111662E+03  0.7546771E-02  0.1258425E+00
         21   -1    0    0  506  501  0.00000000000E+00  0.00000000000E+00  0.10337654303E+04  0.10337654303E+04  0.00000000000E+00 0.  1.
         21   -1    0    0  505  502 -0.00000000000E+00 -0.00000000000E+00 -0.84629262730E+03  0.84629262730E+03  0.00000000000E+00 0. -1.
         21    1    1    2  503  502  0.12452435872E+01  0.34196653864E+02 -0.72231938498E+03  0.72312948749E+03  0.00000000000E+00 0. -1.
         21    1    1    2  504  503  0.62752982322E+02 -0.18009109035E+02  0.49975448630E+02  0.82218065316E+02  0.00000000000E+00 0.  1.
         21    1    1    2  505  501  0.44870691643E+02 -0.72864982917E+02 -0.85789738952E+02  0.12117163040E+03  0.00000000000E+00 0. -1.
         21    1    1    2  506  504 -0.10886891755E+03  0.56677438087E+02  0.94560647826E+03  0.95353887437E+03  0.00000000000E+00 0.  1.
<scales pt_clust_3="34.21932" pt_clust_4="14000.00000" pt_clust_5="63.75040" pt_clust_6="111.16622"></scales>
<clustering>
<clus scale="   34.219">  2  3  1 -1</clus>
<clus scale="   63.750">  2  5  1 -1</clus>
<clus scale="  111.166">  1  6  2 -1</clus>
<clus scale="  111.166">  1  3  2 -1</clus>
</clustering>
</event>
<event>
 6    0  0.1361919E+003  0.7092947E+02  0.7546771E-02  0.1356961E+00
         21   -1    0    0  505  501  0.00000000000E+00  0.00000000000E+00  0.81309695858E+03  0.81309695858E+03  0.00000000000E+00 0.  1.
         21   -1    0    0  503  502 -0.00000000000E+00 -0.00000000000E+00 -0.13700500467E+03  0.13700500467E+03  0.00000000000E+00 0.  1.
         21    1    1    2  503  506  0.84873584619E+02  0.54037789108E+02 -0.65316153046E+02  0.11995752526E+03  0.00000000000E+00 0.  1.
         21    1    1    2  504  502 -0.10605398078E+02 -0.55606666196E+02 -0.21498310706E+02  0.60553721248E+02  0.00000000000E+00 0.  1.
         21    1    1    2  505  504 -0.37261725712E+02  0.35073944391E+02  0.36759393544E+03  0.37113867913E+03  0.00000000000E+00 0.  1.
         21    1    1    2  506  501 -0.37006460829E+02 -0.33505067303E+02  0.39531248222E+03  0.39845203762E+03  0.00000000000E+00 0.  1.
<scales pt_clust_3="70.92947" pt_clust_4="58.49541" pt_clust_5="14000.00000" pt_clust_6="49.92061"></scales>
<clustering>
<clus scale="   49.921">  1  6  2 -1</clus>
<clus scale="   58.495">  2  4  1 -1</clus>
<clus scale="   70.929">  2  3  1 -1</clus>
<clus scale="   49.921">  1  3  2 -1</clus>
</clustering>
</event>
<event>
 6    0  0.1361919E+003  0.8346180E+02  0.7546771E-02  0.1319505E+00
         21   -1    0    0  506  501  0.00000000000E+00  0.00000000000E+00  0.21981194700E+03  0.21981194700E+03  0.00000000000E+00 0.  1.
         21   -1    0    0  503  502 -0.00000000000E+00 -0.00000000000E+00 -0.10314001870E+04  0.10314001870E+04  0.00000000000E+00 0.  1.
         21    1    1    2  503  504 -0.24518743248E+02 -0.21282228290E+02 -0.38388973525E+03  0.38526021186E+03  0.00000000000E+00 0.  1.
         21    1    1    2  504  501  0.10965506875E+03  0.25876843654E+02 -0.66815730963E+02  0.13098926309E+03  0.00000000000E+00 0.  1.
         21    1    1    2  505  502 -0.18769807626E+02  0.42707870420E+02 -0.53798730200E+03  0.54000611569E+03  0.00000000000E+00 0.  1.
         21    1    1    2  506  505 -0.66366517880E+02 -0.47302485784E+02  0.17710452825E+03  0.19495654332E+03  0.00000000000E+00 0.  1.
<scales pt_clust_3="32.46694" pt_clust_4="83.46180" pt_clust_5="46.48017" pt_clust_6="14000.00000"></scales>
<clustering>
<clus scale="   32.467">  2  3  1 -1</clus>
<clus scale="   46.480">  2  5  1 -1</clus>
<clus scale="   83.462">  2  4  1 -1</clus>
<clus scale="   83.462">  1  3  2 -1</clus>
</clustering>
</event>
<event>
 6    0  0.1361919E+003  0.1062312E+03  0.7546771E-02  0.1267713E+00
         21   -1    0    0  505  501  0.00000000000E+00  0.00000000000E+00  0.53427878684E+03  0.53427878684E+03  0.00000000000E+00 0. -1.
         21   -1    0    0  506  502 -0.00000000000E+00 -0.00000000000E+00 -0.47328701596E+03  0.47328701596E+03  0.00000000000E+00 0. -1.
         21    1    1    2  503  502 -0.46966344307E+02 -0.94963334828E+02 -0.34945227333E+03  0.36515854611E+03  0.00000000000E+00 0. -1.
         21    1    1    2  504  503 -0.68890213871E+02  0.58847876757E+02  0.37554372454E+03  0.38631855147E+03  0.00000000000E+00 0. -1.
         21    1    1    2  505  504  0.23063392140E+02 -0.35056347847E+02  0.10957556507E+03  0.11733572364E+03  0.00000000000E+00 0.  1.
         21    1    1    2  506  501  0.92793166038E+02  0.71171805918E+02 -0.74675245397E+02  0.13875298158E+03  0.00000000000E+00 0.  1.
<scales pt_clust_3="14000.00000" pt_clust_4="55.14043" pt_clust_5="41.96269" pt_clust_6="106.23119"></scales>
<clustering>
<clus scale="   41.963">  1  5  2 -1</clus>
<clus scale="   55.140">  1  4  2 -1</clus>
<clus scale="  106.231">  1  6  2 -1</clus>
<clus scale="   41.963">  1  3  2 -1</clus>
</clustering>
</event>
<event>
 6    0  0.1361919E+003  0.2353982E+03  0.7546771E-02  0.1122897E+00
         21   -1    0    0  505  501  0.00000000000E+00  0.00000000000E+00  0.87538200785E+03  0.87538200785E+03  0.00000000000E+00 0. -1.
         21   -1    0    0  504  502 -0.00000000000E+00 -0.00000000000E+00 -0.25878049611E+03  0.25878049611E+03  0.00000000000E+00 0. -1.
         21    1    1    2  503  501  0.72150744501E+02  0.49023419227E+02  0.29753814293E+03  0.31006123922E+03  0.00000000000E+00 0. -1.
         21    1    1    2  504  503  0.25426110027E+03  0.56686117651E+02  0.12093899792E+03  0.28720770231E+03  0.00000000000E+00 0. -1.
         21    1    1    2  505  506 -0.25315409633E+03 -0.83735691873E+02  0.30522278718E+03  0.40528954143E+03  0.00000000000E+00 0. -1.
         21    1    1    2  506  502 -0.73257748446E+02 -0.21973845006E+02 -0.10709841629E+03  0.13160402100E+03  0.00000000000E+00 0. -1.
<scales pt_clust_3="83.96031" pt_clust_4="14000.00000" pt_clust_5="235.39818" pt_clust_6="76.48234"></scales>
<clustering>
<clus scale="   76.482">  2  6  1 -1</clus>
<clus scale="   83.960">  1  3  2 -1</clus>
<clus scale="  235.398">  1  5  2 -1</clus>
<clus scale="   83.960">  1  3  2 -1</clus>
</clustering>
</event>
<event>
 6    0  0.1361919E+003  0.9767564E+02  0.7546771E-02  0.1285261E+00
         21   -1    0    0  503  501  0.00000000000E+00  0.00000000000E+00  0.63201471122E+02  0.63201471122E+02  0.00000000000E+00 0. -1.
         21   -1    0    0  506  502 -0.00000000000E+00 -0.00000000000E+00 -0.14860968540E+04  0.14860968540E+04  0.00000000000E+00 0.  1.
         21    1    1    2  503  502 -0.37310178459E+02  0.11197612900E+03 -0.98437219494E+03  0.99142287701E+03  0.00000000000E+00 0.  1.
         21    1    1    2  504  501  0.57263572106E+02 -0.32178618062E+02  0.65951704132E+01  0.66015728607E+02  0.00000000000E+00 0. -1.
         21    1    1    2  505  504 -0.48356267409E+02 -0.68478201699E+02 -0.54373220754E+02  0.99920167338E+02  0.00000000000E+00 0. -1.
         21    1    1    2  506  505  0.28402873762E+02 -0.11319309239E+02 -0.39074513760E+03  0.39193955217E+03  0.00000000000E+00 0.  1.
<scales pt_clust_3="14000.00000" pt_clust_4="66.50803" pt_clust_5="97.67564" pt_clust_6="30.57532"></scales>
<clustering>
<clus scale="   30.575">  2  6  1 -1</clus>
<clus scale="   66.508">  1  4  2 -1</clus>
<clus scale="   97.676">  1  5  2 -1</clus>
<clus scale="   66.508">  1  3  2 -1</clus>
</clustering>
</event>
<event>
 6    0  0.1361919E+003  0.9302192E+02  0.7546771E-02  0.1295694E+00
         21   -1    0    0  505  501  0.00000000000E+00  0.00000000000E+00  0.53150961416E+03  0.53150961416E+03  0.00000000000E+00 0. -1.
         21   -1    0    0  506  502 -0.00000000000E+00 -0.00000000000E+00 -0.41465845587E+03  0.41465845587E+03  0.00000000000E+00 0. -1.
         21    1    1    2  503  502  0.67032018117E+01 -0.51009075605E+02 -0.36932920001E+03  0.37289531599E+03  0.00000000000E+00 0. -1.
         21    1    1    2  504  501 -0.61223424778E+02 -0.20526383446E+02  0.85815164980E+02  0.10739591566E+03  0.00000000000E+00 0.  1.
         21    1    1    2  505  503  0.91795733652E+02  0.71185000524E+02  0.41100965273E+03  0.42710969979E+03  0.00000000000E+00 0. -1.
         21    1    1    2  506  504 -0.37275510686E+02  0.35045852697E+00 -0.10644459416E+02  0.38767138588E+02  0.00000000000E+00 0.  1.
<scales pt_clust_3="58.27351" pt_clust_4="14000.00000" pt_clust_5="93.02192" pt_clust_6="37.27716"></scales>
<clustering>
<clus scale="   37.277">  2  6  1 -1</clus>
<clus scale="   58.274">  2  3  1 -1</clus>
<clus scale="   93.022">  1  5  2 -1</clus>
<clus scale="   93.022">  1  3  2 -1</clus>
</clustering>
</event>
<event>
 6    0  0.1361919E+003  0.1579715E+03  0.7546771E-02  0.1191006E+00
         21   -1    0    0  503  501  0.00000000000E+00  0.00000000000E+00  0.21061612169E+04  0.21061612169E+04  0.00000000000E+00 0. -1.
         21   -1    0    0  505  502 -0.00000000000E+00 -0.00000000000E+00 -0.12963522901E+03  0.12963522901E+03  0.00000000000E+00 0.  1.
         21    1    1    2  503  506 -0.38592941660E+02  0.41343575140E+01  0.31238551564E+03  0.31478757669E+03  0.00000000000E+00 0.  1.
         21    1    1    2  504  502  0.10052899145E+03 -0.73891209212E+02 -0.76163013714E+02  0.14617384711E+03  0.00000000000E+00 0.  1.
         21    1    1    2  505  501 -0.19603943869E+02 -0.65904724789E+02  0.68687721650E+02  0.97189250796E+02  0.00000000000E+00 0.  1.
         21    1    1    2  506  504 -0.42332105920E+02  0.13566157649E+03  0.16716157643E+04  0.16776457713E+04  0.00000000000E+00 0. -1.
<scales pt_clust_3="38.81376" pt_clust_4="157.97150" pt_clust_5="69.10694" pt_clust_6="14000.00000"></scales>
<clustering>
<clus scale="   38.814">  1  3  2 -1</clus>
<clus scale="   69.107">  2  5  1 -1</clus>
<clus scale="  157.971">  2  4  1 -1</clus>
<clus scale="   38.814">  1  3  2 -1</clus>
</clustering>
</event>
<event>
 6    0  0.1361919E+003  0.6348347E+02  0.7546771E-02  0.1383769E+00
         21   -1    0    0  505  501  0.00000000000E+00  0.00000000000E+00  0.35683132077E+03  0.35683132077E+03  0.00000000000E+00 0. -1.
         21   -1    0    0  506  502 -0.00000000000E+00 -0.00000000000E+00 -0.10517822958E+04  0.10517822958E+04  0.00000000000E+00 0. -1.
         21    1    1    2  503  501  0.39267700143E+02  0.22546489710E+02  0.18568380621E+03  0.19112501762E+03  0.00000000000E+00 0. -1.
         21    1    1    2  504  503  0.45592662585E+01 -0.65081881454E+02  0.12568221543E+03  0.14160669997E+03  0.00000000000E+00 0. -1.
         21    1    1    2  505  502 -0.84460489984E+02  0.88955641711E+02 -0.77668209551E+02  0.14518619540E+03  0.00000000000E+00 0. -1.
         21    1    1    2  506  504  0.40633523582E+02 -0.46420249967E+02 -0.92864878713E+03  0.93069570359E+03  0.00000000000E+00 0. -1.
<scales pt_clust_3="45.28020" pt_clust_4="59.18440" pt_clust_5="63.48347" pt_clust_6="14000.00000"></scales>
<clustering>
<clus scale="   45.280">  1  3  2 -1</clus>
<clus scale="   59.184">  1  4  2 -1</clus>
<clus scale="   63.483">  1  5  2 -1</clus>
<clus scale="   45.280">  1  3  2 -1</clus>
</clustering>
</event>
<event>
 6    0  0.1361919E+003  0.8104340E+02  0.7546771E-02  0.1326116E+00
         21   -1    0    0  505  501  0.00000000000E+00  0.00000000000E+00  0.72290832890E+02  0.72290832890E+02  0.00000000000E+00 0. -1.
         21   -1    0    0  504  502 -0.00000000000E+00 -0.00000000000E+00 -0.86663202675E+03  0.86663202675E+03  0.00000000000E+00 0. -1.
         21    1    1    2  503  501 -0.48795722284E+01 -0.52808970200E+02 -0.13245161303E+03  0.14267455048E+03  0.00000000000E+00 0. -1.
         21    1    1    2  504  503 -0.37196750591E+02 -0.15926193177E+01 -0.23703747166E+03  0.23994353015E+03  0.00000000000E+00 0. -1.
         21    1    1    2  505  506  0.48954279347E+02 -0.63260836364E+02  0.30755139253E+02  0.85699086776E+02  0.00000000000E+00 0. -1.
         21    1    1    2  506  502 -0.68779565271E+01  0.11766242588E+03 -0.45560724842E+03  0.47060569224E+03  0.00000000000E+00 0. -1.
<scales pt_clust_3="54.73038" pt_clust_4="37.23083" pt_clust_5="81.04340" pt_clust_6="14000.00000"></scales>
<clustering>
<clus scale="   37.231">  2  4  1 -1</clus>
<clus scale="   54.730">  2  3  1 -1</clus>
<clus scale="   81.043">  1  5  2 -1</clus>
<clus scale="   81.043">  1  3  2 -1</clus>
</clustering>
</event>
<event>
 6    0  0.1660354E+003  0.1001506E+03  0.7546771E-02  0.1279980E+00
         21   -1    0    0  504  501  0.00000000000E+00  0.00000000000E+00  0.19871635460E+04  0.19871635460E+04  0.00000000000E+00 0. -1.
         21   -1    0    0  506  502 -0.00000000000E+00 -0.00000000000E+00 -0.14477572077E+04  0.14477572077E+04  0.00000000000E+00 0.  1.
         21    1    1    2  503  505  0.78582042746E+02  0.19792947410E+02 -0.31265554573E+02  0.86858696238E+02  0.00000000000E+00 0.  1.
         21    1    1    2  504  502 -0.79345902386E+02 -0.37848920485E+02  0.11720662584E+03  0.14651179525E+03  0.00000000000E+00 0. -1.
         21    1    1    2  505  501 -0.21001090602E+02 -0.25374230156E+02  0.18269299003E+04  0.18272267943E+04  0.00000000000E+00 0. -1.
         21    1    1    2  506  503  0.21764950241E+02  0.43430203230E+02 -0.13734646332E+04  0.13743234679E+04  0.00000000000E+00 0.  1.
<scales pt_clust_3="14000.00000" pt_clust_4="100.15063" pt_clust_5="32.93778" pt_clust_6="48.49267"></scales>
<clustering>
<clus scale="   32.938">  1  5  2 -1</clus>
<clus scale="   48.493">  2  6  1 -1</clus>
<clus scale="  100.151">  1  4  2 -1</clus>
<clus scale="   32.938">  1  3  2 -1</clus>
</clustering>
</event>
<event>
 6    0  0.4233471E+003  0.8399966E+02  0.7546771E-02  0.1318069E+00
         21   -1    0    0  505  501  0.00000000000E+00  0.00000000000E+00  0.10559988796E+04  0.10559988796E+04  0.00000000000E+00 0. -1.
         21   -1    0    0  503  502 -0.00000000000E+00 -0.00000000000E+00 -0.46333970786E+03  0.46333970786E+03  0.00000000000E+00 0. -1.
         21    1    1    2  503  504  0.88723449735E+01  0.63805733810E+02  0.13354162110E+03  0.14826751073E+03  0.00000000000E+00 0. -1.
         21    1    1    2  504  501 -0.59907630861E+02  0.58893954712E+02  0.82046739962E+03  0.82475704057E+03  0.00000000000E+00 0. -1.
         21    1    1    2  505  506  0.20526229002E+02 -0.96898947377E+02  0.64756096459E+02  0.11833885291E+03  0.00000000000E+00 0. -1.
         21    1    1    2  506  502  0.30509056885E+02 -0.25800741145E+02 -0.42610594540E+03  0.42797518328E+03  0.00000000000E+00 0. -1.
<scales pt_clust_3="60.47761" pt_clust_4="83.99966" pt_clust_5="14000.00000" pt_clust_6="39.95599"></scales>
<clustering>
<clus scale="   39.956">  2  6  1 -1</clus>
<clus scale="   60.478">  2  3  1 -1</clus>
<clus scale="   84.000">  1  4  2 -1</clus>
<clus scale="   84.000">  1  3  2 -1</clus>
</clustering>
</event>
<event>
 6    0  0.1361919E+003  0.1248180E+03  0.7546771E-02  0.1235354E+00
         21   -1    0    0  504  501  0.00000000000E+00  0.00000000000E+00  0.29926539232E+03  0.29926539232E+03  0.00000000000E+00 0. -1.
         21   -1    0    0  503  502 -0.00000000000E+00 -0.00000000000E+00 -0.35216405134E+03  0.35216405134E+03  0.00000000000E+00 0.  1.
         21    1    1    2  503  506 -0.87886238627E+02 -0.87068675672E+02 -0.28391942148E+03  0.30970176479E+03  0.00000000000E+00 0.  1.
         21    1    1    2  504  505 -0.42297330242E+00 -0.34445624078E+02  0.11975519710E+02  0.36470440041E+02  0.00000000000E+00 0. -1.
         21    1    1    2  505  502 -0.40549280807E+02  0.52681183179E+02  0.65943353077E+02  0.93638010713E+02  0.00000000000E+00 0.  1.
         21    1    1    2  506  501  0.12885849274E+03  0.68833116570E+02  0.15310188967E+03  0.21161922811E+03  0.00000000000E+00 0. -1.
<scales pt_clust_3="124.81804" pt_clust_4="34.44822" pt_clust_5="58.96194" pt_clust_6="14000.00000"></scales>
<clustering>
<clus scale="   34.448">  1  4  2 -1</clus>
<clus scale="   58.962">  1  5  2 -1</clus>
<clus scale="  124.818">  2  3  1 -1</clus>
<clus scale="   34.448">  1  3  2 -1</clus>
</clustering>
</event>
<event>
 6    0  0.1361919E+003  0.1043274E+03  0.7546771E-02  0.1271451E+00
         21   -1    0    0  504  501  0.00000000000E+00  0.00000000000E+00  0.77899123346E+03  0.77899123346E+03  0.00000000000E+00 0.  1.
         21   -1    0    0  503  502 -0.00000000000E+00 -0.00000000000E+00 -0.80501675945E+03  0.80501675945E+03  0.00000000000E+00 0. -1.
         21    1    1    2  503  501  0.74996904126E+02  0.51539346248E+02 -0.34985539564E+03  0.36149638684E+03  0.00000000000E+00 0. -1.
         21    1    1    2  504  506 -0.55608736594E+02 -0.62423021417E+02  0.62963217513E+03  0.63515796550E+03  0.00000000000E+00 0.  1.
         21    1    1    2  505  502 -0.10867017432E+03 -0.64054895203E+02 -0.41125611883E+03  0.43016721361E+03  0.00000000000E+00 0. -1.
         21    1    1    2  506  505  0.89282006790E+02  0.74938570371E+02  0.10545381336E+03  0.15718642695E+03  0.00000000000E+00 0.  1.
<scales pt_clust_3="14000.00000" pt_clust_4="83.60003" pt_clust_5="104.32737" pt_clust_6="43.81203"></scales>
<clustering>
<clus scale="   83.600">  1  4  2 -1</clus>
<clus scale="   43.812">  1  6  2 -1</clus>
<clus scale="  104.327">  1  5  2 -1</clus>
<clus scale="   83.600">  1  3  2 -1</clus>
</clustering>
</event>
<event>
 6    0  0.1361919E+003  0.1302408E+03  0.7546771E-02  0.1227099E+00
         21   -1    0    0  503  501  0.00000000000E+00  0.00000000000E+00  0.39378541931E+03  0.39378541931E+03  0.00000000000E+00 0.  1.
         21   -1    0    0  506  502 -0.00000000000E+00 -0.00000000000E+00 -0.40344306357E+03  0.40344306357E+03  0.00000000000E+00 0. -1.
         21    1    1    2  503  504 -0.87546205762E+02  0.13315373890E+03  0.22725406641E+03  0.27755840291E+03  0.00000000000E+00 0.  1.
         21    1    1    2  504  502 -0.20367934718E+02 -0.98368559056E+02 -0.31929990561E+03  0.33472922773E+03  0.00000000000E+00 0. -1.
         21    1    1    2  505  501  0.31238046120E+02 -0.16491066057E+02  0.98360179000E+02  0.10451074394E+03  0.00000000000E+00 0.  1.
         21    1    1    2  506  505  0.76676094360E+02 -0.18294113785E+02 -0.15971984066E+02  0.80430108296E+02  0.00000000000E+00 0.  1.
<scales pt_clust_3="130.24084" pt_clust_4="14000.00000" pt_clust_5="35.32380" pt_clust_6="82.60558"></scales>
<clustering>
<clus scale="   35.324">  1  5  2 -1</clus>
<clus scale="   82.606">  2  6  1 -1</clus>
<clus scale="  130.241">  1  3  2 -1</clus>
<clus scale="   35.324">  1  3  2 -1</clus>
</clustering>
</event>
<event>
 6    0  0.1361919E+003  0.1709980E+03  0.7546771E-02  0.1176811E+00
         21   -1    0    0  504  501  0.00000000000E+00  0.00000000000E+00  0.94962770146E+02  0.94962770146E+02  0.00000000000E+00 0.  1.
         21   -1    0    0  505  502 -0.00000000000E+00 -0.00000000000E+00 -0.87811883047E+03  0.87811883047E+03  0.00000000000E+00 0. -1.
         21    1    1    2  503  502  0.67562480188E+02 -0.29944843349E+01 -0.15282163737E+03  0.16711705034E+03  0.00000000000E+00 0. -1.
         21    1    1    2  504  506 -0.15280492449E+03 -0.13073350267E+02 -0.16091134066E+00  0.15336323982E+03  0.00000000000E+00 0.  1.
         21    1    1    2  505  501 -0.33508850858E+02 -0.10620536099E+02 -0.59630069861E+02  0.69219824505E+02  0.00000000000E+00 0. -1.
         21    1    1    2  506  503  0.11875129516E+03  0.26688370701E+02 -0.57054344176E+03  0.58338148597E+03  0.00000000000E+00 0. -1.
<scales pt_clust_3="54.57321" pt_clust_4="156.59990" pt_clust_5="35.15166" pt_clust_6="54.57321"></scales>
<clustering>
<clus scale="   35.152">  2  5  1 -1</clus>
<clus scale="   54.573">  3  6 -1 -1</clus>
<clus scale="  156.600">  1  4  2 -1</clus>
<clus scale="  156.600">  1  3  2 -1</clus>
</clustering>
</event>
<event>
 6    0  0.1361919E+003  0.8531042E+02  0.7546771E-02  0.1314623E+00
         21   -1    0    0  506  501  0.00000000000E+00  0.00000000000E+00  0.50630094500E+03  0.50630094500E+03  0.00000000000E+00 0. -1.
         21   -1    0    0  501  502 -0.00000000000E+00 -0.00000000000E+00 -0.45586559622E+03  0.45586559622E+03  0.00000000000E+00 0. -1.
         21    1    1    2  503  502  0.76010700790E+00 -0.35794596017E+02 -0.25372455138E+03  0.25623812917E+03  0.00000000000E+00 0. -1.
         21    1    1    2  504  505 -0.26683509651E+02 -0.70733309827E+02  0.17491792312E+03  0.19055574154E+03  0.00000000000E+00 0. -1.
         21    1    1    2  505  503 -0.16100691309E+02  0.11926853885E+03 -0.17256514573E+03  0.21038760929E+03  0.00000000000E+00 0. -1.
         21    1    1    2  506  504  0.42024093952E+02 -0.12740633008E+02  0.30180712278E+03  0.30498506121E+03  0.00000000000E+00 0. -1.
<scales pt_clust_3="35.80267" pt_clust_4="14000.00000" pt_clust_5="85.31042" pt_clust_6="44.00168"></scales>
<clustering>
<clus scale="   35.803">  2  3  1 -1</clus>
<clus scale="   44.002">  1  6  2 -1</clus>
<clus scale="   85.310">  2  5  1 -1</clus>
<clus scale="   44.002">  1  3  2 -1</clus>
</clustering>
</event>
<event>
 6    0  0.1361919E+003  0.7440069E+02  0.7546771E-02  0.1345737E+00
         21   -1    0    0  505  501  0.00000000000E+00  0.00000000000E+00  0.73474421526E+03  0.73474421526E+03  0.00000000000E+00 0.  1.
         21   -1    0    0  503  502 -0.00000000000E+00 -0.00000000000E+00 -0.99549238328E+02  0.99549238328E+02  0.00000000000E+00 0. -1.
         21    1    1    2  503  504 -0.96057680181E+01 -0.44542213229E+02 -0.60075984832E+02  0.75401614652E+02  0.00000000000E+00 0. -1.
         21    1    1    2  504  501  0.10590072601E+02  0.96850444861E+02  0.97497327426E+02  0.13783282324E+03  0.00000000000E+00 0.  1.
         21    1    1    2  505  506  0.48185070374E+02  0.21493229378E+02  0.41019175882E+03  0.41357108086E+03  0.00000000000E+00 0.  1.
         21    1    1    2  506  502 -0.49169374957E+02 -0.73801461009E+02  0.18758187551E+03  0.20748793483E+03  0.00000000000E+00 0. -1.
<scales pt_clust_3="45.56621" pt_clust_4="74.40069" pt_clust_5="51.36871" pt_clust_6="14000.00000"></scales>
<clustering>
<clus scale="   45.566">  2  3  1 -1</clus>
<clus scale="   51.369">  1  5  2 -1</clus>
<clus scale="   74.401">  2  4  1 -1</clus>
<clus scale="   51.369">  1  3  2 -1</clus>
</clustering>
</event>
<event>
 6    0  0.1361919E+003  0.1127767E+03  0.7546771E-02  0.1255513E+00
         21   -1    0    0  502  501  0.00000000000E+00  0.00000000000E+00  0.31353677282E+03  0.31353677282E+03  0.00000000000E+00 0.  1.
         21   -1    0    0  504  502 -0.00000000000E+00 -0.00000000000E+00 -0.12238175505E+03  0.12238175505E+03  0.00000000000E+00 0.  1.
         21    1    1    2  503  501  0.52495761293E+02  0.24714474332E+02  0.16795073124E+03  0.17769090669E+03  0.00000000000E+00 0.  1.
         21    1    1    2  504  505  0.12812924629E+02 -0.62619621656E+02  0.15578971086E+02  0.65788239025E+02  0.00000000000E+00 0.  1.
         21    1    1    2  505  506 -0.90985913352E+02 -0.67199363154E+01 -0.58692613907E+02  0.10848233451E+03  0.00000000000E+00 0.  1.
         21    1    1    2  506  503  0.25677227430E+02  0.44625083640E+02  0.66317929345E+02  0.83957047655E+02  0.00000000000E+00 0.  1.
<scales pt_clust_3="48.57246" pt_clust_4="63.91704" pt_clust_5="100.29817" pt_clust_6="48.57246"></scales>
<clustering>
<clus scale="   48.572">  3  6 -1 -1</clus>
<clus scale="   63.917">  2  4  1 -1</clus>
<clus scale="  100.298">  2  5  1 -1</clus>
<clus scale="  112.777">  1  3  2 -1</clus>
</clustering>
</event>
<event>
 6    0  0.1361919E+003  0.2161121E+03  0.7546771E-02  0.1136815E+00
         21   -1    0    0  503  501  0.00000000000E+00  0.00000000000E+00  0.23794474510E+03  0.23794474510E+03  0.00000000000E+00 0. -1.
         21   -1    0    0  506  502 -0.00000000000E+00 -0.00000000000E+00 -0.57760045404E+03  0.57760045404E+03  0.00000000000E+00 0. -1.
         21    1    1    2  503  505 -0.57505883274E+02  0.12058030189E+03 -0.31108532718E+03  0.33855666675E+03  0.00000000000E+00 0. -1.
         21    1    1    2  504  501 -0.28397499212E+02 -0.50887876773E+02  0.87438406380E+02  0.10507839395E+03  0.00000000000E+00 0. -1.
         21    1    1    2  505  502  0.34714201540E+02  0.82308507057E+02 -0.17863714961E+03  0.19972730746E+03  0.00000000000E+00 0. -1.
         21    1    1    2  506  504  0.51189180946E+02 -0.15200093217E+03  0.62628361462E+02  0.17218283099E+03  0.00000000000E+00 0. -1.
<scales pt_clust_3="73.28751" pt_clust_4="58.27516" pt_clust_5="73.28751" pt_clust_6="196.12815"></scales>
<clustering>
<clus scale="   58.275">  1  4  2 -1</clus>
<clus scale="   73.288">  3  5 -1 -1</clus>
<clus scale="  196.128">  1  6  2 -1</clus>
<clus scale="   58.275">  1  3  2 -1</clus>
</clustering>
</event>
<event>
 6    0  0.1361919E+003  0.2031371E+03  0.7546771E-02  0.1147119E+00
         21   -1    0    0  504  501  0.00000000000E+00  0.00000000000E+00  0.13598983356E+03  0.13598983356E+03  0.00000000000E+00 0.  1.
         21   -1    0    0  506  502 -0.00000000000E+00 -0.00000000000E+00 -0.16149467564E+04  0.16149467564E+04  0.00000000000E+00 0.  1.
         21    1    1    2  503  502  0.12754145168E+02 -0.16713934483E+03 -0.19058546253E+03  0.25381301648E+03  0.00000000000E+00 0.  1.
         21    1    1    2  504  503 -0.15132574010E+02 -0.59910715722E+02  0.80454968541E+02  0.10144599853E+03  0.00000000000E+00 0.  1.
         21    1    1    2  505  501  0.29281190535E+02  0.20796634323E+03 -0.84118176895E+03  0.86700297373E+03  0.00000000000E+00 0.  1.
         21    1    1    2  506  505 -0.26902761692E+02  0.19083717322E+02 -0.52764465988E+03  0.52867460120E+03  0.00000000000E+00 0.  1.
<scales pt_clust_3="203.13707" pt_clust_4="61.67796" pt_clust_5="14000.00000" pt_clust_6="32.98404"></scales>
<clustering>
<clus scale="   32.984">  2  6  1 -1</clus>
<clus scale="   61.678">  1  4  2 -1</clus>
<clus scale="  203.137">  1  3  2 -1</clus>
<clus scale="   61.678">  1  3  2 -1</clus>
</clustering>
</event>
<event>
 6    0  0.1361919E+003  0.9833576E+02  0.7546771E-02  0.1283835E+00
         21   -1    0    0  504  501  0.00000000000E+00  0.00000000000E+00  0.89480400425E+03  0.89480400425E+03  0.00000000000E+00 0. -1.
         21   -1    0    0  505  502 -0.00000000000E+00 -0.00000000000E+00 -0.16317807745E+03  0.16317807745E+03  0.00000000000E+00 0. -1.
         21    1    1    2  503  501  0.34404502024E+02  0.37198950335E+02  0.64348110697E+03  0.64547297906E+03  0.00000000000E+00 0. -1.
         21    1    1    2  504  506 -0.12073327925E+01 -0.13467119984E+03  0.17101693150E+03  0.21767999582E+03  0.00000000000E+00 0. -1.
         21    1    1    2  505  503  0.93688347911E+01  0.32746672469E+02 -0.10811420869E+03  0.11335255508E+03  0.00000000000E+00 0. -1.
         21    1    1    2  506  502 -0.42566004022E+02  0.64725577039E+02  0.25242097017E+02  0.81476551739E+02  0.00000000000E+00 0. -1.
<scales pt_clust_3="51.24800" pt_clust_4="14000.00000" pt_clust_5="34.06053" pt_clust_6="98.33576"></scales>
<clustering>
<clus scale="   34.061">  2  5  1 -1</clus>
<clus scale="   51.248">  1  3  2 -1</clus>
<clus scale="   98.336">  2  6  1 -1</clus>
<clus scale="   51.248">  1  3  2 -1</clus>
</clustering>
</event>
<event>
 6    0  0.1361919E+003  0.1090534E+03  0.7546771E-02  0.1262333E+00
         21   -1    0    0  504  501  0.00000000000E+00  0.00000000000E+00  0.11209208527E+04  0.11209208527E+04  0.00000000000E+00 0.  1.
         21   -1    0    0  506  502 -0.00000000000E+00 -0.00000000000E+00 -0.54461857413E+03  0.54461857413E+03  0.00000000000E+00 0.  1.
         21    1    1    2  503  501 -0.97255083579E+02 -0.76157355926E+02  0.96888755965E+03  0.97673005349E+03  0.00000000000E+00 0.  1.
         21    1    1    2  504  505  0.99175288516E+02  0.32221527372E+02 -0.42071416510E+03  0.43344477549E+03  0.00000000000E+00 0.  1.
         21    1    1    2  505  502 -0.34850429490E+02 -0.24981316823E+02 -0.98531000607E+02  0.10745685975E+03  0.00000000000E+00 0.  1.
         21    1    1    2  506  503  0.32930224553E+02  0.68917145377E+02  0.12665988458E+03  0.14790773806E+03  0.00000000000E+00 0.  1.
<scales pt_clust_3="109.05342" pt_clust_4="65.96729" pt_clust_5="42.87912" pt_clust_6="14000.00000"></scales>
<clustering>
<clus scale="   42.879">  2  5  1 -1</clus>
<clus scale="   65.967">  2  4  1 -1</clus>
<clus scale="  109.053">  1  3  2 -1</clus>
<clus scale="  109.053">  1  3  2 -1</clus>
</clustering>
</event>
<event>
 6    0  0.1361919E+003  0.7718725E+02  0.7546771E-02  0.1337229E+00
         21   -1    0    0  506  501  0.00000000000E+00  0.00000000000E+00  0.13680245543E+03  0.13680245543E+03  0.00000000000E+00 0. -1.
         21   -1    0    0  503  502 -0.00000000000E+00 -0.00000000000E+00 -0.22628071571E+04  0.22628071571E+04  0.00000000000E+00 0.  1.
         21    1    1    2  503  505  0.62148248015E+02  0.41809282214E+02 -0.19435881910E+04  0.19450309707E+04  0.00000000000E+00 0.  1.
         21    1    1    2  504  502 -0.12103221067E+03 -0.32567717215E+02 -0.28312857342E+03  0.30963081454E+03  0.00000000000E+00 0.  1.
         21    1    1    2  505  501 -0.62271980784E+00 -0.35370689476E+02  0.17806048391E+02  0.39604656460E+02  0.00000000000E+00 0.  1.
         21    1    1    2  506  504  0.59506682464E+02  0.26129124477E+02  0.82906014412E+02  0.10534317078E+03  0.00000000000E+00 0. -1.
<scales pt_clust_3="14000.00000" pt_clust_4="77.18725" pt_clust_5="35.37617" pt_clust_6="59.14907"></scales>
<clustering>
<clus scale="   35.376">  1  5  2 -1</clus>
<clus scale="   59.149">  1  6  2 -1</clus>
<clus scale="   77.187">  1  4  2 -1</clus>
<clus scale="   35.376">  1  3  2 -1</clus>
</clustering>
</event>
<event>
 6    0  0.1361919E+003  0.1418051E+03  0.7546771E-02  0.1210920E+00
         21   -1    0    0  502  501  0.00000000000E+00  0.00000000000E+00  0.84734152989E+03  0.84734152989E+03  0.00000000000E+00 0. -1.
         21   -1    0    0  505  502 -0.00000000000E+00 -0.00000000000E+00 -0.28133613532E+03  0.28133613532E+03  0.00000000000E+00 0.  1.
         21    1    1    2  503  506  0.19864843194E+02 -0.26353055995E+02 -0.21744390050E+02  0.39521058362E+02  0.00000000000E+00 0. -1.
         21    1    1    2  504  501 -0.21275344961E+02  0.41765585709E+02  0.67599894415E+03  0.67762200152E+03  0.00000000000E+00 0. -1.
         21    1    1    2  505  503  0.84892118218E+02 -0.58312321227E+02 -0.22397316582E+03  0.24651770231E+03  0.00000000000E+00 0.  1.
         21    1    1    2  506  504 -0.83481616451E+02  0.42899791513E+02  0.13572400630E+03  0.16501690302E+03  0.00000000000E+00 0.  1.
<scales pt_clust_3="32.51224" pt_clust_4="46.87221" pt_clust_5="32.51224" pt_clust_6="129.65295"></scales>
<clustering>
<clus scale="   32.512">  3  5 -1 -1</clus>
<clus scale="   46.872">  1  4  2 -1</clus>
<clus scale="  129.653">  1  6  2 -1</clus>
<clus scale="   46.872">  1  3  2 -1</clus>
</clustering>
</event>
<event>
 6    0  0.1361919E+003  0.1133113E+03  0.7546771E-02  0.1254558E+00
         21   -1    0    0  503  501  0.00000000000E+00  0.00000000000E+00  0.75980102585E+02  0.75980102585E+02  0.00000000000E+00 0. -1.
         21   -1    0    0  501  502 -0.00000000000E+00 -0.00000000000E+00 -0.52689373918E+03  0.52689373918E+03  0.00000000000E+00 0. -1.
         21    1    1    2  503  506 -0.20492203204E+01  0.12519367115E+03 -0.35711191220E+01  0.12526135674E+03  0.00000000000E+00 0. -1.
         21    1    1    2  504  505 -0.33478699066E+02 -0.15959359543E+02 -0.11047101850E+03  0.11653055555E+03  0.00000000000E+00 0. -1.
         21    1    1    2  505  502  0.17213019528E+02 -0.27117619125E+02 -0.18219097064E+03  0.18500054889E+03  0.00000000000E+00 0. -1.
         21    1    1    2  506  504  0.18314899859E+02 -0.82116692486E+02 -0.15468052833E+03  0.17608138058E+03  0.00000000000E+00 0. -1.
<scales pt_clust_3="14000.00000" pt_clust_4="37.32844" pt_clust_5="32.11936" pt_clust_6="113.31132"></scales>
<clustering>
<clus scale="   32.119">  2  5  1 -1</clus>
<clus scale="   37.328">  2  4  1 -1</clus>
<clus scale="  113.311">  2  6  1 -1</clus>
<clus scale="  113.311">  1  3  2 -1</clus>
</clustering>
</event>
<event>
 6    0  0.1361919E+003  0.1278193E+03  0.7546771E-02  0.1230728E+00
         21   -1    0    0  503  501  0.00000000000E+00  0.00000000000E+00  0.19592217919E+03  0.19592217919E+03  0.00000000000E+00 0. -1.
         21   -1    0    0  506  502 -0.00000000000E+00 -0.00000000000E+00 -0.49847335455E+03  0.49847335455E+03  0.00000000000E+00 0. -1.
         21    1    1    2  503  504  0.10815376876E+03  0.82761506805E+02  0.86948517969E+02  0.16157583199E+03  0.00000000000E+00 0. -1.
         21    1    1    2  504  502 -0.38385556122E+02 -0.30156519279E+02 -0.37060742520E+03  0.37380841375E+03  0.00000000000E+00 0. -1.
         21    1    1    2  505  501 -0.15784720600E+02  0.38877534633E+02  0.19227943179E+02  0.46155540322E+02  0.00000000000E+00 0. -1.
         21    1    1    2  506  505 -0.53983492041E+02 -0.91482522159E+02 -0.38120211313E+02  0.11285574768E+03  0.00000000000E+00 0.  1.
<scales pt_clust_3="14000.00000" pt_clust_4="48.70243" pt_clust_5="41.95974" pt_clust_6="127.81930"></scales>
<clustering>
<clus scale="   41.960">  1  5  2 -1</clus>
<clus scale="   48.702">  2  4  1 -1</clus>
<clus scale="  127.819">  2  6  1 -1</clus>
<clus scale="   41.960">  1  3  2 -1</clus>
</clustering>
</event>
<event>
 6    0  0.1361919E+003  0.9984039E+02  0.7546771E-02  0.1280632E+00
         21   -1    0    0  505  501  0.00000000000E+00  0.00000000000E+00  0.15962283936E+03  0.15962283936E+03  0.00000000000E+00 0.  1.
         21   -1    0    0  503  502 -0.00000000000E+00 -0.00000000000E+00 -0.53441245754E+03  0.53441245754E+03  0.00000000000E+00 0.  1.
         21    1    1    2  503  506  0.31896143906E+02  0.27176702098E+02 -0.35701950580E+03  0.35947025559E+03  0.00000000000E+00 0.  1.
         21    1    1    2  504  502  0.23567200466E+02  0.61397790060E+02  0.53176692040E+02  0.84574595112E+02  0.00000000000E+00 0.  1.
         21    1    1    2  505  504  0.64773113915E+02 -0.50109472140E+01  0.30588667764E+02  0.71807607353E+02  0.00000000000E+00 0.  1.
         21    1    1    2  506  501 -0.12023645829E+03 -0.83563544944E+02 -0.10153547220E+03  0.17818283884E+03  0.00000000000E+00 0. -1.
<scales pt_clust_3="41.90390" pt_clust_4="99.84039" pt_clust_5="68.52906" pt_clust_6="14000.00000"></scales>
<clustering>
<clus scale="   41.904">  2  3  1 -1</clus>
<clus scale="   68.529">  1  5  2 -1</clus>
<clus scale="   99.840">  1  4  2 -1</clus>
<clus scale="   68.529">  1  3  2 -1</clus>
</clustering>
</event>
<event>
 6    0  0.1361919E+003  0.6450950E+02  0.7546771E-02  0.1379826E+00
         21   -1    0    0  503  501  0.00000000000E+00  0.00000000000E+00  0.26668222407E+03  0.26668222407E+03  0.00000000000E+00 0. -1.
         21   -1    0    0  506  502 -0.00000000000E+00 -0.00000000000E+00 -0.11944712418E+03  0.11944712418E+03  0.00000000000E+00 0. -1.
         21    1    1    2  503  505 -0.37372323593E+02  0.27329094854E+01  0.77507375721E+02  0.86090374934E+02  0.00000000000E+00 0. -1.
         21    1    1    2  504  502  0.52451894607E+02  0.88255125133E+01 -0.40864545192E+02  0.67074600057E+02  0.00000000000E+00 0. -1.
         21    1    1    2  505  504  0.53890289495E+02  0.50166427239E+02  0.11909684582E+03  0.14001747179E+03  0.00000000000E+00 0. -1.
         21    1    1    2  506  501 -0.68969860508E+02 -0.61724849238E+02 -0.85045764537E+01  0.92946901469E+02  0.00000000000E+00 0. -1.
<scales pt_clust_3="37.47211" pt_clust_4="50.61294" pt_clust_5="64.50950" pt_clust_6="14000.00000"></scales>
<clustering>
<clus scale="   37.472">  1  3  2 -1</clus>
<clus scale="   50.613">  2  4  1 -1</clus>
<clus scale="   64.509">  1  5  2 -1</clus>
<clus scale="   37.472">  1  3  2 -1</clus>
</clustering>
</event>
<event>
 6    0  0.1361919E+003  0.1255744E+03  0.7546771E-02  0.1234174E+00
         21   -1    0    0  504  501  0.00000000000E+00  0.00000000000E+00  0.38500542162E+03  0.38500542162E+03  0.00000000000E+00 0. -1.
         21   -1    0    0  505  502 -0.00000000000E+00 -0.00000000000E+00 -0.17631517719E+03  0.17631517719E+03  0.00000000000E+00 0. -1.
         21    1    1    2  503  501 -0.18601154296E+02 -0.33521338437E+02  0.20730871760E+03  0.21082359324E+03  0.00000000000E+00 0. -1.
         21    1    1    2  504  502  0.15617104311E+03  0.20149372259E+02  0.23040761765E+02  0.15914229045E+03  0.00000000000E+00 0. -1.
         21    1    1    2  505  506 -0.37091646712E+02 -0.31461001980E+02 -0.57803273556E+02  0.75543387104E+02  0.00000000000E+00 0. -1.
         21    1    1    2  506  503 -0.10047824210E+03  0.44832968157E+02  0.36144038627E+02  0.11581132802E+03  0.00000000000E+00 0. -1.
<scales pt_clust_3="38.33645" pt_clust_4="125.57440" pt_clust_5="50.45023" pt_clust_6="14000.00000"></scales>
<clustering>
<clus scale="   38.336">  1  3  2 -1</clus>
<clus scale="   50.450">  2  5  1 -1</clus>
<clus scale="  125.574">  2  4  1 -1</clus>
<clus scale="   38.336">  1  3  2 -1</clus>
</clustering>
</event>
<event>
 6    0  0.1361919E+003  0.1293448E+03  0.7546771E-02  0.1228431E+00
         21   -1    0    0  504  501  0.00000000000E+00  0.00000000000E+00  0.84363879113E+02  0.84363879113E+02  0.00000000000E+00 0. -1.
         21   -1    0    0  503  502 -0.00000000000E+00 -0.00000000000E+00 -0.63627537458E+03  0.63627537458E+03  0.00000000000E+00 0. -1.
         21    1    1    2  503  501  0.32097060863E+02 -0.13295522031E+03 -0.14929003941E+02  0.13758701640E+03  0.00000000000E+00 0. -1.
         21    1    1    2  504  505 -0.74177168265E+02  0.90264051381E+02 -0.20656908785E+03  0.23731969855E+03  0.00000000000E+00 0. -1.
         21    1    1    2  505  506  0.47804224748E+02  0.12522326526E+02 -0.84344321246E+02  0.97754882700E+02  0.00000000000E+00 0.  1.
         21    1    1    2  506  502 -0.57241173448E+01  0.30168842399E+02 -0.24606908243E+03  0.24797765605E+03  0.00000000000E+00 0. -1.
<scales pt_clust_3="129.34482" pt_clust_4="14000.00000" pt_clust_5="50.42187" pt_clust_6="30.70708"></scales>
<clustering>
<clus scale="   30.707">  2  6  1 -1</clus>
<clus scale="   50.422">  2  5  1 -1</clus>
<clus scale="  129.345">  1  3  2 -1</clus>
<clus scale="  129.345">  1  3  2 -1</clus>
</clustering>
</event>
<event>
 6    0  0.1361919E+003  0.2604597E+03  0.7546771E-02  0.1106867E+00
         21   -1    0    0  503  501  0.00000000000E+00  0.00000000000E+00  0.24273956453E+03  0.24273956453E+03  0.00000000000E+00 0. -1.
         21   -1    0    0  504  502 -0.00000000000E+00 -0.00000000000E+00 -0.71451895233E+03  0.71451895233E+03  0.00000000000E+00 0. -1.
         21    1    1    2  503  506  0.16997740191E+02  0.41422286745E+02 -0.14149809106E+02  0.46956853691E+02  0.00000000000E+00 0. -1.
         21    1    1    2  504  505  0.19858323652E+03 -0.15568864465E+03 -0.47165525692E+03  0.53491395315E+03  0.00000000000E+00 0. -1.
         21    1    1    2  505  501  0.39596377687E+02 -0.34789399258E+02  0.55995707558E+02  0.76900550659E+02  0.00000000000E+00 0. -1.
         21    1    1    2  506  502 -0.25517735440E+03  0.14905575716E+03 -0.41970029331E+02  0.29848715936E+03  0.00000000000E+00 0. -1.
<scales pt_clust_3="44.77420" pt_clust_4="260.45969" pt_clust_5="50.00018" pt_clust_6="14000.00000"></scales>
<clustering>
<clus scale="   44.774">  1  3  2 -1</clus>
<clus scale="   50.000">  1  5  2 -1</clus>
<clus scale="  260.460">  2  4  1 -1</clus>
<clus scale="   44.774">  1  3  2 -1</clus>
</clustering>
</event>
<event>
 6    0  0.1361919E+003  0.1133906E+03  0.7546771E-02  0.1254417E+00
         21   -1    0    0  506  501  0.00000000000E+00  0.00000000000E+00  0.28221819493E+03  0.28221819493E+03  0.00000000000E+00 0.  1.
         21   -1    0    0  504  502 -0.00000000000E+00 -0.00000000000E+00 -0.57563078286E+03  0.57563078286E+03  0.00000000000E+00 0.  1.
         21    1    1    2  503  505  0.64148796641E+02 -0.58378430365E+02  0.14330970527E+03  0.16751352443E+03  0.00000000000E+00 0.  1.
         21    1    1    2  504  501 -0.92573767203E+02  0.79049772812E+02 -0.51213610690E+03  0.52640494009E+03  0.00000000000E+00 0.  1.
         21    1    1    2  505  502  0.63250964560E+02 -0.38411761048E+02 -0.53628986478E+01  0.74195071174E+02  0.00000000000E+00 0.  1.
         21    1    1    2  506  503 -0.34825993998E+02  0.17740418600E+02  0.80776712350E+02  0.89735442096E+02  0.00000000000E+00 0.  1.
<scales pt_clust_3="57.56983" pt_clust_4="113.39064" pt_clust_5="14000.00000" pt_clust_6="39.08417"></scales>
<clustering>
<clus scale="   39.084">  1  6  2 -1</clus>
<clus scale="   57.570">  1  3  2 -1</clus>
<clus scale="  113.391">  2  4  1 -1</clus>
<clus scale="   39.084">  1  3  2 -1</clus>
</clustering>
</event>
<event>
 6    0  0.1361919E+003  0.1944026E+03  0.7546771E-02  0.1154549E+00
         21   -1    0    0  503  501  0.00000000000E+00  0.00000000000E+00  0.12262759048E+03  0.12262759048E+03  0.00000000000E+00 0.  1.
         21   -1    0    0  506  502 -0.00000000000E+00 -0.00000000000E+00 -0.99393183208E+03  0.99393183208E+03  0.00000000000E+00 0.  1.
         21    1    1    2  503  504 -0.95987950526E+02 -0.13435783321E+02  0.35568095044E+02  0.10324386812E+03  0.00000000000E+00 0.  1.
         21    1    1    2  504  505 -0.81134860795E+02  0.62334680104E+01 -0.37447030846E+02  0.89576793193E+02  0.00000000000E+00 0.  1.
         21    1    1    2  505  502  0.19197639254E+03 -0.86591944875E+02 -0.67961978017E+03  0.71150273774E+03  0.00000000000E+00 0.  1.
         21    1    1    2  506  501 -0.14853581215E+02  0.93794260185E+02 -0.18980552563E+03  0.21223602351E+03  0.00000000000E+00 0. -1.
<scales pt_clust_3="69.49185" pt_clust_4="69.49185" pt_clust_5="178.99844" pt_clust_6="94.96311"></scales>
<clustering>
<clus scale="   69.492">  3  4 -1 -1</clus>
<clus scale="   94.963">  2  6  1 -1</clus>
<clus scale="  178.998">  2  5  1 -1</clus>
<clus scale="  194.403">  1  3  2 -1</clus>
</clustering>
</event>
<event>
 6    0  0.1361919E+003  0.1038531E+03  0.7546771E-02  0.1272396E+00
         21   -1    0    0  506  501  0.00000000000E+00  0.00000000000E+00  0.10536225151E+03  0.10536225151E+03  0.00000000000E+00 0.  1.
         21   -1    0    0  505  502 -0.00000000000E+00 -0.00000000000E+00 -0.33228428637E+03  0.33228428637E+03  0.00000000000E+00 0. -1.
         21    1    1    2  503  501 -0.19317563855E+02  0.23994937993E+02 -0.83908564076E+01  0.31926975958E+02  0.00000000000E+00 0.  1.
         21    1    1    2  504  503 -0.10312177432E+03 -0.15233582582E+02 -0.13699989080E+03  0.17214857669E+03  0.00000000000E+00 0. -1.
         21    1    1    2  505  504  0.61343161053E+01  0.34879606988E+02 -0.10172836344E+03  0.10771665028E+03  0.00000000000E+00 0. -1.
         21    1    1    2  506  502  0.11630502207E+03 -0.43640962398E+02  0.20197075793E+02  0.12585433496E+03  0.00000000000E+00 0.  1.
<scales pt_clust_3="30.80463" pt_clust_4="14000.00000" pt_clust_5="36.07152" pt_clust_6="103.85313"></scales>
<clustering>
<clus scale="   30.805">  1  3  2 -1</clus>
<clus scale="   36.072">  2  5  1 -1</clus>
<clus scale="  103.853">  1  6  2 -1</clus>
<clus scale="   30.805">  1  3  2 -1</clus>
</clustering>
</event>
<event>
 6    0  0.1361919E+003  0.1346093E+03  0.7546771E-02  0.1220772E+00
         21   -1    0    0  506  501  0.00000000000E+00  0.00000000000E+00  0.99220978227E+02  0.99220978227E+02  0.00000000000E+00 0.  1.
         21   -1    0    0  503  502 -0.00000000000E+00 -0.00000000000E+00 -0.79517847839E+03  0.79517847839E+03  0.00000000000E+00 0. -1.
         21    1    1    2  503  501 -0.65179585436E+01  0.11181812259E+03 -0.63267219636E+03  0.64251061032E+03  0.00000000000E+00 0. -1.
         21    1    1    2  504  505  0.77539350605E+01 -0.56932042087E+02  0.28291353699E+02  0.64045152972E+02  0.00000000000E+00 0.  1.
         21    1    1    2  505  502  0.52619624383E+02 -0.13362267929E+01 -0.98396486716E+02  0.11159067600E+03  0.00000000000E+00 0.  1.
         21    1    1    2  506  504 -0.53855600900E+02 -0.53549853708E+02  0.68198292170E+01  0.76253017324E+02  0.00000000000E+00 0.  1.
<scales pt_clust_3="118.32367" pt_clust_4="56.61440" pt_clust_5="52.63659" pt_clust_6="56.61440"></scales>
<clustering>
<clus scale="   52.637">  2  5  1 -1</clus>
<clus scale="   56.614">  4  6 -1 -1</clus>
<clus scale="  118.324">  2  3  1 -1</clus>
<clus scale="  134.609">  1  3  2 -1</clus>
</clustering>
</event>
<event>
 6    0  0.1361919E+003  0.1624349E+03  0.7546771E-02  0.1185975E+00
         21   -1    0    0  505  501  0.00000000000E+00  0.00000000000E+00  0.11307980658E+04  0.11307980658E+04  0.00000000000E+00 0.  1.
         21   -1    0    0  503  502 -0.00000000000E+00 -0.00000000000E+00 -0.38990235535E+03  0.38990235535E+03  0.00000000000E+00 0. -1.
         21    1    1    2  503  504  0.38270748147E+02  0.58357533641E+02  0.24176151903E+02  0.73856199585E+02  0.00000000000E+00 0. -1.
         21    1    1    2  504  501 -0.41675771567E+02 -0.76938479538E+02  0.11118136693E+03  0.14148390693E+03  0.00000000000E+00 0. -1.
         21    1    1    2  505  506 -0.93671632912E+02 -0.27366731321E+02  0.94463451215E+03  0.94966187369E+03  0.00000000000E+00 0.  1.
         21    1    1    2  506  502  0.97076656332E+02  0.45947677218E+02 -0.33909632056E+03  0.35569844090E+03  0.00000000000E+00 0. -1.
<scales pt_clust_3="69.78719" pt_clust_4="84.61502" pt_clust_5="162.43491" pt_clust_6="14000.00000"></scales>
<clustering>
<clus scale="   69.787">  2  3  1 -1</clus>
<clus scale="   84.615">  1  4  2 -1</clus>
<clus scale="  162.435">  1  5  2 -1</clus>
<clus scale="   84.615">  1  3  2 -1</clus>
</clustering>
</event>
<event>
 6    0  0.1361919E+003  0.9353625E+02  0.7546771E-02  0.1294507E+00
         21   -1    0    0  504  501  0.00000000000E+00  0.00000000000E+00  0.16732712731E+04  0.16732712731E+04  0.00000000000E+00 0.  1.
         21   -1    0    0  506  502 -0.00000000000E+00 -0.00000000000E+00 -0.35499219921E+02  0.35499219921E+02  0.00000000000E+00 0.  1.
         21    1    1    2  503  502  0.48695471990E+02 -0.62583297768E+02  0.23318136514E+03  0.24629548758E+03  0.00000000000E+00 0.  1.
         21    1    1    2  504  505  0.33447576174E+02  0.35772289672E+02  0.10354114487E+04  0.10365689872E+04  0.00000000000E+00 0.  1.
         21    1    1    2  505  503 -0.46092841772E+02 -0.68211759382E+02  0.27602897374E+03  0.28804407393E+03  0.00000000000E+00 0.  1.
         21    1    1    2  506  501 -0.36050206391E+02  0.95022767478E+02  0.93150265611E+02  0.13786194436E+03  0.00000000000E+00 0.  1.
<scales pt_clust_3="14000.00000" pt_clust_4="48.97343" pt_clust_5="61.01453" pt_clust_6="93.53625"></scales>
<clustering>
<clus scale="   48.973">  1  4  2 -1</clus>
<clus scale="   61.015">  1  5  2 -1</clus>
<clus scale="   93.536">  2  6  1 -1</clus>
<clus scale="   48.973">  1  3  2 -1</clus>
</clustering>
</event>
<event>
 6    0  0.1361919E+003  0.1095791E+03  0.7546771E-02  0.1261351E+00
         21   -1    0    0  505  501  0.00000000000E+00  0.00000000000E+00  0.34345100057E+03  0.34345100057E+03  0.00000000000E+00 0. -1.
         21   -1    0    0  503  502 -0.00000000000E+00 -0.00000000000E+00 -0.28257987727E+03  0.28257987727E+03  0.00000000000E+00 0. -1.
         21    1    1    2  503  506  0.14242332510E+02 -0.38660693539E+02 -0.15301240559E+03  0.15846226530E+03  0.00000000000E+00 0. -1.
         21    1    1    2  504  502  0.59491515004E+02  0.11681844276E+03 -0.65909569240E+02  0.14673057025E+03  0.00000000000E+00 0. -1.
         21    1    1    2  505  504  0.25384454623E+02 -0.32107592380E+02  0.39612895204E+02  0.56960069271E+02  0.00000000000E+00 0. -1.
         21    1    1    2  506  501 -0.99118302136E+02 -0.46050156846E+02  0.24018020293E+03  0.26387797301E+03  0.00000000000E+00 0. -1.
<scales pt_clust_3="41.55996" pt_clust_4="109.57913" pt_clust_5="40.93004" pt_clust_6="14000.00000"></scales>
<clustering>
<clus scale="   40.930">  1  5  2 -1</clus>
<clus scale="   41.560">  2  3  1 -1</clus>
<clus scale="  109.579">  2  4  1 -1</clus>
<clus scale="   40.930">  1  3  2 -1</clus>
</clustering>
</event>
<event>
 6    0  0.1361919E+003  0.7230441E+02  0.7546771E-02  0.1352428E+00
         21   -1    0    0  503  501  0.00000000000E+00  0.00000000000E+00  0.15162123149E+03  0.15162123149E+03  0.00000000000E+00 0.  1.
         21   -1    0    0  506  502 -0.00000000000E+00 -0.00000000000E+00 -0.65474290972E+03  0.65474290972E+03  0.00000000000E+00 0.  1.
         21    1    1    2  503  504  0.95657282327E+02 -0.88433745122E+02  0.61536298568E+02  0.14407483812E+03  0.00000000000E+00 0.  1.
         21    1    1    2  504  502 -0.30444538481E+02  0.33675147221E+02 -0.47333852512E+03  0.47551050969E+03  0.00000000000E+00 0.  1.
         21    1    1    2  505  501 -0.33065709123E+02  0.50928780506E+02  0.25276127784E+02  0.65772064278E+02  0.00000000000E+00 0. -1.
         21    1    1    2  506  505 -0.32147034723E+02  0.38298173953E+01 -0.11659557946E+03  0.12100672912E+03  0.00000000000E+00 0.  1.
<scales pt_clust_3="72.30441" pt_clust_4="14000.00000" pt_clust_5="61.51125" pt_clust_6="32.37436"></scales>
<clustering>
<clus scale="   32.374">  2  6  1 -1</clus>
<clus scale="   61.511">  1  5  2 -1</clus>
<clus scale="   72.304">  1  3  2 -1</clus>
<clus scale="   61.511">  1  3  2 -1</clus>
</clustering>
</event>
<event>
 6    0  0.1361919E+003  0.7241492E+02  0.7546771E-02  0.1352068E+00
         21   -1    0    0  506  501  0.00000000000E+00  0.00000000000E+00  0.47133330670E+03  0.47133330670E+03  0.00000000000E+00 0.  1.
         21   -1    0    0  503  502 -0.00000000000E+00 -0.00000000000E+00 -0.98069373345E+02  0.98069373345E+02  0.00000000000E+00 0. -1.
         21    1    1    2  503  504  0.35312544783E+02 -0.10782447925E+01 -0.22322204924E+02  0.41790181425E+02  0.00000000000E+00 0. -1.
         21    1    1    2  504  505 -0.33748701608E+02  0.60723691323E+02  0.81546081555E+02  0.10712658384E+03  0.00000000000E+00 0.  1.
         21    1    1    2  505  501 -0.69324736245E+02  0.16782304227E+02  0.31017665900E+03  0.31827209205E+03  0.00000000000E+00 0.  1.
         21    1    1    2  506  502  0.67760893070E+02 -0.76427750758E+02  0.38633977262E+01  0.10221382273E+03  0.00000000000E+00 0. -1.
<scales pt_clust_3="35.32900" pt_clust_4="66.22699" pt_clust_5="14000.00000" pt_clust_6="72.41492"></scales>
<clustering>
<clus scale="   35.329">  2  3  1 -1</clus>
<clus scale="   66.227">  2  4  1 -1</clus>
<clus scale="   72.415">  2  6  1 -1</clus>
<clus scale="   72.415">  1  3  2 -1</clus>
</clustering>
</event>
<event>
 6    0  0.1361919E+003  0.1807553E+03  0.7546771E-02  0.1167074E+00
         21   -1    0    0  504  501  0.00000000000E+00  0.00000000000E+00  0.18957885354E+04  0.18957885354E+04  0.00000000000E+00 0. -1.
         21   -1    0    0  505  502 -0.00000000000E+00 -0.00000000000E+00 -0.37462721196E+02  0.37462721196E+02  0.00000000000E+00 0. -1.
         21    1    1    2  503  501 -0.26035816919E+01 -0.57147707432E+02  0.18371525539E+03  0.19241604446E+03  0.00000000000E+00 0. -1.
         21    1    1    2  504  502 -0.14252186012E+03  0.97118815191E+01  0.74268502638E+03  0.75629878332E+03  0.00000000000E+00 0. -1.
         21    1    1    2  505  506  0.38153738789E+02  0.15866979622E+03  0.48385788255E+03  0.51063711432E+03  0.00000000000E+00 0.  1.
         21    1    1    2  506  503  0.10697170302E+03 -0.11123397031E+03  0.44806764988E+03  0.47389931448E+03  0.00000000000E+00 0. -1.
<scales pt_clust_3="45.48625" pt_clust_4="142.85238" pt_clust_5="164.59358" pt_clust_6="45.48625"></scales>
<clustering>
<clus scale="   45.486">  3  6 -1 -1</clus>
<clus scale="  142.852">  1  4  2 -1</clus>
<clus scale="  164.594">  2  5  1 -1</clus>
<clus scale="  142.852">  1  3  2 -1</clus>
</clustering>
</event>
<event>
 6    0  0.1361919E+003  0.1753258E+03  0.7546771E-02  0.1172405E+00
         21   -1    0    0  504  501  0.00000000000E+00  0.00000000000E+00  0.66141709109E+03  0.66141709109E+03  0.00000000000E+00 0.  1.
         21   -1    0    0  503  502 -0.00000000000E+00 -0.00000000000E+00 -0.49196374837E+03  0.49196374837E+03  0.00000000000E+00 0. -1.
         21    1    1    2  503  505  0.74038812844E+02 -0.13083740869E+02 -0.39263707155E+03  0.39977093446E+03  0.00000000000E+00 0. -1.
         21    1    1    2  504  506  0.27504489549E+02 -0.25172808203E+02  0.25297987265E+03  0.25571269657E+03  0.00000000000E+00 0.  1.
         21    1    1    2  505  501 -0.20618622844E+03  0.10015118787E+03  0.29778823719E+03  0.37579363411E+03  0.00000000000E+00 0.  1.
         21    1    1    2  506  502  0.10464292605E+03 -0.61894638795E+02  0.11322304416E+02  0.12210357432E+03  0.00000000000E+00 0. -1.
<scales pt_clust_3="75.46189" pt_clust_4="37.28495" pt_clust_5="175.32575" pt_clust_6="14000.00000"></scales>
<clustering>
<clus scale="   37.285">  1  4  2 -1</clus>
<clus scale="   75.462">  2  3  1 -1</clus>
<clus scale="  175.326">  1  5  2 -1</clus>
<clus scale="   37.285">  1  3  2 -1</clus>
</clustering>
</event>
<event>
 6    0  0.1361919E+003  0.8151534E+02  0.7546771E-02  0.1324805E+00
         21   -1    0    0  503  501  0.00000000000E+00  0.00000000000E+00  0.68466796051E+02  0.68466796051E+02  0.00000000000E+00 0.  1.
         21   -1    0    0  504  502 -0.00000000000E+00 -0.00000000000E+00 -0.10762707303E+04  0.10762707303E+04  0.00000000000E+00 0. -1.
         21    1    1    2  503  506 -0.39345996927E+02  0.36244531194E+02 -0.50470614286E+02  0.73546287616E+02  0.00000000000E+00 0. -1.
         21    1    1    2  504  505 -0.14697327078E+02  0.75161344394E+02 -0.58402940051E+03  0.58902935391E+03  0.00000000000E+00 0. -1.
         21    1    1    2  505  501  0.91202641738E+02 -0.10906440129E+02  0.19875939861E+01  0.91873950749E+02  0.00000000000E+00 0.  1.
         21    1    1    2  506  502 -0.37159317733E+02 -0.10049943546E+03 -0.37529151347E+03  0.39028793410E+03  0.00000000000E+00 0. -1.
<scales pt_clust_3="53.49555" pt_clust_4="81.51534" pt_clust_5="61.75353" pt_clust_6="14000.00000"></scales>
<clustering>
<clus scale="   53.496">  1  3  2 -1</clus>
<clus scale="   61.754">  1  5  2 -1</clus>
<clus scale="   81.515">  2  4  1 -1</clus>
<clus scale="   53.496">  1  3  2 -1</clus>
</clustering>
</event>
<event>
 6    0  0.1361919E+003  0.1631309E+03  0.7546771E-02  0.1185207E+00
         21   -1    0    0  504  501  0.00000000000E+00  0.00000000000E+00  0.18322155765E+04  0.18322155765E+04  0.00000000000E+00 0. -1.
         21   -1    0    0  505  502 -0.00000000000E+00 -0.00000000000E+00 -0.12187653071E+03  0.12187653071E+03  0.00000000000E+00 0. -1.
         21    1    1    2  503  501  0.18831422136E+02  0.34257832466E+02  0.37592689763E+03  0.37795403676E+03  0.00000000000E+00 0. -1.
         21    1    1    2  504  506 -0.19131174737E+03  0.36029408195E+02  0.76129877981E+03  0.78579522465E+03  0.00000000000E+00 0. -1.
         21    1    1    2  505  503  0.13629004981E+03 -0.30780546349E+02  0.66741525446E+03  0.68188381826E+03  0.00000000000E+00 0. -1.
         21    1    1    2  506  502  0.36190275426E+02 -0.39506694313E+02 -0.94301886109E+02  0.10845902754E+03  0.00000000000E+00 0. -1.
<scales pt_clust_3="39.09247" pt_clust_4="163.13089" pt_clust_5="14000.00000" pt_clust_6="53.51649"></scales>
<clustering>
<clus scale="   39.092">  1  3  2 -1</clus>
<clus scale="   53.516">  2  6  1 -1</clus>
<clus scale="  163.131">  2  4  1 -1</clus>
<clus scale="   39.092">  1  3  2 -1</clus>
</clustering>
</event>
<event>
 6    0  0.1361919E+003  0.1337245E+03  0.7546771E-02  0.1222032E+00
         21   -1    0    0  506  501  0.00000000000E+00  0.00000000000E+00  0.12894829112E+03  0.12894829112E+03  0.00000000000E+00 0. -1.
         21   -1    0    0  503  502 -0.00000000000E+00 -0.00000000000E+00 -0.22703314918E+04  0.22703314918E+04  0.00000000000E+00 0. -1.
         21    1    1    2  503  505  0.79584145774E+02 -0.14059459060E+03 -0.16062724415E+04  0.16143765458E+04  0.00000000000E+00 0. -1.
         21    1    1    2  504  502 -0.43806047251E+02  0.23523740062E+01 -0.39495939174E+03  0.39738825419E+03  0.00000000000E+00 0. -1.
         21    1    1    2  505  501  0.52651555796E+02  0.69146132060E+02  0.93901319107E+02  0.12794855074E+03  0.00000000000E+00 0. -1.
         21    1    1    2  506  504 -0.88429654319E+02  0.69096084536E+02 -0.23405268653E+03  0.25956643221E+03  0.00000000000E+00 0. -1.
<scales pt_clust_3="14000.00000" pt_clust_4="43.86916" pt_clust_5="86.68672" pt_clust_6="133.72448"></scales>
<clustering>
<clus scale="   43.869">  2  4  1 -1</clus>
<clus scale="   86.687">  1  5  2 -1</clus>
<clus scale="  133.724">  1  6  2 -1</clus>
<clus scale="   86.687">  1  3  2 -1</clus>
</clustering>
</event>
<event>
 6    0  0.1361919E+003  0.1128249E+03  0.7546771E-02  0.1255426E+00
         21   -1    0    0  506  501  0.00000000000E+00  0.00000000000E+00  0.17734300207E+02  0.17734300207E+02  0.00000000000E+00 0.  1.
         21   -1    0    0  503  502 -0.00000000000E+00 -0.00000000000E+00 -0.26020147831E+04  0.26020147831E+04  0.00000000000E+00 0.  1.
         21    1    1    2  503  505 -0.95537089499E+01 -0.31633195001E+02 -0.57905011880E+03  0.57999221759E+03  0.00000000000E+00 0.  1.
         21    1    1    2  504  502 -0.43327577703E+02  0.28214313107E+02 -0.11141190274E+04  0.11153181312E+04  0.00000000000E+00 0.  1.
         21    1    1    2  505  501 -0.55418116618E+01 -0.10279772374E+03 -0.60514756623E+03  0.61384172276E+03  0.00000000000E+00 0.  1.
         21    1    1    2  506  504  0.58423098315E+02  0.10621660563E+03 -0.28596377042E+03  0.31059701177E+03  0.00000000000E+00 0.  1.
<scales pt_clust_3="33.04440" pt_clust_4="49.77443" pt_clust_5="112.82488" pt_clust_6="14000.00000"></scales>
<clustering>
<clus scale="   33.044">  2  3  1 -1</clus>
<clus scale="   49.774">  2  4  1 -1</clus>
<clus scale="  112.825">  2  5  1 -1</clus>
<clus scale="  112.825">  1  3  2 -1</clus>
</clustering>
</event>
<event>
 6    0  0.1361919E+003  0.1321927E+03  0.7546771E-02  0.1224238E+00
         21   -1    0    0  503  501  0.00000000000E+00  0.00000000000E+00  0.16156804231E+03  0.16156804231E+03  0.00000000000E+00 0.  1.
         21   -1    0    0  505  502 -0.00000000000E+00 -0.00000000000E+00 -0.11644101871E+04  0.11644101871E+04  0.00000000000E+00 0.  1.
         21    1    1    2  503  502 -0.40035794985E+02  0.12670258887E+01 -0.77790391964E+03  0.77893451485E+03  0.00000000000E+00 0.  1.
         21    1    1    2  504  501  0.47493949799E+02  0.90104861950E+01  0.10089351429E+03  0.11187656303E+03  0.00000000000E+00 0.  1.
         21    1    1    2  505  506 -0.79272501921E+02 -0.94189220823E+02 -0.29627458394E+03  0.32083386350E+03  0.00000000000E+00 0.  1.
         21    1    1    2  506  504  0.71814347108E+02  0.83911708739E+02 -0.29557155507E+02  0.11433328805E+03  0.00000000000E+00 0.  1.
<scales pt_clust_3="40.05584" pt_clust_4="47.78503" pt_clust_5="132.19274" pt_clust_6="14000.00000"></scales>
<clustering>
<clus scale="   40.056">  2  3  1 -1</clus>
<clus scale="   47.785">  1  4  2 -1</clus>
<clus scale="  132.193">  2  5  1 -1</clus>
<clus scale="   47.785">  1  3  2 -1</clus>
</clustering>
</event>
<event>
 6    0  0.1361919E+003  0.1264591E+03  0.7546771E-02  0.1232806E+00
         21   -1    0    0  505  501  0.00000000000E+00  0.00000000000E+00  0.62744199309E+03  0.62744199309E+03  0.00000000000E+00 0. -1.
         21   -1    0    0  504  502 -0.00000000000E+00 -0.00000000000E+00 -0.35440510611E+03  0.35440510611E+03  0.00000000000E+00 0.  1.
         21    1    1    2  503  506 -0.35486976088E+02  0.35151010465E+02  0.51166254294E+02  0.71504577385E+02  0.00000000000E+00 0. -1.
         21    1    1    2  504  501 -0.11317590333E+03 -0.66484785914E+02 -0.29084100542E+03  0.31908854929E+03  0.00000000000E+00 0.  1.
         21    1    1    2  505  503  0.46119100472E+02  0.63855619807E+01  0.47784584572E+03  0.48010873675E+03  0.00000000000E+00 0. -1.
         21    1    1    2  506  502  0.10254377895E+03  0.24948213468E+02  0.34865792392E+02  0.11114523578E+03  0.00000000000E+00 0. -1.
<scales pt_clust_3="41.20780" pt_clust_4="126.45909" pt_clust_5="46.55907" pt_clust_6="14000.00000"></scales>
<clustering>
<clus scale="   46.559">  1  5  2 -1</clus>
<clus scale="   41.208">  1  3  2 -1</clus>
<clus scale="  126.459">  2  4  1 -1</clus>
<clus scale="   46.559">  1  3  2 -1</clus>
</clustering>
</event>
<event>
 6    0  0.1361919E+003  0.1076486E+03  0.7546771E-02  0.1264987E+00
         21   -1    0    0  503  501  0.00000000000E+00  0.00000000000E+00  0.27227884908E+03  0.27227884908E+03  0.00000000000E+00 0. -1.
         21   -1    0    0  506  502 -0.00000000000E+00 -0.00000000000E+00 -0.67769946182E+03  0.67769946182E+03  0.00000000000E+00 0.  1.
         21    1    1    2  503  504  0.47322783250E+02 -0.33208428176E+02  0.23381494007E+03  0.24085612244E+03  0.00000000000E+00 0. -1.
         21    1    1    2  504  505 -0.82682959052E+02 -0.69253237979E+02 -0.38306411917E+03  0.39795804061E+03  0.00000000000E+00 0.  1.
         21    1    1    2  505  502 -0.30591081203E+02  0.31343108663E+02 -0.18693154036E+03  0.19199376420E+03  0.00000000000E+00 0.  1.
         21    1    1    2  506  501  0.65951257005E+02  0.71118557492E+02 -0.69239893280E+02  0.11917038366E+03  0.00000000000E+00 0.  1.
<scales pt_clust_3="57.50180" pt_clust_4="14000.00000" pt_clust_5="43.79731" pt_clust_6="107.64863"></scales>
<clustering>
<clus scale="   43.797">  2  5  1 -1</clus>
<clus scale="   57.502">  1  3  2 -1</clus>
<clus scale="  107.649">  1  6  2 -1</clus>
<clus scale="   57.502">  1  3  2 -1</clus>
</clustering>
</event>
<event>
 6    0  0.1361919E+003  0.1072612E+03  0.7546771E-02  0.1265727E+00
         21   -1    0    0  503  501  0.00000000000E+00  0.00000000000E+00  0.11844140326E+04  0.11844140326E+04  0.00000000000E+00 0. -1.
         21   -1    0    0  504  502 -0.00000000000E+00 -0.00000000000E+00 -0.30447153992E+03  0.30447153992E+03  0.00000000000E+00 0.  1.
         21    1    1    2  503  506 -0.99922359826E+02 -0.37016355204E+02  0.11040350296E+04  0.11091654679E+04  0.00000000000E+00 0. -1.
         21    1    1    2  504  505  0.18024263066E+02 -0.26087006955E+02 -0.16488383425E+03  0.16790498738E+03  0.00000000000E+00 0.  1.
         21    1    1    2  505  501 -0.43551684360E+02 -0.30822942291E+01  0.21451368527E+02  0.48645770217E+02  0.00000000000E+00 0. -1.
         21    1    1    2  506  502  0.12544978112E+03  0.66185656388E+02 -0.80660071275E+02  0.16316934698E+03  0.00000000000E+00 0. -1.
<scales pt_clust_3="107.26117" pt_clust_4="31.70814" pt_clust_5="42.15723" pt_clust_6="14000.00000"></scales>
<clustering>
<clus scale="   31.708">  2  4  1 -1</clus>
<clus scale="   42.157">  2  5  1 -1</clus>
<clus scale="  107.261">  1  3  2 -1</clus>
<clus scale="  107.261">  1  3  2 -1</clus>
</clustering>
</event>
<event>
 6    0  0.1361919E+003  0.6134052E+02  0.7546771E-02  0.1392291E+00
         21   -1    0    0  503  501  0.00000000000E+00  0.00000000000E+00  0.68364785704E+03  0.68364785704E+03  0.00000000000E+00 0. -1.
         21   -1    0    0  505  502 -0.00000000000E+00 -0.00000000000E+00 -0.84000765652E+03  0.84000765652E+03  0.00000000000E+00 0. -1.
         21    1    1    2  503  504  0.44830294474E+02  0.52179496842E+02 -0.67773301291E+02  0.96569537439E+02  0.00000000000E+00 0.  1.
         21    1    1    2  504  502  0.12793678455E+02 -0.59409826281E+02 -0.59628376927E+03  0.59937262130E+03  0.00000000000E+00 0. -1.
         21    1    1    2  505  506 -0.29682657532E+02  0.58473864348E+02 -0.15194612190E+03  0.16549283045E+03  0.00000000000E+00 0.  1.
         21    1    1    2  506  501 -0.27941315397E+02 -0.51243534909E+02  0.65964339299E+03  0.66222052436E+03  0.00000000000E+00 0. -1.
<scales pt_clust_3="33.51977" pt_clust_4="61.34052" pt_clust_5="14000.00000" pt_clust_6="58.36623"></scales>
<clustering>
<clus scale="   58.366">  1  6  2 -1</clus>
<clus scale="   33.520">  1  3  2 -1</clus>
<clus scale="   61.341">  2  4  1 -1</clus>
<clus scale="   58.366">  1  3  2 -1</clus>
</clustering>
</event>
<event>
 6    0  0.1361919E+003  0.8235364E+02  0.7546771E-02  0.1322502E+00
         21   -1    0    0  504  501  0.00000000000E+00  0.00000000000E+00  0.43563953740E+03  0.43563953740E+03  0.00000000000E+00 0.  1.
         21   -1    0    0  505  502 -0.00000000000E+00 -0.00000000000E+00 -0.19763741201E+03  0.19763741201E+03  0.00000000000E+00 0.  1.
         21    1    1    2  503  501 -0.20534254167E+02 -0.25890827329E+02  0.58330247800E+02  0.67040348615E+02  0.00000000000E+00 0.  1.
         21    1    1    2  504  506  0.63880292581E+02  0.87148456739E+02  0.31737896711E+03  0.33526848056E+03  0.00000000000E+00 0.  1.
         21    1    1    2  505  503 -0.39068010297E+02 -0.94166021299E+02 -0.14022030196E+02  0.10290853379E+03  0.00000000000E+00 0.  1.
         21    1    1    2  506  502 -0.42780281165E+01  0.32908391889E+02 -0.12368505932E+03  0.12805958645E+03  0.00000000000E+00 0.  1.
<scales pt_clust_3="33.04528" pt_clust_4="82.35364" pt_clust_5="14000.00000" pt_clust_6="33.05054"></scales>
<clustering>
<clus scale="   33.045">  1  3  2 -1</clus>
<clus scale="   33.051">  2  6  1 -1</clus>
<clus scale="   82.354">  1  4  2 -1</clus>
<clus scale="   33.045">  1  3  2 -1</clus>
</clustering>
</event>
<event>
 6    0  0.1361919E+003  0.1580868E+03  0.7546771E-02  0.1190874E+00
         21   -1    0    0  505  501  0.00000000000E+00  0.00000000000E+00  0.10970907789E+04  0.10970907789E+04  0.00000000000E+00 0.  1.
         21   -1    0    0  506  502 -0.00000000000E+00 -0.00000000000E+00 -0.33108337384E+03  0.33108337384E+03  0.00000000000E+00 0.  1.
         21    1    1    2  503  501 -0.27920003169E+02 -0.10530736422E+03  0.87807137345E+03  0.88480421813E+03  0.00000000000E+00 0.  1.
         21    1    1    2  504  503 -0.32030724695E+02 -0.30032119259E+02  0.18462304604E+03  0.18977240222E+03  0.00000000000E+00 0.  1.
         21    1    1    2  505  502  0.73677900193E+02  0.20433127622E+02 -0.11035481340E+03  0.13425397768E+03  0.00000000000E+00 0.  1.
         21    1    1    2  506  504 -0.13727172329E+02  0.11490635586E+03 -0.18633220101E+03  0.21934355475E+03  0.00000000000E+00 0.  1.
<scales pt_clust_3="37.47515" pt_clust_4="37.47515" pt_clust_5="76.45878" pt_clust_6="146.65206"></scales>
<clustering>
<clus scale="   37.475">  3  4 -1 -1</clus>
<clus scale="   76.459">  2  5  1 -1</clus>
<clus scale="  146.652">  2  6  1 -1</clus>
<clus scale="  158.087">  1  3  2 -1</clus>
</clustering>
</event>
<event>
 6    0  0.1361919E+003  0.1144696E+03  0.7546771E-02  0.1252510E+00
         21   -1    0    0  504  501  0.00000000000E+00  0.00000000000E+00  0.36725497547E+03  0.36725497547E+03  0.00000000000E+00 0.  1.
         21   -1    0    0  503  502 -0.00000000000E+00 -0.00000000000E+00 -0.10873869632E+03  0.10873869632E+03  0.00000000000E+00 0.  1.
         21    1    1    2  503  505  0.26736787452E+02  0.45810424271E+02  0.29476298993E+02  0.60681982314E+02  0.00000000000E+00 0.  1.
         21    1    1    2  504  506 -0.68893486286E+02  0.10779949162E+03  0.16002704883E+03  0.20487971887E+03  0.00000000000E+00 0.  1.
         21    1    1    2  505  501 -0.25113063066E+02 -0.94449406201E+02  0.71045392174E+02  0.12082551062E+03  0.00000000000E+00 0.  1.
         21    1    1    2  506  502  0.67269761899E+02 -0.59160509695E+02 -0.20324608465E+01  0.89606459982E+02  0.00000000000E+00 0.  1.
<scales pt_clust_3="53.04197" pt_clust_4="14000.00000" pt_clust_5="84.14750" pt_clust_6="114.46959"></scales>
<clustering>
<clus scale="   53.042">  2  3  1 -1</clus>
<clus scale="   84.148">  2  5  1 -1</clus>
<clus scale="  114.470">  2  6  1 -1</clus>
<clus scale="  114.470">  1  3  2 -1</clus>
</clustering>
</event>
<event>
 6    0  0.1361919E+003  0.1512727E+03  0.7546771E-02  0.1198918E+00
         21   -1    0    0  505  501  0.00000000000E+00  0.00000000000E+00  0.65091955542E+03  0.65091955542E+03  0.00000000000E+00 0.  1.
         21   -1    0    0  504  502 -0.00000000000E+00 -0.00000000000E+00 -0.29989991443E+03  0.29989991443E+03  0.00000000000E+00 0. -1.
         21    1    1    2  503  502 -0.45647111998E+02  0.32351042707E+02  0.31939772191E+02  0.64423581440E+02  0.00000000000E+00 0.  1.
         21    1    1    2  504  506 -0.14817837380E+03  0.26229715160E+02 -0.23758420667E+03  0.28123137036E+03  0.00000000000E+00 0. -1.
         21    1    1    2  505  503  0.43156736720E+02  0.27416675416E+02  0.22647393791E+03  0.23217369052E+03  0.00000000000E+00 0.  1.
         21    1    1    2  506  501  0.15066874907E+03 -0.85997433284E+02  0.33019013756E+03  0.37299082753E+03  0.00000000000E+00 0.  1.
<scales pt_clust_3="54.00785" pt_clust_4="151.27269" pt_clust_5="51.12903" pt_clust_6="14000.00000"></scales>
<clustering>
<clus scale="   51.129">  1  5  2 -1</clus>
<clus scale="   54.008">  1  3  2 -1</clus>
<clus scale="  151.273">  2  4  1 -1</clus>
<clus scale="   51.129">  1  3  2 -1</clus>
</clustering>
</event>
<event>
 6    0  0.1361919E+003  0.6666730E+02  0.7546771E-02  0.1371807E+00
         21   -1    0    0  506  501  0.00000000000E+00  0.00000000000E+00  0.32238689368E+02  0.32238689368E+02  0.00000000000E+00 0. -1.
         21   -1    0    0  504  502 -0.00000000000E+00 -0.00000000000E+00 -0.12740044353E+04  0.12740044353E+04  0.00000000000E+00 0. -1.
         21    1    1    2  503  501  0.65010992423E+02  0.13885390160E+02 -0.32082453125E+02  0.73814070436E+02  0.00000000000E+00 0. -1.
         21    1    1    2  504  503  0.25993173349E+02  0.51355511020E+02 -0.56341195528E+03  0.56634447550E+03  0.00000000000E+00 0. -1.
         21    1    1    2  505  502 -0.19837243789E+02 -0.81664297392E+02 -0.41972964723E+03  0.42806021827E+03  0.00000000000E+00 0. -1.
         21    1    1    2  506  505 -0.71166921983E+02  0.16423396213E+02 -0.22654169028E+03  0.23802436044E+03  0.00000000000E+00 0. -1.
<scales pt_clust_3="66.66730" pt_clust_4="57.55896" pt_clust_5="51.14649" pt_clust_6="14000.00000"></scales>
<clustering>
<clus scale="   57.559">  2  4  1 -1</clus>
<clus scale="   51.146">  2  5  1 -1</clus>
<clus scale="   66.667">  1  3  2 -1</clus>
<clus scale="   66.667">  1  3  2 -1</clus>
</clustering>
</event>
<event>
 6    0  0.1580092E+003  0.1008159E+03  0.7546771E-02  0.1278590E+00
         21   -1    0    0  503  501  0.00000000000E+00  0.00000000000E+00  0.42592463543E+03  0.42592463543E+03  0.00000000000E+00 0. -1.
         21   -1    0    0  505  502 -0.00000000000E+00 -0.00000000000E+00 -0.30117660386E+03  0.30117660386E+03  0.00000000000E+00 0. -1.
         21    1    1    2  503  504  0.49610989130E+02  0.35382361649E+02 -0.99091986253E+01  0.61736164245E+02  0.00000000000E+00 0. -1.
         21    1    1    2  504  502 -0.28622272264E+02  0.38284629657E+02 -0.26179760141E+02  0.54500708056E+02  0.00000000000E+00 0. -1.
         21    1    1    2  505  506 -0.50350620153E+02  0.24842321346E+02 -0.21448957896E+03  0.22171627221E+03  0.00000000000E+00 0. -1.
         21    1    1    2  506  501  0.29361903286E+02 -0.98509312652E+02  0.37532656930E+03  0.38914809477E+03  0.00000000000E+00 0. -1.
<scales pt_clust_3="61.14165" pt_clust_4="47.80112" pt_clust_5="14000.00000" pt_clust_6="100.81587"></scales>
<clustering>
<clus scale="   47.801">  2  4  1 -1</clus>
<clus scale="   61.142">  2  3  1 -1</clus>
<clus scale="  100.816">  1  6  2 -1</clus>
<clus scale="  100.816">  1  3  2 -1</clus>
</clustering>
</event>
<event>
 6    0  0.1361919E+003  0.7557521E+02  0.7546771E-02  0.1342099E+00
         21   -1    0    0  506  501  0.00000000000E+00  0.00000000000E+00  0.86504212073E+02  0.86504212073E+02  0.00000000000E+00 0. -1.
         21   -1    0    0  505  502 -0.00000000000E+00 -0.00000000000E+00 -0.25577441432E+03  0.25577441432E+03  0.00000000000E+00 0. -1.
         21    1    1    2  503  501 -0.59052056470E+02 -0.11271491366E+01 -0.24058028928E+01  0.59111790077E+02  0.00000000000E+00 0. -1.
         21    1    1    2  504  502 -0.30753644241E+02 -0.26428498188E+02 -0.33979998026E+02  0.52904559505E+02  0.00000000000E+00 0. -1.
         21    1    1    2  505  503  0.88539921049E+02 -0.42923740464E+02 -0.12537034419E+03  0.15937216921E+03  0.00000000000E+00 0. -1.
         21    1    1    2  506  504  0.12657796622E+01  0.70479387789E+02 -0.75140571347E+01  0.70890107602E+02  0.00000000000E+00 0. -1.
<scales pt_clust_3="63.70014" pt_clust_4="40.54938" pt_clust_5="75.57521" pt_clust_6="14000.00000"></scales>
<clustering>
<clus scale="   40.549">  2  4  1 -1</clus>
<clus scale="   63.700">  1  3  2 -1</clus>
<clus scale="   75.575">  2  5  1 -1</clus>
<clus scale="   63.700">  1  3  2 -1</clus>
</clustering>
</event>
<event>
 6    0  0.1361919E+003  0.6067616E+02  0.7546771E-02  0.1395016E+00
         21   -1    0    0  504  501  0.00000000000E+00  0.00000000000E+00  0.28984188630E+04  0.28984188630E+04  0.00000000000E+00 0.  1.
         21   -1    0    0  505  502 -0.00000000000E+00 -0.00000000000E+00 -0.29966843525E+03  0.29966843525E+03  0.00000000000E+00 0. -1.
         21    1    1    2  503  502 -0.15316502030E+02 -0.97726025521E+02  0.11334784404E+03  0.15044169983E+03  0.00000000000E+00 0.  1.
         21    1    1    2  504  503  0.49372350868E+02  0.83435436726E+01  0.50437617827E+03  0.50685557406E+03  0.00000000000E+00 0.  1.
         21    1    1    2  505  506  0.15880975342E+01  0.41350275776E+02 -0.27795423835E+03  0.28101766133E+03  0.00000000000E+00 0. -1.
         21    1    1    2  506  501 -0.35643946372E+02  0.48032206073E+02  0.22589806438E+04  0.22597723630E+04  0.00000000000E+00 0.  1.
<scales pt_clust_3="60.67616" pt_clust_4="50.65294" pt_clust_5="41.38076" pt_clust_6="14000.00000"></scales>
<clustering>
<clus scale="   41.381">  2  5  1 -1</clus>
<clus scale="   50.653">  1  4  2 -1</clus>
<clus scale="   60.676">  2  3  1 -1</clus>
<clus scale="   50.653">  1  3  2 -1</clus>
</clustering>
</event>
<event>
 6    0  0.1361919E+003  0.1278971E+03  0.7546771E-02  0.1230610E+00
         21   -1    0    0  504  501  0.00000000000E+00  0.00000000000E+00  0.35186808939E+04  0.35186808939E+04  0.00000000000E+00 0. -1.
         21   -1    0    0  506  502 -0.00000000000E+00 -0.00000000000E+00 -0.27798342752E+03  0.27798342752E+03  0.00000000000E+00 0. -1.
         21    1    1    2  503  505  0.12597960150E+03  0.25027590293E+02  0.95227268710E+03  0.96089568157E+03  0.00000000000E+00 0. -1.
         21    1    1    2  504  503 -0.36848543671E+01  0.45308172418E+02  0.24991093348E+04  0.24995227296E+04  0.00000000000E+00 0. -1.
         21    1    1    2  505  502 -0.58721426955E+02 -0.26597166049E+02 -0.24387013182E+03  0.25224642003E+03  0.00000000000E+00 0. -1.
         21    1    1    2  506  501 -0.63573320177E+02 -0.43738596661E+02  0.33185576293E+02  0.83999490177E+02  0.00000000000E+00 0.  1.
<scales pt_clust_3="14000.00000" pt_clust_4="45.45777" pt_clust_5="64.40129" pt_clust_6="127.89706"></scales>
<clustering>
<clus scale="   45.458">  1  4  2 -1</clus>
<clus scale="   64.401">  2  5  1 -1</clus>
<clus scale="  127.897">  2  6  1 -1</clus>
<clus scale="   45.458">  1  3  2 -1</clus>
</clustering>
</event>
<event>
 6    0  0.1361919E+003  0.1355417E+03  0.7546771E-02  0.1219457E+00
         21   -1    0    0  503  501  0.00000000000E+00  0.00000000000E+00  0.16497302738E+03  0.16497302738E+03  0.00000000000E+00 0. -1.
         21   -1    0    0  504  502 -0.00000000000E+00 -0.00000000000E+00 -0.44422167626E+03  0.44422167626E+03  0.00000000000E+00 0. -1.
         21    1    1    2  503  506 -0.96982223560E+02 -0.98247240848E+00 -0.21257675481E+03  0.23365657197E+03  0.00000000000E+00 0. -1.
         21    1    1    2  504  505  0.68608814298E+02 -0.46980481223E+02  0.88929006031E+02  0.12174852413E+03  0.00000000000E+00 0. -1.
         21    1    1    2  505  501  0.45290455996E+02 -0.31034604817E+02  0.21632697643E+02  0.59011403201E+02  0.00000000000E+00 0. -1.
         21    1    1    2  506  502 -0.16917046733E+02  0.78997558449E+02 -0.17723359775E+03  0.19477820433E+03  0.00000000000E+00 0. -1.
<scales pt_clust_3="130.31001" pt_clust_4="30.30427" pt_clust_5="30.30427" pt_clust_6="80.78862"></scales>
<clustering>
<clus scale="   30.304">  4  5 -1 -1</clus>
<clus scale="   80.789">  2  6  1 -1</clus>
<clus scale="  130.310">  2  3  1 -1</clus>
<clus scale="  135.542">  1  3  2 -1</clus>
</clustering>
</event>
<event>
 6    0  0.1361919E+003  0.1808156E+03  0.7546771E-02  0.1167016E+00
         21   -1    0    0  506  501  0.00000000000E+00  0.00000000000E+00  0.14265523480E+03  0.14265523480E+03  0.00000000000E+00 0. -1.
         21   -1    0    0  505  502 -0.00000000000E+00 -0.00000000000E+00 -0.17804092111E+04  0.17804092111E+04  0.00000000000E+00 0. -1.
         21    1    1    2  503  504  0.14069336033E+03 -0.46615858004E+02 -0.56067489003E+03  0.57993447231E+03  0.00000000000E+00 0. -1.
         21    1    1    2  504  501 -0.21411568602E+03 -0.36049503227E+02  0.28075545271E+02  0.21893681720E+03  0.00000000000E+00 0. -1.
         21    1    1    2  505  503  0.43060693256E+02  0.74508330021E+02 -0.10813256924E+04  0.10847446555E+04  0.00000000000E+00 0. -1.
         21    1    1    2  506  502  0.30361632441E+02  0.81570312106E+01 -0.23828939098E+02  0.39448500874E+02  0.00000000000E+00 0. -1.
<scales pt_clust_3="14000.00000" pt_clust_4="180.81559" pt_clust_5="86.33905" pt_clust_6="31.43829"></scales>
<clustering>
<clus scale="   31.438">  1  6  2 -1</clus>
<clus scale="   86.339">  2  5  1 -1</clus>
<clus scale="  180.816">  1  4  2 -1</clus>
<clus scale="   31.438">  1  3  2 -1</clus>
</clustering>
</event>
<event>
 6    0  0.1361919E+003  0.1016882E+03  0.7546771E-02  0.1276785E+00
         21   -1    0    0  505  501  0.00000000000E+00  0.00000000000E+00  0.14177392628E+03  0.14177392628E+03  0.00000000000E+00 0.  1.
         21   -1    0    0  503  502 -0.00000000000E+00 -0.00000000000E+00 -0.23597476318E+04  0.23597476318E+04  0.00000000000E+00 0.  1.
         21    1    1    2  503  506  0.11684318397E+03 -0.74055428821E+02 -0.16982233408E+04  0.17038483064E+04  0.00000000000E+00 0.  1.
         21    1    1    2  504  502 -0.46882708010E+02 -0.22098762862E+02 -0.49742461904E+03  0.50011758143E+03  0.00000000000E+00 0.  1.
         21    1    1    2  505  504 -0.29809303526E+02  0.47505831815E+02  0.12515796062E+03  0.13714923893E+03  0.00000000000E+00 0.  1.
         21    1    1    2  506  501 -0.40151172432E+02  0.48648359869E+02 -0.14748370637E+03  0.16040643133E+03  0.00000000000E+00 0. -1.
<scales pt_clust_3="14000.00000" pt_clust_4="51.82995" pt_clust_5="56.10407" pt_clust_6="101.68821"></scales>
<clustering>
<clus scale="   51.830">  2  4  1 -1</clus>
<clus scale="   56.104">  1  5  2 -1</clus>
<clus scale="  101.688">  1  6  2 -1</clus>
<clus scale="   56.104">  1  3  2 -1</clus>
</clustering>
</event>
<event>
 6    0  0.1361919E+003  0.1538343E+03  0.7546771E-02  0.1195839E+00
         21   -1    0    0  503  501  0.00000000000E+00  0.00000000000E+00  0.72276959678E+03  0.72276959678E+03  0.00000000000E+00 0. -1.
         21   -1    0    0  506  502 -0.00000000000E+00 -0.00000000000E+00 -0.13063146755E+04  0.13063146755E+04  0.00000000000E+00 0.  1.
         21    1    1    2  503  505 -0.37256402550E+02  0.13501684013E+03 -0.92538355492E+02  0.16787177812E+03  0.00000000000E+00 0.  1.
         21    1    1    2  504  501  0.10060771317E+03 -0.11871125970E+03  0.67278489091E+03  0.69054600467E+03  0.00000000000E+00 0. -1.
         21    1    1    2  505  502 -0.34924551284E+02  0.49463007032E+01 -0.95834251951E+02  0.10211950852E+03  0.00000000000E+00 0. -1.
         21    1    1    2  506  504 -0.28426759340E+02 -0.21251881140E+02 -0.10679573622E+04  0.10685469810E+04  0.00000000000E+00 0.  1.
<scales pt_clust_3="14000.00000" pt_clust_4="153.83431" pt_clust_5="35.27308" pt_clust_6="61.68136"></scales>
<clustering>
<clus scale="   35.273">  2  5  1 -1</clus>
<clus scale="   61.681">  2  6  1 -1</clus>
<clus scale="  153.834">  1  4  2 -1</clus>
<clus scale="  153.834">  1  3  2 -1</clus>
</clustering>
</event>
<event>
 6    0  0.1361919E+003  0.1492568E+03  0.7546771E-02  0.1201389E+00
         21   -1    0    0  505  501  0.00000000000E+00  0.00000000000E+00  0.13882808704E+04  0.13882808704E+04  0.00000000000E+00 0. -1.
         21   -1    0    0  503  502 -0.00000000000E+00 -0.00000000000E+00 -0.82145619121E+02  0.82145619121E+02  0.00000000000E+00 0. -1.
         21    1    1    2  503  506 -0.59269681401E+02 -0.40482041975E+02 -0.29677986026E+01  0.71836611031E+02  0.00000000000E+00 0. -1.
         21    1    1    2  504  502  0.21509528005E+03  0.43312252400E+02  0.28890550527E+03  0.36277861249E+03  0.00000000000E+00 0. -1.
         21    1    1    2  505  504 -0.52704966724E+02 -0.25331286517E+02  0.58850522942E+03  0.59140332485E+03  0.00000000000E+00 0. -1.
         21    1    1    2  506  501 -0.10312063193E+03  0.22501076091E+02  0.43169231522E+03  0.44440794117E+03  0.00000000000E+00 0. -1.
<scales pt_clust_3="74.26975" pt_clust_4="149.25684" pt_clust_5="58.47638" pt_clust_6="14000.00000"></scales>
<clustering>
<clus scale="   58.476">  1  5  2 -1</clus>
<clus scale="   74.270">  2  3  1 -1</clus>
<clus scale="  149.257">  2  4  1 -1</clus>
<clus scale="   58.476">  1  3  2 -1</clus>
</clustering>
</event>
<event>
 6    0  0.1361919E+003  0.1243691E+03  0.7546771E-02  0.1236059E+00
         21   -1    0    0  506  501  0.00000000000E+00  0.00000000000E+00  0.10882143550E+03  0.10882143550E+03  0.00000000000E+00 0. -1.
         21   -1    0    0  503  502 -0.00000000000E+00 -0.00000000000E+00 -0.45124577884E+03  0.45124577884E+03  0.00000000000E+00 0.  1.
         21    1    1    2  503  504 -0.31633611468E+01 -0.33662353522E+02 -0.40702518758E+02  0.52913664886E+02  0.00000000000E+00 0. -1.
         21    1    1    2  504  505  0.50986797903E+02 -0.50065913257E+02  0.46998552322E+02  0.85528434751E+02  0.00000000000E+00 0. -1.
         21    1    1    2  505  501  0.87523087606E+01 -0.44405177197E+02  0.60615160993E+00  0.45263562501E+02  0.00000000000E+00 0.  1.
         21    1    1    2  506  502 -0.56575745517E+02  0.12813344398E+03 -0.34932652852E+03  0.37636155219E+03  0.00000000000E+00 0.  1.
<scales pt_clust_3="33.81066" pt_clust_4="39.03045" pt_clust_5="39.03045" pt_clust_6="114.54639"></scales>
<clustering>
<clus scale="   33.811">  2  3  1 -1</clus>
<clus scale="   39.030">  4  5 -1 -1</clus>
<clus scale="  114.546">  2  6  1 -1</clus>
<clus scale="  124.369">  1  3  2 -1</clus>
</clustering>
</event>
<event>
 6    0  0.1361919E+003  0.9472527E+02  0.7546771E-02  0.1291796E+00
         21   -1    0    0  504  501  0.00000000000E+00  0.00000000000E+00  0.73363935429E+03  0.73363935429E+03  0.00000000000E+00 0.  1.
         21   -1    0    0  503  502 -0.00000000000E+00 -0.00000000000E+00 -0.86633585969E+02  0.86633585969E+02  0.00000000000E+00 0. -1.
         21    1    1    2  503  506 -0.19672843526E+02 -0.35890282089E+02  0.19423676503E+02  0.45303557584E+02  0.00000000000E+00 0.  1.
         21    1    1    2  504  505 -0.32367713330E+02  0.25839408091E+02  0.17451253528E+03  0.17935988639E+03  0.00000000000E+00 0. -1.
         21    1    1    2  505  502  0.68223503626E+02  0.11132816592E+03 -0.51860203804E+00  0.13057057831E+03  0.00000000000E+00 0. -1.
         21    1    1    2  506  501 -0.16182946770E+02 -0.10127729192E+03  0.45358815857E+03  0.46503891797E+03  0.00000000000E+00 0.  1.
<scales pt_clust_3="40.92839" pt_clust_4="41.20728" pt_clust_5="14000.00000" pt_clust_6="94.72527"></scales>
<clustering>
<clus scale="   40.928">  2  3  1 -1</clus>
<clus scale="   41.207">  1  4  2 -1</clus>
<clus scale="   94.725">  1  6  2 -1</clus>
<clus scale="   41.207">  1  3  2 -1</clus>
</clustering>
</event>
<event>
 6    0  0.1361919E+003  0.1089838E+03  0.7546771E-02  0.1262463E+00
         21   -1    0    0  504  501  0.00000000000E+00  0.00000000000E+00  0.85169461388E+03  0.85169461388E+03  0.00000000000E+00 0. -1.
         21   -1    0    0  503  502 -0.00000000000E+00 -0.00000000000E+00 -0.56345049630E+02  0.56345049630E+02  0.00000000000E+00 0.  1.
         21    1    1    2  503  505 -0.50910485417E+02 -0.13723884277E+02  0.24693748873E+02  0.58223738788E+02  0.00000000000E+00 0.  1.
         21    1    1    2  504  502 -0.20936933401E+02 -0.83745217664E+02  0.27930464345E+02  0.90728868065E+02  0.00000000000E+00 0.  1.
         21    1    1    2  505  506  0.28666290602E+02  0.10417771479E+03  0.43217714195E+03  0.44547933117E+03  0.00000000000E+00 0. -1.
         21    1    1    2  506  501  0.43181128216E+02 -0.67086128536E+01  0.31054820909E+03  0.31360772549E+03  0.00000000000E+00 0. -1.
<scales pt_clust_3="49.67736" pt_clust_4="108.98380" pt_clust_5="14000.00000" pt_clust_6="43.69915"></scales>
<clustering>
<clus scale="   43.699">  1  6  2 -1</clus>
<clus scale="   49.677">  2  3  1 -1</clus>
<clus scale="  108.984">  2  4  1 -1</clus>
<clus scale="   43.699">  1  3  2 -1</clus>
</clustering>
</event>
<event>
 6    0  0.1361919E+003  0.1389855E+03  0.7546771E-02  0.1214701E+00
         21   -1    0    0  504  501  0.00000000000E+00  0.00000000000E+00  0.40304389121E+03  0.40304389121E+03  0.00000000000E+00 0.  1.
         21   -1    0    0  501  502 -0.00000000000E+00 -0.00000000000E+00 -0.20699991063E+03  0.20699991063E+03  0.00000000000E+00 0.  1.
         21    1    1    2  503  505 -0.13973008657E+03  0.40499052817E+02  0.27223729103E+03  0.30867104335E+03  0.00000000000E+00 0.  1.
         21    1    1    2  504  503 -0.49757748475E+01  0.31845347733E+02  0.60629221677E+02  0.68664306803E+02  0.00000000000E+00 0. -1.
         21    1    1    2  505  506  0.65165998311E+02 -0.69879034885E+02 -0.31304657148E+02  0.10054684685E+03  0.00000000000E+00 0.  1.
         21    1    1    2  506  502  0.79539863109E+02 -0.24653656647E+01 -0.10551787499E+03  0.13216160484E+03  0.00000000000E+00 0.  1.
<scales pt_clust_3="138.98552" pt_clust_4="32.23173" pt_clust_5="14000.00000" pt_clust_6="79.35323"></scales>
<clustering>
<clus scale="   32.232">  1  4  2 -1</clus>
<clus scale="   79.353">  2  6  1 -1</clus>
<clus scale="  138.986">  1  3  2 -1</clus>
<clus scale="   32.232">  1  3  2 -1</clus>
</clustering>
</event>
<event>
 6    0  0.1361919E+003  0.1950139E+03  0.7546771E-02  0.1154015E+00
         21   -1    0    0  504  501  0.00000000000E+00  0.00000000000E+00  0.13582707365E+04  0.13582707365E+04  0.00000000000E+00 0. -1.
         21   -1    0    0  505  502 -0.00000000000E+00 -0.00000000000E+00 -0.99357747602E+02  0.99357747602E+02  0.00000000000E+00 0.  1.
         21    1    1    2  503  502 -0.42280625251E+02  0.53954821297E+01 -0.35640613834E+01  0.42772246055E+02  0.00000000000E+00 0. -1.
         21    1    1    2  504  503 -0.13078432575E+02  0.14924971119E+03  0.51227382773E+03  0.53373307586E+03  0.00000000000E+00 0. -1.
         21    1    1    2  505  506  0.21632883971E+02 -0.21568745807E+03  0.12136997892E+03  0.24843456486E+03  0.00000000000E+00 0.  1.
         21    1    1    2  506  501  0.33726173855E+02  0.61042264744E+02  0.62883324367E+03  0.63268859736E+03  0.00000000000E+00 0. -1.
<scales pt_clust_3="42.62350" pt_clust_4="195.01389" pt_clust_5="14000.00000" pt_clust_6="69.34901"></scales>
<clustering>
<clus scale="   42.623">  2  3  1 -1</clus>
<clus scale="   69.349">  1  6  2 -1</clus>
<clus scale="  195.014">  1  4  2 -1</clus>
<clus scale="   69.349">  1  3  2 -1</clus>
</clustering>
</event>
<event>
 6    0  0.1361919E+003  0.1174285E+03  0.7546771E-02  0.1247401E+00
         21   -1    0    0  506  501  0.00000000000E+00  0.00000000000E+00  0.73663426480E+03  0.73663426480E+03  0.00000000000E+00 0. -1.
         21   -1    0    0  503  502 -0.00000000000E+00 -0.00000000000E+00 -0.32442579478E+03  0.32442579478E+03  0.00000000000E+00 0. -1.
         21    1    1    2  503  504 -0.25424354765E+02 -0.75786169062E+02  0.74982640114E+02  0.10960081001E+03  0.00000000000E+00 0. -1.
         21    1    1    2  504  501  0.17846737620E+02 -0.50188527381E+02  0.58928504765E+03  0.59168763863E+03  0.00000000000E+00 0. -1.
         21    1    1    2  505  502 -0.34385104436E+02 -0.29167883795E+02 -0.17651860095E+03  0.18218649053E+03  0.00000000000E+00 0. -1.
         21    1    1    2  506  505  0.41962721582E+02  0.15514258024E+03 -0.75540616792E+02  0.17758512041E+03  0.00000000000E+00 0. -1.
<scales pt_clust_3="117.42851" pt_clust_4="53.40051" pt_clust_5="45.08992" pt_clust_6="14000.00000"></scales>
<clustering>
<clus scale="   45.090">  2  5  1 -1</clus>
<clus scale="   53.401">  1  4  2 -1</clus>
<clus scale="  117.429">  1  3  2 -1</clus>
<clus scale="   53.401">  1  3  2 -1</clus>
</clustering>
</event>
<event>
 6    0  0.1361919E+003  0.1127862E+03  0.7546771E-02  0.1255496E+00
         21   -1    0    0  503  501  0.00000000000E+00  0.00000000000E+00  0.11060708816E+03  0.11060708816E+03  0.00000000000E+00 0.  1.
         21   -1    0    0  506  502 -0.00000000000E+00 -0.00000000000E+00 -0.77473619848E+03  0.77473619848E+03  0.00000000000E+00 0.  1.
         21    1    1    2  503  502  0.12800884953E+03  0.22910725372E+02 -0.59133334608E+02  0.14285628498E+03  0.00000000000E+00 0.  1.
         21    1    1    2  504  505 -0.87298535627E+02 -0.15980779907E+02 -0.12002621186E+03  0.14927394676E+03  0.00000000000E+00 0.  1.
         21    1    1    2  505  501  0.10981639936E+02 -0.36268614958E+02  0.45619318971E+02  0.59305405404E+02  0.00000000000E+00 0.  1.
         21    1    1    2  506  504 -0.51691953842E+02  0.29338669494E+02 -0.53058888283E+03  0.53390764950E+03  0.00000000000E+00 0.  1.
<scales pt_clust_3="14000.00000" pt_clust_4="112.78619" pt_clust_5="37.89471" pt_clust_6="58.65875"></scales>
<clustering>
<clus scale="   37.895">  1  5  2 -1</clus>
<clus scale="   58.659">  2  6  1 -1</clus>
<clus scale="  112.786">  2  4  1 -1</clus>
<clus scale="   37.895">  1  3  2 -1</clus>
</clustering>
</event>
<event>
 6    0  0.1361919E+003  0.7659730E+02  0.7546771E-02  0.1338995E+00
         21   -1    0    0  505  501  0.00000000000E+00  0.00000000000E+00  0.48041526840E+02  0.48041526840E+02  0.00000000000E+00 0.  1.
         21   -1    0    0  504  502 -0.00000000000E+00 -0.00000000000E+00 -0.53809328719E+03  0.53809328719E+03  0.00000000000E+00 0. -1.
         21    1    1    2  503  501  0.33785470347E+02 -0.50357008299E+01 -0.11367000168E+02  0.36000346974E+02  0.00000000000E+00 0.  1.
         21    1    1    2  504  503 -0.47930893090E+02  0.13975192826E+02 -0.29500695060E+03  0.29920190078E+03  0.00000000000E+00 0. -1.
         21    1    1    2  505  506 -0.63801048825E+02 -0.49020530510E+02 -0.65207644752E+02  0.10356458457E+03  0.00000000000E+00 0.  1.
         21    1    1    2  506  502  0.77946471567E+02  0.40081038514E+02 -0.11847016483E+03  0.14736798171E+03  0.00000000000E+00 0.  1.
<scales pt_clust_3="34.15869" pt_clust_4="47.94041" pt_clust_5="76.59730" pt_clust_6="14000.00000"></scales>
<clustering>
<clus scale="   34.159">  1  3  2 -1</clus>
<clus scale="   47.940">  2  4  1 -1</clus>
<clus scale="   76.597">  1  5  2 -1</clus>
<clus scale="   34.159">  1  3  2 -1</clus>
</clustering>
</event>
<event>
 6    0  0.1361919E+003  0.1527951E+03  0.7546771E-02  0.1197080E+00
         21   -1    0    0  506  501  0.00000000000E+00  0.00000000000E+00  0.16614782145E+04  0.16614782145E+04  0.00000000000E+00 0. -1.
         21   -1    0    0  505  502 -0.00000000000E+00 -0.00000000000E+00 -0.12884283547E+03  0.12884283547E+03  0.00000000000E+00 0.  1.
         21    1    1    2  503  501 -0.35225836202E+02 -0.15108636740E+03  0.13748331103E+04  0.13835584668E+04  0.00000000000E+00 0. -1.
         21    1    1    2  504  502 -0.18938741955E+02  0.36537295913E+02 -0.81816389799E+02  0.91583686207E+02  0.00000000000E+00 0.  1.
         21    1    1    2  505  503  0.96410232459E+02  0.10110684267E+03  0.10886275672E+03  0.17711190349E+03  0.00000000000E+00 0.  1.
         21    1    1    2  506  504 -0.42245654302E+02  0.13442228815E+02  0.13075590181E+03  0.13806699345E+03  0.00000000000E+00 0.  1.
<scales pt_clust_3="14000.00000" pt_clust_4="41.15398" pt_clust_5="152.79507" pt_clust_6="46.92695"></scales>
<clustering>
<clus scale="   41.154">  2  4  1 -1</clus>
<clus scale="   46.927">  1  6  2 -1</clus>
<clus scale="  152.795">  2  5  1 -1</clus>
<clus scale="   46.927">  1  3  2 -1</clus>
</clustering>
</event>
<event>
 6    0  0.1361919E+003  0.1008460E+03  0.7546771E-02  0.1278527E+00
         21   -1    0    0  502  501  0.00000000000E+00  0.00000000000E+00  0.20294028443E+04  0.20294028443E+04  0.00000000000E+00 0.  1.
         21   -1    0    0  505  502 -0.00000000000E+00 -0.00000000000E+00 -0.20641916097E+03  0.20641916097E+03  0.00000000000E+00 0.  1.
         21    1    1    2  503  506 -0.11197072931E+03  0.48437161968E+02  0.12274533807E+04  0.12335012788E+04  0.00000000000E+00 0.  1.
         21    1    1    2  504  503  0.47934236594E+02 -0.78780604686E+02 -0.12474270851E+03  0.15512839211E+03  0.00000000000E+00 0.  1.
         21    1    1    2  505  504  0.28736548990E+02  0.13232115272E+02 -0.58992411441E+02  0.66940142889E+02  0.00000000000E+00 0.  1.
         21    1    1    2  506  501  0.35299943725E+02  0.17111327445E+02  0.77926542256E+03  0.78025219150E+03  0.00000000000E+00 0.  1.
<scales pt_clust_3="14000.00000" pt_clust_4="100.84600" pt_clust_5="31.63666" pt_clust_6="39.33739"></scales>
<clustering>
<clus scale="   31.637">  2  5  1 -1</clus>
<clus scale="   39.337">  1  6  2 -1</clus>
<clus scale="  100.846">  2  4  1 -1</clus>
<clus scale="   39.337">  1  3  2 -1</clus>
</clustering>
</event>
<event>
 6    0  0.1361919E+003  0.2028763E+03  0.7546771E-02  0.1147335E+00
         21   -1    0    0  504  501  0.00000000000E+00  0.00000000000E+00  0.61263462449E+03  0.61263462449E+03  0.00000000000E+00 0.  1.
         21   -1    0    0  505  502 -0.00000000000E+00 -0.00000000000E+00 -0.77136719432E+03  0.77136719432E+03  0.00000000000E+00 0. -1.
         21    1    1    2  503  501 -0.31061241931E+02 -0.60392230137E+02  0.56044991635E+03  0.56454949380E+03  0.00000000000E+00 0.  1.
         21    1    1    2  504  502 -0.15256686216E+03  0.10323487202E+03 -0.31005612739E+03  0.36065064586E+03  0.00000000000E+00 0. -1.
         21    1    1    2  505  506  0.76579506995E+02  0.17462569286E+02 -0.21669125057E+03  0.23048744064E+03  0.00000000000E+00 0. -1.
         21    1    1    2  506  503  0.10704859710E+03 -0.60305211167E+02 -0.19243510822E+03  0.22831423851E+03  0.00000000000E+00 0. -1.
<scales pt_clust_3="67.91187" pt_clust_4="183.30016" pt_clust_5="66.08877" pt_clust_6="66.08877"></scales>
<clustering>
<clus scale="   67.912">  1  3  2 -1</clus>
<clus scale="   66.089">  5  6 -1 -1</clus>
<clus scale="  183.300">  1  4  2 -1</clus>
<clus scale="   67.912">  1  3  2 -1</clus>
</clustering>
</event>
<event>
 6    0  0.1361919E+003  0.1445043E+03  0.7546771E-02  0.1207393E+00
         21   -1    0    0  503  501  0.00000000000E+00  0.00000000000E+00  0.52323284413E+03  0.52323284413E+03  0.00000000000E+00 0.  1.
         21   -1    0    0  506  502 -0.00000000000E+00 -0.00000000000E+00 -0.25529013236E+03  0.25529013236E+03  0.00000000000E+00 0.  1.
         21    1    1    2  503  502 -0.71614462781E+02  0.22599871574E+03  0.32166396643E+03  0.39958948697E+03  0.00000000000E+00 0.  1.
         21    1    1    2  504  505 -0.50664891832E+00 -0.67283643737E+02  0.22893883205E+02  0.71073731405E+02  0.00000000000E+00 0.  1.
         21    1    1    2  505  501  0.27639460202E+02 -0.28075659163E+02  0.85990142764E+02  0.94585871304E+02  0.00000000000E+00 0.  1.
         21    1    1    2  506  504  0.44481651497E+02 -0.13063941284E+03 -0.16260528063E+03  0.21327388681E+03  0.00000000000E+00 0.  1.
<scales pt_clust_3="144.50433" pt_clust_4="70.37462" pt_clust_5="39.39775" pt_clust_6="14000.00000"></scales>
<clustering>
<clus scale="   39.398">  1  5  2 -1</clus>
<clus scale="   70.375">  1  4  2 -1</clus>
<clus scale="  144.504">  1  3  2 -1</clus>
<clus scale="   39.398">  1  3  2 -1</clus>
</clustering>
</event>
<event>
 6    0  0.1361919E+003  0.1118880E+03  0.7546771E-02  0.1257113E+00
         21   -1    0    0  504  501  0.00000000000E+00  0.00000000000E+00  0.98517546289E+02  0.98517546289E+02  0.00000000000E+00 0. -1.
         21   -1    0    0  505  502 -0.00000000000E+00 -0.00000000000E+00 -0.88685864070E+03  0.88685864070E+03  0.00000000000E+00 0. -1.
         21    1    1    2  503  502  0.10899872692E+03  0.19801640126E+02 -0.74908555892E+03  0.75723312263E+03  0.00000000000E+00 0. -1.
         21    1    1    2  504  506 -0.30386962672E+02  0.59412244570E+01 -0.35139601867E+02  0.46834359907E+02  0.00000000000E+00 0. -1.
         21    1    1    2  505  501  0.45245663802E+02  0.19220402350E+02 -0.60387149121E+01  0.49528376080E+02  0.00000000000E+00 0. -1.
         21    1    1    2  506  503 -0.12385742805E+03 -0.44963266934E+02  0.19227812960E+01  0.13178032837E+03  0.00000000000E+00 0. -1.
<scales pt_clust_3="111.88802" pt_clust_4="30.96233" pt_clust_5="43.33294" pt_clust_6="14000.00000"></scales>
<clustering>
<clus scale="   30.962">  1  4  2 -1</clus>
<clus scale="   43.333">  1  5  2 -1</clus>
<clus scale="  111.888">  2  3  1 -1</clus>
<clus scale="   30.962">  1  3  2 -1</clus>
</clustering>
</event>
<event>
 6    0  0.1361919E+003  0.1552332E+03  0.7546771E-02  0.1194186E+00
         21   -1    0    0  504  501  0.00000000000E+00  0.00000000000E+00  0.39248717821E+02  0.39248717821E+02  0.00000000000E+00 0.  1.
         21   -1    0    0  503  502 -0.00000000000E+00 -0.00000000000E+00 -0.25276073265E+04  0.25276073265E+04  0.00000000000E+00 0.  1.
         21    1    1    2  503  501 -0.10125571184E+03  0.92373754713E+01 -0.32300904806E+03  0.33863386336E+03  0.00000000000E+00 0.  1.
         21    1    1    2  504  506 -0.48613472177E+02  0.58606184258E+02 -0.24135568420E+02  0.79877907918E+02  0.00000000000E+00 0.  1.
         21    1    1    2  505  502  0.13045785806E+03 -0.33373291947E+02 -0.17293105129E+04  0.17345454388E+04  0.00000000000E+00 0.  1.
         21    1    1    2  506  505  0.19411325959E+02 -0.34470267782E+02 -0.41190347937E+03  0.41379883428E+03  0.00000000000E+00 0.  1.
<scales pt_clust_3="143.44030" pt_clust_4="76.14430" pt_clust_5="32.16770" pt_clust_6="32.16770"></scales>
<clustering>
<clus scale="   32.168">  5  6 -1 -1</clus>
<clus scale="   76.144">  1  4  2 -1</clus>
<clus scale="  143.440">  1  3  2 -1</clus>
<clus scale="   76.144">  1  3  2 -1</clus>
</clustering>
</event>
<event>
 6    0  0.1361919E+003  0.1375077E+03  0.7546771E-02  0.1216722E+00
         21   -1    0    0  504  501  0.00000000000E+00  0.00000000000E+00  0.24551450694E+03  0.24551450694E+03  0.00000000000E+00 0. -1.
         21   -1    0    0  506  502 -0.00000000000E+00 -0.00000000000E+00 -0.36039292436E+03  0.36039292436E+03  0.00000000000E+00 0.  1.
         21    1    1    2  503  502 -0.11166988365E+03  0.23275354780E+02 -0.16688271588E+03  0.20214288490E+03  0.00000000000E+00 0.  1.
         21    1    1    2  504  503  0.12063304065E+03  0.80878582774E+02  0.17629323815E+03  0.22841405707E+03  0.00000000000E+00 0. -1.
         21    1    1    2  505  501  0.10402819418E+01 -0.58273406323E+02 -0.21109357026E+02  0.61987716727E+02  0.00000000000E+00 0.  1.
         21    1    1    2  506  505 -0.10003438946E+02 -0.45880531231E+02 -0.10317958266E+03  0.11336277261E+03  0.00000000000E+00 0. -1.
<scales pt_clust_3="137.50772" pt_clust_4="14000.00000" pt_clust_5="65.83712" pt_clust_6="46.95841"></scales>
<clustering>
<clus scale="   46.958">  2  6  1 -1</clus>
<clus scale="   65.837">  2  5  1 -1</clus>
<clus scale="  137.508">  2  3  1 -1</clus>
<clus scale="  137.508">  1  3  2 -1</clus>
</clustering>
</event>
<event>
 6    0  0.1361919E+003  0.1690652E+03  0.7546771E-02  0.1178826E+00
         21   -1    0    0  504  501  0.00000000000E+00  0.00000000000E+00  0.18094818871E+03  0.18094818871E+03  0.00000000000E+00 0. -1.
         21   -1    0    0  506  502 -0.00000000000E+00 -0.00000000000E+00 -0.11606733900E+04  0.11606733900E+04  0.00000000000E+00 0. -1.
         21    1    1    2  503  502  0.70301672134E+01 -0.39232707958E+02 -0.32121211801E+03  0.32367553720E+03  0.00000000000E+00 0. -1.
         21    1    1    2  504  503 -0.12297362791E+02  0.63890255486E+02  0.12561311068E+03  0.14146322296E+03  0.00000000000E+00 0. -1.
         21    1    1    2  505  501  0.86612238966E+02 -0.18050040910E+03 -0.29322041640E+03  0.35504970106E+03  0.00000000000E+00 0. -1.
         21    1    1    2  506  505 -0.81345043389E+02  0.15584286157E+03 -0.49090577753E+03  0.52143311747E+03  0.00000000000E+00 0. -1.
<scales pt_clust_3="39.85760" pt_clust_4="64.68617" pt_clust_5="169.06518" pt_clust_6="14000.00000"></scales>
<clustering>
<clus scale="   39.858">  2  3  1 -1</clus>
<clus scale="   64.686">  1  4  2 -1</clus>
<clus scale="  169.065">  1  5  2 -1</clus>
<clus scale="   64.686">  1  3  2 -1</clus>
</clustering>
</event>
<event>
 6    0  0.1361919E+003  0.9024226E+02  0.7546771E-02  0.1302266E+00
         21   -1    0    0  506  501  0.00000000000E+00  0.00000000000E+00  0.15424391072E+04  0.15424391072E+04  0.00000000000E+00 0. -1.
         21   -1    0    0  505  502 -0.00000000000E+00 -0.00000000000E+00 -0.14688312782E+03  0.14688312782E+03  0.00000000000E+00 0. -1.
         21    1    1    2  503  501  0.11567367062E+03  0.21065545008E+02 -0.27541494388E+02  0.12075880578E+03  0.00000000000E+00 0. -1.
         21    1    1    2  504  502 -0.21848469802E+01 -0.37233837305E+02 -0.27393062519E+02  0.46276474271E+02  0.00000000000E+00 0. -1.
         21    1    1    2  505  503 -0.23979178101E+02  0.22761243364E+02 -0.26623532658E+02  0.42448647483E+02  0.00000000000E+00 0.  1.
         21    1    1    2  506  504 -0.89509645536E+02 -0.65929510676E+01  0.14771140690E+04  0.14798383075E+04  0.00000000000E+00 0. -1.
<scales pt_clust_3="14000.00000" pt_clust_4="31.42074" pt_clust_5="33.06169" pt_clust_6="90.24226"></scales>
<clustering>
<clus scale="   33.062">  2  5  1 -1</clus>
<clus scale="   31.421">  2  4  1 -1</clus>
<clus scale="   90.242">  1  6  2 -1</clus>
<clus scale="   90.242">  1  3  2 -1</clus>
</clustering>
</event>
<event>
 6    0  0.1361919E+003  0.8908603E+02  0.7546771E-02  0.1305080E+00
         21   -1    0    0  504  501  0.00000000000E+00  0.00000000000E+00  0.13153678936E+03  0.13153678936E+03  0.00000000000E+00 0. -1.
         21   -1    0    0  503  502 -0.00000000000E+00 -0.00000000000E+00 -0.44653616828E+03  0.44653616828E+03  0.00000000000E+00 0. -1.
         21    1    1    2  503  501 -0.68155199112E+02 -0.11544664305E+03 -0.20093306101E+03  0.24155155467E+03  0.00000000000E+00 0. -1.
         21    1    1    2  504  506  0.30453133287E+02  0.48144391371E+02  0.78742944158E+02  0.97189130062E+02  0.00000000000E+00 0. -1.
         21    1    1    2  505  502  0.40272107216E+02  0.10911165204E+02 -0.17534794441E+03  0.18024371766E+03  0.00000000000E+00 0. -1.
         21    1    1    2  506  505 -0.25700413901E+01  0.56391086478E+02 -0.17461317659E+02  0.59088555248E+02  0.00000000000E+00 0. -1.
<scales pt_clust_3="14000.00000" pt_clust_4="58.03071" pt_clust_5="41.72405" pt_clust_6="89.08603"></scales>
<clustering>
<clus scale="   41.724">  2  5  1 -1</clus>
<clus scale="   58.031">  1  4  2 -1</clus>
<clus scale="   89.086">  1  6  2 -1</clus>
<clus scale="   58.031">  1  3  2 -1</clus>
</clustering>
</event>
<event>
 6    0  0.1361919E+003  0.7975764E+02  0.7546771E-02  0.1329741E+00
         21   -1    0    0  504  501  0.00000000000E+00  0.00000000000E+00  0.95941430475E+03  0.95941430475E+03  0.00000000000E+00 0.  1.
         21   -1    0    0  503  502 -0.00000000000E+00 -0.00000000000E+00 -0.13264098991E+03  0.13264098991E+03  0.00000000000E+00 0. -1.
         21    1    1    2  503  506  0.19664693752E+02 -0.29222677448E+02  0.30049829694E+02  0.46299647107E+02  0.00000000000E+00 0.  1.
         21    1    1    2  504  502 -0.62386640480E+02  0.58742003523E+02 -0.99249727554E+02  0.13112293586E+03  0.00000000000E+00 0. -1.
         21    1    1    2  505  501  0.58638835036E+01 -0.87971970427E+02  0.72316987935E+03  0.72852462354E+03  0.00000000000E+00 0.  1.
         21    1    1    2  506  505  0.36858063224E+02  0.58452644352E+02  0.17280333336E+03  0.18610808815E+03  0.00000000000E+00 0.  1.
<scales pt_clust_3="35.22308" pt_clust_4="54.39382" pt_clust_5="79.75764" pt_clust_6="14000.00000"></scales>
<clustering>
<clus scale="   35.223">  2  3  1 -1</clus>
<clus scale="   54.394">  2  4  1 -1</clus>
<clus scale="   79.758">  1  5  2 -1</clus>
<clus scale="   79.758">  1  3  2 -1</clus>
</clustering>
</event>
<event>
 6    0  0.1361919E+003  0.1569223E+03  0.7546771E-02  0.1192216E+00
         21   -1    0    0  503  501  0.00000000000E+00  0.00000000000E+00  0.15631271822E+04  0.15631271822E+04  0.00000000000E+00 0. -1.
         21   -1    0    0  505  502 -0.00000000000E+00 -0.00000000000E+00 -0.13193198506E+04  0.13193198506E+04  0.00000000000E+00 0. -1.
         21    1    1    2  503  504  0.23474046480E+02  0.14752043039E+03  0.22136371926E+03  0.26704906749E+03  0.00000000000E+00 0. -1.
         21    1    1    2  504  502  0.32477479786E+02  0.14667743995E+02 -0.57716004476E+02  0.67831162306E+02  0.00000000000E+00 0.  1.
         21    1    1    2  505  506  0.22326847202E+02 -0.22435620062E+02 -0.12286167924E+04  0.12290244374E+04  0.00000000000E+00 0. -1.
         21    1    1    2  506  501 -0.78278373468E+02 -0.13975255432E+03  0.13087764093E+04  0.13185423655E+04  0.00000000000E+00 0. -1.
<scales pt_clust_3="156.92229" pt_clust_4="47.97254" pt_clust_5="31.65194" pt_clust_6="14000.00000"></scales>
<clustering>
<clus scale="   31.652">  2  5  1 -1</clus>
<clus scale="   47.973">  2  4  1 -1</clus>
<clus scale="  156.922">  2  3  1 -1</clus>
<clus scale="  156.922">  1  3  2 -1</clus>
</clustering>
</event>
<event>
 6    0  0.1361919E+003  0.9369279E+02  0.7546771E-02  0.1294148E+00
         21   -1    0    0  505  501  0.00000000000E+00  0.00000000000E+00  0.47971600365E+03  0.47971600365E+03  0.00000000000E+00 0.  1.
         21   -1    0    0  503  502 -0.00000000000E+00 -0.00000000000E+00 -0.76538165807E+03  0.76538165807E+03  0.00000000000E+00 0.  1.
         21    1    1    2  503  504  0.46552016359E+02 -0.98517762080E+01 -0.30505976964E+03  0.30874845874E+03  0.00000000000E+00 0.  1.
         21    1    1    2  504  501  0.11490731696E+02  0.56203951923E+02 -0.38337575742E+03  0.38764402807E+03  0.00000000000E+00 0.  1.
         21    1    1    2  505  506 -0.94725330175E+02  0.13165646359E+01  0.45760743433E+03  0.46731058780E+03  0.00000000000E+00 0.  1.
         21    1    1    2  506  502  0.36682582119E+02 -0.47668740351E+02 -0.54837561696E+02  0.81394587107E+02  0.00000000000E+00 0.  1.
<scales pt_clust_3="47.58306" pt_clust_4="93.69279" pt_clust_5="14000.00000" pt_clust_6="65.68753"></scales>
<clustering>
<clus scale="   47.583">  2  3  1 -1</clus>
<clus scale="   65.688">  2  6  1 -1</clus>
<clus scale="   93.693">  2  4  1 -1</clus>
<clus scale="   93.693">  1  3  2 -1</clus>
</clustering>
</event>
<event>
 6    0  0.1361919E+003  0.8224003E+02  0.7546771E-02  0.1322812E+00
         21   -1    0    0  503  501  0.00000000000E+00  0.00000000000E+00  0.80247815750E+02  0.80247815750E+02  0.00000000000E+00 0. -1.
         21   -1    0    0  504  502 -0.00000000000E+00 -0.00000000000E+00 -0.84387036536E+03  0.84387036536E+03  0.00000000000E+00 0.  1.
         21    1    1    2  503  505 -0.25686228873E+02 -0.17881208461E+02  0.55882682331E+02  0.64049934850E+02  0.00000000000E+00 0. -1.
         21    1    1    2  504  501 -0.38039382188E+01  0.97798391151E+02 -0.30289492592E+03  0.31831483064E+03  0.00000000000E+00 0.  1.
         21    1    1    2  505  506  0.45445748587E+02 -0.48505032220E+01 -0.45705761346E+02  0.64636367985E+02  0.00000000000E+00 0.  1.
         21    1    1    2  506  502 -0.15955581495E+02 -0.75066679468E+02 -0.47090454467E+03  0.47711704763E+03  0.00000000000E+00 0.  1.
<scales pt_clust_3="31.29728" pt_clust_4="14000.00000" pt_clust_5="35.96619" pt_clust_6="82.24003"></scales>
<clustering>
<clus scale="   31.297">  1  3  2 -1</clus>
<clus scale="   35.966">  1  5  2 -1</clus>
<clus scale="   82.240">  2  6  1 -1</clus>
<clus scale="   31.297">  1  3  2 -1</clus>
</clustering>
</event>
<event>
 6    0  0.1361919E+003  0.9302658E+02  0.7546771E-02  0.1295684E+00
         21   -1    0    0  503  501  0.00000000000E+00  0.00000000000E+00  0.58601117729E+03  0.58601117729E+03  0.00000000000E+00 0. -1.
         21   -1    0    0  504  502 -0.00000000000E+00 -0.00000000000E+00 -0.21164495973E+03  0.21164495973E+03  0.00000000000E+00 0.  1.
         21    1    1    2  503  506 -0.57263245018E+01  0.41197699041E+02  0.40730417580E+03  0.40942243810E+03  0.00000000000E+00 0. -1.
         21    1    1    2  504  501  0.11435337731E+03 -0.43831922254E+02  0.96268376194E+02  0.15577397910E+03  0.00000000000E+00 0. -1.
         21    1    1    2  505  502 -0.77083895933E+02  0.46963657477E+02 -0.14929694485E+03  0.17446228784E+03  0.00000000000E+00 0.  1.
         21    1    1    2  506  505 -0.31543156876E+02 -0.44329434263E+02  0.20090610419E+02  0.57997431967E+02  0.00000000000E+00 0.  1.
<scales pt_clust_3="41.59376" pt_clust_4="93.02658" pt_clust_5="14000.00000" pt_clust_6="48.16917"></scales>
<clustering>
<clus scale="   41.594">  1  3  2 -1</clus>
<clus scale="   48.169">  1  6  2 -1</clus>
<clus scale="   93.027">  1  4  2 -1</clus>
<clus scale="   41.594">  1  3  2 -1</clus>
</clustering>
</event>
<event>
 6    0  0.1361919E+003  0.1262391E+03  0.7546771E-02  0.1233145E+00
         21   -1    0    0  504  501  0.00000000000E+00  0.00000000000E+00  0.35246799395E+04  0.35246799395E+04  0.00000000000E+00 0. -1.
         21   -1    0    0  503  502 -0.00000000000E+00 -0.00000000000E+00 -0.97661108850E+02  0.97661108850E+02  0.00000000000E+00 0.  1.
         21    1    1    2  503  506  0.80531625919E+02  0.34379706352E+02  0.80557675488E+02  0.11898254520E+03  0.00000000000E+00 0.  1.
         21    1    1    2  504  505 -0.88900709826E+02 -0.51156139212E+02  0.68701448572E+03  0.69462881482E+03  0.00000000000E+00 0.  1.
         21    1    1    2  505  502  0.72335297051E+02  0.16401456228E+02 -0.55745261136E+02  0.92784358084E+02  0.00000000000E+00 0.  1.
         21    1    1    2  506  501 -0.63966213144E+02  0.37497663196E+00  0.27151919305E+04  0.27159453302E+04  0.00000000000E+00 0. -1.
<scales pt_clust_3="14000.00000" pt_clust_4="126.23913" pt_clust_5="72.74624" pt_clust_6="63.96731"></scales>
<clustering>
<clus scale="   63.967">  1  6  2 -1</clus>
<clus scale="   72.746">  2  5  1 -1</clus>
<clus scale="  126.239">  1  4  2 -1</clus>
<clus scale="   63.967">  1  3  2 -1</clus>
</clustering>
</event>
<event>
 6    0  0.1361919E+003  0.8687693E+02  0.7546771E-02  0.1310596E+00
         21   -1    0    0  506  501  0.00000000000E+00  0.00000000000E+00  0.28313525730E+03  0.28313525730E+03  0.00000000000E+00 0.  1.
         21   -1    0    0  503  502 -0.00000000000E+00 -0.00000000000E+00 -0.62850663928E+03  0.62850663928E+03  0.00000000000E+00 0.  1.
         21    1    1    2  503  505  0.68065399715E+02 -0.10305657897E+02 -0.16196704564E+03  0.17598985509E+03  0.00000000000E+00 0.  1.
         21    1    1    2  504  501 -0.59330973758E+02 -0.61902902775E+02 -0.33634976149E+03  0.34710703806E+03  0.00000000000E+00 0.  1.
         21    1    1    2  505  504 -0.32062933154E+02  0.65440733597E+01 -0.11091297007E+03  0.11563971423E+03  0.00000000000E+00 0. -1.
         21    1    1    2  506  502  0.23328507197E+02  0.65664487312E+02  0.26385839522E+03  0.27290528919E+03  0.00000000000E+00 0.  1.
<scales pt_clust_3="68.84116" pt_clust_4="31.94051" pt_clust_5="31.94051" pt_clust_6="69.81720"></scales>
<clustering>
<clus scale="   31.941">  4  5 -1 -1</clus>
<clus scale="   68.841">  2  3  1 -1</clus>
<clus scale="   69.817">  1  6  2 -1</clus>
<clus scale="   69.817">  1  3  2 -1</clus>
</clustering>
</event>
<event>
 6    0  0.1361919E+003  0.7549674E+02  0.7546771E-02  0.1342340E+00
         21   -1    0    0  504  501  0.00000000000E+00  0.00000000000E+00  0.82481929883E+03  0.82481929883E+03  0.00000000000E+00 0.  1.
         21   -1    0    0  503  502 -0.00000000000E+00 -0.00000000000E+00 -0.17755656338E+03  0.17755656338E+03  0.00000000000E+00 0. -1.
         21    1    1    2  503  506  0.27859305508E+01 -0.83406625110E+02  0.42998142086E+03  0.43800507852E+03  0.00000000000E+00 0.  1.
         21    1    1    2  504  505  0.70701110320E+02  0.60548345335E+02 -0.10416821403E+03  0.13969884014E+03  0.00000000000E+00 0. -1.
         21    1    1    2  505  502 -0.32694760336E+02  0.42838219058E+01 -0.44835113086E+02  0.55655061306E+02  0.00000000000E+00 0. -1.
         21    1    1    2  506  501 -0.40792280535E+02  0.18574457870E+02  0.36628464170E+03  0.36901688224E+03  0.00000000000E+00 0.  1.
<scales pt_clust_3="75.49674" pt_clust_4="14000.00000" pt_clust_5="32.97421" pt_clust_6="45.16056"></scales>
<clustering>
<clus scale="   32.974">  2  5  1 -1</clus>
<clus scale="   45.161">  1  6  2 -1</clus>
<clus scale="   75.497">  1  3  2 -1</clus>
<clus scale="   45.161">  1  3  2 -1</clus>
</clustering>
</event>
<event>
 6    0  0.1361919E+003  0.8455189E+02  0.7546771E-02  0.1316609E+00
         21   -1    0    0  504  501  0.00000000000E+00  0.00000000000E+00  0.16040374393E+03  0.16040374393E+03  0.00000000000E+00 0.  1.
         21   -1    0    0  506  502 -0.00000000000E+00 -0.00000000000E+00 -0.51380370945E+03  0.51380370945E+03  0.00000000000E+00 0.  1.
         21    1    1    2  503  501 -0.26026528194E+02  0.28882155665E+02  0.11198520705E+01  0.38894898822E+02  0.00000000000E+00 0.  1.
         21    1    1    2  504  502 -0.34300238826E+02 -0.90207514297E+02  0.11450488963E+03  0.14975069872E+03  0.00000000000E+00 0.  1.
         21    1    1    2  505  503  0.17568843371E+02  0.73826053391E+02 -0.35756812860E+03  0.36553237478E+03  0.00000000000E+00 0.  1.
         21    1    1    2  506  505  0.42757923649E+02 -0.12500694758E+02 -0.11145657862E+03  0.12002948105E+03  0.00000000000E+00 0.  1.
<scales pt_clust_3="38.87877" pt_clust_4="84.55189" pt_clust_5="14000.00000" pt_clust_6="43.54214"></scales>
<clustering>
<clus scale="   38.879">  1  3  2 -1</clus>
<clus scale="   43.542">  2  6  1 -1</clus>
<clus scale="   84.552">  1  4  2 -1</clus>
<clus scale="   38.879">  1  3  2 -1</clus>
</clustering>
</event>
<event>
 6    0  0.1361919E+003  0.1019241E+03  0.7546771E-02  0.1276301E+00
         21   -1    0    0  506  501  0.00000000000E+00  0.00000000000E+00  0.76292026470E+03  0.76292026470E+03  0.00000000000E+00 0. -1.
         21   -1    0    0  503  502 -0.00000000000E+00 -0.00000000000E+00 -0.16493502938E+03  0.16493502938E+03  0.00000000000E+00 0. -1.
         21    1    1    2  503  501 -0.44499258556E+01  0.81394892412E+02  0.41869583028E+02  0.91640560528E+02  0.00000000000E+00 0.  1.
         21    1    1    2  504  502  0.45620264971E+01  0.53334807350E+02 -0.11814967317E+03  0.12971028884E+03  0.00000000000E+00 0. -1.
         21    1    1    2  505  504  0.70726709265E+02 -0.48572347795E+02  0.17461754772E+03  0.19455803337E+03  0.00000000000E+00 0.  1.
         21    1    1    2  506  505 -0.70838809907E+02 -0.86157351967E+02  0.49964777774E+03  0.51194641135E+03  0.00000000000E+00 0. -1.
<scales pt_clust_3="101.92411" pt_clust_4="53.52956" pt_clust_5="80.17519" pt_clust_6="14000.00000"></scales>
<clustering>
<clus scale="   53.530">  2  4  1 -1</clus>
<clus scale="   80.175">  2  5  1 -1</clus>
<clus scale="  101.924">  2  3  1 -1</clus>
<clus scale="  101.924">  1  3  2 -1</clus>
</clustering>
</event>
<event>
 6    0  0.1361919E+003  0.1239380E+03  0.7546771E-02  0.1236738E+00
         21   -1    0    0  505  501  0.00000000000E+00  0.00000000000E+00  0.13041132020E+04  0.13041132020E+04  0.00000000000E+00 0. -1.
         21   -1    0    0  503  502 -0.00000000000E+00 -0.00000000000E+00 -0.47269222008E+03  0.47269222008E+03  0.00000000000E+00 0.  1.
         21    1    1    2  503  506  0.47069568622E+02  0.45898673461E+02 -0.32985746928E+03  0.33634533229E+03  0.00000000000E+00 0.  1.
         21    1    1    2  504  502  0.35690314079E+02  0.48804716670E+02 -0.10368302081E+03  0.12002444623E+03  0.00000000000E+00 0. -1.
         21    1    1    2  505  504 -0.10817866310E+03 -0.11307830868E+03  0.19506418636E+03  0.25007871530E+03  0.00000000000E+00 0. -1.
         21    1    1    2  506  501  0.25418780398E+02  0.18374918550E+02  0.10698972857E+04  0.10703569283E+04  0.00000000000E+00 0. -1.
<scales pt_clust_3="14000.00000" pt_clust_4="61.50518" pt_clust_5="123.93801" pt_clust_6="31.36482"></scales>
<clustering>
<clus scale="   31.365">  1  6  2 -1</clus>
<clus scale="   61.505">  2  4  1 -1</clus>
<clus scale="  123.938">  1  5  2 -1</clus>
<clus scale="   31.365">  1  3  2 -1</clus>
</clustering>
</event>
<event>
 6    0  0.1492076E+003  0.8352417E+02  0.7546771E-02  0.1319338E+00
         21   -1    0    0  504  501  0.00000000000E+00  0.00000000000E+00  0.14454035026E+04  0.14454035026E+04  0.00000000000E+00 0. -1.
         21   -1    0    0  503  502 -0.00000000000E+00 -0.00000000000E+00 -0.23634872004E+03  0.23634872004E+03  0.00000000000E+00 0. -1.
         21    1    1    2  503  501 -0.90884950559E+02  0.82206681003E+01 -0.43452978376E+02  0.10107331474E+03  0.00000000000E+00 0. -1.
         21    1    1    2  504  505  0.82318466685E+02 -0.13326831562E+02  0.13479542564E+04  0.13505312332E+04  0.00000000000E+00 0. -1.
         21    1    1    2  505  506  0.43948032776E+02 -0.32839431029E+02  0.50924201309E+02  0.74854071995E+02  0.00000000000E+00 0. -1.
         21    1    1    2  506  502 -0.35381548902E+02  0.37945594491E+02 -0.14637069683E+03  0.15529360268E+03  0.00000000000E+00 0. -1.
<scales pt_clust_3="83.52417" pt_clust_4="14000.00000" pt_clust_5="47.73612" pt_clust_6="51.88181"></scales>
<clustering>
<clus scale="   51.882">  2  6  1 -1</clus>
<clus scale="   47.736">  2  5  1 -1</clus>
<clus scale="   83.524">  2  3  1 -1</clus>
<clus scale="   83.524">  1  3  2 -1</clus>
</clustering>
</event>
<event>
 6    0  0.1361919E+003  0.8383026E+02  0.7546771E-02  0.1318520E+00
         21   -1    0    0  506  501  0.00000000000E+00  0.00000000000E+00  0.55346458288E+03  0.55346458288E+03  0.00000000000E+00 0.  1.
         21   -1    0    0  503  502 -0.00000000000E+00 -0.00000000000E+00 -0.65163014347E+02  0.65163014347E+02  0.00000000000E+00 0. -1.
         21    1    1    2  503  505  0.58486670413E+02  0.68653444307E+02  0.67475869046E+02  0.11263649025E+03  0.00000000000E+00 0.  1.
         21    1    1    2  504  502  0.38451334421E+02 -0.64529409572E+02  0.14910118433E+02  0.76582383419E+02  0.00000000000E+00 0. -1.
         21    1    1    2  505  501 -0.23830891954E+02  0.31939466179E+02  0.25302355723E+03  0.25614246314E+03  0.00000000000E+00 0.  1.
         21    1    1    2  506  504 -0.73107112880E+02 -0.36063500915E+02  0.15289202383E+03  0.17326626043E+03  0.00000000000E+00 0. -1.
<scales pt_clust_3="14000.00000" pt_clust_4="69.05312" pt_clust_5="39.85023" pt_clust_6="83.83026"></scales>
<clustering>
<clus scale="   39.850">  1  5  2 -1</clus>
<clus scale="   69.053">  2  4  1 -1</clus>
<clus scale="   83.830">  1  6  2 -1</clus>
<clus scale="   39.850">  1  3  2 -1</clus>
</clustering>
</event>
<event>
 6    0  0.1361919E+003  0.9323724E+02  0.7546771E-02  0.1295196E+00
         21   -1    0    0  503  501  0.00000000000E+00  0.00000000000E+00  0.24881753015E+03  0.24881753015E+03  0.00000000000E+00 0. -1.
         21   -1    0    0  505  502 -0.00000000000E+00 -0.00000000000E+00 -0.48965059140E+03  0.48965059140E+03  0.00000000000E+00 0.  1.
         21    1    1    2  503  504  0.35461042399E+02 -0.95013584155E+02 -0.20495830411E+02  0.10346567434E+03  0.00000000000E+00 0. -1.
         21    1    1    2  504  502  0.33424054029E+02 -0.24437876315E+02 -0.39708354881E+03  0.39923642360E+03  0.00000000000E+00 0.  1.
         21    1    1    2  505  506 -0.88465132190E+01  0.48966325487E+02  0.19820169347E+02  0.53561188755E+02  0.00000000000E+00 0.  1.
         21    1    1    2  506  501 -0.60038583210E+02  0.70485134982E+02  0.15692614863E+03  0.18220483487E+03  0.00000000000E+00 0. -1.
<scales pt_clust_3="93.23724" pt_clust_4="41.40504" pt_clust_5="44.54097" pt_clust_6="14000.00000"></scales>
<clustering>
<clus scale="   41.405">  2  4  1 -1</clus>
<clus scale="   44.541">  2  5  1 -1</clus>
<clus scale="   93.237">  2  3  1 -1</clus>
<clus scale="   93.237">  1  3  2 -1</clus>
</clustering>
</event>
<event>
 6    0  0.1361919E+003  0.1417195E+03  0.7546771E-02  0.1211034E+00
         21   -1    0    0  503  501  0.00000000000E+00  0.00000000000E+00  0.21401408226E+03  0.21401408226E+03  0.00000000000E+00 0.  1.
         21   -1    0    0  504  502 -0.00000000000E+00 -0.00000000000E+00 -0.64340546557E+03  0.64340546557E+03  0.00000000000E+00 0. -1.
         21    1    1    2  503  502 -0.34119791487E+02  0.58451515787E+02 -0.45751423100E+03  0.46249325556E+03  0.00000000000E+00 0. -1.
         21    1    1    2  504  506 -0.17247120036E+02  0.65147712019E+02 -0.15048446964E+03  0.16488560620E+03  0.00000000000E+00 0. -1.
         21    1    1    2  505  501  0.24735928404E+01 -0.71347972716E+02  0.10836359810E+03  0.12976641039E+03  0.00000000000E+00 0.  1.
         21    1    1    2  506  505  0.48893318683E+02 -0.52251255090E+02  0.70243719229E+02  0.10027427567E+03  0.00000000000E+00 0.  1.
<scales pt_clust_3="130.31344" pt_clust_4="67.39204" pt_clust_5="55.63726" pt_clust_6="55.63726"></scales>
<clustering>
<clus scale="   55.637">  5  6 -1 -1</clus>
<clus scale="   67.392">  2  4  1 -1</clus>
<clus scale="  130.313">  2  3  1 -1</clus>
<clus scale="  141.719">  1  3  2 -1</clus>
</clustering>
</event>
<event>
 6    0  0.1361919E+003  0.8921232E+02  0.7546771E-02  0.1304770E+00
         21   -1    0    0  506  501  0.00000000000E+00  0.00000000000E+00  0.97475109252E+02  0.97475109252E+02  0.00000000000E+00 0. -1.
         21   -1    0    0  503  502 -0.00000000000E+00 -0.00000000000E+00 -0.19778872070E+04  0.19778872070E+04  0.00000000000E+00 0. -1.
         21    1    1    2  503  504 -0.56831088104E+02  0.56939742467E+02 -0.76727112284E+03  0.77147707859E+03  0.00000000000E+00 0. -1.
         21    1    1    2  504  505  0.12388302527E+02  0.11104472696E+03 -0.16244761597E+03  0.19716396567E+03  0.00000000000E+00 0. -1.
         21    1    1    2  505  501  0.37985065076E+02 -0.79456249963E+02  0.50553786141E+02  0.10154726053E+03  0.00000000000E+00 0. -1.
         21    1    1    2  506  502  0.64577205006E+01 -0.88528219461E+02 -0.10012471451E+04  0.10051740115E+04  0.00000000000E+00 0. -1.
<scales pt_clust_3="80.44816" pt_clust_4="89.21232" pt_clust_5="14000.00000" pt_clust_6="57.97010"></scales>
<clustering>
<clus scale="   80.448">  2  3  1 -1</clus>
<clus scale="   57.970">  2  6  1 -1</clus>
<clus scale="   89.212">  2  4  1 -1</clus>
<clus scale="   89.212">  1  3  2 -1</clus>
</clustering>
</event>
<event>
 6    0  0.1361919E+003  0.8959320E+02  0.7546771E-02  0.1303840E+00
         21   -1    0    0  506  501  0.00000000000E+00  0.00000000000E+00  0.16268243035E+03  0.16268243035E+03  0.00000000000E+00 0. -1.
         21   -1    0    0  503  502 -0.00000000000E+00 -0.00000000000E+00 -0.35143103718E+03  0.35143103718E+03  0.00000000000E+00 0. -1.
         21    1    1    2  503  504 -0.14841341972E+03  0.15534944585E+02 -0.21752828584E+03  0.26379240473E+03  0.00000000000E+00 0. -1.
         21    1    1    2  504  501  0.34243892377E+02 -0.27709909287E+02  0.86561147389E+02  0.97125256629E+02  0.00000000000E+00 0. -1.
         21    1    1    2  505  502  0.54780927306E+02  0.53211945026E+01 -0.73079206699E+02  0.91486805383E+02  0.00000000000E+00 0.  1.
         21    1    1    2  506  505  0.59388600037E+02  0.68537701996E+01  0.15297738321E+02  0.61709000787E+02  0.00000000000E+00 0. -1.
<scales pt_clust_3="14000.00000" pt_clust_4="44.05092" pt_clust_5="59.25507" pt_clust_6="89.59320"></scales>
<clustering>
<clus scale="   44.051">  1  4  2 -1</clus>
<clus scale="   59.255">  2  5  1 -1</clus>
<clus scale="   89.593">  1  6  2 -1</clus>
<clus scale="   44.051">  1  3  2 -1</clus>
</clustering>
</event>
<event>
 6    0  0.1361919E+003  0.8930863E+02  0.7546771E-02  0.1304535E+00
         21   -1    0    0  506  501  0.00000000000E+00  0.00000000000E+00  0.72496166000E+02  0.72496166000E+02  0.00000000000E+00 0. -1.
         21   -1    0    0  503  502 -0.00000000000E+00 -0.00000000000E+00 -0.41362041544E+03  0.41362041544E+03  0.00000000000E+00 0. -1.
         21    1    1    2  503  504 -0.13697194531E+02 -0.46959646138E+02 -0.17614765515E+03  0.18281361525E+03  0.00000000000E+00 0. -1.
         21    1    1    2  504  505  0.88084713831E+02 -0.11327031109E+02 -0.11183852040E+03  0.14281131989E+03  0.00000000000E+00 0. -1.
         21    1    1    2  505  501  0.20317322047E+02  0.52335564962E+02 -0.25471569140E+02  0.61649053274E+02  0.00000000000E+00 0. -1.
         21    1    1    2  506  502 -0.94704841347E+02  0.59511122846E+01 -0.27666504751E+02  0.98842593031E+02  0.00000000000E+00 0. -1.
<scales pt_clust_3="48.91647" pt_clust_4="89.30863" pt_clust_5="47.08091" pt_clust_6="14000.00000"></scales>
<clustering>
<clus scale="   48.916">  2  3  1 -1</clus>
<clus scale="   47.081">  1  5  2 -1</clus>
<clus scale="   89.309">  2  4  1 -1</clus>
<clus scale="   47.081">  1  3  2 -1</clus>
</clustering>
</event>
<event>
 6    0  0.1361919E+003  0.1402963E+03  0.7546771E-02  0.1212931E+00
         21   -1    0    0  506  501  0.00000000000E+00  0.00000000000E+00  0.64944343881E+02  0.64944343881E+02  0.00000000000E+00 0. -1.
         21   -1    0    0  504  502 -0.00000000000E+00 -0.00000000000E+00 -0.65715965466E+03  0.65715965466E+03  0.00000000000E+00 0. -1.
         21    1    1    2  503  505  0.10941073801E+02  0.91893473832E+02 -0.28837751483E+03  0.30286252441E+03  0.00000000000E+00 0. -1.
         21    1    1    2  504  501  0.26379904467E+02 -0.17401207440E+02 -0.20886661008E+02  0.37880786530E+02  0.00000000000E+00 0. -1.
         21    1    1    2  505  502  0.30780982289E+02  0.31438179644E+02 -0.24630517750E+03  0.25020405367E+03  0.00000000000E+00 0. -1.
         21    1    1    2  506  503 -0.68101960557E+02 -0.10593044604E+03 -0.36645957444E+02  0.13115663394E+03  0.00000000000E+00 0. -1.
<scales pt_clust_3="38.51277" pt_clust_4="31.60224" pt_clust_5="38.51277" pt_clust_6="128.98608"></scales>
<clustering>
<clus scale="   31.602">  1  4  2 -1</clus>
<clus scale="   38.513">  3  5 -1 -1</clus>
<clus scale="  128.986">  1  6  2 -1</clus>
<clus scale="   31.602">  1  3  2 -1</clus>
</clustering>
</event>
<event>
 6    0  0.1361919E+003  0.2358760E+03  0.7546771E-02  0.1122571E+00
         21   -1    0    0  504  501  0.00000000000E+00  0.00000000000E+00  0.10291846649E+03  0.10291846649E+03  0.00000000000E+00 0.  1.
         21   -1    0    0  503  502 -0.00000000000E+00 -0.00000000000E+00 -0.20642679113E+04  0.20642679113E+04  0.00000000000E+00 0. -1.
         21    1    1    2  503  505  0.21894786452E+03 -0.79068590326E+01 -0.16384451643E+03  0.27357944251E+03  0.00000000000E+00 0.  1.
         21    1    1    2  504  506 -0.20361320862E+03  0.87300571901E+02 -0.11307964031E+04  0.11522934669E+04  0.00000000000E+00 0. -1.
         21    1    1    2  505  501  0.29391274943E+02 -0.11710781492E+02  0.27779421176E+02  0.42103274063E+02  0.00000000000E+00 0.  1.
         21    1    1    2  506  502 -0.44725930850E+02 -0.67682931377E+02 -0.69448794650E+03  0.69921019438E+03  0.00000000000E+00 0. -1.
<scales pt_clust_3="235.87605" pt_clust_4="14000.00000" pt_clust_5="31.63842" pt_clust_6="80.90944"></scales>
<clustering>
<clus scale="   31.638">  1  5  2 -1</clus>
<clus scale="   80.909">  2  6  1 -1</clus>
<clus scale="  235.876">  1  3  2 -1</clus>
<clus scale="   31.638">  1  3  2 -1</clus>
</clustering>
</event>
<event>
 6    0  0.1361919E+003  0.1019624E+03  0.7546771E-02  0.1276223E+00
         21   -1    0    0  506  501  0.00000000000E+00  0.00000000000E+00  0.86345106328E+02  0.86345106328E+02  0.00000000000E+00 0.  1.
         21   -1    0    0  505  502 -0.00000000000E+00 -0.00000000000E+00 -0.31908104237E+03  0.31908104237E+03  0.00000000000E+00 0.  1.
         21    1    1    2  503  502  0.34733097445E+02 -0.22554369447E+01 -0.70372366436E+02  0.78509521790E+02  0.00000000000E+00 0.  1.
         21    1    1    2  504  503  0.24519814995E+02 -0.79848575378E+02 -0.78101177057E+02  0.11435388133E+03  0.00000000000E+00 0.  1.
         21    1    1    2  505  501 -0.20093714381E+02  0.12988978916E+03 -0.70955591536E+02  0.14936469012E+03  0.00000000000E+00 0.  1.
         21    1    1    2  506  504 -0.39159198059E+02 -0.47785776836E+02 -0.13306801012E+02  0.63198055457E+02  0.00000000000E+00 0.  1.
<scales pt_clust_3="34.80625" pt_clust_4="101.96241" pt_clust_5="14000.00000" pt_clust_6="58.77844"></scales>
<clustering>
<clus scale="   34.806">  2  3  1 -1</clus>
<clus scale="   58.778">  1  6  2 -1</clus>
<clus scale="  101.962">  2  4  1 -1</clus>
<clus scale="   58.778">  1  3  2 -1</clus>
</clustering>
</event>
<event>
 6    0  0.1361919E+003  0.8125938E+02  0.7546771E-02  0.1325515E+00
         21   -1    0    0  503  501  0.00000000000E+00  0.00000000000E+00  0.18968659659E+03  0.18968659659E+03  0.00000000000E+00 0. -1.
         21   -1    0    0  505  502 -0.00000000000E+00 -0.00000000000E+00 -0.25467737395E+03  0.25467737395E+03  0.00000000000E+00 0. -1.
         21    1    1    2  503  502 -0.68544570843E+02  0.57978354987E+02  0.15454899280E+02  0.91097210444E+02  0.00000000000E+00 0. -1.
         21    1    1    2  504  506  0.47652346872E+02 -0.75429894600E+01 -0.23209439407E+02  0.53538032556E+02  0.00000000000E+00 0. -1.
         21    1    1    2  505  504  0.56210611956E+01  0.31795486215E+02 -0.16227684238E+03  0.16545791865E+03  0.00000000000E+00 0. -1.
         21    1    1    2  506  501  0.15271162775E+02 -0.82230851742E+02  0.10504060515E+03  0.13427080889E+03  0.00000000000E+00 0. -1.
<scales pt_clust_3="81.25938" pt_clust_4="50.37352" pt_clust_5="32.28853" pt_clust_6="14000.00000"></scales>
<clustering>
<clus scale="   32.289">  2  5  1 -1</clus>
<clus scale="   50.374">  2  4  1 -1</clus>
<clus scale="   81.259">  2  3  1 -1</clus>
<clus scale="   81.259">  1  3  2 -1</clus>
</clustering>
</event>
<event>
 6    0  0.1361919E+003  0.1240420E+03  0.7546771E-02  0.1236574E+00
         21   -1    0    0  504  501  0.00000000000E+00  0.00000000000E+00  0.66556565837E+03  0.66556565837E+03  0.00000000000E+00 0. -1.
         21   -1    0    0  505  502 -0.00000000000E+00 -0.00000000000E+00 -0.41486861197E+03  0.41486861197E+03  0.00000000000E+00 0. -1.
         21    1    1    2  503  502  0.38147927244E+02 -0.12848349250E+01 -0.36375322490E+02  0.52726456737E+02  0.00000000000E+00 0. -1.
         21    1    1    2  504  506 -0.32927641381E+01  0.32037801832E+02  0.47070484074E+03  0.47180537316E+03  0.00000000000E+00 0. -1.
         21    1    1    2  505  501  0.79143659502E+02  0.46390415566E+02 -0.33732789144E+03  0.34957959872E+03  0.00000000000E+00 0. -1.
         21    1    1    2  506  503 -0.11399882261E+03 -0.77143382473E+02  0.15369541959E+03  0.20632284173E+03  0.00000000000E+00 0. -1.
<scales pt_clust_3="38.00944" pt_clust_4="32.20657" pt_clust_5="14000.00000" pt_clust_6="124.04198"></scales>
<clustering>
<clus scale="   32.207">  1  4  2 -1</clus>
<clus scale="   38.009">  2  3  1 -1</clus>
<clus scale="  124.042">  1  6  2 -1</clus>
<clus scale="   32.207">  1  3  2 -1</clus>
</clustering>
</event>
<event>
 6    0  0.1361919E+003  0.9028698E+02  0.7546771E-02  0.1302158E+00
         21   -1    0    0  506  501  0.00000000000E+00  0.00000000000E+00  0.51387542707E+03  0.51387542707E+03  0.00000000000E+00 0.  1.
         21   -1    0    0  503  502 -0.00000000000E+00 -0.00000000000E+00 -0.20636515909E+03  0.20636515909E+03  0.00000000000E+00 0.  1.
         21    1    1    2  503  505 -0.58340583871E+02  0.14975727466E+02 -0.44182000681E+02  0.74699031612E+02  0.00000000000E+00 0. -1.
         21    1    1    2  504  502  0.21869036398E+02 -0.20548370990E+02 -0.12596884192E+03  0.12949378147E+03  0.00000000000E+00 0.  1.
         21    1    1    2  505  501  0.20105750988E+02  0.91777902519E+02  0.34047482669E+03  0.35320041368E+03  0.00000000000E+00 0.  1.
         21    1    1    2  506  504  0.16365796485E+02 -0.86205258995E+02  0.13718628390E+03  0.16284735940E+03  0.00000000000E+00 0. -1.
<scales pt_clust_3="41.81316" pt_clust_4="30.00817" pt_clust_5="90.28698" pt_clust_6="14000.00000"></scales>
<clustering>
<clus scale="   30.008">  2  4  1 -1</clus>
<clus scale="   41.813">  2  3  1 -1</clus>
<clus scale="   90.287">  1  5  2 -1</clus>
<clus scale="   90.287">  1  3  2 -1</clus>
</clustering>
</event>
<event>
 6    0  0.1361919E+003  0.9437991E+02  0.7546771E-02  0.1292579E+00
         21   -1    0    0  504  501  0.00000000000E+00  0.00000000000E+00  0.26147916730E+04  0.26147916730E+04  0.00000000000E+00 0. -1.
         21   -1    0    0  506  502 -0.00000000000E+00 -0.00000000000E+00 -0.12981045893E+02  0.12981045893E+02  0.00000000000E+00 0. -1.
         21    1    1    2  503  501  0.32333273027E+02  0.52619329226E+02  0.12898255096E+04  0.12913032485E+04  0.00000000000E+00 0. -1.
         21    1    1    2  504  505  0.18912072620E+02 -0.11551416117E+03  0.58648414486E+03  0.59805086748E+03  0.00000000000E+00 0. -1.
         21    1    1    2  505  502 -0.36410965186E+02 -0.51789965476E+01  0.68629761477E+02  0.77862857329E+02  0.00000000000E+00 0.  1.
         21    1    1    2  506  503 -0.14834380461E+02  0.68073828490E+02  0.65687121110E+03  0.66055574552E+03  0.00000000000E+00 0. -1.
<scales pt_clust_3="59.73822" pt_clust_4="14000.00000" pt_clust_5="36.77744" pt_clust_6="94.37991"></scales>
<clustering>
<clus scale="   36.777">  2  5  1 -1</clus>
<clus scale="   59.738">  1  3  2 -1</clus>
<clus scale="   94.380">  1  6  2 -1</clus>
<clus scale="   59.738">  1  3  2 -1</clus>
</clustering>
</event>
<event>
 6    0  0.1361919E+003  0.8262019E+02  0.7546771E-02  0.1321776E+00
         21   -1    0    0  505  501  0.00000000000E+00  0.00000000000E+00  0.66535816263E+03  0.66535816263E+03  0.00000000000E+00 0.  1.
         21   -1    0    0  503  502 -0.00000000000E+00 -0.00000000000E+00 -0.24081342150E+03  0.24081342150E+03  0.00000000000E+00 0. -1.
         21    1    1    2  503  501  0.16643575444E+02  0.53809845221E+02 -0.11723840071E+03  0.13006671614E+03  0.00000000000E+00 0. -1.
         21    1    1    2  504  506 -0.10701315062E+03 -0.59895641024E+02 -0.93019255002E+01  0.12298710517E+03  0.00000000000E+00 0. -1.
         21    1    1    2  505  504  0.72631449710E+02  0.35773004599E+02  0.59315674175E+03  0.59865679285E+03  0.00000000000E+00 0.  1.
         21    1    1    2  506  502  0.17738125470E+02 -0.29687208796E+02 -0.42071674418E+02  0.54460969966E+02  0.00000000000E+00 0.  1.
<scales pt_clust_3="44.64486" pt_clust_4="82.62019" pt_clust_5="14000.00000" pt_clust_6="34.58282"></scales>
<clustering>
<clus scale="   34.583">  2  6  1 -1</clus>
<clus scale="   44.645">  2  3  1 -1</clus>
<clus scale="   82.620">  2  4  1 -1</clus>
<clus scale="   82.620">  1  3  2 -1</clus>
</clustering>
</event>
<event>
 6    0  0.1361919E+003  0.1066251E+03  0.7546771E-02  0.1266950E+00
         21   -1    0    0  503  501  0.00000000000E+00  0.00000000000E+00  0.54268463262E+03  0.54268463262E+03  0.00000000000E+00 0. -1.
         21   -1    0    0  505  502 -0.00000000000E+00 -0.00000000000E+00 -0.87941519894E+03  0.87941519894E+03  0.00000000000E+00 0. -1.
         21    1    1    2  503  504 -0.10413816170E+02  0.65479226449E+02  0.28897221592E+03  0.29648089017E+03  0.00000000000E+00 0. -1.
         21    1    1    2  504  506  0.11455016515E+03 -0.35557689069E+02  0.21575368598E+03  0.24685166113E+03  0.00000000000E+00 0. -1.
         21    1    1    2  505  501 -0.56839839067E+02  0.17145477506E+02 -0.33715411793E+02  0.68274912644E+02  0.00000000000E+00 0. -1.
         21    1    1    2  506  502 -0.47296509911E+02 -0.47067014886E+02 -0.80774105642E+03  0.81049236762E+03  0.00000000000E+00 0. -1.
<scales pt_clust_3="66.41980" pt_clust_4="14000.00000" pt_clust_5="59.36948" pt_clust_6="106.62513"></scales>
<clustering>
<clus scale="   59.369">  2  5  1 -1</clus>
<clus scale="   66.420">  1  3  2 -1</clus>
<clus scale="  106.625">  2  6  1 -1</clus>
<clus scale="   66.420">  1  3  2 -1</clus>
</clustering>
</event>
<event>
 6    0  0.1361919E+003  0.7590554E+02  0.7546771E-02  0.1341090E+00
         21   -1    0    0  503  501  0.00000000000E+00  0.00000000000E+00  0.29969829623E+04  0.29969829623E+04  0.00000000000E+00 0.  1.
         21   -1    0    0  505  502 -0.00000000000E+00 -0.00000000000E+00 -0.13831123298E+02  0.13831123298E+02  0.00000000000E+00 0.  1.
         21    1    1    2  503  502 -0.74861754825E+02 -0.77501876424E+02  0.18004972620E+04  0.18037187180E+04  0.00000000000E+00 0.  1.
         21    1    1    2  504  506 -0.22872376509E+01  0.78401448817E+02  0.60957207955E+03  0.61459754214E+03  0.00000000000E+00 0.  1.
         21    1    1    2  505  504  0.36873609930E+02 -0.24401858459E+02  0.47667952106E+02  0.65018054904E+02  0.00000000000E+00 0.  1.
         21    1    1    2  506  501  0.40275382546E+02  0.23502286066E+02  0.52541454535E+03  0.52747977056E+03  0.00000000000E+00 0. -1.
<scales pt_clust_3="14000.00000" pt_clust_4="75.90554" pt_clust_5="44.21667" pt_clust_6="51.16654"></scales>
<clustering>
<clus scale="   44.217">  2  5  1 -1</clus>
<clus scale="   51.167">  1  6  2 -1</clus>
<clus scale="   75.906">  2  4  1 -1</clus>
<clus scale="   51.167">  1  3  2 -1</clus>
</clustering>
</event>
<event>
 6    0  0.1361919E+003  0.9793583E+02  0.7546771E-02  0.1284697E+00
         21   -1    0    0  505  501  0.00000000000E+00  0.00000000000E+00  0.23089701023E+03  0.23089701023E+03  0.00000000000E+00 0. -1.
         21   -1    0    0  506  502 -0.00000000000E+00 -0.00000000000E+00 -0.65446288597E+03  0.65446288597E+03  0.00000000000E+00 0.  1.
         21    1    1    2  503  501  0.50320052984E+02 -0.62329753281E+02  0.99466486514E+02  0.12771330321E+03  0.00000000000E+00 0. -1.
         21    1    1    2  504  502  0.36961942945E+02 -0.52867740650E+02 -0.37126897324E+02  0.74428420194E+02  0.00000000000E+00 0. -1.
         21    1    1    2  505  504  0.54785807157E+02  0.68610592674E+02  0.67006714417E+02  0.11044816825E+03  0.00000000000E+00 0.  1.
         21    1    1    2  506  503 -0.14206780309E+03  0.46586901256E+02 -0.55291217935E+03  0.57277000455E+03  0.00000000000E+00 0.  1.
<scales pt_clust_3="81.62505" pt_clust_4="64.50723" pt_clust_5="14000.00000" pt_clust_6="97.93583"></scales>
<clustering>
<clus scale="   64.507">  2  4  1 -1</clus>
<clus scale="   81.625">  1  3  2 -1</clus>
<clus scale="   97.936">  2  6  1 -1</clus>
<clus scale="   81.625">  1  3  2 -1</clus>
</clustering>
</event>
<event>
 6    0  0.1361919E+003  0.1174836E+03  0.7546771E-02  0.1247307E+00
         21   -1    0    0  503  501  0.00000000000E+00  0.00000000000E+00  0.54506010459E+02  0.54506010459E+02  0.00000000000E+00 0.  1.
         21   -1    0    0  506  502 -0.00000000000E+00 -0.00000000000E+00 -0.79592670996E+03  0.79592670996E+03  0.00000000000E+00 0. -1.
         21    1    1    2  503  502  0.72746175459E+02  0.71720263509E+02 -0.14766858921E+03  0.17956005814E+03  0.00000000000E+00 0. -1.
         21    1    1    2  504  501 -0.16279436727E+02  0.27815775081E+02  0.24714054713E+02  0.40614306640E+02  0.00000000000E+00 0.  1.
         21    1    1    2  505  504 -0.13805248016E+02 -0.63649019043E+02 -0.30541702488E+03  0.31228407193E+03  0.00000000000E+00 0. -1.
         21    1    1    2  506  505 -0.42661490715E+02 -0.35887019547E+02 -0.31304914013E+03  0.31797428371E+03  0.00000000000E+00 0. -1.
<scales pt_clust_3="110.33187" pt_clust_4="32.22945" pt_clust_5="38.26044" pt_clust_6="38.26044"></scales>
<clustering>
<clus scale="   32.229">  1  4  2 -1</clus>
<clus scale="   38.260">  5  6 -1 -1</clus>
<clus scale="  110.332">  1  3  2 -1</clus>
<clus scale="   32.229">  1  3  2 -1</clus>
</clustering>
</event>
<event>
 6    0  0.1361919E+003  0.1462727E+03  0.7546771E-02  0.1205129E+00
         21   -1    0    0  506  501  0.00000000000E+00  0.00000000000E+00  0.19602559753E+03  0.19602559753E+03  0.00000000000E+00 0.  1.
         21   -1    0    0  505  502 -0.00000000000E+00 -0.00000000000E+00 -0.48905106573E+03  0.48905106573E+03  0.00000000000E+00 0.  1.
         21    1    1    2  503  502  0.11575527957E+03  0.65605923746E+02 -0.11084454257E+03  0.17317602200E+03  0.00000000000E+00 0.  1.
         21    1    1    2  504  501 -0.62582687041E+02 -0.15887965456E+03  0.57987575029E+02  0.18033828271E+03  0.00000000000E+00 0.  1.
         21    1    1    2  505  504 -0.34822438287E+02 -0.27950446214E+02 -0.19634832620E+03  0.20136160223E+03  0.00000000000E+00 0. -1.
         21    1    1    2  506  503 -0.18350154242E+02  0.12122417703E+03 -0.43820174462E+02  0.13020075633E+03  0.00000000000E+00 0.  1.
<scales pt_clust_3="111.53966" pt_clust_4="146.27273" pt_clust_5="44.65232" pt_clust_6="14000.00000"></scales>
<clustering>
<clus scale="   44.652">  2  5  1 -1</clus>
<clus scale="  111.540">  2  3  1 -1</clus>
<clus scale="  146.273">  1  4  2 -1</clus>
<clus scale="  146.273">  1  3  2 -1</clus>
</clustering>
</event>
<event>
 6    0  0.1361919E+003  0.9308832E+02  0.7546771E-02  0.1295541E+00
         21   -1    0    0  505  501  0.00000000000E+00  0.00000000000E+00  0.10517161270E+04  0.10517161270E+04  0.00000000000E+00 0.  1.
         21   -1    0    0  506  502 -0.00000000000E+00 -0.00000000000E+00 -0.11774457840E+04  0.11774457840E+04  0.00000000000E+00 0. -1.
         21    1    1    2  503  502  0.64258939103E+02 -0.64909283829E+02 -0.98287352147E+03  0.98710829476E+03  0.00000000000E+00 0. -1.
         21    1    1    2  504  501  0.38648697033E+02 -0.17222521330E+02  0.69946263460E+03  0.70074126054E+03  0.00000000000E+00 0.  1.
         21    1    1    2  505  503  0.22016557909E+00  0.34999913784E+02  0.33173866784E+03  0.33357995470E+03  0.00000000000E+00 0.  1.
         21    1    1    2  506  504 -0.10312780172E+03  0.47131891375E+02 -0.17405743800E+03  0.20773240093E+03  0.00000000000E+00 0.  1.
<scales pt_clust_3="14000.00000" pt_clust_4="42.36060" pt_clust_5="35.00061" pt_clust_6="93.08832"></scales>
<clustering>
<clus scale="   35.001">  1  5  2 -1</clus>
<clus scale="   42.361">  1  4  2 -1</clus>
<clus scale="   93.088">  1  6  2 -1</clus>
<clus scale="   35.001">  1  3  2 -1</clus>
</clustering>
</event>
<event>
 6    0  0.1361919E+003  0.8012005E+02  0.7546771E-02  0.1328711E+00
         21   -1    0    0  503  501  0.00000000000E+00  0.00000000000E+00  0.31663507794E+03  0.31663507794E+03  0.00000000000E+00 0.  1.
         21   -1    0    0  505  502 -0.00000000000E+00 -0.00000000000E+00 -0.93272737409E+03  0.93272737409E+03  0.00000000000E+00 0.  1.
         21    1    1    2  503  502  0.98393768660E+01 -0.42464721402E+02  0.10217259519E+03  0.11108242484E+03  0.00000000000E+00 0.  1.
         21    1    1    2  504  506 -0.16618285883E+02  0.11091509206E+03  0.14603313711E+02  0.11309987553E+03  0.00000000000E+00 0.  1.
         21    1    1    2  505  504 -0.26146075515E+02 -0.75146329905E+02 -0.87526459891E+03  0.87887354396E+03  0.00000000000E+00 0.  1.
         21    1    1    2  506  501  0.32924984532E+02  0.66959592461E+01  0.14239639386E+03  0.14630660772E+03  0.00000000000E+00 0.  1.
<scales pt_clust_3="48.80086" pt_clust_4="80.12005" pt_clust_5="14000.00000" pt_clust_6="33.59897"></scales>
<clustering>
<clus scale="   33.599">  1  6  2 -1</clus>
<clus scale="   48.801">  1  3  2 -1</clus>
<clus scale="   80.120">  1  4  2 -1</clus>
<clus scale="   33.599">  1  3  2 -1</clus>
</clustering>
</event>
<event>
 6    0  0.1361919E+003  0.1008060E+03  0.7546771E-02  0.1278610E+00
         21   -1    0    0  505  501  0.00000000000E+00  0.00000000000E+00  0.44156459407E+03  0.44156459407E+03  0.00000000000E+00 0. -1.
         21   -1    0    0  504  502 -0.00000000000E+00 -0.00000000000E+00 -0.76791405860E+02  0.76791405860E+02  0.00000000000E+00 0. -1.
         21    1    1    2  503  506  0.62490921209E+02  0.12968877932E+01  0.20965280656E+03  0.21877179080E+03  0.00000000000E+00 0. -1.
         21    1    1    2  504  501 -0.95639019752E+02  0.64589203212E+02  0.75678611855E+02  0.13800666492E+03  0.00000000000E+00 0. -1.
         21    1    1    2  505  503  0.19925085884E+02 -0.27535119650E+02  0.10717629812E+03  0.11243642977E+03  0.00000000000E+00 0.  1.
         21    1    1    2  506  502  0.13223012659E+02 -0.38350971356E+02 -0.27734528316E+02  0.49141114442E+02  0.00000000000E+00 0. -1.
<scales pt_clust_3="31.60862" pt_clust_4="91.23869" pt_clust_5="31.60862" pt_clust_6="40.56655"></scales>
<clustering>
<clus scale="   31.609">  3  5 -1 -1</clus>
<clus scale="   40.567">  2  6  1 -1</clus>
<clus scale="   91.239">  2  4  1 -1</clus>
<clus scale="  100.806">  1  3  2 -1</clus>
</clustering>
</event>
<event>
 6    0  0.1361919E+003  0.1001245E+03  0.7546771E-02  0.1280034E+00
         21   -1    0    0  504  501  0.00000000000E+00  0.00000000000E+00  0.19362970133E+03  0.19362970133E+03  0.00000000000E+00 0. -1.
         21   -1    0    0  505  502 -0.00000000000E+00 -0.00000000000E+00 -0.17242455050E+04  0.17242455050E+04  0.00000000000E+00 0. -1.
         21    1    1    2  503  501 -0.14763572810E+02  0.51757914583E+02  0.17803387646E+03  0.18599168254E+03  0.00000000000E+00 0. -1.
         21    1    1    2  504  502 -0.10392337949E+03 -0.89954876913E+02 -0.76621152317E+03  0.77844206395E+03  0.00000000000E+00 0. -1.
         21    1    1    2  505  506  0.32276579950E+02  0.35631748402E+02 -0.52190429548E+03  0.52411400740E+03  0.00000000000E+00 0. -1.
         21    1    1    2  506  503  0.86410372349E+02  0.25652139278E+01 -0.42053386147E+03  0.42932745244E+03  0.00000000000E+00 0. -1.
<scales pt_clust_3="53.90669" pt_clust_4="14000.00000" pt_clust_5="48.07701" pt_clust_6="100.12447"></scales>
<clustering>
<clus scale="   48.077">  2  5  1 -1</clus>
<clus scale="   53.907">  1  3  2 -1</clus>
<clus scale="  100.124">  1  6  2 -1</clus>
<clus scale="   53.907">  1  3  2 -1</clus>
</clustering>
</event>
<event>
 6    0  0.1361919E+003  0.1042485E+03  0.7546771E-02  0.1271607E+00
         21   -1    0    0  504  501  0.00000000000E+00  0.00000000000E+00  0.54587915006E+03  0.54587915006E+03  0.00000000000E+00 0. -1.
         21   -1    0    0  506  502 -0.00000000000E+00 -0.00000000000E+00 -0.36977487270E+03  0.36977487270E+03  0.00000000000E+00 0.  1.
         21    1    1    2  503  501  0.43857676809E+01 -0.37188844174E+02  0.40715482080E+03  0.40887319940E+03  0.00000000000E+00 0. -1.
         21    1    1    2  504  502 -0.44961871296E+02  0.12629078268E+03 -0.24627844367E+03  0.28039972090E+03  0.00000000000E+00 0.  1.
         21    1    1    2  505  503 -0.28908031172E+02 -0.71646176965E+02  0.92824061090E+02  0.12076901613E+03  0.00000000000E+00 0. -1.
         21    1    1    2  506  505  0.69484134787E+02 -0.17455761543E+02 -0.77596160855E+02  0.10561208632E+03  0.00000000000E+00 0.  1.
<scales pt_clust_3="37.44656" pt_clust_4="104.24854" pt_clust_5="14000.00000" pt_clust_6="73.08262"></scales>
<clustering>
<clus scale="   37.447">  1  3  2 -1</clus>
<clus scale="   73.083">  2  6  1 -1</clus>
<clus scale="  104.249">  2  4  1 -1</clus>
<clus scale="   37.447">  1  3  2 -1</clus>
</clustering>
</event>
<event>
 6    0  0.1361919E+003  0.1267469E+03  0.7546771E-02  0.1232364E+00
         21   -1    0    0  506  501  0.00000000000E+00  0.00000000000E+00  0.12622630899E+04  0.12622630899E+04  0.00000000000E+00 0. -1.
         21   -1    0    0  504  502 -0.00000000000E+00 -0.00000000000E+00 -0.38534248832E+03  0.38534248832E+03  0.00000000000E+00 0.  1.
         21    1    1    2  503  501 -0.47411581575E+02  0.10670037393E+02  0.16999951089E+03  0.17680933649E+03  0.00000000000E+00 0.  1.
         21    1    1    2  504  503 -0.47646784424E+02  0.48096883960E+02 -0.57486515276E+02  0.88815684151E+02  0.00000000000E+00 0.  1.
         21    1    1    2  505  502  0.15714757066E+03  0.17219289504E+02 -0.28611509910E+03  0.32688486173E+03  0.00000000000E+00 0.  1.
         21    1    1    2  506  505 -0.62089204661E+02 -0.75986210858E+02  0.10505227051E+04  0.10550956959E+04  0.00000000000E+00 0. -1.
<scales pt_clust_3="48.59740" pt_clust_4="68.29186" pt_clust_5="126.74690" pt_clust_6="14000.00000"></scales>
<clustering>
<clus scale="   48.597">  1  3  2 -1</clus>
<clus scale="   68.292">  2  4  1 -1</clus>
<clus scale="  126.747">  2  5  1 -1</clus>
<clus scale="   48.597">  1  3  2 -1</clus>
</clustering>
</event>
<event>
 6    0  0.1361919E+003  0.1617218E+03  0.7546771E-02  0.1186767E+00
         21   -1    0    0  503  501  0.00000000000E+00  0.00000000000E+00  0.53806752521E+02  0.53806752521E+02  0.00000000000E+00 0.  1.
         21   -1    0    0  506  502 -0.00000000000E+00 -0.00000000000E+00 -0.16750667889E+04  0.16750667889E+04  0.00000000000E+00 0.  1.
         21    1    1    2  503  505 -0.29784692251E+02  0.14100305726E+03 -0.20459017525E+03  0.25025213257E+03  0.00000000000E+00 0.  1.
         21    1    1    2  504  501 -0.38892885645E+02 -0.19593289007E+03 -0.35045727145E+03  0.40338896004E+03  0.00000000000E+00 0.  1.
         21    1    1    2  505  502 -0.28652930776E+02  0.21866751057E+02 -0.29876941299E+03  0.30093571969E+03  0.00000000000E+00 0.  1.
         21    1    1    2  506  504  0.97330508672E+02  0.33063081759E+02 -0.76744317673E+03  0.77429672917E+03  0.00000000000E+00 0.  1.
<scales pt_clust_3="14000.00000" pt_clust_4="161.72175" pt_clust_5="36.04366" pt_clust_6="93.05174"></scales>
<clustering>
<clus scale="   36.044">  2  5  1 -1</clus>
<clus scale="   93.052">  2  6  1 -1</clus>
<clus scale="  161.722">  2  4  1 -1</clus>
<clus scale="  161.722">  1  3  2 -1</clus>
</clustering>
</event>
<event>
 6    0  0.1361919E+003  0.1131343E+03  0.7546771E-02  0.1254873E+00
         21   -1    0    0  505  501  0.00000000000E+00  0.00000000000E+00  0.47739738003E+02  0.47739738003E+02  0.00000000000E+00 0.  1.
         21   -1    0    0  506  502 -0.00000000000E+00 -0.00000000000E+00 -0.16116220724E+04  0.16116220724E+04  0.00000000000E+00 0.  1.
         21    1    1    2  503  501 -0.68282072790E+02  0.19522566464E+02 -0.70516972423E+02  0.10008104449E+03  0.00000000000E+00 0.  1.
         21    1    1    2  504  502  0.10749326351E+03 -0.85680525162E+02 -0.21995030148E+03  0.25937249124E+03  0.00000000000E+00 0.  1.
         21    1    1    2  505  504  0.70778594155E+02  0.46638272386E+02 -0.16146791734E+03  0.18236399363E+03  0.00000000000E+00 0.  1.
         21    1    1    2  506  503 -0.10998978488E+03  0.19519686311E+02 -0.11119471432E+04  0.11175442810E+04  0.00000000000E+00 0.  1.
<scales pt_clust_3="71.01811" pt_clust_4="113.13431" pt_clust_5="72.14354" pt_clust_6="14000.00000"></scales>
<clustering>
<clus scale="   71.018">  1  3  2 -1</clus>
<clus scale="   72.144">  1  5  2 -1</clus>
<clus scale="  113.134">  1  4  2 -1</clus>
<clus scale="   71.018">  1  3  2 -1</clus>
</clustering>
</event>
<event>
 6    0  0.1361919E+003  0.1917795E+03  0.7546771E-02  0.1156866E+00
         21   -1    0    0  503  501  0.00000000000E+00  0.00000000000E+00  0.92792019630E+03  0.92792019630E+03  0.00000000000E+00 0. -1.
         21   -1    0    0  501  502 -0.00000000000E+00 -0.00000000000E+00 -0.10386430169E+03  0.10386430169E+03  0.00000000000E+00 0. -1.
         21    1    1    2  503  506 -0.79171273232E+02  0.15935399804E+02  0.41415985453E+03  0.42196020259E+03  0.00000000000E+00 0. -1.
         21    1    1    2  504  502  0.14108389424E+02  0.40128166952E+02  0.40117548077E+01  0.42724824302E+02  0.00000000000E+00 0. -1.
         21    1    1    2  505  504 -0.62836860970E+02  0.12396957120E+03  0.48916918020E+02  0.14734242617E+03  0.00000000000E+00 0. -1.
         21    1    1    2  506  505  0.12789974478E+03 -0.18003313795E+03  0.35696736726E+03  0.41975704492E+03  0.00000000000E+00 0. -1.
<scales pt_clust_3="80.75907" pt_clust_4="35.08267" pt_clust_5="35.08267" pt_clust_6="180.99118"></scales>
<clustering>
<clus scale="   35.083">  4  5 -1 -1</clus>
<clus scale="   80.759">  1  3  2 -1</clus>
<clus scale="  180.991">  1  6  2 -1</clus>
<clus scale="   80.759">  1  3  2 -1</clus>
</clustering>
</event>
<event>
 6    0  0.1361919E+003  0.1767801E+03  0.7546771E-02  0.1170956E+00
         21   -1    0    0  506  501  0.00000000000E+00  0.00000000000E+00  0.54583323875E+03  0.54583323875E+03  0.00000000000E+00 0.  1.
         21   -1    0    0  504  502 -0.00000000000E+00 -0.00000000000E+00 -0.26060058769E+03  0.26060058769E+03  0.00000000000E+00 0.  1.
         21    1    1    2  503  502 -0.62199936197E+02 -0.89335789961E+02 -0.15860697283E+03  0.19236914322E+03  0.00000000000E+00 0.  1.
         21    1    1    2  504  505 -0.52857021310E+02 -0.98608668678E+02  0.16311817528E+03  0.19780058986E+03  0.00000000000E+00 0.  1.
         21    1    1    2  505  501  0.45682685608E+01 -0.35308286993E+02  0.10648056751E+03  0.11227491022E+03  0.00000000000E+00 0.  1.
         21    1    1    2  506  503  0.11048868895E+03  0.22325274563E+03  0.17424088111E+03  0.30398918314E+03  0.00000000000E+00 0.  1.
<scales pt_clust_3="108.85640" pt_clust_4="31.89960" pt_clust_5="31.89960" pt_clust_6="167.49159"></scales>
<clustering>
<clus scale="   31.900">  4  5 -1 -1</clus>
<clus scale="  108.856">  2  3  1 -1</clus>
<clus scale="  167.492">  2  6  1 -1</clus>
<clus scale="  176.780">  1  3  2 -1</clus>
</clustering>
</event>
<event>
 6    0  0.1361919E+003  0.1766173E+03  0.7546771E-02  0.1171118E+00
         21   -1    0    0  503  501  0.00000000000E+00  0.00000000000E+00  0.75998948005E+03  0.75998948005E+03  0.00000000000E+00 0. -1.
         21   -1    0    0  505  502 -0.00000000000E+00 -0.00000000000E+00 -0.13242454358E+03  0.13242454358E+03  0.00000000000E+00 0. -1.
         21    1    1    2  503  506  0.22752359559E+02 -0.43906541118E+02  0.20242336876E+03  0.20837628089E+03  0.00000000000E+00 0. -1.
         21    1    1    2  504  501 -0.17646158177E+03 -0.53161790629E+02  0.37596947229E+03  0.41870981589E+03  0.00000000000E+00 0. -1.
         21    1    1    2  505  504  0.52926662733E+02 -0.47368907382E+02  0.53864313474E+02  0.89142634472E+02  0.00000000000E+00 0.  1.
         21    1    1    2  506  502  0.10078255948E+03  0.14443723913E+03 -0.46922180587E+01  0.17618529238E+03  0.00000000000E+00 0. -1.
<scales pt_clust_3="49.45153" pt_clust_4="176.61731" pt_clust_5="77.02281" pt_clust_6="14000.00000"></scales>
<clustering>
<clus scale="   49.452">  1  3  2 -1</clus>
<clus scale="   77.023">  2  5  1 -1</clus>
<clus scale="  176.617">  1  4  2 -1</clus>
<clus scale="   49.452">  1  3  2 -1</clus>
</clustering>
</event>
<event>
 6    0  0.1361919E+003  0.9389939E+02  0.7546771E-02  0.1293674E+00
         21   -1    0    0  503  501  0.00000000000E+00  0.00000000000E+00  0.41471376391E+03  0.41471376391E+03  0.00000000000E+00 0.  1.
         21   -1    0    0  505  502 -0.00000000000E+00 -0.00000000000E+00 -0.35645415050E+03  0.35645415050E+03  0.00000000000E+00 0.  1.
         21    1    1    2  503  506  0.76144633191E+01 -0.66402204728E+02  0.10346759204E+03  0.12317782043E+03  0.00000000000E+00 0. -1.
         21    1    1    2  504  501 -0.63145754719E+02  0.14200356387E+03  0.27064143146E+03  0.31208842162E+03  0.00000000000E+00 0.  1.
         21    1    1    2  505  504  0.34031285343E+02 -0.28290243835E+00 -0.12633674631E+03  0.13084029152E+03  0.00000000000E+00 0.  1.
         21    1    1    2  506  502  0.21500006057E+02 -0.75318456701E+02 -0.18951266377E+03  0.20506138084E+03  0.00000000000E+00 0.  1.
<scales pt_clust_3="67.03312" pt_clust_4="14000.00000" pt_clust_5="34.03246" pt_clust_6="93.89939"></scales>
<clustering>
<clus scale="   34.032">  2  5  1 -1</clus>
<clus scale="   67.033">  1  3  2 -1</clus>
<clus scale="   93.899">  2  6  1 -1</clus>
<clus scale="   67.033">  1  3  2 -1</clus>
</clustering>
</event>
<event>
 6    0  0.1361919E+003  0.8321381E+02  0.7546771E-02  0.1320171E+00
         21   -1    0    0  503  501  0.00000000000E+00  0.00000000000E+00  0.35243096119E+02  0.35243096119E+02  0.00000000000E+00 0. -1.
         21   -1    0    0  504  502 -0.00000000000E+00 -0.00000000000E+00 -0.66685507972E+03  0.66685507972E+03  0.00000000000E+00 0. -1.
         21    1    1    2  503  506  0.10255495518E+03 -0.15906555329E+02 -0.11957238278E+03  0.15832906258E+03  0.00000000000E+00 0. -1.
         21    1    1    2  504  505 -0.86970061003E+02  0.20386584094E+02 -0.35207085527E+03  0.36322622628E+03  0.00000000000E+00 0. -1.
         21    1    1    2  505  501 -0.31236477773E+02  0.21651925757E+02 -0.34169999449E+02  0.51108827955E+02  0.00000000000E+00 0. -1.
         21    1    1    2  506  502  0.15651583599E+02 -0.26131954523E+02 -0.12579874611E+03  0.12943405903E+03  0.00000000000E+00 0. -1.
<scales pt_clust_3="14000.00000" pt_clust_4="83.21381" pt_clust_5="35.82634" pt_clust_6="30.46065"></scales>
<clustering>
<clus scale="   30.461">  2  6  1 -1</clus>
<clus scale="   35.826">  1  5  2 -1</clus>
<clus scale="   83.214">  2  4  1 -1</clus>
<clus scale="   35.826">  1  3  2 -1</clus>
</clustering>
</event>
<event>
 6    0  0.1361919E+003  0.1594851E+03  0.7546771E-02  0.1189279E+00
         21   -1    0    0  504  501  0.00000000000E+00  0.00000000000E+00  0.35724620561E+03  0.35724620561E+03  0.00000000000E+00 0.  1.
         21   -1    0    0  501  502 -0.00000000000E+00 -0.00000000000E+00 -0.11944093945E+03  0.11944093945E+03  0.00000000000E+00 0.  1.
         21    1    1    2  503  502 -0.45256135121E+02 -0.53109202849E+02 -0.14256084570E+01  0.69790669525E+02  0.00000000000E+00 0.  1.
         21    1    1    2  504  505  0.83535891160E+01 -0.47369441245E+02  0.76956625169E+02  0.90752237286E+02  0.00000000000E+00 0.  1.
         21    1    1    2  505  506  0.11985080178E+03  0.11827287675E+03  0.15846631892E+03  0.23122340343E+03  0.00000000000E+00 0.  1.
         21    1    1    2  506  503 -0.82948255771E+02 -0.17794232660E+02  0.38079305332E+01  0.84920834819E+02  0.00000000000E+00 0.  1.
<scales pt_clust_3="45.03900" pt_clust_4="48.10038" pt_clust_5="151.55584" pt_clust_6="45.03900"></scales>
<clustering>
<clus scale="   45.039">  3  6 -1 -1</clus>
<clus scale="   48.100">  1  4  2 -1</clus>
<clus scale="  151.556">  1  5  2 -1</clus>
<clus scale="   48.100">  1  3  2 -1</clus>
</clustering>
</event>
<event>
 6    0  0.1361919E+003  0.1048941E+03  0.7546771E-02  0.1270328E+00
         21   -1    0    0  505  501  0.00000000000E+00  0.00000000000E+00  0.26687623868E+03  0.26687623868E+03  0.00000000000E+00 0.  1.
         21   -1    0    0  504  502 -0.00000000000E+00 -0.00000000000E+00 -0.66978428802E+03  0.66978428802E+03  0.00000000000E+00 0.  1.
         21    1    1    2  503  502 -0.97397941141E+02 -0.10365002732E+02 -0.30303879401E+03  0.31847496431E+03  0.00000000000E+00 0.  1.
         21    1    1    2  504  506  0.10796906224E+03  0.44943340864E+02 -0.31453679515E+03  0.33557505538E+03  0.00000000000E+00 0.  1.
         21    1    1    2  505  503  0.29523425593E+02  0.34399578170E+02 -0.80434527362E+01  0.46039773772E+02  0.00000000000E+00 0. -1.
         21    1    1    2  506  501 -0.40094546696E+02 -0.68977916302E+02  0.22271099256E+03  0.23657073323E+03  0.00000000000E+00 0.  1.
<scales pt_clust_3="104.89413" pt_clust_4="14000.00000" pt_clust_5="45.33171" pt_clust_6="39.23628"></scales>
<clustering>
<clus scale="   45.332">  1  5  2 -1</clus>
<clus scale="   39.236">  1  6  2 -1</clus>
<clus scale="  104.894">  2  3  1 -1</clus>
<clus scale="   45.332">  1  3  2 -1</clus>
</clustering>
</event>
<event>
 6    0  0.1361919E+003  0.9220320E+02  0.7546771E-02  0.1297602E+00
         21   -1    0    0  503  501  0.00000000000E+00  0.00000000000E+00  0.11673979225E+03  0.11673979225E+03  0.00000000000E+00 0.  1.
         21   -1    0    0  504  502 -0.00000000000E+00 -0.00000000000E+00 -0.56528482126E+03  0.56528482126E+03  0.00000000000E+00 0.  1.
         21    1    1    2  503  502 -0.89146972511E+01 -0.14063158030E+03 -0.23682933930E+03  0.27558093032E+03  0.00000000000E+00 0.  1.
         21    1    1    2  504  505 -0.42532627919E+02  0.57328021897E+02 -0.24167821412E+03  0.25199977324E+03  0.00000000000E+00 0.  1.
         21    1    1    2  505  506  0.50067685046E+02  0.51155744473E+02 -0.36686654901E+02  0.80433785975E+02  0.00000000000E+00 0.  1.
         21    1    1    2  506  501  0.13796401249E+01  0.32147813926E+02  0.66649179310E+02  0.74010123968E+02  0.00000000000E+00 0.  1.
<scales pt_clust_3="14000.00000" pt_clust_4="74.19672" pt_clust_5="92.20320" pt_clust_6="32.17740"></scales>
<clustering>
<clus scale="   32.177">  1  6  2 -1</clus>
<clus scale="   74.197">  2  4  1 -1</clus>
<clus scale="   92.203">  1  5  2 -1</clus>
<clus scale="   32.177">  1  3  2 -1</clus>
</clustering>
</event>
<event>
 6    0  0.1361919E+003  0.7712602E+02  0.7546771E-02  0.1337411E+00
         21   -1    0    0  503  501  0.00000000000E+00  0.00000000000E+00  0.10063432591E+04  0.10063432591E+04  0.00000000000E+00 0. -1.
         21   -1    0    0  505  502 -0.00000000000E+00 -0.00000000000E+00 -0.33160848436E+03  0.33160848436E+03  0.00000000000E+00 0.  1.
         21    1    1    2  503  502 -0.67180254244E+02 -0.13938242987E+02  0.86312770810E+03  0.86585039219E+03  0.00000000000E+00 0. -1.
         21    1    1    2  504  501  0.29085265933E+02 -0.32420219317E+02  0.90902174778E+02  0.10079795977E+03  0.00000000000E+00 0. -1.
         21    1    1    2  505  506  0.80082531135E+02 -0.10160548599E+02 -0.28915154882E+03  0.30020837218E+03  0.00000000000E+00 0.  1.
         21    1    1    2  506  504 -0.41987542824E+02  0.56519010903E+02  0.98564406655E+01  0.71095019295E+02  0.00000000000E+00 0.  1.
<scales pt_clust_3="59.70986" pt_clust_4="43.55483" pt_clust_5="77.12602" pt_clust_6="14000.00000"></scales>
<clustering>
<clus scale="   43.555">  1  4  2 -1</clus>
<clus scale="   59.710">  1  3  2 -1</clus>
<clus scale="   77.126">  2  5  1 -1</clus>
<clus scale="   43.555">  1  3  2 -1</clus>
</clustering>
</event>
<event>
 6    0  0.1361919E+003  0.1000504E+03  0.7546771E-02  0.1280190E+00
         21   -1    0    0  504  501  0.00000000000E+00  0.00000000000E+00  0.18878120263E+03  0.18878120263E+03  0.00000000000E+00 0.  1.
         21   -1    0    0  506  502 -0.00000000000E+00 -0.00000000000E+00 -0.53510526446E+03  0.53510526446E+03  0.00000000000E+00 0. -1.
         21    1    1    2  503  502  0.52641090020E+02  0.75615049351E+02 -0.16399386548E+03  0.18810291854E+03  0.00000000000E+00 0. -1.
         21    1    1    2  504  505 -0.50917927414E+02 -0.10461612763E+01  0.14659203675E+03  0.15518683908E+03  0.00000000000E+00 0.  1.
         21    1    1    2  505  503  0.19608554025E+02 -0.12284448534E+03 -0.28830478385E+03  0.31399826649E+03  0.00000000000E+00 0. -1.
         21    1    1    2  506  501 -0.21331716631E+02  0.48275597262E+02 -0.40617449238E+02  0.66598442985E+02  0.00000000000E+00 0.  1.
<scales pt_clust_3="100.05040" pt_clust_4="50.92867" pt_clust_5="14000.00000" pt_clust_6="61.64853"></scales>
<clustering>
<clus scale="   50.929">  1  4  2 -1</clus>
<clus scale="   61.649">  1  6  2 -1</clus>
<clus scale="  100.050">  2  3  1 -1</clus>
<clus scale="   50.929">  1  3  2 -1</clus>
</clustering>
</event>
<event>
 6    0  0.1361919E+003  0.1435927E+03  0.7546771E-02  0.1208575E+00
         21   -1    0    0  505  501  0.00000000000E+00  0.00000000000E+00  0.45226990477E+03  0.45226990477E+03  0.00000000000E+00 0. -1.
         21   -1    0    0  506  502 -0.00000000000E+00 -0.00000000000E+00 -0.15943710694E+04  0.15943710694E+04  0.00000000000E+00 0. -1.
         21    1    1    2  503  504 -0.55876484407E+02  0.10071781985E+03  0.19984875713E+02  0.11690019676E+03  0.00000000000E+00 0.  1.
         21    1    1    2  504  502 -0.64311426191E+02 -0.10359664032E+02 -0.13310580850E+04  0.13326510825E+04  0.00000000000E+00 0. -1.
         21    1    1    2  505  503 -0.91853736257E+01  0.33968124825E+02  0.34437615907E+03  0.34616924117E+03  0.00000000000E+00 0. -1.
         21    1    1    2  506  501  0.12937328422E+03 -0.12432628064E+03 -0.17540411445E+03  0.25092045372E+03  0.00000000000E+00 0.  1.
<scales pt_clust_3="143.59268" pt_clust_4="65.16829" pt_clust_5="35.18813" pt_clust_6="14000.00000"></scales>
<clustering>
<clus scale="   35.188">  1  5  2 -1</clus>
<clus scale="   65.168">  2  4  1 -1</clus>
<clus scale="  143.593">  1  3  2 -1</clus>
<clus scale="   35.188">  1  3  2 -1</clus>
</clustering>
</event>
<event>
 6    0  0.1361919E+003  0.3919890E+03  0.7546771E-02  0.1046589E+00
         21   -1    0    0  506  501  0.00000000000E+00  0.00000000000E+00  0.11276538885E+04  0.11276538885E+04  0.00000000000E+00 0. -1.
         21   -1    0    0  505  502 -0.00000000000E+00 -0.00000000000E+00 -0.62841314929E+03  0.62841314929E+03  0.00000000000E+00 0. -1.
         21    1    1    2  503  502 -0.38751140784E+03 -0.50984392336E+02 -0.48706471024E+03  0.62449702276E+03  0.00000000000E+00 0. -1.
         21    1    1    2  504  503  0.40094357471E+03  0.44630179156E+02  0.62647853117E+03  0.74513284253E+03  0.00000000000E+00 0. -1.
         21    1    1    2  505  501  0.14640512458E+01  0.33970256567E+02  0.10332499306E+02  0.35537055578E+02  0.00000000000E+00 0.  1.
         21    1    1    2  506  504 -0.14896218120E+02 -0.27616043386E+02  0.34949441902E+03  0.35090011698E+03  0.00000000000E+00 0. -1.
<scales pt_clust_3="14000.00000" pt_clust_4="391.98904" pt_clust_5="33.17142" pt_clust_6="31.37743"></scales>
<clustering>
<clus scale="   31.377">  1  6  2 -1</clus>
<clus scale="   33.171">  1  5  2 -1</clus>
<clus scale="  391.989">  1  4  2 -1</clus>
<clus scale="   31.377">  1  3  2 -1</clus>
</clustering>
</event>
<event>
 6    0  0.1361919E+003  0.1136039E+03  0.7546771E-02  0.1254038E+00
         21   -1    0    0  503  501  0.00000000000E+00  0.00000000000E+00  0.23302642194E+03  0.23302642194E+03  0.00000000000E+00 0. -1.
         21   -1    0    0  506  502 -0.00000000000E+00 -0.00000000000E+00 -0.60012017161E+03  0.60012017161E+03  0.00000000000E+00 0.  1.
         21    1    1    2  503  504  0.96024872351E+02  0.95727528682E+02  0.18076843935E+03  0.22596850339E+03  0.00000000000E+00 0. -1.
         21    1    1    2  504  505 -0.87606793704E+02 -0.61997149423E+02 -0.37673256356E+03  0.39172186725E+03  0.00000000000E+00 0.  1.
         21    1    1    2  505  502  0.35934622435E+02 -0.40342980312E+02 -0.16053013605E+03  0.16937761874E+03  0.00000000000E+00 0.  1.
         21    1    1    2  506  501 -0.44352701082E+02  0.66126010525E+01 -0.10599489420E+02  0.46078604166E+02  0.00000000000E+00 0.  1.
<scales pt_clust_3="113.60392" pt_clust_4="14000.00000" pt_clust_5="53.32204" pt_clust_6="44.84293"></scales>
<clustering>
<clus scale="   44.843">  1  6  2 -1</clus>
<clus scale="   53.322">  2  5  1 -1</clus>
<clus scale="  113.604">  1  3  2 -1</clus>
<clus scale="   44.843">  1  3  2 -1</clus>
</clustering>
</event>
<event>
 6    0  0.1361919E+003  0.1418308E+03  0.7546771E-02  0.1210887E+00
         21   -1    0    0  503  501  0.00000000000E+00  0.00000000000E+00  0.57583966479E+03  0.57583966479E+03  0.00000000000E+00 0. -1.
         21   -1    0    0  506  502 -0.00000000000E+00 -0.00000000000E+00 -0.55770871025E+03  0.55770871025E+03  0.00000000000E+00 0. -1.
         21    1    1    2  503  504  0.14396181832E+03 -0.30900649428E+01  0.34323699908E+03  0.37221793505E+03  0.00000000000E+00 0. -1.
         21    1    1    2  504  505 -0.57442827943E+02 -0.93518315084E+02  0.58767374353E+02  0.12449481124E+03  0.00000000000E+00 0. -1.
         21    1    1    2  505  502  0.44193428784E+02  0.32150307485E+02 -0.46623824764E+03  0.46943029833E+03  0.00000000000E+00 0. -1.
         21    1    1    2  506  501 -0.13071241916E+03  0.64458072542E+02  0.82364828762E+02  0.16740533043E+03  0.00000000000E+00 0. -1.
<scales pt_clust_3="141.83079" pt_clust_4="91.59329" pt_clust_5="54.65072" pt_clust_6="14000.00000"></scales>
<clustering>
<clus scale="   54.651">  2  5  1 -1</clus>
<clus scale="   91.593">  2  4  1 -1</clus>
<clus scale="  141.831">  1  3  2 -1</clus>
<clus scale="  141.831">  1  3  2 -1</clus>
</clustering>
</event>
<event>
 6    0  0.1361919E+003  0.1429033E+03  0.7546771E-02  0.1209475E+00
         21   -1    0    0  504  501  0.00000000000E+00  0.00000000000E+00  0.21570738482E+03  0.21570738482E+03  0.00000000000E+00 0. -1.
         21   -1    0    0  506  502 -0.00000000000E+00 -0.00000000000E+00 -0.12888466901E+04  0.12888466901E+04  0.00000000000E+00 0. -1.
         21    1    1    2  503  505 -0.73204614470E+02  0.74369063413E+02 -0.40015427025E+03  0.41353731775E+03  0.00000000000E+00 0. -1.
         21    1    1    2  504  503  0.21641733604E+02 -0.47262996251E+02  0.13881758458E+03  0.14823116149E+03  0.00000000000E+00 0. -1.
         21    1    1    2  505  502 -0.54829774860E+02  0.21610930630E+02 -0.82311672902E+03  0.82522390061E+03  0.00000000000E+00 0. -1.
         21    1    1    2  506  501  0.10639265573E+03 -0.48716997793E+02  0.11314109453E+02  0.11756169503E+03  0.00000000000E+00 0. -1.
<scales pt_clust_3="142.90335" pt_clust_4="51.98226" pt_clust_5="58.39055" pt_clust_6="14000.00000"></scales>
<clustering>
<clus scale="   51.982">  1  4  2 -1</clus>
<clus scale="   58.391">  2  5  1 -1</clus>
<clus scale="  142.903">  2  3  1 -1</clus>
<clus scale="   51.982">  1  3  2 -1</clus>
</clustering>
</event>
<event>
 6    0  0.1361919E+003  0.9935581E+02  0.7546771E-02  0.1281656E+00
         21   -1    0    0  504  501  0.00000000000E+00  0.00000000000E+00  0.87238103465E+02  0.87238103465E+02  0.00000000000E+00 0.  1.
         21   -1    0    0  506  502 -0.00000000000E+00 -0.00000000000E+00 -0.10819013559E+04  0.10819013559E+04  0.00000000000E+00 0.  1.
         21    1    1    2  503  501 -0.15477146008E+02  0.56497217592E+02  0.52994520997E+02  0.78993018045E+02  0.00000000000E+00 0.  1.
         21    1    1    2  504  502 -0.49380640375E+02 -0.87501799949E+02 -0.43807087759E+03  0.44944533197E+03  0.00000000000E+00 0.  1.
         21    1    1    2  505  503  0.49115970138E+02  0.59002019817E+02 -0.82715373445E+02  0.11285145045E+03  0.00000000000E+00 0.  1.
         21    1    1    2  506  505  0.15741816245E+02 -0.27997437460E+02 -0.52687152236E+03  0.52784965886E+03  0.00000000000E+00 0.  1.
<scales pt_clust_3="57.84863" pt_clust_4="14000.00000" pt_clust_5="99.35581" pt_clust_6="32.11948"></scales>
<clustering>
<clus scale="   32.119">  2  6  1 -1</clus>
<clus scale="   57.849">  1  3  2 -1</clus>
<clus scale="   99.356">  1  5  2 -1</clus>
<clus scale="   57.849">  1  3  2 -1</clus>
</clustering>
</event>
<event>
 6    0  0.1361919E+003  0.6242609E+02  0.7546771E-02  0.1387924E+00
         21   -1    0    0  505  501  0.00000000000E+00  0.00000000000E+00  0.71667480896E+03  0.71667480896E+03  0.00000000000E+00 0.  1.
         21   -1    0    0  503  502 -0.00000000000E+00 -0.00000000000E+00 -0.49491361005E+02  0.49491361005E+02  0.00000000000E+00 0.  1.
         21    1    1    2  503  506  0.93652128363E+02 -0.23832171780E+02  0.16563548356E+03  0.19176497849E+03  0.00000000000E+00 0.  1.
         21    1    1    2  504  502 -0.48054987369E+02  0.31548218512E+02  0.12379669952E+01  0.57498734461E+02  0.00000000000E+00 0.  1.
         21    1    1    2  505  504  0.16900708527E+02  0.36696722233E+02  0.79632465074E+02  0.89295088695E+02  0.00000000000E+00 0.  1.
         21    1    1    2  506  501 -0.62497849521E+02 -0.44412768965E+02  0.42067753232E+03  0.42760736832E+03  0.00000000000E+00 0.  1.
<scales pt_clust_3="14000.00000" pt_clust_4="62.42609" pt_clust_5="40.40153" pt_clust_6="54.85490"></scales>
<clustering>
<clus scale="   40.402">  1  5  2 -1</clus>
<clus scale="   54.855">  1  6  2 -1</clus>
<clus scale="   62.426">  2  4  1 -1</clus>
<clus scale="   40.402">  1  3  2 -1</clus>
</clustering>
</event>
<event>
 6    0  0.1361919E+003  0.1363483E+03  0.7546771E-02  0.1218329E+00
         21   -1    0    0  503  501  0.00000000000E+00  0.00000000000E+00  0.22787735120E+03  0.22787735120E+03  0.00000000000E+00 0. -1.
         21   -1    0    0  506  502 -0.00000000000E+00 -0.00000000000E+00 -0.21941116561E+04  0.21941116561E+04  0.00000000000E+00 0. -1.
         21    1    1    2  503  504  0.96752533919E+00 -0.79826460631E+02  0.20177691235E+03  0.21699567341E+03  0.00000000000E+00 0. -1.
         21    1    1    2  504  502  0.11573464347E+03  0.97463596047E+00 -0.77913893752E+03  0.78768835308E+03  0.00000000000E+00 0. -1.
         21    1    1    2  505  501  0.40139595496E+02  0.29624374013E+02 -0.58795465044E+02  0.77108348264E+02  0.00000000000E+00 0. -1.
         21    1    1    2  506  505 -0.15684176430E+03  0.49227450658E+02 -0.13300768146E+04  0.13401966325E+04  0.00000000000E+00 0. -1.
<scales pt_clust_3="64.81266" pt_clust_4="14000.00000" pt_clust_5="49.88778" pt_clust_6="136.34832"></scales>
<clustering>
<clus scale="   49.888">  1  5  2 -1</clus>
<clus scale="   64.813">  1  3  2 -1</clus>
<clus scale="  136.348">  1  6  2 -1</clus>
<clus scale="   49.888">  1  3  2 -1</clus>
</clustering>
</event>
<event>
 6    0  0.1361919E+003  0.1049192E+03  0.7546771E-02  0.1270279E+00
         21   -1    0    0  506  501  0.00000000000E+00  0.00000000000E+00  0.26569873949E+03  0.26569873949E+03  0.00000000000E+00 0. -1.
         21   -1    0    0  505  502 -0.00000000000E+00 -0.00000000000E+00 -0.18654796995E+03  0.18654796995E+03  0.00000000000E+00 0. -1.
         21    1    1    2  503  501 -0.76962227111E+02 -0.73277824972E+02  0.10962570788E+03  0.15267815778E+03  0.00000000000E+00 0. -1.
         21    1    1    2  504  502 -0.96277163643E+01  0.30482752855E+02 -0.11517423716E+03  0.11952822282E+03  0.00000000000E+00 0. -1.
         21    1    1    2  505  503  0.28692860955E+02 -0.44356027189E+02  0.17329229106E+02  0.55597118623E+02  0.00000000000E+00 0. -1.
         21    1    1    2  506  504  0.57897082520E+02  0.87151099305E+02  0.67370069721E+02  0.12444321022E+03  0.00000000000E+00 0. -1.
<scales pt_clust_3="14000.00000" pt_clust_4="31.96703" pt_clust_5="44.36609" pt_clust_6="104.91916"></scales>
<clustering>
<clus scale="   31.967">  2  4  1 -1</clus>
<clus scale="   44.366">  2  5  1 -1</clus>
<clus scale="  104.919">  2  6  1 -1</clus>
<clus scale="  104.919">  1  3  2 -1</clus>
</clustering>
</event>
<event>
 6    0  0.1361919E+003  0.1043673E+03  0.7546771E-02  0.1271371E+00
         21   -1    0    0  503  501  0.00000000000E+00  0.00000000000E+00  0.19244271774E+03  0.19244271774E+03  0.00000000000E+00 0.  1.
         21   -1    0    0  506  502 -0.00000000000E+00 -0.00000000000E+00 -0.31545477008E+03  0.31545477008E+03  0.00000000000E+00 0.  1.
         21    1    1    2  503  504 -0.30111659470E+02  0.50910704029E+02  0.36324827024E+01  0.59260499082E+02  0.00000000000E+00 0.  1.
         21    1    1    2  504  502 -0.46680970580E+02  0.88554670691E+02 -0.20362527029E+03  0.22690150598E+03  0.00000000000E+00 0.  1.
         21    1    1    2  505  501  0.31686182120E+02 -0.21229138906E+02  0.86797098247E+02  0.94807313748E+02  0.00000000000E+00 0.  1.
         21    1    1    2  506  505  0.45106447931E+02 -0.11823623581E+03 -0.98163630047E+01  0.12692816901E+03  0.00000000000E+00 0.  1.
<scales pt_clust_3="48.77188" pt_clust_4="14000.00000" pt_clust_5="38.14040" pt_clust_6="104.36735"></scales>
<clustering>
<clus scale="   38.140">  1  5  2 -1</clus>
<clus scale="   48.772">  1  3  2 -1</clus>
<clus scale="  104.367">  1  6  2 -1</clus>
<clus scale="   38.140">  1  3  2 -1</clus>
</clustering>
</event>
<event>
 6    0  0.1361919E+003  0.1665788E+03  0.7546771E-02  0.1181463E+00
         21   -1    0    0  506  501  0.00000000000E+00  0.00000000000E+00  0.36387614693E+03  0.36387614693E+03  0.00000000000E+00 0.  1.
         21   -1    0    0  503  502 -0.00000000000E+00 -0.00000000000E+00 -0.11228378360E+04  0.11228378360E+04  0.00000000000E+00 0. -1.
         21    1    1    2  503  504 -0.71831066296E+02 -0.25897572665E+02 -0.79188823353E+03  0.79556103522E+03  0.00000000000E+00 0. -1.
         21    1    1    2  504  501 -0.97118915194E+02  0.63156439998E+02 -0.25511373086E+03  0.28018535878E+03  0.00000000000E+00 0.  1.
         21    1    1    2  505  502  0.19685423509E+03 -0.98894433885E+02  0.18486847916E+03  0.28759007896E+03  0.00000000000E+00 0.  1.
         21    1    1    2  506  505 -0.27904253599E+02  0.61635566552E+02  0.10317179618E+03  0.12337750994E+03  0.00000000000E+00 0.  1.
<scales pt_clust_3="76.39774" pt_clust_4="166.57879" pt_clust_5="14000.00000" pt_clust_6="67.65789"></scales>
<clustering>
<clus scale="   67.658">  1  6  2 -1</clus>
<clus scale="   76.398">  2  3  1 -1</clus>
<clus scale="  166.579">  2  4  1 -1</clus>
<clus scale="   67.658">  1  3  2 -1</clus>
</clustering>
</event>
<event>
 6    0  0.1361919E+003  0.6697522E+02  0.7546771E-02  0.1370692E+00
         21   -1    0    0  506  501  0.00000000000E+00  0.00000000000E+00  0.27753589274E+04  0.27753589274E+04  0.00000000000E+00 0. -1.
         21   -1    0    0  503  502 -0.00000000000E+00 -0.00000000000E+00 -0.11945191606E+03  0.11945191606E+03  0.00000000000E+00 0. -1.
         21    1    1    2  503  504  0.50015762836E+02  0.65303194539E+02 -0.30846271744E+02  0.87849736650E+02  0.00000000000E+00 0. -1.
         21    1    1    2  504  505  0.13279174042E+02 -0.93817329699E+02  0.43156698392E+03  0.44184622826E+03  0.00000000000E+00 0. -1.
         21    1    1    2  505  501 -0.31292671277E+02  0.31616538801E+02  0.23052155686E+04  0.23056447372E+04  0.00000000000E+00 0. -1.
         21    1    1    2  506  502 -0.32002265601E+02 -0.31024036408E+01 -0.50029269392E+02  0.59470141314E+02  0.00000000000E+00 0. -1.
<scales pt_clust_3="14000.00000" pt_clust_4="66.97522" pt_clust_5="44.55154" pt_clust_6="32.15229"></scales>
<clustering>
<clus scale="   32.152">  2  6  1 -1</clus>
<clus scale="   44.552">  1  5  2 -1</clus>
<clus scale="   66.975">  1  4  2 -1</clus>
<clus scale="   44.552">  1  3  2 -1</clus>
</clustering>
</event>
<event>
 6    0  0.1361919E+003  0.1518538E+03  0.7546771E-02  0.1198213E+00
         21   -1    0    0  503  501  0.00000000000E+00  0.00000000000E+00  0.64275238106E+03  0.64275238106E+03  0.00000000000E+00 0.  1.
         21   -1    0    0  505  502 -0.00000000000E+00 -0.00000000000E+00 -0.24675628700E+03  0.24675628700E+03  0.00000000000E+00 0.  1.
         21    1    1    2  503  504 -0.12805651053E+03  0.16744383679E+02  0.37470298572E+03  0.39633467144E+03  0.00000000000E+00 0.  1.
         21    1    1    2  504  506  0.13590493638E+03  0.39863568228E+02 -0.56907806669E+02  0.15263601890E+03  0.00000000000E+00 0.  1.
         21    1    1    2  505  501 -0.29767067241E+02 -0.33089201770E+02  0.20497471611E+03  0.20975129990E+03  0.00000000000E+00 0.  1.
         21    1    1    2  506  502  0.21918641389E+02 -0.23518750137E+02 -0.12677380110E+03  0.13078667782E+03  0.00000000000E+00 0.  1.
<scales pt_clust_3="151.85381" pt_clust_4="14000.00000" pt_clust_5="44.57005" pt_clust_6="32.14900"></scales>
<clustering>
<clus scale="   32.149">  2  6  1 -1</clus>
<clus scale="   44.570">  1  5  2 -1</clus>
<clus scale="  151.854">  1  3  2 -1</clus>
<clus scale="   44.570">  1  3  2 -1</clus>
</clustering>
</event>
<event>
 6    0  0.1361919E+003  0.8434751E+02  0.7546771E-02  0.1317148E+00
         21   -1    0    0  503  501  0.00000000000E+00  0.00000000000E+00  0.28629460709E+02  0.28629460709E+02  0.00000000000E+00 0. -1.
         21   -1    0    0  506  502 -0.00000000000E+00 -0.00000000000E+00 -0.16268166705E+04  0.16268166705E+04  0.00000000000E+00 0. -1.
         21    1    1    2  503  505 -0.21497805248E+01 -0.34907556231E+02 -0.28739097407E+02  0.45266927863E+02  0.00000000000E+00 0. -1.
         21    1    1    2  504  502 -0.13781256588E+02 -0.43064739366E+02 -0.30481500088E+03  0.30815041712E+03  0.00000000000E+00 0.  1.
         21    1    1    2  505  504  0.54441094399E+02 -0.34705463122E+02 -0.50227464426E+02  0.81799144938E+02  0.00000000000E+00 0. -1.
         21    1    1    2  506  501 -0.38510057287E+02  0.11267775872E+03 -0.12144056471E+04  0.12202296413E+04  0.00000000000E+00 0. -1.
<scales pt_clust_3="34.97369" pt_clust_4="47.99743" pt_clust_5="14000.00000" pt_clust_6="84.34751"></scales>
<clustering>
<clus scale="   34.974">  1  3  2 -1</clus>
<clus scale="   47.997">  2  4  1 -1</clus>
<clus scale="   84.348">  2  6  1 -1</clus>
<clus scale="   34.974">  1  3  2 -1</clus>
</clustering>
</event>
<event>
 6    0  0.1361919E+003  0.9862303E+02  0.7546771E-02  0.1283218E+00
         21   -1    0    0  506  501  0.00000000000E+00  0.00000000000E+00  0.28961316161E+04  0.28961316161E+04  0.00000000000E+00 0. -1.
         21   -1    0    0  504  502 -0.00000000000E+00 -0.00000000000E+00 -0.13681199480E+03  0.13681199480E+03  0.00000000000E+00 0.  1.
         21    1    1    2  503  505 -0.13428531386E+02 -0.89603166874E+02 -0.84175629998E+02  0.12367129681E+03  0.00000000000E+00 0.  1.
         21    1    1    2  504  503 -0.57865016730E+02  0.18066553226E+02  0.24190332168E+00  0.60620285580E+02  0.00000000000E+00 0.  1.
         21    1    1    2  505  501 -0.30435884095E+01  0.93081288789E+02  0.12171228650E+04  0.12206807356E+04  0.00000000000E+00 0. -1.
         21    1    1    2  506  502  0.74337136525E+02 -0.21544675141E+02  0.16261304830E+04  0.16279712929E+04  0.00000000000E+00 0. -1.
<scales pt_clust_3="98.62303" pt_clust_4="60.61980" pt_clust_5="14000.00000" pt_clust_6="76.87309"></scales>
<clustering>
<clus scale="   60.620">  2  4  1 -1</clus>
<clus scale="   76.873">  1  6  2 -1</clus>
<clus scale="   98.623">  2  3  1 -1</clus>
<clus scale="   76.873">  1  3  2 -1</clus>
</clustering>
</event>
<event>
 6    0  0.1361919E+003  0.1207158E+03  0.7546771E-02  0.1241921E+00
         21   -1    0    0  503  501  0.00000000000E+00  0.00000000000E+00  0.17994605555E+03  0.17994605555E+03  0.00000000000E+00 0.  1.
         21   -1    0    0  501  502 -0.00000000000E+00 -0.00000000000E+00 -0.66236641537E+03  0.66236641537E+03  0.00000000000E+00 0.  1.
         21    1    1    2  503  505 -0.27627159785E+02  0.20103001705E+02  0.89261033025E+02  0.95576789296E+02  0.00000000000E+00 0.  1.
         21    1    1    2  504  502 -0.46587757016E+02 -0.38978588637E+01 -0.36578681752E+03  0.36876226526E+03  0.00000000000E+00 0.  1.
         21    1    1    2  505  506 -0.38709667729E+02  0.85670774732E+02  0.28787832861E+02  0.98319170764E+02  0.00000000000E+00 0. -1.
         21    1    1    2  506  504  0.11292458453E+03 -0.10187591757E+03 -0.23468240819E+03  0.27965424561E+03  0.00000000000E+00 0.  1.
<scales pt_clust_3="34.16710" pt_clust_4="47.19152" pt_clust_5="120.71577" pt_clust_6="14000.00000"></scales>
<clustering>
<clus scale="   34.167">  1  3  2 -1</clus>
<clus scale="   47.192">  2  4  1 -1</clus>
<clus scale="  120.716">  1  5  2 -1</clus>
<clus scale="   34.167">  1  3  2 -1</clus>
</clustering>
</event>
<event>
 6    0  0.1361919E+003  0.7297399E+02  0.7546771E-02  0.1350262E+00
         21   -1    0    0  506  501  0.00000000000E+00  0.00000000000E+00  0.89173775613E+03  0.89173775613E+03  0.00000000000E+00 0. -1.
         21   -1    0    0  504  502 -0.00000000000E+00 -0.00000000000E+00 -0.44603334569E+02  0.44603334569E+02  0.00000000000E+00 0.  1.
         21    1    1    2  503  505 -0.32241584733E+02 -0.69779382961E+02  0.35061637494E+03  0.35894362294E+03  0.00000000000E+00 0. -1.
         21    1    1    2  504  503  0.10814542905E+03 -0.23890034446E+02  0.19712216449E+03  0.22610465564E+03  0.00000000000E+00 0.  1.
         21    1    1    2  505  501 -0.36676913027E+02  0.39551721985E+02  0.27484386405E+03  0.28008692270E+03  0.00000000000E+00 0. -1.
         21    1    1    2  506  502 -0.39226931287E+02  0.54117695422E+02  0.24552018079E+02  0.71205889417E+02  0.00000000000E+00 0.  1.
<scales pt_clust_3="72.97399" pt_clust_4="14000.00000" pt_clust_5="53.94010" pt_clust_6="71.01482"></scales>
<clustering>
<clus scale="   53.940">  1  5  2 -1</clus>
<clus scale="   71.015">  2  6  1 -1</clus>
<clus scale="   72.974">  1  3  2 -1</clus>
<clus scale="   53.940">  1  3  2 -1</clus>
</clustering>
</event>
<event>
 6    0  0.1361919E+003  0.7263133E+02  0.7546771E-02  0.1351367E+00
         21   -1    0    0  504  501  0.00000000000E+00  0.00000000000E+00  0.24941255461E+03  0.24941255461E+03  0.00000000000E+00 0. -1.
         21   -1    0    0  506  502 -0.00000000000E+00 -0.00000000000E+00 -0.25548587366E+03  0.25548587366E+03  0.00000000000E+00 0. -1.
         21    1    1    2  503  505 -0.47775434502E+02  0.50813909623E+02  0.99425490977E+02  0.12144947019E+03  0.00000000000E+00 0. -1.
         21    1    1    2  504  502 -0.73519099471E+01  0.43856468921E+02 -0.53067738949E+02  0.69236012040E+02  0.00000000000E+00 0. -1.
         21    1    1    2  505  501  0.26331127587E+02  0.16468414841E+02  0.11056384962E+03  0.11484294411E+03  0.00000000000E+00 0. -1.
         21    1    1    2  506  503  0.28796216862E+02 -0.11113879338E+03 -0.16299492070E+03  0.19937000194E+03  0.00000000000E+00 0. -1.
<scales pt_clust_3="14000.00000" pt_clust_4="45.20328" pt_clust_5="31.05700" pt_clust_6="72.63133"></scales>
<clustering>
<clus scale="   31.057">  1  5  2 -1</clus>
<clus scale="   45.203">  2  4  1 -1</clus>
<clus scale="   72.631">  2  6  1 -1</clus>
<clus scale="   31.057">  1  3  2 -1</clus>
</clustering>
</event>
<event>
 6    0  0.1361919E+003  0.3291311E+03  0.7546771E-02  0.1071522E+00
         21   -1    0    0  503  501  0.00000000000E+00  0.00000000000E+00  0.56778001008E+03  0.56778001008E+03  0.00000000000E+00 0.  1.
         21   -1    0    0  506  502 -0.00000000000E+00 -0.00000000000E+00 -0.11794060861E+04  0.11794060861E+04  0.00000000000E+00 0. -1.
         21    1    1    2  503  505 -0.19023126324E+02  0.32650149082E+03 -0.65231812845E+03  0.72971504270E+03  0.00000000000E+00 0. -1.
         21    1    1    2  504  501  0.50070085865E+02 -0.73251729259E+02  0.34809651807E+03  0.35922696897E+03  0.00000000000E+00 0.  1.
         21    1    1    2  505  502 -0.41989778017E+02  0.17061961949E+02 -0.37634547958E+03  0.37906486516E+03  0.00000000000E+00 0.  1.
         21    1    1    2  506  504  0.10942818476E+02 -0.27031172351E+03  0.68941013892E+02  0.27917921939E+03  0.00000000000E+00 0. -1.
<scales pt_clust_3="14000.00000" pt_clust_4="88.46687" pt_clust_5="45.32386" pt_clust_6="329.13111"></scales>
<clustering>
<clus scale="   45.324">  2  5  1 -1</clus>
<clus scale="   88.467">  1  4  2 -1</clus>
<clus scale="  329.131">  1  6  2 -1</clus>
<clus scale="   88.467">  1  3  2 -1</clus>
</clustering>
</event>
<event>
 6    0  0.1361919E+003  0.1476582E+03  0.7546771E-02  0.1203380E+00
         21   -1    0    0  506  501  0.00000000000E+00  0.00000000000E+00  0.21264550732E+04  0.21264550732E+04  0.00000000000E+00 0. -1.
         21   -1    0    0  504  502 -0.00000000000E+00 -0.00000000000E+00 -0.41328270428E+03  0.41328270428E+03  0.00000000000E+00 0. -1.
         21    1    1    2  503  505  0.45554328773E+02  0.81066968340E+01 -0.11177698463E+03  0.12097524415E+03  0.00000000000E+00 0. -1.
         21    1    1    2  504  503  0.58660491966E+02  0.92711795302E+02 -0.21017262430E+03  0.23708450458E+03  0.00000000000E+00 0. -1.
         21    1    1    2  505  501 -0.54560487689E+02  0.38031727532E+01  0.20620552111E+04  0.20627804063E+04  0.00000000000E+00 0. -1.
         21    1    1    2  506  502 -0.49654333050E+02 -0.10462166489E+03 -0.26933233321E+02  0.11889762240E+03  0.00000000000E+00 0.  1.
<scales pt_clust_3="38.58516" pt_clust_4="38.58516" pt_clust_5="54.69288" pt_clust_6="135.17693"></scales>
<clustering>
<clus scale="   38.585">  3  4 -1 -1</clus>
<clus scale="   54.693">  1  5  2 -1</clus>
<clus scale="  135.177">  1  6  2 -1</clus>
<clus scale="   54.693">  1  3  2 -1</clus>
</clustering>
</event>
<event>
 6    0  0.1361919E+003  0.1024140E+03  0.7546771E-02  0.1275300E+00
         21   -1    0    0  506  501  0.00000000000E+00  0.00000000000E+00  0.75697323177E+03  0.75697323177E+03  0.00000000000E+00 0. -1.
         21   -1    0    0  505  502 -0.00000000000E+00 -0.00000000000E+00 -0.16388940418E+04  0.16388940418E+04  0.00000000000E+00 0.  1.
         21    1    1    2  503  502  0.82778746403E+02 -0.72640581900E+01 -0.55376104091E+03  0.55996105027E+03  0.00000000000E+00 0.  1.
         21    1    1    2  504  503 -0.17954862479E+02 -0.80059390356E+02  0.71365955670E+02  0.10874273631E+03  0.00000000000E+00 0.  1.
         21    1    1    2  505  501 -0.11485094831E+03  0.80322710952E+02 -0.10577545730E+04  0.10669991635E+04  0.00000000000E+00 0.  1.
         21    1    1    2  506  504  0.50027064381E+02  0.70007375939E+01  0.65822884817E+03  0.66016432353E+03  0.00000000000E+00 0. -1.
<scales pt_clust_3="14000.00000" pt_clust_4="78.80012" pt_clust_5="102.41400" pt_clust_6="50.51453"></scales>
<clustering>
<clus scale="   50.515">  1  6  2 -1</clus>
<clus scale="   78.800">  1  4  2 -1</clus>
<clus scale="  102.414">  1  5  2 -1</clus>
<clus scale="   50.515">  1  3  2 -1</clus>
</clustering>
</event>
<event>
 6    0  0.1361919E+003  0.8520339E+02  0.7546771E-02  0.1314901E+00
         21   -1    0    0  503  501  0.00000000000E+00  0.00000000000E+00  0.62130737495E+03  0.62130737495E+03  0.00000000000E+00 0.  1.
         21   -1    0    0  506  502 -0.00000000000E+00 -0.00000000000E+00 -0.13783226658E+03  0.13783226658E+03  0.00000000000E+00 0.  1.
         21    1    1    2  503  502  0.72001521765E+02 -0.90534048383E+02  0.12715856630E+03  0.17190094251E+03  0.00000000000E+00 0. -1.
         21    1    1    2  504  501  0.30311353570E+02  0.20031304887E+02  0.42171288459E+03  0.42327507410E+03  0.00000000000E+00 0.  1.
         21    1    1    2  505  504 -0.41190308111E+02  0.15939244572E+02  0.17408920411E+02  0.47473903459E+02  0.00000000000E+00 0.  1.
         21    1    1    2  506  505 -0.61122567224E+02  0.54563498924E+02 -0.82805262921E+02  0.11648972146E+03  0.00000000000E+00 0.  1.
<scales pt_clust_3="85.20339" pt_clust_4="36.33224" pt_clust_5="41.01935" pt_clust_6="14000.00000"></scales>
<clustering>
<clus scale="   36.332">  1  4  2 -1</clus>
<clus scale="   41.019">  1  5  2 -1</clus>
<clus scale="   85.203">  1  3  2 -1</clus>
<clus scale="   36.332">  1  3  2 -1</clus>
</clustering>
</event>
<event>
 6    0  0.1361919E+003  0.7917045E+02  0.7546771E-02  0.1331422E+00
         21   -1    0    0  504  501  0.00000000000E+00  0.00000000000E+00  0.85009863786E+03  0.85009863786E+03  0.00000000000E+00 0.  1.
         21   -1    0    0  506  502 -0.00000000000E+00 -0.00000000000E+00 -0.11495648138E+04  0.11495648138E+04  0.00000000000E+00 0. -1.
         21    1    1    2  503  501  0.65458759486E+02 -0.22194437881E+02  0.99809793957E+02  0.12140608402E+03  0.00000000000E+00 0.  1.
         21    1    1    2  504  505 -0.30509272715E+02 -0.38311358225E+02  0.73118036673E+03  0.73281873924E+03  0.00000000000E+00 0.  1.
         21    1    1    2  505  502  0.58072852863E+02  0.57738537921E+02 -0.71569042721E+03  0.72036031443E+03  0.00000000000E+00 0. -1.
         21    1    1    2  506  503 -0.93022339634E+02  0.27672581854E+01 -0.41476590944E+03  0.42507831399E+03  0.00000000000E+00 0. -1.
<scales pt_clust_3="68.79873" pt_clust_4="48.97526" pt_clust_5="79.17045" pt_clust_6="14000.00000"></scales>
<clustering>
<clus scale="   48.975">  1  4  2 -1</clus>
<clus scale="   68.799">  1  3  2 -1</clus>
<clus scale="   79.170">  2  5  1 -1</clus>
<clus scale="   48.975">  1  3  2 -1</clus>
</clustering>
</event>
<event>
 6    0  0.1361919E+003  0.1266583E+03  0.7546771E-02  0.1232500E+00
         21   -1    0    0  506  501  0.00000000000E+00  0.00000000000E+00  0.63306112301E+03  0.63306112301E+03  0.00000000000E+00 0.  1.
         21   -1    0    0  501  502 -0.00000000000E+00 -0.00000000000E+00 -0.91652752299E+02  0.91652752299E+02  0.00000000000E+00 0.  1.
         21    1    1    2  503  505  0.33840811131E+01 -0.86777027515E+02  0.13105656490E+03  0.15721808965E+03  0.00000000000E+00 0.  1.
         21    1    1    2  504  502 -0.88949858773E+02  0.99222123153E+02  0.61091856312E+02  0.14659236681E+03  0.00000000000E+00 0.  1.
         21    1    1    2  505  504  0.15566358849E+03  0.16237075932E+02  0.20439087557E+03  0.25743042833E+03  0.00000000000E+00 0.  1.
         21    1    1    2  506  503 -0.70097810826E+02 -0.28682171570E+02  0.14486907394E+03  0.16347299053E+03  0.00000000000E+00 0.  1.
<scales pt_clust_3="97.04034" pt_clust_4="14000.00000" pt_clust_5="126.65826" pt_clust_6="75.73883"></scales>
<clustering>
<clus scale="   75.739">  1  6  2 -1</clus>
<clus scale="   97.040">  1  3  2 -1</clus>
<clus scale="  126.658">  1  5  2 -1</clus>
<clus scale="   75.739">  1  3  2 -1</clus>
</clustering>
</event>
<event>
 6    0  0.1361919E+003  0.9714028E+02  0.7546771E-02  0.1286427E+00
         21   -1    0    0  504  501  0.00000000000E+00  0.00000000000E+00  0.56143203451E+03  0.56143203451E+03  0.00000000000E+00 0. -1.
         21   -1    0    0  506  502 -0.00000000000E+00 -0.00000000000E+00 -0.35245905545E+03  0.35245905545E+03  0.00000000000E+00 0.  1.
         21    1    1    2  503  502  0.42997546400E+02  0.36017872943E+01 -0.90857099604E+01  0.44094353308E+02  0.00000000000E+00 0. -1.
         21    1    1    2  504  503 -0.65353604687E+02  0.72051047415E+02  0.51786004409E+03  0.52691695014E+03  0.00000000000E+00 0. -1.
         21    1    1    2  505  501  0.77569099707E+02 -0.50649359795E+02 -0.24200082781E+03  0.25912684835E+03  0.00000000000E+00 0.  1.
         21    1    1    2  506  505 -0.55213041419E+02 -0.25003474914E+02 -0.57800527258E+02  0.83752938169E+02  0.00000000000E+00 0. -1.
<scales pt_clust_3="43.14814" pt_clust_4="97.14028" pt_clust_5="14000.00000" pt_clust_6="51.87593"></scales>
<clustering>
<clus scale="   43.148">  2  3  1 -1</clus>
<clus scale="   51.876">  2  6  1 -1</clus>
<clus scale="   97.140">  1  4  2 -1</clus>
<clus scale="   97.140">  1  3  2 -1</clus>
</clustering>
</event>
<event>
 6    0  0.1361919E+003  0.1349202E+03  0.7546771E-02  0.1220332E+00
         21   -1    0    0  504  501  0.00000000000E+00  0.00000000000E+00  0.17173402604E+03  0.17173402604E+03  0.00000000000E+00 0.  1.
         21   -1    0    0  505  502 -0.00000000000E+00 -0.00000000000E+00 -0.54825935154E+03  0.54825935154E+03  0.00000000000E+00 0.  1.
         21    1    1    2  503  501 -0.10415200988E+03  0.42404002645E+02  0.63234486163E+02  0.12901294835E+03  0.00000000000E+00 0.  1.
         21    1    1    2  504  506  0.45481969530E+02 -0.97068690306E+01 -0.22229115933E+02  0.51545770475E+02  0.00000000000E+00 0.  1.
         21    1    1    2  505  503 -0.64453833517E+02 -0.62795305027E+01  0.32259683885E+02  0.72349266497E+02  0.00000000000E+00 0.  1.
         21    1    1    2  506  502  0.12312387387E+03 -0.26417603111E+02 -0.44979037961E+03  0.46708539226E+03  0.00000000000E+00 0.  1.
<scales pt_clust_3="31.23993" pt_clust_4="46.50627" pt_clust_5="31.23993" pt_clust_6="128.48640"></scales>
<clustering>
<clus scale="   31.240">  3  5 -1 -1</clus>
<clus scale="   46.506">  1  4  2 -1</clus>
<clus scale="  128.486">  2  6  1 -1</clus>
<clus scale="   46.506">  1  3  2 -1</clus>
</clustering>
</event>
<event>
 6    0  0.1361919E+003  0.1009209E+03  0.7546771E-02  0.1278371E+00
         21   -1    0    0  506  501  0.00000000000E+00  0.00000000000E+00  0.16717204942E+04  0.16717204942E+04  0.00000000000E+00 0. -1.
         21   -1    0    0  504  502 -0.00000000000E+00 -0.00000000000E+00 -0.12753625417E+03  0.12753625417E+03  0.00000000000E+00 0. -1.
         21    1    1    2  503  502  0.59540978316E+02  0.74537255349E+02  0.13637343718E+02  0.96368603173E+02  0.00000000000E+00 0. -1.
         21    1    1    2  504  505  0.41563984197E+02 -0.10015686697E+03 -0.47963377627E+02  0.11857254479E+03  0.00000000000E+00 0. -1.
         21    1    1    2  505  501 -0.68185697710E+02  0.30721952541E+02  0.14366998976E+04  0.14386450999E+04  0.00000000000E+00 0. -1.
         21    1    1    2  506  503 -0.32919264803E+02 -0.51023409183E+01  0.14181037633E+03  0.14567050049E+03  0.00000000000E+00 0.  1.
<scales pt_clust_3="94.51918" pt_clust_4="100.92087" pt_clust_5="14000.00000" pt_clust_6="33.31234"></scales>
<clustering>
<clus scale="   33.312">  1  6  2 -1</clus>
<clus scale="   94.519">  2  3  1 -1</clus>
<clus scale="  100.921">  2  4  1 -1</clus>
<clus scale="   33.312">  1  3  2 -1</clus>
</clustering>
</event>
<event>
 6    0  0.1361919E+003  0.1533298E+03  0.7546771E-02  0.1196440E+00
         21   -1    0    0  506  501  0.00000000000E+00  0.00000000000E+00  0.24790351902E+03  0.24790351902E+03  0.00000000000E+00 0. -1.
         21   -1    0    0  504  502 -0.00000000000E+00 -0.00000000000E+00 -0.35054364495E+03  0.35054364495E+03  0.00000000000E+00 0. -1.
         21    1    1    2  503  502 -0.34318073078E+02  0.12759208216E+01 -0.13760669290E+03  0.14182721898E+03  0.00000000000E+00 0.  1.
         21    1    1    2  504  505  0.17909794440E+02  0.54317687716E+02 -0.41637535714E+02  0.70745009125E+02  0.00000000000E+00 0. -1.
         21    1    1    2  505  501 -0.92632199831E+02  0.67555213544E+02 -0.94467309477E+02  0.14855471680E+03  0.00000000000E+00 0. -1.
         21    1    1    2  506  503  0.10904047847E+03 -0.12314882208E+03  0.17107141216E+03  0.23732021908E+03  0.00000000000E+00 0. -1.
<scales pt_clust_3="34.34178" pt_clust_4="55.35577" pt_clust_5="14000.00000" pt_clust_6="153.32982"></scales>
<clustering>
<clus scale="   34.342">  2  3  1 -1</clus>
<clus scale="   55.356">  2  4  1 -1</clus>
<clus scale="  153.330">  1  6  2 -1</clus>
<clus scale="  153.330">  1  3  2 -1</clus>
</clustering>
</event>
<event>
 6    0  0.1361919E+003  0.1147788E+03  0.7546771E-02  0.1251968E+00
         21   -1    0    0  505  501  0.00000000000E+00  0.00000000000E+00  0.97103424384E+03  0.97103424384E+03  0.00000000000E+00 0. -1.
         21   -1    0    0  503  502 -0.00000000000E+00 -0.00000000000E+00 -0.47610809973E+02  0.47610809973E+02  0.00000000000E+00 0. -1.
         21    1    1    2  503  506  0.47236376620E+02  0.87694460061E+02  0.86626620180E+02  0.13200668515E+03  0.00000000000E+00 0. -1.
         21    1    1    2  504  502 -0.30117474871E+02  0.11698898687E+02  0.39040196290E+02  0.50676063871E+02  0.00000000000E+00 0. -1.
         21    1    1    2  505  504 -0.68305574678E+02 -0.14993514864E+03  0.41509858153E+03  0.44660164881E+03  0.00000000000E+00 0. -1.
         21    1    1    2  506  501  0.51186672929E+02  0.50541789896E+02  0.38265803586E+03  0.38936065598E+03  0.00000000000E+00 0. -1.
<scales pt_clust_3="114.77876" pt_clust_4="32.30985" pt_clust_5="14000.00000" pt_clust_6="70.91438"></scales>
<clustering>
<clus scale="   32.310">  2  4  1 -1</clus>
<clus scale="   70.914">  1  6  2 -1</clus>
<clus scale="  114.779">  2  3  1 -1</clus>
<clus scale="   70.914">  1  3  2 -1</clus>
</clustering>
</event>
<event>
 6    0  0.1361919E+003  0.1397650E+03  0.7546771E-02  0.1213646E+00
         21   -1    0    0  503  501  0.00000000000E+00  0.00000000000E+00  0.45879729002E+03  0.45879729002E+03  0.00000000000E+00 0.  1.
         21   -1    0    0  506  502 -0.00000000000E+00 -0.00000000000E+00 -0.13560457637E+03  0.13560457637E+03  0.00000000000E+00 0.  1.
         21    1    1    2  503  505 -0.24813292967E+02  0.73055238035E+02  0.18130277222E+03  0.19703670350E+03  0.00000000000E+00 0.  1.
         21    1    1    2  504  501  0.88833683154E+02 -0.18812403817E+03  0.75864250389E+02  0.22144403692E+03  0.00000000000E+00 0.  1.
         21    1    1    2  505  502  0.19930257876E+02  0.58529527070E+02  0.26253460283E+02  0.67172649902E+02  0.00000000000E+00 0.  1.
         21    1    1    2  506  504 -0.83950648062E+02  0.56539273061E+02  0.39772230764E+02  0.10874847607E+03  0.00000000000E+00 0.  1.
<scales pt_clust_3="80.54386" pt_clust_4="14000.00000" pt_clust_5="61.82977" pt_clust_6="139.76499"></scales>
<clustering>
<clus scale="   61.830">  2  5  1 -1</clus>
<clus scale="   80.544">  1  3  2 -1</clus>
<clus scale="  139.765">  2  6  1 -1</clus>
<clus scale="   80.544">  1  3  2 -1</clus>
</clustering>
</event>
<event>
 6    0  0.1361919E+003  0.1157260E+03  0.7546771E-02  0.1250319E+00
         21   -1    0    0  504  501  0.00000000000E+00  0.00000000000E+00  0.16196389600E+04  0.16196389600E+04  0.00000000000E+00 0. -1.
         21   -1    0    0  503  502 -0.00000000000E+00 -0.00000000000E+00 -0.40758573922E+02  0.40758573922E+02  0.00000000000E+00 0.  1.
         21    1    1    2  503  506  0.25983044794E+02 -0.24214379935E+02 -0.31629569784E+01  0.35657525283E+02  0.00000000000E+00 0.  1.
         21    1    1    2  504  502 -0.65410916817E+02  0.14225364193E+03  0.36091692686E+03  0.39341544807E+03  0.00000000000E+00 0.  1.
         21    1    1    2  505  501  0.16563394273E+02 -0.37757476997E+02  0.84682532314E+03  0.84782846202E+03  0.00000000000E+00 0. -1.
         21    1    1    2  506  505  0.22864477750E+02 -0.80281784997E+02  0.37430109307E+03  0.38349609857E+03  0.00000000000E+00 0.  1.
<scales pt_clust_3="35.51697" pt_clust_4="115.72603" pt_clust_5="41.99825" pt_clust_6="14000.00000"></scales>
<clustering>
<clus scale="   35.517">  2  3  1 -1</clus>
<clus scale="   41.998">  1  5  2 -1</clus>
<clus scale="  115.726">  2  4  1 -1</clus>
<clus scale="   41.998">  1  3  2 -1</clus>
</clustering>
</event>
<event>
 6    0  0.1361919E+003  0.7993291E+02  0.7546771E-02  0.1329242E+00
         21   -1    0    0  504  501  0.00000000000E+00  0.00000000000E+00  0.48284424137E+03  0.48284424137E+03  0.00000000000E+00 0.  1.
         21   -1    0    0  505  502 -0.00000000000E+00 -0.00000000000E+00 -0.10276849364E+03  0.10276849364E+03  0.00000000000E+00 0.  1.
         21    1    1    2  503  501 -0.30164056995E+02 -0.99040875255E+00  0.36154290183E+02  0.47095476880E+02  0.00000000000E+00 0.  1.
         21    1    1    2  504  506 -0.29689127561E+02 -0.42510027167E+02  0.27364641983E+03  0.27851554677E+03  0.00000000000E+00 0.  1.
         21    1    1    2  505  503  0.89414345708E+02  0.10865872115E+03  0.10959306777E+03  0.17835998263E+03  0.00000000000E+00 0.  1.
         21    1    1    2  506  502 -0.29561161152E+02 -0.65158285226E+02 -0.39318030055E+02  0.81641728728E+02  0.00000000000E+00 0.  1.
<scales pt_clust_3="30.18031" pt_clust_4="64.95064" pt_clust_5="14000.00000" pt_clust_6="79.93291"></scales>
<clustering>
<clus scale="   30.180">  1  3  2 -1</clus>
<clus scale="   64.951">  1  4  2 -1</clus>
<clus scale="   79.933">  2  6  1 -1</clus>
<clus scale="   30.180">  1  3  2 -1</clus>
</clustering>
</event>
<event>
 6    0  0.1361919E+003  0.9982054E+02  0.7546771E-02  0.1280674E+00
         21   -1    0    0  504  501  0.00000000000E+00  0.00000000000E+00  0.15459662832E+04  0.15459662832E+04  0.00000000000E+00 0.  1.
         21   -1    0    0  506  502 -0.00000000000E+00 -0.00000000000E+00 -0.10291546650E+04  0.10291546650E+04  0.00000000000E+00 0. -1.
         21    1    1    2  503  501  0.28915038865E+02  0.33177664009E+02  0.13123238182E+04  0.13130615525E+04  0.00000000000E+00 0.  1.
         21    1    1    2  504  505 -0.45468832590E+02 -0.56117663754E+02  0.21613877910E+03  0.22788720620E+03  0.00000000000E+00 0.  1.
         21    1    1    2  505  502 -0.71756464765E+02  0.71046236540E+02 -0.32881130320E+03  0.34396719477E+03  0.00000000000E+00 0.  1.
         21    1    1    2  506  503  0.88310258490E+02 -0.48106236795E+02 -0.68283967593E+03  0.69020499476E+03  0.00000000000E+00 0. -1.
<scales pt_clust_3="44.00951" pt_clust_4="30.40519" pt_clust_5="14000.00000" pt_clust_6="99.82054"></scales>
<clustering>
<clus scale="   44.010">  1  3  2 -1</clus>
<clus scale="   30.405">  1  4  2 -1</clus>
<clus scale="   99.821">  2  6  1 -1</clus>
<clus scale="   44.010">  1  3  2 -1</clus>
</clustering>
</event>
<event>
 6    0  0.1361919E+003  0.1389598E+03  0.7546771E-02  0.1214736E+00
         21   -1    0    0  506  501  0.00000000000E+00  0.00000000000E+00  0.62945261878E+02  0.62945261878E+02  0.00000000000E+00 0. -1.
         21   -1    0    0  503  502 -0.00000000000E+00 -0.00000000000E+00 -0.11010463085E+04  0.11010463085E+04  0.00000000000E+00 0.  1.
         21    1    1    2  503  504  0.43896004726E+02  0.41105030982E+02 -0.30470776097E+03  0.31058541884E+03  0.00000000000E+00 0. -1.
         21    1    1    2  504  505  0.57643250311E+02  0.44452348633E+02 -0.64331790655E+03  0.64742311087E+03  0.00000000000E+00 0.  1.
         21    1    1    2  505  501  0.31043176124E+02 -0.21203920296E+02 -0.13865411992E+02  0.40069123643E+02  0.00000000000E+00 0.  1.
         21    1    1    2  506  502 -0.13258243116E+03 -0.64353459319E+02 -0.76209967138E+02  0.16591391705E+03  0.00000000000E+00 0. -1.
<scales pt_clust_3="33.97716" pt_clust_4="33.97716" pt_clust_5="37.59368" pt_clust_6="133.83732"></scales>
<clustering>
<clus scale="   33.977">  3  4 -1 -1</clus>
<clus scale="   37.594">  1  5  2 -1</clus>
<clus scale="  133.837">  1  6  2 -1</clus>
<clus scale="   37.594">  1  3  2 -1</clus>
</clustering>
</event>
<event>
 6    0  0.1361919E+003  0.9507640E+02  0.7546771E-02  0.1291004E+00
         21   -1    0    0  505  501  0.00000000000E+00  0.00000000000E+00  0.38731089937E+03  0.38731089937E+03  0.00000000000E+00 0. -1.
         21   -1    0    0  503  502 -0.00000000000E+00 -0.00000000000E+00 -0.48758817072E+03  0.48758817072E+03  0.00000000000E+00 0.  1.
         21    1    1    2  503  504 -0.68769489266E+02  0.45979494722E+02 -0.14946807984E+03  0.17083343783E+03  0.00000000000E+00 0.  1.
         21    1    1    2  504  501  0.50426546399E+02  0.10012503666E+02 -0.18863321491E+01  0.51445554330E+02  0.00000000000E+00 0.  1.
         21    1    1    2  505  506  0.14270608650E+02  0.63678159213E+02  0.33667278443E+03  0.34293894793E+03  0.00000000000E+00 0. -1.
         21    1    1    2  506  502  0.40723342166E+01 -0.11967015760E+03 -0.28559564380E+03  0.30968113001E+03  0.00000000000E+00 0.  1.
<scales pt_clust_3="81.66034" pt_clust_4="51.41096" pt_clust_5="14000.00000" pt_clust_6="95.07640"></scales>
<clustering>
<clus scale="   51.411">  1  4  2 -1</clus>
<clus scale="   81.660">  2  3  1 -1</clus>
<clus scale="   95.076">  2  6  1 -1</clus>
<clus scale="   51.411">  1  3  2 -1</clus>
</clustering>
</event>
<event>
 6    0  0.1361919E+003  0.2109675E+03  0.7546771E-02  0.1140802E+00
         21   -1    0    0  503  501  0.00000000000E+00  0.00000000000E+00  0.31189223730E+03  0.31189223730E+03  0.00000000000E+00 0. -1.
         21   -1    0    0  504  502 -0.00000000000E+00 -0.00000000000E+00 -0.77392373437E+03  0.77392373437E+03  0.00000000000E+00 0. -1.
         21    1    1    2  503  505  0.49924243524E+02 -0.20650060039E+03  0.19218060322E+03  0.28647567489E+03  0.00000000000E+00 0. -1.
         21    1    1    2  504  506 -0.14292844541E+02 -0.32375180906E+02 -0.41722768088E+02  0.54710393169E+02  0.00000000000E+00 0.  1.
         21    1    1    2  505  502  0.11040127994E+03  0.22143602152E+03 -0.50534792564E+03  0.56267120078E+03  0.00000000000E+00 0. -1.
         21    1    1    2  506  501 -0.14603267893E+03  0.17439759773E+02 -0.10714140657E+03  0.18195870283E+03  0.00000000000E+00 0.  1.
<scales pt_clust_3="14000.00000" pt_clust_4="35.38980" pt_clust_5="210.96751" pt_clust_6="149.28476"></scales>
<clustering>
<clus scale="   35.390">  2  4  1 -1</clus>
<clus scale="  149.285">  2  6  1 -1</clus>
<clus scale="  210.968">  2  5  1 -1</clus>
<clus scale="  210.968">  1  3  2 -1</clus>
</clustering>
</event>
<event>
 6    0  0.1361919E+003  0.1376490E+03  0.7546771E-02  0.1216528E+00
         21   -1    0    0  505  501  0.00000000000E+00  0.00000000000E+00  0.83829211196E+02  0.83829211196E+02  0.00000000000E+00 0. -1.
         21   -1    0    0  503  502 -0.00000000000E+00 -0.00000000000E+00 -0.50205520820E+03  0.50205520820E+03  0.00000000000E+00 0.  1.
         21    1    1    2  503  506  0.22553326016E+02 -0.39542540165E+02 -0.19614422744E+03  0.20135745071E+03  0.00000000000E+00 0.  1.
         21    1    1    2  504  501  0.60344341772E+02  0.33581225579E+02 -0.28767358211E+02  0.74811090045E+02  0.00000000000E+00 0.  1.
         21    1    1    2  505  502 -0.93877219589E+02  0.89749816709E+02 -0.42168680900E+02  0.13655094143E+03  0.00000000000E+00 0. -1.
         21    1    1    2  506  504  0.10979551801E+02 -0.83788502123E+02 -0.15114573045E+03  0.17316493721E+03  0.00000000000E+00 0.  1.
<scales pt_clust_3="42.30104" pt_clust_4="69.05895" pt_clust_5="125.00221" pt_clust_6="42.30104"></scales>
<clustering>
<clus scale="   42.301">  3  6 -1 -1</clus>
<clus scale="   69.059">  1  4  2 -1</clus>
<clus scale="  125.002">  1  5  2 -1</clus>
<clus scale="   69.059">  1  3  2 -1</clus>
</clustering>
</event>
<event>
 6    0  0.1361919E+003  0.1006080E+03  0.7546771E-02  0.1279023E+00
         21   -1    0    0  506  501  0.00000000000E+00  0.00000000000E+00  0.46020575094E+03  0.46020575094E+03  0.00000000000E+00 0.  1.
         21   -1    0    0  503  502 -0.00000000000E+00 -0.00000000000E+00 -0.19223161925E+03  0.19223161925E+03  0.00000000000E+00 0.  1.
         21    1    1    2  503  505 -0.31469577651E+02 -0.91432845532E+02 -0.99385118022E+02  0.13866398683E+03  0.00000000000E+00 0.  1.
         21    1    1    2  504  502 -0.37110275543E+01  0.12057900126E+03  0.20005976975E+02  0.12228371268E+03  0.00000000000E+00 0.  1.
         21    1    1    2  505  501  0.31830760478E+01 -0.45663505390E+02  0.36657110266E+01  0.45920857297E+02  0.00000000000E+00 0.  1.
         21    1    1    2  506  504  0.31997529158E+02  0.16517349657E+02  0.34368756171E+03  0.34556881339E+03  0.00000000000E+00 0.  1.
<scales pt_clust_3="100.60803" pt_clust_4="14000.00000" pt_clust_5="43.30197" pt_clust_6="36.00923"></scales>
<clustering>
<clus scale="   36.009">  1  6  2 -1</clus>
<clus scale="   43.302">  1  5  2 -1</clus>
<clus scale="  100.608">  2  3  1 -1</clus>
<clus scale="   36.009">  1  3  2 -1</clus>
</clustering>
</event>
<event>
 6    0  0.1361919E+003  0.1002272E+03  0.7546771E-02  0.1279819E+00
         21   -1    0    0  503  501  0.00000000000E+00  0.00000000000E+00  0.47257042861E+03  0.47257042861E+03  0.00000000000E+00 0. -1.
         21   -1    0    0  506  502 -0.00000000000E+00 -0.00000000000E+00 -0.61925472902E+02  0.61925472902E+02  0.00000000000E+00 0. -1.
         21    1    1    2  503  504 -0.48336504979E+02 -0.46259570864E+02  0.22958065150E+03  0.23913101253E+03  0.00000000000E+00 0. -1.
         21    1    1    2  504  505  0.89255442783E+02  0.57103628727E+02  0.87659718502E+02  0.13751939764E+03  0.00000000000E+00 0. -1.
         21    1    1    2  505  502  0.20275088704E+02  0.27229872552E+02  0.76679259525E+02  0.83858535776E+02  0.00000000000E+00 0. -1.
         21    1    1    2  506  501 -0.61194026508E+02 -0.38073930415E+02  0.16725326177E+02  0.73986955562E+02  0.00000000000E+00 0. -1.
<scales pt_clust_3="66.90565" pt_clust_4="30.43899" pt_clust_5="30.43899" pt_clust_6="84.57944"></scales>
<clustering>
<clus scale="   30.439">  4  5 -1 -1</clus>
<clus scale="   66.906">  1  3  2 -1</clus>
<clus scale="   84.579">  2  6  1 -1</clus>
<clus scale="   66.906">  1  3  2 -1</clus>
</clustering>
</event>
<event>
 6    0  0.1361919E+003  0.1598047E+03  0.7546771E-02  0.1188917E+00
         21   -1    0    0  504  501  0.00000000000E+00  0.00000000000E+00  0.10806541686E+04  0.10806541686E+04  0.00000000000E+00 0. -1.
         21   -1    0    0  503  502 -0.00000000000E+00 -0.00000000000E+00 -0.55137780550E+02  0.55137780550E+02  0.00000000000E+00 0. -1.
         21    1    1    2  503  505 -0.32041894477E+02  0.52614206008E+01  0.37002951843E+02  0.49229909541E+02  0.00000000000E+00 0. -1.
         21    1    1    2  504  506  0.51678007643E+01  0.36866315038E+02  0.60212266931E+03  0.60327235992E+03  0.00000000000E+00 0. -1.
         21    1    1    2  505  501 -0.69275987168E+02  0.84212937283E+02  0.25453413795E+03  0.27690902583E+03  0.00000000000E+00 0. -1.
         21    1    1    2  506  502  0.96150080880E+02 -0.12634067292E+03  0.13185662894E+03  0.20638065385E+03  0.00000000000E+00 0. -1.
<scales pt_clust_3="30.39116" pt_clust_4="37.22676" pt_clust_5="30.39116" pt_clust_6="149.78585"></scales>
<clustering>
<clus scale="   30.391">  3  5 -1 -1</clus>
<clus scale="   37.227">  1  4  2 -1</clus>
<clus scale="  149.786">  2  6  1 -1</clus>
<clus scale="   37.227">  1  3  2 -1</clus>
</clustering>
</event>
<event>
 6    0  0.1361919E+003  0.1454869E+03  0.7546771E-02  0.1206131E+00
         21   -1    0    0  502  501  0.00000000000E+00  0.00000000000E+00  0.33342161179E+03  0.33342161179E+03  0.00000000000E+00 0.  1.
         21   -1    0    0  505  502 -0.00000000000E+00 -0.00000000000E+00 -0.12888819198E+03  0.12888819198E+03  0.00000000000E+00 0.  1.
         21    1    1    2  503  506  0.87670320366E+02  0.80760057673E+02 -0.17974306922E+02  0.12054603974E+03  0.00000000000E+00 0.  1.
         21    1    1    2  504  501 -0.43951856569E+02  0.41854186319E+01  0.14187049424E+03  0.14858169659E+03  0.00000000000E+00 0.  1.
         21    1    1    2  505  503  0.33096703841E+02 -0.16192504394E+01 -0.22413531906E+02  0.40004752088E+02  0.00000000000E+00 0.  1.
         21    1    1    2  506  504 -0.76815167637E+02 -0.83326225866E+02  0.10305076439E+03  0.15317731535E+03  0.00000000000E+00 0.  1.
<scales pt_clust_3="30.27645" pt_clust_4="44.15069" pt_clust_5="30.27645" pt_clust_6="133.67494"></scales>
<clustering>
<clus scale="   30.276">  3  5 -1 -1</clus>
<clus scale="   44.151">  1  4  2 -1</clus>
<clus scale="  133.675">  1  6  2 -1</clus>
<clus scale="   44.151">  1  3  2 -1</clus>
</clustering>
</event>
<event>
 6    0  0.1361919E+003  0.2471190E+03  0.7546771E-02  0.1115139E+00
         21   -1    0    0  506  501  0.00000000000E+00  0.00000000000E+00  0.99399311614E+03  0.99399311614E+03  0.00000000000E+00 0.  1.
         21   -1    0    0  505  502 -0.00000000000E+00 -0.00000000000E+00 -0.61098710458E+03  0.61098710458E+03  0.00000000000E+00 0.  1.
         21    1    1    2  503  502 -0.10404178396E+03 -0.23881183526E+03 -0.20704805817E+03  0.33275318761E+03  0.00000000000E+00 0.  1.
         21    1    1    2  504  501  0.15428955865E+02  0.36486671755E+02  0.12706202126E+03  0.13309427914E+03  0.00000000000E+00 0.  1.
         21    1    1    2  505  504  0.13088343386E+03  0.20057123851E+03 -0.29498964187E+03  0.37997129337E+03  0.00000000000E+00 0.  1.
         21    1    1    2  506  503 -0.42270605764E+02  0.17539250053E+01  0.75798169034E+03  0.75916146060E+03  0.00000000000E+00 0.  1.
<scales pt_clust_3="247.11899" pt_clust_4="39.61477" pt_clust_5="14000.00000" pt_clust_6="44.34950"></scales>
<clustering>
<clus scale="   39.615">  1  4  2 -1</clus>
<clus scale="   44.349">  1  6  2 -1</clus>
<clus scale="  247.119">  1  3  2 -1</clus>
<clus scale="   39.615">  1  3  2 -1</clus>
</clustering>
</event>
<event>
 6    0  0.1361919E+003  0.1448105E+03  0.7546771E-02  0.1206999E+00
         21   -1    0    0  504  501  0.00000000000E+00  0.00000000000E+00  0.11029513440E+04  0.11029513440E+04  0.00000000000E+00 0. -1.
         21   -1    0    0  505  502 -0.00000000000E+00 -0.00000000000E+00 -0.14670097539E+03  0.14670097539E+03  0.00000000000E+00 0. -1.
         21    1    1    2  503  502 -0.56617000689E+02 -0.21282126156E+02  0.51323353885E+02  0.79325281687E+02  0.00000000000E+00 0.  1.
         21    1    1    2  504  506  0.58133304825E+02  0.58701870844E+02  0.68770622138E+03  0.69265087721E+03  0.00000000000E+00 0. -1.
         21    1    1    2  505  501 -0.22268111741E+02 -0.94524698745E+02 -0.10891898715E+03  0.14592509461E+03  0.00000000000E+00 0. -1.
         21    1    1    2  506  503  0.20751807605E+02  0.57104954057E+02  0.32613978053E+03  0.33175106592E+03  0.00000000000E+00 0. -1.
<scales pt_clust_3="60.48482" pt_clust_4="37.19884" pt_clust_5="138.16127" pt_clust_6="37.19884"></scales>
<clustering>
<clus scale="   37.199">  4  6 -1 -1</clus>
<clus scale="   60.485">  2  3  1 -1</clus>
<clus scale="  138.161">  2  5  1 -1</clus>
<clus scale="  144.811">  1  3  2 -1</clus>
</clustering>
</event>
<event>
 6    0  0.1361919E+003  0.1302593E+03  0.7546771E-02  0.1227072E+00
         21   -1    0    0  503  501  0.00000000000E+00  0.00000000000E+00  0.13640538247E+03  0.13640538247E+03  0.00000000000E+00 0. -1.
         21   -1    0    0  505  502 -0.00000000000E+00 -0.00000000000E+00 -0.92667495466E+03  0.92667495466E+03  0.00000000000E+00 0. -1.
         21    1    1    2  503  506 -0.40546634540E+02  0.49423247286E+02 -0.40148190319E+02  0.75488834477E+02  0.00000000000E+00 0. -1.
         21    1    1    2  504  501 -0.80682939589E+02  0.22665707716E+02  0.91963983195E+02  0.12442204488E+03  0.00000000000E+00 0. -1.
         21    1    1    2  505  504  0.11460428155E+03 -0.65919243082E+00 -0.59235909598E+03  0.60334391061E+03  0.00000000000E+00 0. -1.
         21    1    1    2  506  502  0.66252925794E+01 -0.71429762571E+02 -0.24972626909E+03  0.25982554716E+03  0.00000000000E+00 0. -1.
<scales pt_clust_3="63.92720" pt_clust_4="14000.00000" pt_clust_5="130.25928" pt_clust_6="69.50087"></scales>
<clustering>
<clus scale="   63.927">  1  3  2 -1</clus>
<clus scale="   69.501">  2  6  1 -1</clus>
<clus scale="  130.259">  2  5  1 -1</clus>
<clus scale="   63.927">  1  3  2 -1</clus>
</clustering>
</event>
<event>
 6    0  0.1361919E+003  0.2699705E+03  0.7546771E-02  0.1101296E+00
         21   -1    0    0  506  501  0.00000000000E+00  0.00000000000E+00  0.10872755589E+04  0.10872755589E+04  0.00000000000E+00 0.  1.
         21   -1    0    0  503  502 -0.00000000000E+00 -0.00000000000E+00 -0.29516757899E+03  0.29516757899E+03  0.00000000000E+00 0.  1.
         21    1    1    2  503  504  0.35810724290E+02 -0.20705836269E+01 -0.10377239213E+03  0.10979710679E+03  0.00000000000E+00 0.  1.
         21    1    1    2  504  501  0.13417429295E+02  0.25421004594E+03 -0.74544175343E+02  0.26525385755E+03  0.00000000000E+00 0.  1.
         21    1    1    2  505  502 -0.51436210837E+02 -0.21195912231E+03  0.67819416456E+03  0.71240415367E+03  0.00000000000E+00 0.  1.
         21    1    1    2  506  505  0.22080572526E+01 -0.40180340010E+02  0.29223038283E+03  0.29498801991E+03  0.00000000000E+00 0.  1.
<scales pt_clust_3="35.87054" pt_clust_4="256.45002" pt_clust_5="36.29785" pt_clust_6="36.29785"></scales>
<clustering>
<clus scale="   35.871">  2  3  1 -1</clus>
<clus scale="   36.298">  5  6 -1 -1</clus>
<clus scale="  256.450">  2  4  1 -1</clus>
<clus scale="  269.971">  1  3  2 -1</clus>
</clustering>
</event>
<event>
 6    0  0.1361919E+003  0.1145928E+03  0.7546771E-02  0.1252294E+00
         21   -1    0    0  503  501  0.00000000000E+00  0.00000000000E+00  0.52308572004E+03  0.52308572004E+03  0.00000000000E+00 0.  1.
         21   -1    0    0  505  502 -0.00000000000E+00 -0.00000000000E+00 -0.28577941527E+03  0.28577941527E+03  0.00000000000E+00 0.  1.
         21    1    1    2  503  506 -0.35866479535E+02  0.17440378487E+01  0.46515368377E+03  0.46653766788E+03  0.00000000000E+00 0.  1.
         21    1    1    2  504  502 -0.10544682054E+02 -0.34458335375E+02 -0.16101936523E+02  0.39469476260E+02  0.00000000000E+00 0.  1.
         21    1    1    2  505  501 -0.28452172183E+01  0.10226773593E+03 -0.18856917893E+03  0.21453465994E+03  0.00000000000E+00 0.  1.
         21    1    1    2  506  504  0.49256378808E+02 -0.69553438404E+02 -0.23176263543E+02  0.88323331226E+02  0.00000000000E+00 0.  1.
<scales pt_clust_3="35.90886" pt_clust_4="32.32409" pt_clust_5="103.24882" pt_clust_6="32.32409"></scales>
<clustering>
<clus scale="   32.324">  4  6 -1 -1</clus>
<clus scale="   35.909">  1  3  2 -1</clus>
<clus scale="  103.249">  2  5  1 -1</clus>
<clus scale="   35.909">  1  3  2 -1</clus>
</clustering>
</event>
<event>
 6    0  0.1361919E+003  0.8584236E+02  0.7546771E-02  0.1313244E+00
         21   -1    0    0  506  501  0.00000000000E+00  0.00000000000E+00  0.21559578303E+02  0.21559578303E+02  0.00000000000E+00 0.  1.
         21   -1    0    0  505  502 -0.00000000000E+00 -0.00000000000E+00 -0.19953945059E+04  0.19953945059E+04  0.00000000000E+00 0.  1.
         21    1    1    2  503  502 -0.29867342122E+02  0.75808061634E+02 -0.42051819667E+03  0.42833920444E+03  0.00000000000E+00 0.  1.
         21    1    1    2  504  503  0.54729944873E+02 -0.76476452571E+02 -0.58047673455E+03  0.58804528228E+03  0.00000000000E+00 0.  1.
         21    1    1    2  505  501  0.49979059352E+02 -0.50102957526E+00 -0.87952396713E+03  0.88094299825E+03  0.00000000000E+00 0.  1.
         21    1    1    2  506  504 -0.74841662102E+02  0.11694205116E+01 -0.93316029296E+02  0.11962659927E+03  0.00000000000E+00 0.  1.
<scales pt_clust_3="14000.00000" pt_clust_4="85.84236" pt_clust_5="49.98157" pt_clust_6="70.07883"></scales>
<clustering>
<clus scale="   49.982">  2  5  1 -1</clus>
<clus scale="   70.079">  1  6  2 -1</clus>
<clus scale="   85.842">  1  4  2 -1</clus>
<clus scale="   70.079">  1  3  2 -1</clus>
</clustering>
</event>
<event>
 6    0  0.1361919E+003  0.1359142E+03  0.7546771E-02  0.1218935E+00
         21   -1    0    0  505  501  0.00000000000E+00  0.00000000000E+00  0.84406529920E+02  0.84406529920E+02  0.00000000000E+00 0. -1.
         21   -1    0    0  501  502 -0.00000000000E+00 -0.00000000000E+00 -0.53609603205E+03  0.53609603205E+03  0.00000000000E+00 0.  1.
         21    1    1    2  503  502  0.87032613934E+02 -0.38454283542E+02 -0.34629727700E+03  0.35913119033E+03  0.00000000000E+00 0.  1.
         21    1    1    2  504  503  0.37199902729E+02  0.17415831071E+02 -0.95979615049E+02  0.10439937950E+03  0.00000000000E+00 0. -1.
         21    1    1    2  505  506 -0.25866182467E+02 -0.34946051870E+02 -0.12386282456E+01  0.43495058761E+02  0.00000000000E+00 0. -1.
         21    1    1    2  506  504 -0.98366334196E+02  0.55984504341E+02 -0.81739818335E+01  0.11347693338E+03  0.00000000000E+00 0. -1.
<scales pt_clust_3="38.17227" pt_clust_4="38.17227" pt_clust_5="43.47742" pt_clust_6="122.87097"></scales>
<clustering>
<clus scale="   38.172">  3  4 -1 -1</clus>
<clus scale="   43.477">  1  5  2 -1</clus>
<clus scale="  122.871">  1  6  2 -1</clus>
<clus scale="   43.477">  1  3  2 -1</clus>
</clustering>
</event>
<event>
 6    0  0.1361919E+003  0.7619823E+02  0.7546771E-02  0.1340200E+00
         21   -1    0    0  506  501  0.00000000000E+00  0.00000000000E+00  0.17158685643E+02  0.17158685643E+02  0.00000000000E+00 0.  1.
         21   -1    0    0  504  502 -0.00000000000E+00 -0.00000000000E+00 -0.13450747384E+04  0.13450747384E+04  0.00000000000E+00 0.  1.
         21    1    1    2  503  501  0.83013951711E+02  0.99698336112E+01 -0.32691440809E+03  0.33743702224E+03  0.00000000000E+00 0.  1.
         21    1    1    2  504  503 -0.63993262085E+01 -0.77127402603E+02 -0.63285880009E+03  0.63757340633E+03  0.00000000000E+00 0.  1.
         21    1    1    2  505  502 -0.74626676845E+01  0.34008617727E+02 -0.19168961044E+03  0.19482603584E+03  0.00000000000E+00 0. -1.
         21    1    1    2  506  505 -0.69151957818E+02  0.33148951265E+02 -0.17645323413E+03  0.19239695963E+03  0.00000000000E+00 0.  1.
<scales pt_clust_3="76.19823" pt_clust_4="59.31147" pt_clust_5="34.81778" pt_clust_6="14000.00000"></scales>
<clustering>
<clus scale="   34.818">  2  5  1 -1</clus>
<clus scale="   59.311">  2  4  1 -1</clus>
<clus scale="   76.198">  2  3  1 -1</clus>
<clus scale="   76.198">  1  3  2 -1</clus>
</clustering>
</event>
<event>
 6    0  0.1361919E+003  0.8924175E+02  0.7546771E-02  0.1304698E+00
         21   -1    0    0  505  501  0.00000000000E+00  0.00000000000E+00  0.80648056188E+01  0.80648056188E+01  0.00000000000E+00 0. -1.
         21   -1    0    0  503  502 -0.00000000000E+00 -0.00000000000E+00 -0.31624500534E+04  0.31624500534E+04  0.00000000000E+00 0. -1.
         21    1    1    2  503  504 -0.23067314610E+02  0.80355758218E+02 -0.13234319235E+04  0.13260698341E+04  0.00000000000E+00 0. -1.
         21    1    1    2  504  506 -0.68609515040E+01 -0.10252578237E+03 -0.11381460103E+04  0.11427751088E+04  0.00000000000E+00 0. -1.
         21    1    1    2  505  502  0.64936710113E+02  0.34823555040E+02 -0.48239192531E+03  0.48798711654E+03  0.00000000000E+00 0. -1.
         21    1    1    2  506  501 -0.35008443999E+02 -0.12653530886E+02 -0.21041538870E+03  0.21368279949E+03  0.00000000000E+00 0. -1.
<scales pt_clust_3="14000.00000" pt_clust_4="89.24175" pt_clust_5="57.71018" pt_clust_6="37.22503"></scales>
<clustering>
<clus scale="   37.225">  1  6  2 -1</clus>
<clus scale="   57.710">  1  5  2 -1</clus>
<clus scale="   89.242">  1  4  2 -1</clus>
<clus scale="   37.225">  1  3  2 -1</clus>
</clustering>
</event>
<event>
 6    0  0.1361919E+003  0.1452953E+03  0.7546771E-02  0.1206376E+00
         21   -1    0    0  503  501  0.00000000000E+00  0.00000000000E+00  0.24920650907E+03  0.24920650907E+03  0.00000000000E+00 0. -1.
         21   -1    0    0  504  502 -0.00000000000E+00 -0.00000000000E+00 -0.64457959734E+03  0.64457959734E+03  0.00000000000E+00 0.  1.
         21    1    1    2  503  502  0.95964771906E+02  0.15582729452E+03  0.35892250080E+01  0.18304170481E+03  0.00000000000E+00 0. -1.
         21    1    1    2  504  505 -0.31368522441E+02 -0.30511159972E+02 -0.44565173459E+03  0.44779502412E+03  0.00000000000E+00 0.  1.
         21    1    1    2  505  506 -0.43388533399E+02 -0.10384632758E+03 -0.76521726254E+02  0.13609628640E+03  0.00000000000E+00 0. -1.
         21    1    1    2  506  501 -0.21207716066E+02 -0.21469806965E+02  0.12321114757E+03  0.12685309108E+03  0.00000000000E+00 0. -1.
<scales pt_clust_3="14000.00000" pt_clust_4="44.02013" pt_clust_5="145.29529" pt_clust_6="30.17813"></scales>
<clustering>
<clus scale="   30.178">  1  6  2 -1</clus>
<clus scale="   44.020">  2  4  1 -1</clus>
<clus scale="  145.295">  2  5  1 -1</clus>
<clus scale="   30.178">  1  3  2 -1</clus>
</clustering>
</event>
<event>
 6    0  0.1361919E+003  0.1018774E+03  0.7546771E-02  0.1276397E+00
         21   -1    0    0  506  501  0.00000000000E+00  0.00000000000E+00  0.97709118615E+03  0.97709118615E+03  0.00000000000E+00 0.  1.
         21   -1    0    0  503  502 -0.00000000000E+00 -0.00000000000E+00 -0.98337295442E+03  0.98337295442E+03  0.00000000000E+00 0. -1.
         21    1    1    2  503  505 -0.30292636017E+02 -0.84339012375E+02 -0.64528372818E+03  0.65147663247E+03  0.00000000000E+00 0. -1.
         21    1    1    2  504  502 -0.58032600987E+02  0.32071393106E+02 -0.32542717308E+03  0.33211323673E+03  0.00000000000E+00 0. -1.
         21    1    1    2  505  501  0.62315181628E+02  0.13195410014E+02  0.86030200947E+03  0.86265685426E+03  0.00000000000E+00 0.  1.
         21    1    1    2  506  504  0.26010055376E+02  0.39072209255E+02  0.10412712351E+03  0.11421741710E+03  0.00000000000E+00 0. -1.
<scales pt_clust_3="14000.00000" pt_clust_4="66.29038" pt_clust_5="101.87737" pt_clust_6="46.93784"></scales>
<clustering>
<clus scale="   46.938">  1  6  2 -1</clus>
<clus scale="   66.290">  2  4  1 -1</clus>
<clus scale="  101.877">  1  5  2 -1</clus>
<clus scale="   46.938">  1  3  2 -1</clus>
</clustering>
</event>
<event>
 6    0  0.1361919E+003  0.8685512E+02  0.7546771E-02  0.1310651E+00
         21   -1    0    0  505  501  0.00000000000E+00  0.00000000000E+00  0.20979401268E+04  0.20979401268E+04  0.00000000000E+00 0. -1.
         21   -1    0    0  501  502 -0.00000000000E+00 -0.00000000000E+00 -0.33783384307E+02  0.33783384307E+02  0.00000000000E+00 0.  1.
         21    1    1    2  503  504  0.98899599754E+02  0.55268391402E+01  0.39561662815E+03  0.40782863221E+03  0.00000000000E+00 0.  1.
         21    1    1    2  504  502 -0.42360419499E+02  0.78373883232E+02  0.56389394659E+02  0.10543545202E+03  0.00000000000E+00 0.  1.
         21    1    1    2  505  506  0.11484961250E+02 -0.49672663702E+02  0.31715238483E+03  0.32122408542E+03  0.00000000000E+00 0. -1.
         21    1    1    2  506  503 -0.68024141505E+02 -0.34228058670E+02  0.12949983348E+04  0.12972353414E+04  0.00000000000E+00 0. -1.
<scales pt_clust_3="86.33343" pt_clust_4="86.85512" pt_clust_5="50.98311" pt_clust_6="14000.00000"></scales>
<clustering>
<clus scale="   50.983">  1  5  2 -1</clus>
<clus scale="   86.855">  2  4  1 -1</clus>
<clus scale="   86.333">  2  3  1 -1</clus>
<clus scale="   50.983">  1  3  2 -1</clus>
</clustering>
</event>
<event>
 6    0  0.1361919E+003  0.8830641E+02  0.7546771E-02  0.1307006E+00
         21   -1    0    0  506  501  0.00000000000E+00  0.00000000000E+00  0.59133870735E+03  0.59133870735E+03  0.00000000000E+00 0.  1.
         21   -1    0    0  503  502 -0.00000000000E+00 -0.00000000000E+00 -0.79458825661E+02  0.79458825661E+02  0.00000000000E+00 0.  1.
         21    1    1    2  503  504 -0.38465615054E+02  0.11055495866E+02 -0.23400489960E+02  0.46361734876E+02  0.00000000000E+00 0.  1.
         21    1    1    2  504  501 -0.21997162386E+02  0.10651149654E+03  0.30778617362E+03  0.32643667490E+03  0.00000000000E+00 0.  1.
         21    1    1    2  505  502  0.22836227024E+02 -0.50965553509E+02 -0.22111513544E+01  0.55891592386E+02  0.00000000000E+00 0.  1.
         21    1    1    2  506  505  0.37626550416E+02 -0.66601438894E+02  0.22970534938E+03  0.24210753085E+03  0.00000000000E+00 0.  1.
<scales pt_clust_3="40.02284" pt_clust_4="14000.00000" pt_clust_5="43.81755" pt_clust_6="88.30641"></scales>
<clustering>
<clus scale="   40.023">  2  3  1 -1</clus>
<clus scale="   43.818">  2  5  1 -1</clus>
<clus scale="   88.306">  1  6  2 -1</clus>
<clus scale="   88.306">  1  3  2 -1</clus>
</clustering>
</event>
<event>
 6    0  0.1361919E+003  0.9167695E+02  0.7546771E-02  0.1298841E+00
         21   -1    0    0  504  501  0.00000000000E+00  0.00000000000E+00  0.12776480376E+04  0.12776480376E+04  0.00000000000E+00 0.  1.
         21   -1    0    0  505  502 -0.00000000000E+00 -0.00000000000E+00 -0.32133853751E+03  0.32133853751E+03  0.00000000000E+00 0. -1.
         21    1    1    2  503  506  0.55310565250E+02 -0.23742209991E+02  0.19971816445E+03  0.20859121835E+03  0.00000000000E+00 0. -1.
         21    1    1    2  504  502  0.81810053818E+02 -0.39778596720E+01 -0.89481308241E+02  0.12130792554E+03  0.00000000000E+00 0. -1.
         21    1    1    2  505  503 -0.89210744233E+02  0.55137283883E+02 -0.19773278074E+03  0.22382343385E+03  0.00000000000E+00 0. -1.
         21    1    1    2  506  501 -0.47909874835E+02 -0.27417214220E+02  0.10438054246E+04  0.10452639973E+04  0.00000000000E+00 0.  1.
<scales pt_clust_3="49.58510" pt_clust_4="91.67695" pt_clust_5="14000.00000" pt_clust_6="55.20018"></scales>
<clustering>
<clus scale="   55.200">  1  6  2 -1</clus>
<clus scale="   49.585">  1  3  2 -1</clus>
<clus scale="   91.677">  1  4  2 -1</clus>
<clus scale="   55.200">  1  3  2 -1</clus>
</clustering>
</event>
<event>
 6    0  0.1361919E+003  0.9904078E+02  0.7546771E-02  0.1282326E+00
         21   -1    0    0  504  501  0.00000000000E+00  0.00000000000E+00  0.15686288840E+03  0.15686288840E+03  0.00000000000E+00 0.  1.
         21   -1    0    0  503  502 -0.00000000000E+00 -0.00000000000E+00 -0.63373562661E+03  0.63373562661E+03  0.00000000000E+00 0.  1.
         21    1    1    2  503  506 -0.32854462341E+02 -0.59363584281E+02 -0.46591051339E+03  0.47082486906E+03  0.00000000000E+00 0.  1.
         21    1    1    2  504  505  0.86765158208E+02  0.96358715242E+02 -0.33590070584E+02  0.13394583802E+03  0.00000000000E+00 0.  1.
         21    1    1    2  505  502 -0.54348628001E+01 -0.33755920125E+02 -0.71861052670E+02  0.79580215933E+02  0.00000000000E+00 0.  1.
         21    1    1    2  506  501 -0.48475833066E+02 -0.32392108357E+01  0.94488898436E+02  0.10624759200E+03  0.00000000000E+00 0.  1.
<scales pt_clust_3="99.04078" pt_clust_4="14000.00000" pt_clust_5="34.19064" pt_clust_6="48.66605"></scales>
<clustering>
<clus scale="   34.191">  2  5  1 -1</clus>
<clus scale="   48.666">  1  6  2 -1</clus>
<clus scale="   99.041">  2  3  1 -1</clus>
<clus scale="   48.666">  1  3  2 -1</clus>
</clustering>
</event>
<event>
 6    0  0.1361919E+003  0.7760320E+02  0.7546771E-02  0.1335994E+00
         21   -1    0    0  503  501  0.00000000000E+00  0.00000000000E+00  0.41432902022E+03  0.41432902022E+03  0.00000000000E+00 0.  1.
         21   -1    0    0  505  502 -0.00000000000E+00 -0.00000000000E+00 -0.11924929415E+03  0.11924929415E+03  0.00000000000E+00 0.  1.
         21    1    1    2  503  506 -0.14232053503E+02  0.53749545351E+02  0.26675701879E+03  0.27249013201E+03  0.00000000000E+00 0.  1.
         21    1    1    2  504  501  0.17284429412E+02 -0.28124915483E+02  0.80405176069E+02  0.86918091959E+02  0.00000000000E+00 0.  1.
         21    1    1    2  505  504 -0.13564928182E+02 -0.93731414914E+02 -0.14922396564E+02  0.95876291843E+02  0.00000000000E+00 0.  1.
         21    1    1    2  506  502  0.10512552274E+02  0.68106785046E+02 -0.37160072221E+02  0.78293798554E+02  0.00000000000E+00 0.  1.
<scales pt_clust_3="30.81702" pt_clust_4="33.01155" pt_clust_5="77.60320" pt_clust_6="14000.00000"></scales>
<clustering>
<clus scale="   33.012">  1  4  2 -1</clus>
<clus scale="   30.817">  1  3  2 -1</clus>
<clus scale="   77.603">  1  5  2 -1</clus>
<clus scale="   33.012">  1  3  2 -1</clus>
</clustering>
</event>
<event>
 6    0  0.1361919E+003  0.5972341E+02  0.7546771E-02  0.1398996E+00
         21   -1    0    0  503  501  0.00000000000E+00  0.00000000000E+00  0.90242762022E+03  0.90242762022E+03  0.00000000000E+00 0. -1.
         21   -1    0    0  506  502 -0.00000000000E+00 -0.00000000000E+00 -0.65627680911E+02  0.65627680911E+02  0.00000000000E+00 0.  1.
         21    1    1    2  503  502 -0.20817012124E+02  0.68874406679E+02  0.17771989100E+03  0.19173260428E+03  0.00000000000E+00 0. -1.
         21    1    1    2  504  505 -0.74245417500E+02 -0.42956445050E+02  0.52631285324E+03  0.53325684025E+03  0.00000000000E+00 0. -1.
         21    1    1    2  505  501  0.40552810139E+02 -0.54458987897E+01  0.16940144963E+03  0.17427288762E+03  0.00000000000E+00 0. -1.
         21    1    1    2  506  504  0.54509619485E+02 -0.20472062839E+02 -0.36634254557E+02  0.68792968974E+02  0.00000000000E+00 0.  1.
<scales pt_clust_3="14000.00000" pt_clust_4="59.72341" pt_clust_5="40.91685" pt_clust_6="59.10519"></scales>
<clustering>
<clus scale="   40.917">  1  5  2 -1</clus>
<clus scale="   59.105">  2  6  1 -1</clus>
<clus scale="   59.723">  1  4  2 -1</clus>
<clus scale="   40.917">  1  3  2 -1</clus>
</clustering>
</event>
<event>
 6    0  0.1361919E+003  0.1585659E+03  0.7546771E-02  0.1190325E+00
         21   -1    0    0  506  501  0.00000000000E+00  0.00000000000E+00  0.22107801325E+03  0.22107801325E+03  0.00000000000E+00 0. -1.
         21   -1    0    0  504  502 -0.00000000000E+00 -0.00000000000E+00 -0.91005942279E+03  0.91005942279E+03  0.00000000000E+00 0.  1.
         21    1    1    2  503  501 -0.14792417553E+02 -0.44206924628E+02  0.10150554679E+03  0.11169800281E+03  0.00000000000E+00 0. -1.
         21    1    1    2  504  503 -0.11356696023E+01 -0.12098265901E+03 -0.17020750906E+02  0.12217937423E+03  0.00000000000E+00 0. -1.
         21    1    1    2  505  502  0.30898863607E+02 -0.41314846323E+02 -0.65834062269E+03  0.66035901734E+03  0.00000000000E+00 0.  1.
         21    1    1    2  506  505 -0.14970776452E+02  0.20650442996E+03 -0.11512558274E+03  0.23690104166E+03  0.00000000000E+00 0. -1.
<scales pt_clust_3="46.61618" pt_clust_4="158.56594" pt_clust_5="51.82633" pt_clust_6="14000.00000"></scales>
<clustering>
<clus scale="   46.616">  1  3  2 -1</clus>
<clus scale="   51.826">  2  5  1 -1</clus>
<clus scale="  158.566">  1  4  2 -1</clus>
<clus scale="   46.616">  1  3  2 -1</clus>
</clustering>
</event>
<event>
 6    0  0.1361919E+003  0.7049314E+02  0.7546771E-02  0.1358424E+00
         21   -1    0    0  505  501  0.00000000000E+00  0.00000000000E+00  0.12203289547E+03  0.12203289547E+03  0.00000000000E+00 0. -1.
         21   -1    0    0  504  502 -0.00000000000E+00 -0.00000000000E+00 -0.26775483176E+03  0.26775483176E+03  0.00000000000E+00 0. -1.
         21    1    1    2  503  501 -0.11637989279E+02 -0.57324357198E+02  0.57076386425E+01  0.58771607614E+02  0.00000000000E+00 0. -1.
         21    1    1    2  504  503 -0.32176055404E+01 -0.66598733315E+02 -0.17015133087E+03  0.18274906200E+03  0.00000000000E+00 0. -1.
         21    1    1    2  505  506  0.31273457541E+02  0.24252992965E+02  0.25412881835E+02  0.47032450261E+02  0.00000000000E+00 0. -1.
         21    1    1    2  506  502 -0.16417862721E+02  0.99670097548E+02 -0.66911258968E+01  0.10123460736E+03  0.00000000000E+00 0. -1.
<scales pt_clust_3="48.21243" pt_clust_4="14000.00000" pt_clust_5="39.57571" pt_clust_6="70.49314"></scales>
<clustering>
<clus scale="   39.576">  1  5  2 -1</clus>
<clus scale="   48.212">  1  3  2 -1</clus>
<clus scale="   70.493">  1  6  2 -1</clus>
<clus scale="   39.576">  1  3  2 -1</clus>
</clustering>
</event>
<event>
 6    0  0.1361919E+003  0.1039086E+03  0.7546771E-02  0.1272285E+00
         21   -1    0    0  505  501  0.00000000000E+00  0.00000000000E+00  0.12926833839E+03  0.12926833839E+03  0.00000000000E+00 0.  1.
         21   -1    0    0  504  502 -0.00000000000E+00 -0.00000000000E+00 -0.32035941586E+03  0.32035941586E+03  0.00000000000E+00 0.  1.
         21    1    1    2  503  501  0.73944026128E+02 -0.39035037638E+02  0.15825083229E+02  0.85099273925E+02  0.00000000000E+00 0.  1.
         21    1    1    2  504  503  0.37776980533E+02  0.14556133607E+02 -0.56499976122E+02  0.69507039827E+02  0.00000000000E+00 0.  1.
         21    1    1    2  505  506 -0.71093125732E+02 -0.82167802495E+02 -0.31352579109E+01  0.10869963264E+03  0.00000000000E+00 0.  1.
         21    1    1    2  506  502 -0.40627880930E+02  0.10664670653E+03 -0.14728092667E+03  0.18632180786E+03  0.00000000000E+00 0.  1.
<scales pt_clust_3="87.29323" pt_clust_4="40.48433" pt_clust_5="14000.00000" pt_clust_6="103.90859"></scales>
<clustering>
<clus scale="   40.484">  2  4  1 -1</clus>
<clus scale="   87.293">  1  3  2 -1</clus>
<clus scale="  103.909">  2  6  1 -1</clus>
<clus scale="   87.293">  1  3  2 -1</clus>
</clustering>
</event>
<event>
 6    0  0.1361919E+003  0.8136295E+02  0.7546771E-02  0.1325227E+00
         21   -1    0    0  503  501  0.00000000000E+00  0.00000000000E+00  0.75320546750E+03  0.75320546750E+03  0.00000000000E+00 0. -1.
         21   -1    0    0  504  502 -0.00000000000E+00 -0.00000000000E+00 -0.70186354815E+02  0.70186354815E+02  0.00000000000E+00 0. -1.
         21    1    1    2  503  506 -0.23722131882E+02 -0.49724601186E+02  0.24617846053E+02  0.60343299946E+02  0.00000000000E+00 0.  1.
         21    1    1    2  504  505  0.10044201074E+03 -0.24706126065E+02  0.26083815441E+02  0.10667406252E+03  0.00000000000E+00 0. -1.
         21    1    1    2  505  501 -0.65515093709E+02  0.46553074171E+02  0.61779996623E+03  0.62300579010E+03  0.00000000000E+00 0. -1.
         21    1    1    2  506  502 -0.11204785145E+02  0.27877653081E+02  0.14517484954E+02  0.33368669749E+02  0.00000000000E+00 0. -1.
<scales pt_clust_3="49.54323" pt_clust_4="14000.00000" pt_clust_5="81.36295" pt_clust_6="30.04515"></scales>
<clustering>
<clus scale="   30.045">  2  6  1 -1</clus>
<clus scale="   49.543">  2  3  1 -1</clus>
<clus scale="   81.363">  1  5  2 -1</clus>
<clus scale="   81.363">  1  3  2 -1</clus>
</clustering>
</event>
<event>
 6    0  0.1361919E+003  0.1647817E+03  0.7546771E-02  0.1183402E+00
         21   -1    0    0  506  501  0.00000000000E+00  0.00000000000E+00  0.12534178331E+03  0.12534178331E+03  0.00000000000E+00 0.  1.
         21   -1    0    0  503  502 -0.00000000000E+00 -0.00000000000E+00 -0.13643768911E+04  0.13643768911E+04  0.00000000000E+00 0.  1.
         21    1    1    2  503  501  0.43046731736E+00 -0.38601163394E+02  0.78375385573E+02  0.87366676606E+02  0.00000000000E+00 0.  1.
         21    1    1    2  504  505 -0.13732766082E+03 -0.49787813143E+02 -0.97906881354E+03  0.98990578057E+03  0.00000000000E+00 0.  1.
         21    1    1    2  505  502 -0.68468705297E+01 -0.31263748297E+02 -0.12360601162E+03  0.12768221373E+03  0.00000000000E+00 0.  1.
         21    1    1    2  506  504  0.14374406403E+03  0.11965272483E+03 -0.21473566824E+03  0.28476400355E+03  0.00000000000E+00 0.  1.
<scales pt_clust_3="38.71675" pt_clust_4="164.78174" pt_clust_5="32.00471" pt_clust_6="14000.00000"></scales>
<clustering>
<clus scale="   32.005">  2  5  1 -1</clus>
<clus scale="   38.717">  1  3  2 -1</clus>
<clus scale="  164.782">  2  4  1 -1</clus>
<clus scale="   38.717">  1  3  2 -1</clus>
</clustering>
</event>
<event>
 6    0  0.1361919E+003  0.1386549E+03  0.7546771E-02  0.1215150E+00
         21   -1    0    0  503  501  0.00000000000E+00  0.00000000000E+00  0.24098253927E+03  0.24098253927E+03  0.00000000000E+00 0.  1.
         21   -1    0    0  505  502 -0.00000000000E+00 -0.00000000000E+00 -0.10089434985E+04  0.10089434985E+04  0.00000000000E+00 0.  1.
         21    1    1    2  503  504  0.14588012875E+03 -0.41504467946E+01  0.80841517391E+02  0.16683401664E+03  0.00000000000E+00 0.  1.
         21    1    1    2  504  502 -0.11184980100E+03  0.21433034992E+02 -0.91793835080E+03  0.92497598284E+03  0.00000000000E+00 0.  1.
         21    1    1    2  505  506 -0.19720143652E+02  0.26599391408E+02 -0.32558160076E+02  0.46437543825E+02  0.00000000000E+00 0.  1.
         21    1    1    2  506  501 -0.14310184100E+02 -0.43881979605E+02  0.10169403430E+03  0.11167849442E+03  0.00000000000E+00 0.  1.
<scales pt_clust_3="14000.00000" pt_clust_4="138.65493" pt_clust_5="33.11211" pt_clust_6="46.05783"></scales>
<clustering>
<clus scale="   33.112">  2  5  1 -1</clus>
<clus scale="   46.058">  1  6  2 -1</clus>
<clus scale="  138.655">  2  4  1 -1</clus>
<clus scale="   46.058">  1  3  2 -1</clus>
</clustering>
</event>
<event>
 6    0  0.1361919E+003  0.1023912E+03  0.7546771E-02  0.1275347E+00
         21   -1    0    0  504  501  0.00000000000E+00  0.00000000000E+00  0.73564038967E+03  0.73564038967E+03  0.00000000000E+00 0. -1.
         21   -1    0    0  505  502 -0.00000000000E+00 -0.00000000000E+00 -0.46083463254E+03  0.46083463254E+03  0.00000000000E+00 0.  1.
         21    1    1    2  503  501 -0.34397243110E+02 -0.97619008048E+02  0.66989345572E+03  0.67784207828E+03  0.00000000000E+00 0. -1.
         21    1    1    2  504  506  0.65707187597E+02  0.42167734104E+02 -0.13433603167E+03  0.15537606542E+03  0.00000000000E+00 0.  1.
         21    1    1    2  505  503 -0.77888118442E+02  0.42881071741E+02  0.88695959737E+01  0.89353315780E+02  0.00000000000E+00 0.  1.
         21    1    1    2  506  502  0.46578173955E+02  0.12570202204E+02 -0.26962126290E+03  0.27390356274E+03  0.00000000000E+00 0.  1.
<scales pt_clust_3="14000.00000" pt_clust_4="102.39117" pt_clust_5="81.82863" pt_clust_6="48.24455"></scales>
<clustering>
<clus scale="   48.245">  2  6  1 -1</clus>
<clus scale="   81.829">  2  5  1 -1</clus>
<clus scale="  102.391">  2  4  1 -1</clus>
<clus scale="  102.391">  1  3  2 -1</clus>
</clustering>
</event>
<event>
 6    0  0.1361919E+003  0.1147046E+03  0.7546771E-02  0.1252098E+00
         21   -1    0    0  506  501  0.00000000000E+00  0.00000000000E+00  0.58170878109E+03  0.58170878109E+03  0.00000000000E+00 0. -1.
         21   -1    0    0  505  502 -0.00000000000E+00 -0.00000000000E+00 -0.18103632085E+03  0.18103632085E+03  0.00000000000E+00 0.  1.
         21    1    1    2  503  504 -0.36950377037E+02  0.90217607328E+02  0.33224618076E+03  0.34625434533E+03  0.00000000000E+00 0. -1.
         21    1    1    2  504  501  0.72492155383E+02  0.19451370017E+02  0.18693400165E+03  0.20143929448E+03  0.00000000000E+00 0. -1.
         21    1    1    2  505  503  0.98216112895E+01  0.30377742901E+02 -0.26139524469E+02  0.41261920115E+02  0.00000000000E+00 0.  1.
         21    1    1    2  506  502 -0.45363389636E+02 -0.14004672025E+03 -0.92368197690E+02  0.17378954202E+03  0.00000000000E+00 0.  1.
<scales pt_clust_3="14000.00000" pt_clust_4="75.92238" pt_clust_5="31.92603" pt_clust_6="114.70458"></scales>
<clustering>
<clus scale="   31.926">  2  5  1 -1</clus>
<clus scale="   75.922">  1  4  2 -1</clus>
<clus scale="  114.705">  2  6  1 -1</clus>
<clus scale="   75.922">  1  3  2 -1</clus>
</clustering>
</event>
<event>
 6    0  0.1361919E+003  0.9454020E+02  0.7546771E-02  0.1292215E+00
         21   -1    0    0  503  501  0.00000000000E+00  0.00000000000E+00  0.43127749711E+03  0.43127749711E+03  0.00000000000E+00 0. -1.
         21   -1    0    0  504  502 -0.00000000000E+00 -0.00000000000E+00 -0.59920690555E+02  0.59920690555E+02  0.00000000000E+00 0. -1.
         21    1    1    2  503  505 -0.17573547289E+02 -0.60689594058E+02  0.21623498083E+03  0.22527677050E+03  0.00000000000E+00 0. -1.
         21    1    1    2  504  506  0.93840743857E+02  0.76284284868E+02  0.67216555976E+02  0.13835983060E+03  0.00000000000E+00 0. -1.
         21    1    1    2  505  502 -0.34555790580E+02  0.15308225696E+02  0.22231103765E+02  0.43848220159E+02  0.00000000000E+00 0. -1.
         21    1    1    2  506  501 -0.41711405989E+02 -0.30902916505E+02  0.65674165981E+02  0.83713366408E+02  0.00000000000E+00 0. -1.
<scales pt_clust_3="94.54020" pt_clust_4="14000.00000" pt_clust_5="37.79477" pt_clust_6="55.66574"></scales>
<clustering>
<clus scale="   37.795">  2  5  1 -1</clus>
<clus scale="   55.666">  1  6  2 -1</clus>
<clus scale="   94.540">  1  3  2 -1</clus>
<clus scale="   55.666">  1  3  2 -1</clus>
</clustering>
</event>
<event>
 6    0  0.1361919E+003  0.7938800E+02  0.7546771E-02  0.1330797E+00
         21   -1    0    0  506  501  0.00000000000E+00  0.00000000000E+00  0.22010009013E+03  0.22010009013E+03  0.00000000000E+00 0. -1.
         21   -1    0    0  503  502 -0.00000000000E+00 -0.00000000000E+00 -0.41877847599E+03  0.41877847599E+03  0.00000000000E+00 0. -1.
         21    1    1    2  503  504  0.10843553863E+02  0.32828151442E+02 -0.29758936977E+03  0.29959089303E+03  0.00000000000E+00 0. -1.
         21    1    1    2  504  505 -0.47906819246E+02  0.51632832079E+02  0.65808289940E+02  0.96393691202E+02  0.00000000000E+00 0. -1.
         21    1    1    2  505  501 -0.41667330311E+02 -0.60990984015E+02  0.10858582179E+03  0.13132763320E+03  0.00000000000E+00 0. -1.
         21    1    1    2  506  502  0.78730595694E+02 -0.23469999506E+02 -0.75483127817E+02  0.11156634869E+03  0.00000000000E+00 0. -1.
<scales pt_clust_3="34.57268" pt_clust_4="14000.00000" pt_clust_5="70.72776" pt_clust_6="79.38800"></scales>
<clustering>
<clus scale="   34.573">  2  3  1 -1</clus>
<clus scale="   70.728">  1  5  2 -1</clus>
<clus scale="   79.388">  2  6  1 -1</clus>
<clus scale="   70.728">  1  3  2 -1</clus>
</clustering>
</event>
<event>
 6    0  0.1361919E+003  0.7424321E+02  0.7546771E-02  0.1346231E+00
         21   -1    0    0  503  501  0.00000000000E+00  0.00000000000E+00  0.19673592720E+03  0.19673592720E+03  0.00000000000E+00 0. -1.
         21   -1    0    0  506  502 -0.00000000000E+00 -0.00000000000E+00 -0.38033441553E+04  0.38033441553E+04  0.00000000000E+00 0.  1.
         21    1    1    2  503  504  0.32587005871E+02 -0.68960756447E+01  0.15476563365E+03  0.15830941277E+03  0.00000000000E+00 0. -1.
         21    1    1    2  504  502 -0.14608096261E+03 -0.12197915005E+02 -0.22746341674E+03  0.27060680465E+03  0.00000000000E+00 0.  1.
         21    1    1    2  505  501  0.46048311312E+02 -0.90757099635E+01 -0.11932112299E+02  0.48427169956E+02  0.00000000000E+00 0. -1.
         21    1    1    2  506  505  0.67445645431E+02  0.28169700613E+02 -0.35219783327E+04  0.35227366951E+04  0.00000000000E+00 0.  1.
<scales pt_clust_3="33.30869" pt_clust_4="14000.00000" pt_clust_5="62.05308" pt_clust_6="74.24321"></scales>
<clustering>
<clus scale="   33.309">  1  3  2 -1</clus>
<clus scale="   62.053">  1  5  2 -1</clus>
<clus scale="   74.243">  2  6  1 -1</clus>
<clus scale="   33.309">  1  3  2 -1</clus>
</clustering>
</event>
<event>
 6    0  0.1361919E+003  0.1153409E+03  0.7546771E-02  0.1250987E+00
         21   -1    0    0  506  501  0.00000000000E+00  0.00000000000E+00  0.11095655024E+04  0.11095655024E+04  0.00000000000E+00 0.  1.
         21   -1    0    0  505  502 -0.00000000000E+00 -0.00000000000E+00 -0.71165960776E+03  0.71165960776E+03  0.00000000000E+00 0. -1.
         21    1    1    2  503  501  0.42595130769E+02  0.20669067825E+02  0.52356560736E+03  0.52570191244E+03  0.00000000000E+00 0.  1.
         21    1    1    2  504  503  0.24616510346E+01 -0.11103780675E+03  0.15601810581E+03  0.19151267216E+03  0.00000000000E+00 0.  1.
         21    1    1    2  505  504 -0.59421270970E+02 -0.14214135932E+02 -0.68468557928E+03  0.68740619111E+03  0.00000000000E+00 0. -1.
         21    1    1    2  506  502  0.14364489167E+02  0.10458287486E+03  0.40300776076E+03  0.41660433446E+03  0.00000000000E+00 0.  1.
<scales pt_clust_3="47.34507" pt_clust_4="14000.00000" pt_clust_5="60.99018" pt_clust_6="115.34086"></scales>
<clustering>
<clus scale="   47.345">  1  3  2 -1</clus>
<clus scale="   60.990">  2  5  1 -1</clus>
<clus scale="  115.341">  1  6  2 -1</clus>
<clus scale="   47.345">  1  3  2 -1</clus>
</clustering>
</event>
<event>
 6    0  0.1361919E+003  0.6938171E+02  0.7546771E-02  0.1362208E+00
         21   -1    0    0  504  501  0.00000000000E+00  0.00000000000E+00  0.10184038330E+04  0.10184038330E+04  0.00000000000E+00 0.  1.
         21   -1    0    0  505  502 -0.00000000000E+00 -0.00000000000E+00 -0.55147107804E+02  0.55147107804E+02  0.00000000000E+00 0. -1.
         21    1    1    2  503  502  0.46575585008E+02 -0.58334384320E+01  0.37855381476E+02  0.60302106344E+02  0.00000000000E+00 0. -1.
         21    1    1    2  504  503  0.13745021412E+02 -0.98360040613E+02  0.77076791423E+03  0.77714014233E+03  0.00000000000E+00 0.  1.
         21    1    1    2  505  506 -0.47824001469E+02  0.70877075725E+02  0.87509061635E+01  0.85949248621E+02  0.00000000000E+00 0. -1.
         21    1    1    2  506  501 -0.12496604951E+02  0.33316403320E+02  0.14588252337E+03  0.15015944356E+03  0.00000000000E+00 0.  1.
<scales pt_clust_3="46.04110" pt_clust_4="14000.00000" pt_clust_5="69.38171" pt_clust_6="35.58297"></scales>
<clustering>
<clus scale="   35.583">  1  6  2 -1</clus>
<clus scale="   46.041">  2  3  1 -1</clus>
<clus scale="   69.382">  2  5  1 -1</clus>
<clus scale="   35.583">  1  3  2 -1</clus>
</clustering>
</event>
<event>
 6    0  0.1361919E+003  0.1598054E+03  0.7546771E-02  0.1188917E+00
         21   -1    0    0  504  501  0.00000000000E+00  0.00000000000E+00  0.15836982161E+04  0.15836982161E+04  0.00000000000E+00 0. -1.
         21   -1    0    0  506  502 -0.00000000000E+00 -0.00000000000E+00 -0.13052455169E+03  0.13052455169E+03  0.00000000000E+00 0. -1.
         21    1    1    2  503  502  0.14647981518E+03  0.91401323439E+02 -0.39334923771E+02  0.17708126499E+03  0.00000000000E+00 0. -1.
         21    1    1    2  504  503 -0.10273089708E+02  0.29808663568E+02  0.52563410126E+02  0.61294411490E+02  0.00000000000E+00 0. -1.
         21    1    1    2  505  501 -0.13832352205E+03 -0.86144159242E+02  0.14301135886E+04  0.14393676004E+04  0.00000000000E+00 0. -1.
         21    1    1    2  506  505  0.21167965791E+01 -0.35065827765E+02  0.98315894964E+01  0.36479490904E+02  0.00000000000E+00 0.  1.
<scales pt_clust_3="159.80541" pt_clust_4="31.52924" pt_clust_5="14000.00000" pt_clust_6="34.66924"></scales>
<clustering>
<clus scale="   31.529">  1  4  2 -1</clus>
<clus scale="   34.669">  2  6  1 -1</clus>
<clus scale="  159.805">  2  3  1 -1</clus>
<clus scale="   31.529">  1  3  2 -1</clus>
</clustering>
</event>
<event>
 6    0  0.1361919E+003  0.8439400E+02  0.7546771E-02  0.1317025E+00
         21   -1    0    0  506  501  0.00000000000E+00  0.00000000000E+00  0.38512715539E+03  0.38512715539E+03  0.00000000000E+00 0. -1.
         21   -1    0    0  505  502 -0.00000000000E+00 -0.00000000000E+00 -0.76198145346E+02  0.76198145346E+02  0.00000000000E+00 0. -1.
         21    1    1    2  503  502 -0.18577002626E-01 -0.36201736570E+02 -0.19379848598E+02  0.41062691187E+02  0.00000000000E+00 0. -1.
         21    1    1    2  504  501  0.16217067654E+02 -0.41207116625E+02  0.74439827077E+02  0.86615862283E+02  0.00000000000E+00 0. -1.
         21    1    1    2  505  504  0.47181722161E+02  0.10548367599E+03  0.65275602620E+02  0.13271708671E+03  0.00000000000E+00 0. -1.
         21    1    1    2  506  503 -0.63380212812E+02 -0.28074822796E+02  0.18859342894E+03  0.20092966056E+03  0.00000000000E+00 0. -1.
<scales pt_clust_3="36.20174" pt_clust_4="48.77483" pt_clust_5="84.39400" pt_clust_6="14000.00000"></scales>
<clustering>
<clus scale="   36.202">  2  3  1 -1</clus>
<clus scale="   48.775">  1  4  2 -1</clus>
<clus scale="   84.394">  2  5  1 -1</clus>
<clus scale="   48.775">  1  3  2 -1</clus>
</clustering>
</event>
<event>
 6    0  0.1361919E+003  0.1855846E+03  0.7546771E-02  0.1162505E+00
         21   -1    0    0  503  501  0.00000000000E+00  0.00000000000E+00  0.17415112293E+03  0.17415112293E+03  0.00000000000E+00 0.  1.
         21   -1    0    0  504  502 -0.00000000000E+00 -0.00000000000E+00 -0.15620047055E+04  0.15620047055E+04  0.00000000000E+00 0. -1.
         21    1    1    2  503  505  0.43736931593E+02 -0.15770160705E+03  0.10263553215E+03  0.19317548631E+03  0.00000000000E+00 0.  1.
         21    1    1    2  504  506  0.35260776323E+02  0.16443152693E+03 -0.73169054847E+03  0.75076767919E+03  0.00000000000E+00 0. -1.
         21    1    1    2  505  502 -0.13619531255E+03 -0.44593831908E+02 -0.35856079374E+03  0.38613937356E+03  0.00000000000E+00 0.  1.
         21    1    1    2  506  501  0.57197604634E+02  0.37863912028E+02 -0.40023777247E+03  0.40607328935E+03  0.00000000000E+00 0.  1.
<scales pt_clust_3="163.99490" pt_clust_4="55.48398" pt_clust_5="143.31006" pt_clust_6="55.48398"></scales>
<clustering>
<clus scale="   55.484">  4  6 -1 -1</clus>
<clus scale="  143.310">  2  5  1 -1</clus>
<clus scale="  163.995">  1  3  2 -1</clus>
<clus scale="  163.995">  1  3  2 -1</clus>
</clustering>
</event>
<event>
 6    0  0.1361919E+003  0.1010237E+03  0.7546771E-02  0.1278158E+00
         21   -1    0    0  505  501  0.00000000000E+00  0.00000000000E+00  0.17778568467E+03  0.17778568467E+03  0.00000000000E+00 0.  1.
         21   -1    0    0  504  502 -0.00000000000E+00 -0.00000000000E+00 -0.19148501018E+03  0.19148501018E+03  0.00000000000E+00 0.  1.
         21    1    1    2  503  501 -0.34327334540E+02 -0.29479758059E+01  0.60055248241E+02  0.69236473764E+02  0.00000000000E+00 0.  1.
         21    1    1    2  504  503  0.90922834479E+00  0.36836358715E+02 -0.63678033916E+02  0.73570619292E+02  0.00000000000E+00 0.  1.
         21    1    1    2  505  506 -0.35152687910E+02 -0.89659703892E+02  0.60174299862E+02  0.11355844457E+03  0.00000000000E+00 0.  1.
         21    1    1    2  506  502  0.68570794105E+02  0.55771320983E+02 -0.70250839701E+02  0.11290515722E+03  0.00000000000E+00 0.  1.
<scales pt_clust_3="34.45369" pt_clust_4="36.71224" pt_clust_5="101.02369" pt_clust_6="14000.00000"></scales>
<clustering>
<clus scale="   34.454">  1  3  2 -1</clus>
<clus scale="   36.712">  2  4  1 -1</clus>
<clus scale="  101.024">  1  5  2 -1</clus>
<clus scale="   34.454">  1  3  2 -1</clus>
</clustering>
</event>
<event>
 6    0  0.1361919E+003  0.2396938E+03  0.7546771E-02  0.1119997E+00
         21   -1    0    0  503  501  0.00000000000E+00  0.00000000000E+00  0.20526355014E+03  0.20526355014E+03  0.00000000000E+00 0. -1.
         21   -1    0    0  506  502 -0.00000000000E+00 -0.00000000000E+00 -0.51925462770E+03  0.51925462770E+03  0.00000000000E+00 0. -1.
         21    1    1    2  503  504  0.12498850549E+02 -0.32803393563E+02  0.49240440937E+02  0.60472348375E+02  0.00000000000E+00 0. -1.
         21    1    1    2  504  502  0.28085004267E+02  0.20196816155E+02 -0.53092152425E+02  0.63367621832E+02  0.00000000000E+00 0. -1.
         21    1    1    2  505  501  0.16190607606E+03 -0.14449267461E+03 -0.26845907543E+02  0.21866049765E+03  0.00000000000E+00 0. -1.
         21    1    1    2  506  505 -0.20248993088E+03  0.15709925202E+03 -0.28329345853E+03  0.38201770998E+03  0.00000000000E+00 0. -1.
<scales pt_clust_3="34.99818" pt_clust_4="34.59305" pt_clust_5="239.69382" pt_clust_6="14000.00000"></scales>
<clustering>
<clus scale="   34.593">  2  4  1 -1</clus>
<clus scale="   34.998">  1  3  2 -1</clus>
<clus scale="  239.694">  1  5  2 -1</clus>
<clus scale="   34.998">  1  3  2 -1</clus>
</clustering>
</event>
<event>
 6    0  0.1361919E+003  0.7306549E+02  0.7546771E-02  0.1349968E+00
         21   -1    0    0  504  501  0.00000000000E+00  0.00000000000E+00  0.42976266020E+03  0.42976266020E+03  0.00000000000E+00 0.  1.
         21   -1    0    0  503  502 -0.00000000000E+00 -0.00000000000E+00 -0.13848259576E+03  0.13848259576E+03  0.00000000000E+00 0.  1.
         21    1    1    2  503  501  0.36854931889E+02  0.56239362181E+02  0.73217478289E+02  0.99408002646E+02  0.00000000000E+00 0.  1.
         21    1    1    2  504  506 -0.19158000715E+02 -0.54961210413E+02  0.55386153130E+02  0.80345439198E+02  0.00000000000E+00 0.  1.
         21    1    1    2  505  502 -0.36448995945E+02  0.63719344105E+02 -0.96151062978E+02  0.12096987654E+03  0.00000000000E+00 0.  1.
         21    1    1    2  506  505  0.18752064771E+02 -0.64997495873E+02  0.25882749599E+03  0.26752193758E+03  0.00000000000E+00 0.  1.
<scales pt_clust_3="53.87631" pt_clust_4="58.20450" pt_clust_5="14000.00000" pt_clust_6="73.06549"></scales>
<clustering>
<clus scale="   58.204">  1  4  2 -1</clus>
<clus scale="   53.876">  1  3  2 -1</clus>
<clus scale="   73.065">  1  6  2 -1</clus>
<clus scale="   58.204">  1  3  2 -1</clus>
</clustering>
</event>
<event>
 6    0  0.1361919E+003  0.1343375E+03  0.7546771E-02  0.1221158E+00
         21   -1    0    0  506  501  0.00000000000E+00  0.00000000000E+00  0.17956974727E+04  0.17956974727E+04  0.00000000000E+00 0. -1.
         21   -1    0    0  504  502 -0.00000000000E+00 -0.00000000000E+00 -0.21869917508E+03  0.21869917508E+03  0.00000000000E+00 0. -1.
         21    1    1    2  503  501  0.19241493217E+02  0.27610618461E+02  0.85168440466E+03  0.85234905200E+03  0.00000000000E+00 0. -1.
         21    1    1    2  504  505  0.22096656030E+02 -0.27886338901E+02 -0.19667351102E+03  0.19986590516E+03  0.00000000000E+00 0. -1.
         21    1    1    2  505  503 -0.14920548397E+03 -0.46433209477E+02  0.57327255377E+03  0.59418830374E+03  0.00000000000E+00 0. -1.
         21    1    1    2  506  502  0.10786733473E+03  0.46708929918E+02  0.34871485025E+03  0.36799338693E+03  0.00000000000E+00 0. -1.
<scales pt_clust_3="33.65385" pt_clust_4="35.56328" pt_clust_5="134.33747" pt_clust_6="14000.00000"></scales>
<clustering>
<clus scale="   33.654">  1  3  2 -1</clus>
<clus scale="   35.563">  2  4  1 -1</clus>
<clus scale="  134.337">  1  5  2 -1</clus>
<clus scale="   33.654">  1  3  2 -1</clus>
</clustering>
</event>
<event>
 6    0  0.1361919E+003  0.1231418E+03  0.7546771E-02  0.1238002E+00
         21   -1    0    0  505  501  0.00000000000E+00  0.00000000000E+00  0.19003853455E+03  0.19003853455E+03  0.00000000000E+00 0. -1.
         21   -1    0    0  506  502 -0.00000000000E+00 -0.00000000000E+00 -0.62448158195E+03  0.62448158195E+03  0.00000000000E+00 0. -1.
         21    1    1    2  503  504 -0.69294042962E+02 -0.34838020625E+02 -0.23913761475E+01  0.77595558836E+02  0.00000000000E+00 0. -1.
         21    1    1    2  504  502 -0.12681422277E+02 -0.87062286323E+02 -0.13292837657E+03  0.15940706844E+03  0.00000000000E+00 0. -1.
         21    1    1    2  505  503  0.25662248469E+02 -0.35436469360E+02  0.11923988511E+03  0.12701356053E+03  0.00000000000E+00 0. -1.
         21    1    1    2  506  501  0.56313216769E+02  0.15733677631E+03 -0.41836317980E+03  0.45050392870E+03  0.00000000000E+00 0. -1.
<scales pt_clust_3="77.51651" pt_clust_4="123.14177" pt_clust_5="43.75265" pt_clust_6="14000.00000"></scales>
<clustering>
<clus scale="   43.753">  1  5  2 -1</clus>
<clus scale="   77.517">  1  3  2 -1</clus>
<clus scale="  123.142">  2  4  1 -1</clus>
<clus scale="   43.753">  1  3  2 -1</clus>
</clustering>
</event>
<event>
 6    0  0.1361919E+003  0.1413181E+03  0.7546771E-02  0.1211566E+00
         21   -1    0    0  505  501  0.00000000000E+00  0.00000000000E+00  0.34991984423E+03  0.34991984423E+03  0.00000000000E+00 0.  1.
         21   -1    0    0  506  502 -0.00000000000E+00 -0.00000000000E+00 -0.55265258409E+03  0.55265258409E+03  0.00000000000E+00 0.  1.
         21    1    1    2  503  501  0.13790707604E+03  0.49998467779E+02  0.27792245201E+03  0.31425960245E+03  0.00000000000E+00 0.  1.
         21    1    1    2  504  502 -0.13055348626E+02  0.41417646165E+02 -0.14537185083E+03  0.15171960505E+03  0.00000000000E+00 0.  1.
         21    1    1    2  505  504 -0.51463671705E+02  0.24275879060E+02 -0.28504250807E+03  0.29066657740E+03  0.00000000000E+00 0.  1.
         21    1    1    2  506  503 -0.73388055710E+02 -0.11569199300E+03 -0.50240832964E+02  0.14592664343E+03  0.00000000000E+00 0.  1.
<scales pt_clust_3="14000.00000" pt_clust_4="38.78119" pt_clust_5="102.22042" pt_clust_6="141.31813"></scales>
<clustering>
<clus scale="   38.781">  4  5 -1 -1</clus>
<clus scale="  102.220">  2  4  1 -1</clus>
<clus scale="  141.318">  2  6  1 -1</clus>
<clus scale="  141.318">  1  3  2 -1</clus>
</clustering>
</event>
<event>
 6    0  0.1361919E+003  0.1572336E+03  0.7546771E-02  0.1191856E+00
         21   -1    0    0  505  501  0.00000000000E+00  0.00000000000E+00  0.33780722170E+03  0.33780722170E+03  0.00000000000E+00 0.  1.
         21   -1    0    0  503  502 -0.00000000000E+00 -0.00000000000E+00 -0.96533271243E+02  0.96533271243E+02  0.00000000000E+00 0.  1.
         21    1    1    2  503  504 -0.34545328157E+02  0.85806623884E+01  0.29335506564E+01  0.35715727404E+02  0.00000000000E+00 0.  1.
         21    1    1    2  504  501 -0.89311725639E+02 -0.56024531076E+02  0.61451800645E+02  0.12203137392E+03  0.00000000000E+00 0.  1.
         21    1    1    2  505  506 -0.30987002377E+02 -0.12327881890E+02  0.74370441226E+02  0.81505420166E+02  0.00000000000E+00 0.  1.
         21    1    1    2  506  502  0.15484405617E+03  0.59771750577E+02  0.10251815792E+03  0.19508797145E+03  0.00000000000E+00 0.  1.
<scales pt_clust_3="32.59682" pt_clust_4="32.59682" pt_clust_5="33.34923" pt_clust_6="146.88507"></scales>
<clustering>
<clus scale="   32.597">  3  4 -1 -1</clus>
<clus scale="   33.349">  1  5  2 -1</clus>
<clus scale="  146.885">  1  6  2 -1</clus>
<clus scale="   33.349">  1  3  2 -1</clus>
</clustering>
</event>
<event>
 6    0  0.1361919E+003  0.8308926E+02  0.7546771E-02  0.1320506E+00
         21   -1    0    0  503  501  0.00000000000E+00  0.00000000000E+00  0.21217039811E+03  0.21217039811E+03  0.00000000000E+00 0. -1.
         21   -1    0    0  506  502 -0.00000000000E+00 -0.00000000000E+00 -0.14993985218E+03  0.14993985218E+03  0.00000000000E+00 0.  1.
         21    1    1    2  503  504  0.40320475250E+02  0.68963356655E+02 -0.27551120343E+02  0.84502955674E+02  0.00000000000E+00 0.  1.
         21    1    1    2  504  502 -0.23399180241E+02  0.37610899462E+02 -0.53441956207E+02  0.69412852394E+02  0.00000000000E+00 0.  1.
         21    1    1    2  505  501  0.35932069378E+02 -0.49796761079E+02  0.10518873207E+03  0.12180106887E+03  0.00000000000E+00 0. -1.
         21    1    1    2  506  505 -0.52853364386E+02 -0.56777495037E+02  0.38034890410E+02  0.86393373346E+02  0.00000000000E+00 0. -1.
<scales pt_clust_3="83.08926" pt_clust_4="44.29561" pt_clust_5="57.26077" pt_clust_6="14000.00000"></scales>
<clustering>
<clus scale="   44.296">  2  4  1 -1</clus>
<clus scale="   57.261">  1  5  2 -1</clus>
<clus scale="   83.089">  2  3  1 -1</clus>
<clus scale="   57.261">  1  3  2 -1</clus>
</clustering>
</event>
<event>
 6    0  0.1361919E+003  0.8386697E+02  0.7546771E-02  0.1318422E+00
         21   -1    0    0  505  501  0.00000000000E+00  0.00000000000E+00  0.59713059614E+03  0.59713059614E+03  0.00000000000E+00 0.  1.
         21   -1    0    0  503  502 -0.00000000000E+00 -0.00000000000E+00 -0.65643187440E+03  0.65643187440E+03  0.00000000000E+00 0. -1.
         21    1    1    2  503  504  0.87763688508E+02 -0.93684750968E+01 -0.57262682933E+03  0.57938909121E+03  0.00000000000E+00 0. -1.
         21    1    1    2  504  501 -0.38785879245E+02 -0.36677520276E+02  0.41622937322E+03  0.41963850640E+03  0.00000000000E+00 0.  1.
         21    1    1    2  505  506 -0.21079235349E+02  0.96142764831E+02  0.14807889779E+03  0.17780642666E+03  0.00000000000E+00 0. -1.
         21    1    1    2  506  502 -0.27898573914E+02 -0.50096769459E+02 -0.50982719931E+02  0.76728446278E+02  0.00000000000E+00 0. -1.
<scales pt_clust_3="83.86697" pt_clust_4="53.38150" pt_clust_5="14000.00000" pt_clust_6="61.00963"></scales>
<clustering>
<clus scale="   53.382">  1  4  2 -1</clus>
<clus scale="   61.010">  2  6  1 -1</clus>
<clus scale="   83.867">  2  3  1 -1</clus>
<clus scale="   53.382">  1  3  2 -1</clus>
</clustering>
</event>
<event>
 6    0  0.1361919E+003  0.7841416E+02  0.7546771E-02  0.1333613E+00
         21   -1    0    0  505  501  0.00000000000E+00  0.00000000000E+00  0.57236101895E+02  0.57236101895E+02  0.00000000000E+00 0.  1.
         21   -1    0    0  504  502 -0.00000000000E+00 -0.00000000000E+00 -0.25128654695E+04  0.25128654695E+04  0.00000000000E+00 0.  1.
         21    1    1    2  503  506  0.17517959056E+02  0.93358099921E+02 -0.67188690026E+03  0.67856806619E+03  0.00000000000E+00 0.  1.
         21    1    1    2  504  501  0.31185083642E+02 -0.72120257960E+02 -0.11724054912E+04  0.11750355215E+04  0.00000000000E+00 0.  1.
         21    1    1    2  505  503 -0.59295143919E+02 -0.51514037614E+02  0.22612958167E+02  0.81737115442E+02  0.00000000000E+00 0.  1.
         21    1    1    2  506  502  0.10592101222E+02  0.30276195652E+02 -0.63394993429E+03  0.63476086821E+03  0.00000000000E+00 0.  1.
<scales pt_clust_3="78.41416" pt_clust_4="65.26612" pt_clust_5="14000.00000" pt_clust_6="32.07555"></scales>
<clustering>
<clus scale="   32.076">  2  6  1 -1</clus>
<clus scale="   65.266">  2  4  1 -1</clus>
<clus scale="   78.414">  2  3  1 -1</clus>
<clus scale="   78.414">  1  3  2 -1</clus>
</clustering>
</event>
<event>
 6    0  0.1361919E+003  0.6104924E+02  0.7546771E-02  0.1393481E+00
         21   -1    0    0  505  501  0.00000000000E+00  0.00000000000E+00  0.35636002143E+03  0.35636002143E+03  0.00000000000E+00 0. -1.
         21   -1    0    0  504  502 -0.00000000000E+00 -0.00000000000E+00 -0.53533244666E+03  0.53533244666E+03  0.00000000000E+00 0. -1.
         21    1    1    2  503  501  0.60316323432E+02  0.61265751622E+01  0.33268693706E+03  0.33816592361E+03  0.00000000000E+00 0. -1.
         21    1    1    2  504  506  0.47917931041E+01 -0.55555606452E+02 -0.24030889323E+03  0.24669363765E+03  0.00000000000E+00 0. -1.
         21    1    1    2  505  502  0.32393458428E+02  0.11511176850E+00 -0.82806973888E+02  0.88917626622E+02  0.00000000000E+00 0. -1.
         21    1    1    2  506  503 -0.97501574964E+02  0.49313919522E+02 -0.18854349518E+03  0.21791528022E+03  0.00000000000E+00 0. -1.
<scales pt_clust_3="14000.00000" pt_clust_4="59.82157" pt_clust_5="32.39366" pt_clust_6="61.04924"></scales>
<clustering>
<clus scale="   32.394">  2  5  1 -1</clus>
<clus scale="   59.822">  2  4  1 -1</clus>
<clus scale="   61.049">  2  6  1 -1</clus>
<clus scale="   61.049">  1  3  2 -1</clus>
</clustering>
</event>
<event>
 6    0  0.1361919E+003  0.1275562E+03  0.7546771E-02  0.1231128E+00
         21   -1    0    0  505  501  0.00000000000E+00  0.00000000000E+00  0.16777704572E+03  0.16777704572E+03  0.00000000000E+00 0.  1.
         21   -1    0    0  503  502 -0.00000000000E+00 -0.00000000000E+00 -0.11907659197E+04  0.11907659197E+04  0.00000000000E+00 0. -1.
         21    1    1    2  503  504  0.32139085369E+02  0.16606149869E+02 -0.99032524599E+03  0.99098576068E+03  0.00000000000E+00 0. -1.
         21    1    1    2  504  501 -0.11849752757E+03 -0.89230788279E+02  0.82371673020E+02  0.16967289157E+03  0.00000000000E+00 0.  1.
         21    1    1    2  505  506  0.35304275396E+02  0.94260702182E+02 -0.49906330668E+02  0.11234818057E+03  0.00000000000E+00 0. -1.
         21    1    1    2  506  502  0.51054166804E+02 -0.21636063772E+02 -0.65128970374E+02  0.85536132631E+02  0.00000000000E+00 0. -1.
<scales pt_clust_3="36.17575" pt_clust_4="127.55624" pt_clust_5="14000.00000" pt_clust_6="64.99998"></scales>
<clustering>
<clus scale="   36.176">  2  3  1 -1</clus>
<clus scale="   65.000">  2  6  1 -1</clus>
<clus scale="  127.556">  1  4  2 -1</clus>
<clus scale="  127.556">  1  3  2 -1</clus>
</clustering>
</event>
<event>
 6    0  0.1361919E+003  0.7965828E+02  0.7546771E-02  0.1330024E+00
         21   -1    0    0  503  501  0.00000000000E+00  0.00000000000E+00  0.60918688967E+02  0.60918688967E+02  0.00000000000E+00 0.  1.
         21   -1    0    0  505  502 -0.00000000000E+00 -0.00000000000E+00 -0.68558095719E+03  0.68558095719E+03  0.00000000000E+00 0.  1.
         21    1    1    2  503  504 -0.56510850971E+02  0.65149037419E+02  0.10222405804E+02  0.86846824550E+02  0.00000000000E+00 0.  1.
         21    1    1    2  504  502 -0.35954854404E+02 -0.59472633473E+02 -0.20755014076E+03  0.21887623584E+03  0.00000000000E+00 0.  1.
         21    1    1    2  505  506  0.35955434870E+02  0.12185209107E+02 -0.26988747237E+03  0.27254452913E+03  0.00000000000E+00 0.  1.
         21    1    1    2  506  501  0.56510270505E+02 -0.17861613053E+02 -0.15744706090E+03  0.16823205664E+03  0.00000000000E+00 0.  1.
<scales pt_clust_3="14000.00000" pt_clust_4="55.99252" pt_clust_5="37.96410" pt_clust_6="79.65828"></scales>
<clustering>
<clus scale="   37.964">  2  5  1 -1</clus>
<clus scale="   55.993">  2  4  1 -1</clus>
<clus scale="   79.658">  2  6  1 -1</clus>
<clus scale="   79.658">  1  3  2 -1</clus>
</clustering>
</event>
<event>
 6    0  0.1361919E+003  0.2009569E+03  0.7546771E-02  0.1148934E+00
         21   -1    0    0  503  501  0.00000000000E+00  0.00000000000E+00  0.14442384709E+04  0.14442384709E+04  0.00000000000E+00 0.  1.
         21   -1    0    0  506  502 -0.00000000000E+00 -0.00000000000E+00 -0.32324813584E+03  0.32324813584E+03  0.00000000000E+00 0. -1.
         21    1    1    2  503  502  0.30284676020E+02  0.12891528326E+03  0.83719302391E+03  0.84760159931E+03  0.00000000000E+00 0.  1.
         21    1    1    2  504  505 -0.68886446217E+02  0.37611165139E+01 -0.61839016437E+02  0.92647463126E+02  0.00000000000E+00 0.  1.
         21    1    1    2  505  501  0.12535430374E+03 -0.35997006042E+02  0.56087583328E+03  0.57583954906E+03  0.00000000000E+00 0.  1.
         21    1    1    2  506  504 -0.86752533545E+02 -0.96679393728E+02 -0.21523950564E+03  0.25139799529E+03  0.00000000000E+00 0. -1.
<scales pt_clust_3="177.89383" pt_clust_4="68.12170" pt_clust_5="130.42042" pt_clust_6="68.12170"></scales>
<clustering>
<clus scale="   68.122">  4  6 -1 -1</clus>
<clus scale="  130.420">  1  5  2 -1</clus>
<clus scale="  177.894">  1  3  2 -1</clus>
<clus scale="  130.420">  1  3  2 -1</clus>
</clustering>
</event>
<event>
 6    0  0.1361919E+003  0.1070934E+03  0.7546771E-02  0.1266049E+00
         21   -1    0    0  503  501  0.00000000000E+00  0.00000000000E+00  0.14317830817E+04  0.14317830817E+04  0.00000000000E+00 0.  1.
         21   -1    0    0  505  502 -0.00000000000E+00 -0.00000000000E+00 -0.14611560907E+03  0.14611560907E+03  0.00000000000E+00 0.  1.
         21    1    1    2  503  504 -0.86682439865E+02 -0.58586834326E+02  0.99620790983E+03  0.10016868084E+04  0.00000000000E+00 0.  1.
         21    1    1    2  504  502  0.19451971583E+02 -0.24592610907E+02 -0.13373596699E+02  0.34088543506E+02  0.00000000000E+00 0.  1.
         21    1    1    2  505  506  0.18898389445E+02 -0.44274629271E+02 -0.10317024687E+03  0.11384854746E+03  0.00000000000E+00 0.  1.
         21    1    1    2  506  501  0.48332078837E+02  0.12745407450E+03  0.40600340638E+03  0.42827479139E+03  0.00000000000E+00 0.  1.
<scales pt_clust_3="14000.00000" pt_clust_4="31.35563" pt_clust_5="75.31872" pt_clust_6="107.09337"></scales>
<clustering>
<clus scale="   31.356">  2  4  1 -1</clus>
<clus scale="   75.319">  2  5  1 -1</clus>
<clus scale="  107.093">  2  6  1 -1</clus>
<clus scale="  107.093">  1  3  2 -1</clus>
</clustering>
</event>
<event>
 6    0  0.1361919E+003  0.1449048E+03  0.7546771E-02  0.1206877E+00
         21   -1    0    0  504  501  0.00000000000E+00  0.00000000000E+00  0.23665183261E+03  0.23665183261E+03  0.00000000000E+00 0.  1.
         21   -1    0    0  506  502 -0.00000000000E+00 -0.00000000000E+00 -0.12853565656E+04  0.12853565656E+04  0.00000000000E+00 0.  1.
         21    1    1    2  503  502 -0.15343224263E+03 -0.12434156857E+02 -0.10849797673E+04  0.10958454073E+04  0.00000000000E+00 0.  1.
         21    1    1    2  504  505  0.68533271468E+02  0.20911511858E+02  0.15676444448E+03  0.17236354510E+03  0.00000000000E+00 0.  1.
         21    1    1    2  505  503 -0.15535453735E+02  0.74130674403E+02  0.11273776601E+01  0.75749443501E+02  0.00000000000E+00 0. -1.
         21    1    1    2  506  501  0.10043442490E+03 -0.82608029405E+02 -0.12161678782E+03  0.17805000226E+03  0.00000000000E+00 0.  1.
<scales pt_clust_3="14000.00000" pt_clust_4="71.65264" pt_clust_5="87.83037" pt_clust_6="144.90479"></scales>
<clustering>
<clus scale="   71.653">  1  4  2 -1</clus>
<clus scale="   87.830">  1  5  2 -1</clus>
<clus scale="  144.905">  1  6  2 -1</clus>
<clus scale="   71.653">  1  3  2 -1</clus>
</clustering>
</event>
<event>
 6    0  0.1361919E+003  0.1015910E+03  0.7546771E-02  0.1276985E+00
         21   -1    0    0  505  501  0.00000000000E+00  0.00000000000E+00  0.18285899280E+03  0.18285899280E+03  0.00000000000E+00 0. -1.
         21   -1    0    0  503  502 -0.00000000000E+00 -0.00000000000E+00 -0.50542176874E+03  0.50542176874E+03  0.00000000000E+00 0. -1.
         21    1    1    2  503  504  0.52151890245E+02  0.77581482064E+02 -0.12905487283E+03  0.15935452995E+03  0.00000000000E+00 0. -1.
         21    1    1    2  504  501  0.28990202271E+02  0.28450689371E+02  0.11752579612E+03  0.12434703980E+03  0.00000000000E+00 0. -1.
         21    1    1    2  505  506  0.30666487060E+01 -0.38925847376E+02  0.28525445724E+02  0.48356250702E+02  0.00000000000E+00 0. -1.
         21    1    1    2  506  502 -0.84208741222E+02 -0.67106324059E+02 -0.33955914496E+03  0.35622294108E+03  0.00000000000E+00 0. -1.
<scales pt_clust_3="14000.00000" pt_clust_4="31.82940" pt_clust_5="39.04646" pt_clust_6="101.59104"></scales>
<clustering>
<clus scale="   39.046">  1  5  2 -1</clus>
<clus scale="   31.829">  1  4  2 -1</clus>
<clus scale="  101.591">  2  6  1 -1</clus>
<clus scale="   39.046">  1  3  2 -1</clus>
</clustering>
</event>
<event>
 6    0  0.1361919E+003  0.8713254E+02  0.7546771E-02  0.1309948E+00
         21   -1    0    0  504  501  0.00000000000E+00  0.00000000000E+00  0.81539124441E+02  0.81539124441E+02  0.00000000000E+00 0. -1.
         21   -1    0    0  506  502 -0.00000000000E+00 -0.00000000000E+00 -0.11141770755E+04  0.11141770755E+04  0.00000000000E+00 0. -1.
         21    1    1    2  503  502  0.42854995870E+02  0.27116783989E+01 -0.36566039159E+03  0.36817309224E+03  0.00000000000E+00 0. -1.
         21    1    1    2  504  505 -0.28772225996E+02 -0.80352722011E+02  0.41327985749E+02  0.94828283383E+02  0.00000000000E+00 0. -1.
         21    1    1    2  505  503  0.31346698772E+02  0.11918709912E+03 -0.52789862122E+03  0.54209328940E+03  0.00000000000E+00 0. -1.
         21    1    1    2  506  501 -0.45429468646E+02 -0.41546055513E+02 -0.18040692398E+03  0.19062153490E+03  0.00000000000E+00 0. -1.
<scales pt_clust_3="42.94070" pt_clust_4="14000.00000" pt_clust_5="87.13254" pt_clust_6="53.67455"></scales>
<clustering>
<clus scale="   42.941">  2  3  1 -1</clus>
<clus scale="   53.675">  2  6  1 -1</clus>
<clus scale="   87.133">  2  5  1 -1</clus>
<clus scale="   87.133">  1  3  2 -1</clus>
</clustering>
</event>
<event>
 6    0  0.1361919E+003  0.3500754E+03  0.7546771E-02  0.1062584E+00
         21   -1    0    0  503  501  0.00000000000E+00  0.00000000000E+00  0.28201650367E+03  0.28201650367E+03  0.00000000000E+00 0. -1.
         21   -1    0    0  504  502 -0.00000000000E+00 -0.00000000000E+00 -0.12567949566E+04  0.12567949566E+04  0.00000000000E+00 0. -1.
         21    1    1    2  503  506  0.10078299642E+03 -0.33066288051E+03 -0.93091537721E+03  0.99302497070E+03  0.00000000000E+00 0. -1.
         21    1    1    2  504  505  0.67220540198E+01  0.10124284171E+03  0.73445347364E+01  0.10173122037E+03  0.00000000000E+00 0. -1.
         21    1    1    2  505  501 -0.64509552725E+02  0.23389689265E+03  0.11772323213E+03  0.26968128999E+03  0.00000000000E+00 0. -1.
         21    1    1    2  506  502 -0.42995497717E+02 -0.44768538545E+01 -0.16893084256E+03  0.17437397918E+03  0.00000000000E+00 0. -1.
<scales pt_clust_3="340.44904" pt_clust_4="52.58985" pt_clust_5="52.58985" pt_clust_6="43.22794"></scales>
<clustering>
<clus scale="   43.228">  2  6  1 -1</clus>
<clus scale="   52.590">  4  5 -1 -1</clus>
<clus scale="  340.449">  2  3  1 -1</clus>
<clus scale="  350.075">  1  3  2 -1</clus>
</clustering>
</event>
<event>
 6    0  0.1361919E+003  0.1338176E+03  0.7546771E-02  0.1221899E+00
         21   -1    0    0  502  501  0.00000000000E+00  0.00000000000E+00  0.11812916223E+03  0.11812916223E+03  0.00000000000E+00 0. -1.
         21   -1    0    0  505  502 -0.00000000000E+00 -0.00000000000E+00 -0.38429339580E+03  0.38429339580E+03  0.00000000000E+00 0.  1.
         21    1    1    2  503  504 -0.28126008708E+02 -0.70509073700E+02 -0.96845553182E+02  0.12305146489E+03  0.00000000000E+00 0.  1.
         21    1    1    2  504  506  0.61858782811E+02  0.83406371999E+02 -0.54814164025E+02  0.11742114153E+03  0.00000000000E+00 0. -1.
         21    1    1    2  505  503 -0.32885561981E+02 -0.44583495075E+02 -0.18046043538E+03  0.18877265945E+03  0.00000000000E+00 0.  1.
         21    1    1    2  506  501 -0.84721212118E+00  0.31686196776E+02  0.65955919018E+02  0.73177292161E+02  0.00000000000E+00 0. -1.
<scales pt_clust_3="51.31324" pt_clust_4="120.58271" pt_clust_5="51.31324" pt_clust_6="31.69752"></scales>
<clustering>
<clus scale="   31.698">  1  6  2 -1</clus>
<clus scale="   51.313">  3  5 -1 -1</clus>
<clus scale="  120.583">  1  4  2 -1</clus>
<clus scale="   31.698">  1  3  2 -1</clus>
</clustering>
</event>
<event>
 6    0  0.1361919E+003  0.1144210E+03  0.7546771E-02  0.1252595E+00
         21   -1    0    0  503  501  0.00000000000E+00  0.00000000000E+00  0.57350710728E+03  0.57350710728E+03  0.00000000000E+00 0.  1.
         21   -1    0    0  506  502 -0.00000000000E+00 -0.00000000000E+00 -0.49888930575E+03  0.49888930575E+03  0.00000000000E+00 0.  1.
         21    1    1    2  503  502 -0.36062216609E+01 -0.14838385823E+03  0.35080312120E+03  0.38091154362E+03  0.00000000000E+00 0.  1.
         21    1    1    2  504  501 -0.42161084469E+02  0.59222861133E+02  0.14491047003E+03  0.16212325141E+03  0.00000000000E+00 0.  1.
         21    1    1    2  505  504  0.98875922192E+02 -0.11814240903E+02 -0.69871270377E+01  0.99824066346E+02  0.00000000000E+00 0.  1.
         21    1    1    2  506  505 -0.53108616063E+02  0.10097523800E+03 -0.41410866266E+03  0.42953755166E+03  0.00000000000E+00 0.  1.
<scales pt_clust_3="14000.00000" pt_clust_4="72.69735" pt_clust_5="94.36337" pt_clust_6="114.42100"></scales>
<clustering>
<clus scale="   72.697">  1  4  2 -1</clus>
<clus scale="   94.363">  1  5  2 -1</clus>
<clus scale="  114.421">  2  6  1 -1</clus>
<clus scale="   72.697">  1  3  2 -1</clus>
</clustering>
</event>
<event>
 6    0  0.1361919E+003  0.1261367E+03  0.7546771E-02  0.1233303E+00
         21   -1    0    0  506  501  0.00000000000E+00  0.00000000000E+00  0.10550647206E+04  0.10550647206E+04  0.00000000000E+00 0.  1.
         21   -1    0    0  505  502 -0.00000000000E+00 -0.00000000000E+00 -0.14440920464E+04  0.14440920464E+04  0.00000000000E+00 0. -1.
         21    1    1    2  503  502 -0.81581471084E+02  0.96175343985E+02 -0.12131257144E+04  0.12196635733E+04  0.00000000000E+00 0. -1.
         21    1    1    2  504  501  0.70789467114E+02 -0.67889110907E+02  0.94348723203E+03  0.94857168261E+03  0.00000000000E+00 0.  1.
         21    1    1    2  505  504 -0.29721786936E+02 -0.36287140983E+02 -0.21853849163E+03  0.22351557786E+03  0.00000000000E+00 0.  1.
         21    1    1    2  506  503  0.40513790905E+02  0.80009079047E+01  0.99149648118E+02  0.10740593328E+03  0.00000000000E+00 0.  1.
<scales pt_clust_3="14000.00000" pt_clust_4="126.13671" pt_clust_5="46.82241" pt_clust_6="41.29627"></scales>
<clustering>
<clus scale="   41.296">  1  6  2 -1</clus>
<clus scale="   46.822">  2  5  1 -1</clus>
<clus scale="  126.137">  1  4  2 -1</clus>
<clus scale="   41.296">  1  3  2 -1</clus>
</clustering>
</event>
<event>
 6    0  0.1361919E+003  0.9850043E+02  0.7546771E-02  0.1283481E+00
         21   -1    0    0  505  501  0.00000000000E+00  0.00000000000E+00  0.53428787142E+02  0.53428787142E+02  0.00000000000E+00 0. -1.
         21   -1    0    0  504  502 -0.00000000000E+00 -0.00000000000E+00 -0.81204413755E+03  0.81204413755E+03  0.00000000000E+00 0. -1.
         21    1    1    2  503  502  0.72272468766E+02 -0.46220772143E+02 -0.44292216230E+03  0.45115375580E+03  0.00000000000E+00 0. -1.
         21    1    1    2  504  501 -0.13678798654E+03 -0.41924831979E+02 -0.19786481497E+03  0.24417028853E+03  0.00000000000E+00 0. -1.
         21    1    1    2  505  506  0.24692785868E+02  0.21176338863E+02 -0.48209111561E+01  0.32884832156E+02  0.00000000000E+00 0. -1.
         21    1    1    2  506  503  0.39822731905E+02  0.66969265259E+02 -0.11300746198E+03  0.13726404821E+03  0.00000000000E+00 0.  1.
<scales pt_clust_3="86.83080" pt_clust_4="98.50043" pt_clust_5="32.52954" pt_clust_6="14000.00000"></scales>
<clustering>
<clus scale="   32.530">  1  5  2 -1</clus>
<clus scale="   86.831">  2  3  1 -1</clus>
<clus scale="   98.500">  2  4  1 -1</clus>
<clus scale="   32.530">  1  3  2 -1</clus>
</clustering>
</event>
<event>
 6    0  0.1361919E+003  0.7189811E+02  0.7546771E-02  0.1353755E+00
         21   -1    0    0  504  501  0.00000000000E+00  0.00000000000E+00  0.61690035611E+02  0.61690035611E+02  0.00000000000E+00 0.  1.
         21   -1    0    0  506  502 -0.00000000000E+00 -0.00000000000E+00 -0.43184754281E+03  0.43184754281E+03  0.00000000000E+00 0.  1.
         21    1    1    2  503  501 -0.36781590302E+02 -0.32471935931E+02  0.53068360978E+01  0.49350527025E+02  0.00000000000E+00 0.  1.
         21    1    1    2  504  505  0.20584379413E+01 -0.40220641685E+02 -0.21537854554E+02  0.45670738587E+02  0.00000000000E+00 0. -1.
         21    1    1    2  505  502  0.36901270439E+02 -0.37079159723E+02 -0.21590261115E+03  0.22214973632E+03  0.00000000000E+00 0.  1.
         21    1    1    2  506  503 -0.21781180778E+01  0.10977173734E+03 -0.13802387760E+03  0.17636657649E+03  0.00000000000E+00 0.  1.
<scales pt_clust_3="14000.00000" pt_clust_4="40.27328" pt_clust_5="54.22456" pt_clust_6="71.89811"></scales>
<clustering>
<clus scale="   40.273">  1  4  2 -1</clus>
<clus scale="   54.225">  2  5  1 -1</clus>
<clus scale="   71.898">  2  6  1 -1</clus>
<clus scale="   40.273">  1  3  2 -1</clus>
</clustering>
</event>
<event>
 6    0  0.1361919E+003  0.1405874E+03  0.7546771E-02  0.1212541E+00
         21   -1    0    0  504  501  0.00000000000E+00  0.00000000000E+00  0.27843908596E+04  0.27843908596E+04  0.00000000000E+00 0.  1.
         21   -1    0    0  506  502 -0.00000000000E+00 -0.00000000000E+00 -0.12320090351E+03  0.12320090351E+03  0.00000000000E+00 0.  1.
         21    1    1    2  503  505 -0.95224587093E+02 -0.12626386096E+02  0.27792347919E+02  0.99997811055E+02  0.00000000000E+00 0.  1.
         21    1    1    2  504  502  0.82710173351E+01 -0.32228518471E+02  0.15348424603E+03  0.15704935820E+03  0.00000000000E+00 0.  1.
         21    1    1    2  505  501  0.13088175850E+03 -0.14845457336E+02  0.25471009832E+04  0.25505046248E+04  0.00000000000E+00 0.  1.
         21    1    1    2  506  503 -0.43928188739E+02  0.59700361903E+02 -0.67187621105E+02  0.10003996905E+03  0.00000000000E+00 0.  1.
<scales pt_clust_3="140.58736" pt_clust_4="33.27292" pt_clust_5="14000.00000" pt_clust_6="73.92753"></scales>
<clustering>
<clus scale="   33.273">  1  4  2 -1</clus>
<clus scale="   73.928">  2  6  1 -1</clus>
<clus scale="  140.587">  2  3  1 -1</clus>
<clus scale="   33.273">  1  3  2 -1</clus>
</clustering>
</event>
<event>
 6    0  0.1361919E+003  0.1197478E+03  0.7546771E-02  0.1243514E+00
         21   -1    0    0  506  501  0.00000000000E+00  0.00000000000E+00  0.23062460808E+03  0.23062460808E+03  0.00000000000E+00 0. -1.
         21   -1    0    0  504  502 -0.00000000000E+00 -0.00000000000E+00 -0.13699519388E+04  0.13699519388E+04  0.00000000000E+00 0. -1.
         21    1    1    2  503  505 -0.78946852430E+02 -0.59894893458E+02 -0.23456926231E+03  0.25464238177E+03  0.00000000000E+00 0. -1.
         21    1    1    2  504  503 -0.37717269732E+02  0.24289506667E+02 -0.10910974733E+04  0.10920193537E+04  0.00000000000E+00 0. -1.
         21    1    1    2  505  501  0.13878923566E+03  0.12656695737E+02  0.16270025193E+03  0.21422888661E+03  0.00000000000E+00 0. -1.
         21    1    1    2  506  502 -0.22125113500E+02  0.22948691053E+02  0.23639153020E+02  0.39685924759E+02  0.00000000000E+00 0. -1.
<scales pt_clust_3="119.74781" pt_clust_4="44.93359" pt_clust_5="14000.00000" pt_clust_6="31.87731"></scales>
<clustering>
<clus scale="   31.877">  1  6  2 -1</clus>
<clus scale="   44.934">  2  4  1 -1</clus>
<clus scale="  119.748">  2  3  1 -1</clus>
<clus scale="   31.877">  1  3  2 -1</clus>
</clustering>
</event>
<event>
 6    0  0.1361919E+003  0.1061034E+03  0.7546771E-02  0.1267961E+00
         21   -1    0    0  505  501  0.00000000000E+00  0.00000000000E+00  0.16343562728E+03  0.16343562728E+03  0.00000000000E+00 0. -1.
         21   -1    0    0  506  502 -0.00000000000E+00 -0.00000000000E+00 -0.10824694261E+04  0.10824694261E+04  0.00000000000E+00 0. -1.
         21    1    1    2  503  501  0.42123740625E+02  0.10151144835E+03  0.10599687488E+03  0.15269027852E+03  0.00000000000E+00 0. -1.
         21    1    1    2  504  502 -0.87267967351E+02 -0.12204059576E+02 -0.81156376232E+03  0.81633349650E+03  0.00000000000E+00 0. -1.
         21    1    1    2  505  504  0.72043765755E+02 -0.11004334420E+03 -0.12233713414E+03  0.17962799386E+03  0.00000000000E+00 0. -1.
         21    1    1    2  506  503 -0.26899539028E+02  0.20735955423E+02 -0.91129777262E+02  0.97253284526E+02  0.00000000000E+00 0.  1.
<scales pt_clust_3="14000.00000" pt_clust_4="109.53101" pt_clust_5="106.10337" pt_clust_6="33.96417"></scales>
<clustering>
<clus scale="   33.964">  2  6  1 -1</clus>
<clus scale="  109.531">  2  4  1 -1</clus>
<clus scale="  106.103">  2  5  1 -1</clus>
<clus scale="  106.103">  1  3  2 -1</clus>
</clustering>
</event>
<event>
 6    0  0.1361919E+003  0.8915675E+02  0.7546771E-02  0.1304907E+00
         21   -1    0    0  503  501  0.00000000000E+00  0.00000000000E+00  0.50011483618E+03  0.50011483618E+03  0.00000000000E+00 0.  1.
         21   -1    0    0  505  502 -0.00000000000E+00 -0.00000000000E+00 -0.14637442561E+03  0.14637442561E+03  0.00000000000E+00 0. -1.
         21    1    1    2  503  502 -0.94714822050E+01 -0.45207031781E+02 -0.22428880824E+02  0.51346269510E+02  0.00000000000E+00 0. -1.
         21    1    1    2  504  501 -0.70225337454E+02 -0.50735185933E+02  0.33471240130E+03  0.34574274930E+03  0.00000000000E+00 0.  1.
         21    1    1    2  505  506  0.97431712670E+02 -0.70220388909E+01 -0.50723138555E+02  0.11006854432E+03  0.00000000000E+00 0. -1.
         21    1    1    2  506  504 -0.17734893011E+02  0.10296425660E+03  0.92180028646E+02  0.13933169865E+03  0.00000000000E+00 0.  1.
<scales pt_clust_3="46.18858" pt_clust_4="88.36939" pt_clust_5="89.15675" pt_clust_6="14000.00000"></scales>
<clustering>
<clus scale="   46.189">  2  3  1 -1</clus>
<clus scale="   88.369">  1  4  2 -1</clus>
<clus scale="   89.157">  2  5  1 -1</clus>
<clus scale="   88.369">  1  3  2 -1</clus>
</clustering>
</event>
<event>
 6    0  0.1361919E+003  0.1176763E+03  0.7546771E-02  0.1246980E+00
         21   -1    0    0  503  501  0.00000000000E+00  0.00000000000E+00  0.13078407084E+04  0.13078407084E+04  0.00000000000E+00 0.  1.
         21   -1    0    0  506  502 -0.00000000000E+00 -0.00000000000E+00 -0.11768015302E+03  0.11768015302E+03  0.00000000000E+00 0. -1.
         21    1    1    2  503  504  0.14628910933E+02  0.10952628618E+03  0.57703517359E+03  0.58751987537E+03  0.00000000000E+00 0.  1.
         21    1    1    2  504  502  0.32524768033E+02  0.27210985521E+02  0.15739581927E+03  0.16300841141E+03  0.00000000000E+00 0.  1.
         21    1    1    2  505  501 -0.41065066591E+02 -0.77202569397E+02  0.55349761197E+03  0.56036254592E+03  0.00000000000E+00 0.  1.
         21    1    1    2  506  505 -0.60886123749E+01 -0.59534702300E+02 -0.97768049473E+02  0.11463002868E+03  0.00000000000E+00 0. -1.
<scales pt_clust_3="33.83631" pt_clust_4="33.83631" pt_clust_5="104.23257" pt_clust_6="59.84523"></scales>
<clustering>
<clus scale="   33.836">  3  4 -1 -1</clus>
<clus scale="   59.845">  2  6  1 -1</clus>
<clus scale="  104.233">  1  5  2 -1</clus>
<clus scale="  104.233">  1  3  2 -1</clus>
</clustering>
</event>
<event>
 6    0  0.1361919E+003  0.1444350E+03  0.7546771E-02  0.1207483E+00
         21   -1    0    0  505  501  0.00000000000E+00  0.00000000000E+00  0.61333397735E+03  0.61333397735E+03  0.00000000000E+00 0. -1.
         21   -1    0    0  503  502 -0.00000000000E+00 -0.00000000000E+00 -0.88094722654E+03  0.88094722654E+03  0.00000000000E+00 0. -1.
         21    1    1    2  503  501 -0.40583562668E+01  0.86404585299E+02 -0.46711698268E+03  0.47505841549E+03  0.00000000000E+00 0. -1.
         21    1    1    2  504  502 -0.23377594399E+02 -0.21754302962E+03 -0.34002242028E+03  0.40433492052E+03  0.00000000000E+00 0. -1.
         21    1    1    2  505  506 -0.20493047618E+02 -0.24428327433E+02  0.39773397019E+03  0.39901004902E+03  0.00000000000E+00 0. -1.
         21    1    1    2  506  504  0.47928998283E+02  0.15556677176E+03  0.14179218359E+03  0.21587781887E+03  0.00000000000E+00 0. -1.
<scales pt_clust_3="86.06779" pt_clust_4="144.43496" pt_clust_5="31.88586" pt_clust_6="14000.00000"></scales>
<clustering>
<clus scale="   31.886">  1  5  2 -1</clus>
<clus scale="   86.068">  2  3  1 -1</clus>
<clus scale="  144.435">  2  4  1 -1</clus>
<clus scale="   31.886">  1  3  2 -1</clus>
</clustering>
</event>
<event>
 6    0  0.1361919E+003  0.1102985E+03  0.7546771E-02  0.1260018E+00
         21   -1    0    0  503  501  0.00000000000E+00  0.00000000000E+00  0.27183134915E+03  0.27183134915E+03  0.00000000000E+00 0. -1.
         21   -1    0    0  505  502 -0.00000000000E+00 -0.00000000000E+00 -0.39205993577E+03  0.39205993577E+03  0.00000000000E+00 0.  1.
         21    1    1    2  503  504 -0.49898280885E+01  0.59885768355E+02  0.11383235736E+03  0.12872066353E+03  0.00000000000E+00 0. -1.
         21    1    1    2  504  506 -0.32027053669E+02  0.31641582783E+02  0.85242006866E+02  0.96400838494E+02  0.00000000000E+00 0. -1.
         21    1    1    2  505  501  0.62836827471E+02 -0.12550303483E+03 -0.26451598973E+02  0.14282564800E+03  0.00000000000E+00 0.  1.
         21    1    1    2  506  502 -0.25819945713E+02  0.33975683695E+02 -0.29285135188E+03  0.29594413490E+03  0.00000000000E+00 0.  1.
<scales pt_clust_3="31.22713" pt_clust_4="31.22713" pt_clust_5="104.23137" pt_clust_6="42.67337"></scales>
<clustering>
<clus scale="   31.227">  3  4 -1 -1</clus>
<clus scale="   42.673">  2  6  1 -1</clus>
<clus scale="  104.231">  2  5  1 -1</clus>
<clus scale="  110.299">  1  3  2 -1</clus>
</clustering>
</event>
<event>
 6    0  0.1361919E+003  0.9961110E+02  0.7546771E-02  0.1281116E+00
         21   -1    0    0  502  501  0.00000000000E+00  0.00000000000E+00  0.96168294939E+02  0.96168294939E+02  0.00000000000E+00 0.  1.
         21   -1    0    0  506  502 -0.00000000000E+00 -0.00000000000E+00 -0.15622432395E+04  0.15622432395E+04  0.00000000000E+00 0. -1.
         21    1    1    2  503  501  0.27904459067E+02 -0.48020418088E+02  0.19101140998E+02  0.58732214130E+02  0.00000000000E+00 0.  1.
         21    1    1    2  504  505 -0.10173107551E+03  0.79393675396E+02 -0.15148268841E+03  0.19899641279E+03  0.00000000000E+00 0. -1.
         21    1    1    2  505  503  0.76396001082E+02  0.24440478272E+01 -0.10613539745E+02  0.77168449362E+02  0.00000000000E+00 0.  1.
         21    1    1    2  506  504 -0.25693846397E+01 -0.33817305136E+02 -0.13230798574E+04  0.13235144582E+04  0.00000000000E+00 0. -1.
<scales pt_clust_3="57.87900" pt_clust_4="14000.00000" pt_clust_5="99.61110" pt_clust_6="33.91477"></scales>
<clustering>
<clus scale="   33.915">  2  6  1 -1</clus>
<clus scale="   57.879">  1  3  2 -1</clus>
<clus scale="   99.611">  1  5  2 -1</clus>
<clus scale="   57.879">  1  3  2 -1</clus>
</clustering>
</event>
<event>
 6    0  0.1361919E+003  0.1104470E+03  0.7546771E-02  0.1259744E+00
         21   -1    0    0  503  501  0.00000000000E+00  0.00000000000E+00  0.10143713139E+03  0.10143713139E+03  0.00000000000E+00 0.  1.
         21   -1    0    0  504  502 -0.00000000000E+00 -0.00000000000E+00 -0.91767347473E+03  0.91767347473E+03  0.00000000000E+00 0.  1.
         21    1    1    2  503  506  0.14079556727E+03 -0.10348183334E+02 -0.32058050822E+03  0.35028893632E+03  0.00000000000E+00 0.  1.
         21    1    1    2  504  505 -0.11783294317E+03  0.43129009996E+02 -0.36041637659E+02  0.13055157465E+03  0.00000000000E+00 0.  1.
         21    1    1    2  505  501  0.21970219841E+02 -0.28315411991E+02  0.29902276111E+02  0.46675467140E+02  0.00000000000E+00 0.  1.
         21    1    1    2  506  502 -0.44932843942E+02 -0.44654146708E+01 -0.48951647357E+03  0.49159462801E+03  0.00000000000E+00 0.  1.
<scales pt_clust_3="14000.00000" pt_clust_4="110.44701" pt_clust_5="35.83927" pt_clust_6="44.84330"></scales>
<clustering>
<clus scale="   35.839">  1  5  2 -1</clus>
<clus scale="   44.843">  2  6  1 -1</clus>
<clus scale="  110.447">  1  4  2 -1</clus>
<clus scale="   35.839">  1  3  2 -1</clus>
</clustering>
</event>
<event>
 6    0  0.1361919E+003  0.1161479E+03  0.7546771E-02  0.1249591E+00
         21   -1    0    0  505  501  0.00000000000E+00  0.00000000000E+00  0.41111856050E+02  0.41111856050E+02  0.00000000000E+00 0.  1.
         21   -1    0    0  506  502 -0.00000000000E+00 -0.00000000000E+00 -0.24796861105E+04  0.24796861105E+04  0.00000000000E+00 0. -1.
         21    1    1    2  503  501  0.47526853985E+02  0.68775625321E+02 -0.25102815564E+02  0.87287111519E+02  0.00000000000E+00 0.  1.
         21    1    1    2  504  502 -0.71536339712E+02  0.14246954736E+02 -0.14773461936E+04  0.14791457668E+04  0.00000000000E+00 0. -1.
         21    1    1    2  505  504  0.55101481691E+01  0.45874814527E+02 -0.13408515441E+03  0.14182273786E+03  0.00000000000E+00 0.  1.
         21    1    1    2  506  503  0.18499337558E+02 -0.12889739459E+03 -0.80204009088E+03  0.81254235041E+03  0.00000000000E+00 0. -1.
<scales pt_clust_3="116.14793" pt_clust_4="73.03563" pt_clust_5="46.20455" pt_clust_6="14000.00000"></scales>
<clustering>
<clus scale="   46.205">  1  5  2 -1</clus>
<clus scale="   73.036">  2  4  1 -1</clus>
<clus scale="  116.148">  1  3  2 -1</clus>
<clus scale="   46.205">  1  3  2 -1</clus>
</clustering>
</event>
<event>
 6    0  0.1361919E+003  0.1061329E+03  0.7546771E-02  0.1267904E+00
         21   -1    0    0  504  501  0.00000000000E+00  0.00000000000E+00  0.59783778019E+03  0.59783778019E+03  0.00000000000E+00 0. -1.
         21   -1    0    0  505  502 -0.00000000000E+00 -0.00000000000E+00 -0.34036986023E+03  0.34036986023E+03  0.00000000000E+00 0. -1.
         21    1    1    2  503  502 -0.72207065596E+02 -0.17280190557E+02 -0.61944651793E+02  0.96693356512E+02  0.00000000000E+00 0.  1.
         21    1    1    2  504  506 -0.11418625213E+02 -0.35374817634E+02  0.37402580777E+03  0.37586841794E+03  0.00000000000E+00 0. -1.
         21    1    1    2  505  501 -0.33899870435E+02 -0.14473024870E+02 -0.23626105996E+03  0.23911912955E+03  0.00000000000E+00 0. -1.
         21    1    1    2  506  503  0.11752556124E+03  0.67128033062E+02  0.18164782394E+03  0.22652673642E+03  0.00000000000E+00 0. -1.
<scales pt_clust_3="106.13286" pt_clust_4="37.38992" pt_clust_5="36.86014" pt_clust_6="14000.00000"></scales>
<clustering>
<clus scale="   36.860">  2  5  1 -1</clus>
<clus scale="   37.390">  1  4  2 -1</clus>
<clus scale="  106.133">  2  3  1 -1</clus>
<clus scale="   37.390">  1  3  2 -1</clus>
</clustering>
</event>
<event>
 6    0  0.1361919E+003  0.1401148E+03  0.7546771E-02  0.1213175E+00
         21   -1    0    0  502  501  0.00000000000E+00  0.00000000000E+00  0.11140722835E+03  0.11140722835E+03  0.00000000000E+00 0.  1.
         21   -1    0    0  504  502 -0.00000000000E+00 -0.00000000000E+00 -0.11685333642E+04  0.11685333642E+04  0.00000000000E+00 0.  1.
         21    1    1    2  503  505 -0.95898633961E+02  0.44449836558E+00 -0.10927015566E+03  0.14538470515E+03  0.00000000000E+00 0.  1.
         21    1    1    2  504  503  0.12072524570E+01 -0.56353390307E+02 -0.41390619032E+03  0.41772658097E+03  0.00000000000E+00 0.  1.
         21    1    1    2  505  506  0.97057531031E+02  0.18988266580E+03 -0.54215160269E+03  0.58258385782E+03  0.00000000000E+00 0.  1.
         21    1    1    2  506  501 -0.23661495264E+01 -0.13397377386E+03  0.82018127975E+01  0.13424544863E+03  0.00000000000E+00 0.  1.
<scales pt_clust_3="96.12500" pt_clust_4="56.36632" pt_clust_5="14000.00000" pt_clust_6="140.11480"></scales>
<clustering>
<clus scale="   56.366">  2  4  1 -1</clus>
<clus scale="   96.125">  2  3  1 -1</clus>
<clus scale="  140.115">  1  6  2 -1</clus>
<clus scale="  140.115">  1  3  2 -1</clus>
</clustering>
</event>
<event>
 6    0  0.2872748E+003  0.9482274E+02  0.7546771E-02  0.1291576E+00
         21   -1    0    0  506  501  0.00000000000E+00  0.00000000000E+00  0.11240604267E+04  0.11240604267E+04  0.00000000000E+00 0.  1.
         21   -1    0    0  504  502 -0.00000000000E+00 -0.00000000000E+00 -0.10616896379E+04  0.10616896379E+04  0.00000000000E+00 0. -1.
         21    1    1    2  503  501  0.97662376056E+02 -0.18983592859E+02  0.98261993661E+03  0.98764379019E+03  0.00000000000E+00 0.  1.
         21    1    1    2  504  503 -0.46574538474E+02 -0.36080948054E+02 -0.99087306515E+03  0.99262301690E+03  0.00000000000E+00 0. -1.
         21    1    1    2  505  502  0.18554780868E+02  0.23809557666E+02 -0.52533153378E+02  0.60588011464E+02  0.00000000000E+00 0. -1.
         21    1    1    2  506  505 -0.69642618451E+02  0.31254983247E+02  0.12315707072E+03  0.14489524613E+03  0.00000000000E+00 0.  1.
<scales pt_clust_3="14000.00000" pt_clust_4="30.94313" pt_clust_5="30.18567" pt_clust_6="94.82274"></scales>
<clustering>
<clus scale="   30.186">  2  5  1 -1</clus>
<clus scale="   30.943">  2  4  1 -1</clus>
<clus scale="   94.823">  2  6  1 -1</clus>
<clus scale="   94.823">  1  3  2 -1</clus>
</clustering>
</event>
<event>
 6    0  0.1361919E+003  0.9806839E+02  0.7546771E-02  0.1284411E+00
         21   -1    0    0  505  501  0.00000000000E+00  0.00000000000E+00  0.89897203839E+02  0.89897203839E+02  0.00000000000E+00 0.  1.
         21   -1    0    0  506  502 -0.00000000000E+00 -0.00000000000E+00 -0.10404419033E+04  0.10404419033E+04  0.00000000000E+00 0. -1.
         21    1    1    2  503  501  0.60130726236E+02 -0.46889984191E+02  0.59285763575E+02  0.96587662865E+02  0.00000000000E+00 0.  1.
         21    1    1    2  504  503 -0.95366509524E+02  0.28839813643E+02 -0.63625186763E+03  0.64400539210E+03  0.00000000000E+00 0. -1.
         21    1    1    2  505  502  0.45464947533E+02 -0.18772505025E+02 -0.81612781535E+02  0.95289634845E+02  0.00000000000E+00 0. -1.
         21    1    1    2  506  504 -0.10229164244E+02  0.36822675572E+02 -0.29196581384E+03  0.29445641730E+03  0.00000000000E+00 0. -1.
<scales pt_clust_3="77.18105" pt_clust_4="37.47137" pt_clust_5="49.18809" pt_clust_6="37.47137"></scales>
<clustering>
<clus scale="   37.471">  4  6 -1 -1</clus>
<clus scale="   49.188">  2  5  1 -1</clus>
<clus scale="   77.181">  1  3  2 -1</clus>
<clus scale="   77.181">  1  3  2 -1</clus>
</clustering>
</event>
<event>
 6    0  0.1361919E+003  0.1369129E+03  0.7546771E-02  0.1217544E+00
         21   -1    0    0  504  501  0.00000000000E+00  0.00000000000E+00  0.51885150908E+03  0.51885150908E+03  0.00000000000E+00 0.  1.
         21   -1    0    0  505  502 -0.00000000000E+00 -0.00000000000E+00 -0.18380386421E+03  0.18380386421E+03  0.00000000000E+00 0.  1.
         21    1    1    2  503  506  0.82856978426E+02  0.45465610752E+02  0.30417720371E+03  0.31852185466E+03  0.00000000000E+00 0.  1.
         21    1    1    2  504  503  0.83302578229E+01  0.85824359102E+02  0.11418788980E+03  0.14308769335E+03  0.00000000000E+00 0.  1.
         21    1    1    2  505  501 -0.11211661697E+03 -0.50067615595E+02 -0.96461676083E+02  0.15614658781E+03  0.00000000000E+00 0.  1.
         21    1    1    2  506  502  0.20929380722E+02 -0.81222354259E+02  0.13144227431E+02  0.84899237473E+02  0.00000000000E+00 0.  1.
<scales pt_clust_3="14000.00000" pt_clust_4="78.57821" pt_clust_5="136.91291" pt_clust_6="83.87556"></scales>
<clustering>
<clus scale="   83.876">  2  6  1 -1</clus>
<clus scale="   78.578">  1  4  2 -1</clus>
<clus scale="  136.913">  2  5  1 -1</clus>
<clus scale="   78.578">  1  3  2 -1</clus>
</clustering>
</event>
<event>
 6    0  0.1361919E+003  0.1475030E+03  0.7546771E-02  0.1203575E+00
         21   -1    0    0  504  501  0.00000000000E+00  0.00000000000E+00  0.16187682918E+04  0.16187682918E+04  0.00000000000E+00 0. -1.
         21   -1    0    0  506  502 -0.00000000000E+00 -0.00000000000E+00 -0.13987402325E+03  0.13987402325E+03  0.00000000000E+00 0.  1.
         21    1    1    2  503  505  0.11799840834E+03  0.79449751139E+02  0.24603432234E+02  0.14436487178E+03  0.00000000000E+00 0.  1.
         21    1    1    2  504  502 -0.77061804487E+02 -0.14016011734E+03  0.66349495997E+02  0.17316360998E+03  0.00000000000E+00 0.  1.
         21    1    1    2  505  501 -0.28547130098E+02  0.21848966898E+02  0.13985150646E+04  0.13989770197E+04  0.00000000000E+00 0. -1.
         21    1    1    2  506  503 -0.12389473753E+02  0.38861399301E+02 -0.10573724191E+02  0.42136813581E+02  0.00000000000E+00 0.  1.
<scales pt_clust_3="147.50297" pt_clust_4="14000.00000" pt_clust_5="35.94880" pt_clust_6="42.92898"></scales>
<clustering>
<clus scale="   35.949">  1  5  2 -1</clus>
<clus scale="   42.929">  2  6  1 -1</clus>
<clus scale="  147.503">  2  3  1 -1</clus>
<clus scale="   35.949">  1  3  2 -1</clus>
</clustering>
</event>
<event>
 6    0  0.1361919E+003  0.8533878E+02  0.7546771E-02  0.1314549E+00
         21   -1    0    0  503  501  0.00000000000E+00  0.00000000000E+00  0.63775540716E+02  0.63775540716E+02  0.00000000000E+00 0. -1.
         21   -1    0    0  504  502 -0.00000000000E+00 -0.00000000000E+00 -0.22847026431E+04  0.22847026431E+04  0.00000000000E+00 0. -1.
         21    1    1    2  503  506  0.54966327966E+02  0.50122725903E+01  0.59212879831E+01  0.55511095629E+02  0.00000000000E+00 0. -1.
         21    1    1    2  504  501 -0.56753137200E+02  0.73513376693E+02 -0.19438118463E+04  0.19460291953E+04  0.00000000000E+00 0. -1.
         21    1    1    2  505  502  0.48453204680E+02  0.11749485620E+02 -0.22385016683E+03  0.22933525818E+03  0.00000000000E+00 0. -1.
         21    1    1    2  506  505 -0.46666395445E+02 -0.90275134903E+02 -0.59186377291E+02  0.11760263476E+03  0.00000000000E+00 0. -1.
<scales pt_clust_3="55.78863" pt_clust_4="85.33878" pt_clust_5="49.85743" pt_clust_6="14000.00000"></scales>
<clustering>
<clus scale="   49.857">  2  5  1 -1</clus>
<clus scale="   55.789">  1  3  2 -1</clus>
<clus scale="   85.339">  2  4  1 -1</clus>
<clus scale="   55.789">  1  3  2 -1</clus>
</clustering>
</event>
<event>
 6    0  0.1361919E+003  0.4155887E+03  0.7546771E-02  0.1038512E+00
         21   -1    0    0  505  501  0.00000000000E+00  0.00000000000E+00  0.29086119601E+04  0.29086119601E+04  0.00000000000E+00 0.  1.
         21   -1    0    0  506  502 -0.00000000000E+00 -0.00000000000E+00 -0.13653370575E+03  0.13653370575E+03  0.00000000000E+00 0.  1.
         21    1    1    2  503  504 -0.26897757736E+03  0.12412569478E+01  0.14982267832E+03  0.30789172249E+03  0.00000000000E+00 0.  1.
         21    1    1    2  504  501  0.41093623273E+03 -0.81748344434E+02  0.24259179313E+04  0.24618345169E+04  0.00000000000E+00 0.  1.
         21    1    1    2  505  502 -0.29994028281E+02 -0.76959578348E+01  0.96636227469E+02  0.10147625318E+03  0.00000000000E+00 0.  1.
         21    1    1    2  506  503 -0.11196462709E+03  0.88203045321E+02  0.99701417214E+02  0.17394317324E+03  0.00000000000E+00 0.  1.
<scales pt_clust_3="94.18888" pt_clust_4="394.87798" pt_clust_5="30.96562" pt_clust_6="94.18888"></scales>
<clustering>
<clus scale="   30.966">  1  5  2 -1</clus>
<clus scale="   94.189">  3  6 -1 -1</clus>
<clus scale="  394.878">  1  4  2 -1</clus>
<clus scale="   30.966">  1  3  2 -1</clus>
</clustering>
</event>
<event>
 6    0  0.1361919E+003  0.1574867E+03  0.7546771E-02  0.1191564E+00
         21   -1    0    0  503  501  0.00000000000E+00  0.00000000000E+00  0.35519819038E+03  0.35519819038E+03  0.00000000000E+00 0.  1.
         21   -1    0    0  505  502 -0.00000000000E+00 -0.00000000000E+00 -0.29580242322E+03  0.29580242322E+03  0.00000000000E+00 0. -1.
         21    1    1    2  503  502 -0.10987945432E+03 -0.98054062114E+02 -0.10543775759E+03  0.18112209778E+03  0.00000000000E+00 0. -1.
         21    1    1    2  504  506  0.10983966384E+03  0.69374040060E+02  0.13396504041E+03  0.18661227516E+03  0.00000000000E+00 0.  1.
         21    1    1    2  505  504 -0.42769369024E+02  0.13901638681E+02 -0.11873060990E+03  0.12696232596E+03  0.00000000000E+00 0. -1.
         21    1    1    2  506  501  0.42809159502E+02  0.14778383373E+02  0.14959909425E+03  0.15630391471E+03  0.00000000000E+00 0.  1.
<scales pt_clust_3="14000.00000" pt_clust_4="157.48668" pt_clust_5="44.97193" pt_clust_6="44.59564"></scales>
<clustering>
<clus scale="   44.972">  2  5  1 -1</clus>
<clus scale="   44.596">  1  6  2 -1</clus>
<clus scale="  157.487">  1  4  2 -1</clus>
<clus scale="   44.596">  1  3  2 -1</clus>
</clustering>
</event>
<event>
 6    0  0.1361919E+003  0.7851224E+02  0.7546771E-02  0.1333327E+00
         21   -1    0    0  503  501  0.00000000000E+00  0.00000000000E+00  0.95034701348E+03  0.95034701348E+03  0.00000000000E+00 0.  1.
         21   -1    0    0  505  502 -0.00000000000E+00 -0.00000000000E+00 -0.96415442226E+02  0.96415442226E+02  0.00000000000E+00 0.  1.
         21    1    1    2  503  502 -0.86368273491E+02  0.56407165238E+02  0.15638855075E+03  0.18734627234E+03  0.00000000000E+00 0.  1.
         21    1    1    2  504  506  0.59629246641E+02  0.13889579449E+02  0.29891156392E+02  0.68132581799E+02  0.00000000000E+00 0.  1.
         21    1    1    2  505  504  0.37872960788E+02 -0.37887621115E+02 -0.49723179271E+02  0.73090543502E+02  0.00000000000E+00 0.  1.
         21    1    1    2  506  501 -0.11133933938E+02 -0.32409123572E+02  0.71737504339E+03  0.71819305806E+03  0.00000000000E+00 0.  1.
<scales pt_clust_3="14000.00000" pt_clust_4="78.51224" pt_clust_5="54.34892" pt_clust_6="34.26829"></scales>
<clustering>
<clus scale="   34.268">  1  6  2 -1</clus>
<clus scale="   54.349">  2  5  1 -1</clus>
<clus scale="   78.512">  2  4  1 -1</clus>
<clus scale="   34.268">  1  3  2 -1</clus>
</clustering>
</event>
<event>
 6    0  0.1361919E+003  0.9490357E+02  0.7546771E-02  0.1291393E+00
         21   -1    0    0  503  501  0.00000000000E+00  0.00000000000E+00  0.49340479345E+02  0.49340479345E+02  0.00000000000E+00 0. -1.
         21   -1    0    0  506  502 -0.00000000000E+00 -0.00000000000E+00 -0.12295923515E+04  0.12295923515E+04  0.00000000000E+00 0. -1.
         21    1    1    2  503  504 -0.32254637051E+02  0.22489330438E+02  0.21994047394E+01  0.39382343456E+02  0.00000000000E+00 0. -1.
         21    1    1    2  504  505  0.10551100512E+03 -0.91399472635E+02 -0.17826391261E+03  0.22641655933E+03  0.00000000000E+00 0. -1.
         21    1    1    2  505  502 -0.24299704372E+02  0.28060038931E+02 -0.75521550683E+03  0.75612717394E+03  0.00000000000E+00 0. -1.
         21    1    1    2  506  501 -0.48956663701E+02  0.40850103266E+02 -0.24897185750E+03  0.25700675416E+03  0.00000000000E+00 0. -1.
<scales pt_clust_3="40.73398" pt_clust_4="94.90357" pt_clust_5="37.11929" pt_clust_6="14000.00000"></scales>
<clustering>
<clus scale="   37.119">  2  5  1 -1</clus>
<clus scale="   40.734">  1  3  2 -1</clus>
<clus scale="   94.904">  1  4  2 -1</clus>
<clus scale="   40.734">  1  3  2 -1</clus>
</clustering>
</event>
<event>
 6    0  0.1361919E+003  0.1403885E+03  0.7546771E-02  0.1212807E+00
         21   -1    0    0  506  501  0.00000000000E+00  0.00000000000E+00  0.44979891023E+03  0.44979891023E+03  0.00000000000E+00 0. -1.
         21   -1    0    0  504  502 -0.00000000000E+00 -0.00000000000E+00 -0.42178509307E+03  0.42178509307E+03  0.00000000000E+00 0. -1.
         21    1    1    2  503  505 -0.11582191566E+03 -0.14729947499E+02 -0.21025116678E+03  0.24049374344E+03  0.00000000000E+00 0. -1.
         21    1    1    2  504  501  0.11793397057E+03 -0.33971334558E+01  0.73856883795E+02  0.13919339501E+03  0.00000000000E+00 0. -1.
         21    1    1    2  505  502 -0.36859016992E+02  0.32271722753E+02 -0.15897120508E+03  0.16634871586E+03  0.00000000000E+00 0. -1.
         21    1    1    2  506  503  0.34746962082E+02 -0.14144641798E+02  0.32337930523E+03  0.32554814900E+03  0.00000000000E+00 0. -1.
<scales pt_clust_3="14000.00000" pt_clust_4="140.38852" pt_clust_5="47.94804" pt_clust_6="37.51563"></scales>
<clustering>
<clus scale="   37.516">  1  6  2 -1</clus>
<clus scale="   47.948">  2  5  1 -1</clus>
<clus scale="  140.389">  1  4  2 -1</clus>
<clus scale="   37.516">  1  3  2 -1</clus>
</clustering>
</event>
<event>
 6    0  0.1361919E+003  0.1135931E+03  0.7546771E-02  0.1254057E+00
         21   -1    0    0  504  501  0.00000000000E+00  0.00000000000E+00  0.60544326322E+03  0.60544326322E+03  0.00000000000E+00 0. -1.
         21   -1    0    0  506  502 -0.00000000000E+00 -0.00000000000E+00 -0.34945533375E+03  0.34945533375E+03  0.00000000000E+00 0. -1.
         21    1    1    2  503  505 -0.28707005228E+02 -0.53056095432E+02 -0.37067161946E+02  0.70802654657E+02  0.00000000000E+00 0.  1.
         21    1    1    2  504  502  0.31510467970E+02 -0.17430640875E+02 -0.36039234777E+01  0.36190124308E+02  0.00000000000E+00 0.  1.
         21    1    1    2  505  501  0.59787039827E+02  0.10386462234E+03  0.56128554034E+03  0.57393711128E+03  0.00000000000E+00 0. -1.
         21    1    1    2  506  503 -0.62590502568E+02 -0.33377886032E+02 -0.26462652546E+03  0.27396870672E+03  0.00000000000E+00 0. -1.
<scales pt_clust_3="113.59307" pt_clust_4="36.01023" pt_clust_5="14000.00000" pt_clust_6="60.20885"></scales>
<clustering>
<clus scale="   36.010">  2  4  1 -1</clus>
<clus scale="   60.209">  2  6  1 -1</clus>
<clus scale="  113.593">  2  3  1 -1</clus>
<clus scale="  113.593">  1  3  2 -1</clus>
</clustering>
</event>
<event>
 6    0  0.1361919E+003  0.1023366E+03  0.7546771E-02  0.1275458E+00
         21   -1    0    0  504  501  0.00000000000E+00  0.00000000000E+00  0.67127590081E+02  0.67127590081E+02  0.00000000000E+00 0. -1.
         21   -1    0    0  506  502 -0.00000000000E+00 -0.00000000000E+00 -0.15196273337E+04  0.15196273337E+04  0.00000000000E+00 0.  1.
         21    1    1    2  503  501 -0.10467405018E+03  0.89949787114E+02 -0.51265748135E+02  0.14722702848E+03  0.00000000000E+00 0. -1.
         21    1    1    2  504  502  0.32659851824E+02  0.73050816762E+01 -0.56615556546E+02  0.65767403647E+02  0.00000000000E+00 0. -1.
         21    1    1    2  505  503  0.46339895046E+02 -0.58537388899E+02 -0.84386247208E+02  0.11267231466E+03  0.00000000000E+00 0.  1.
         21    1    1    2  506  505  0.25674303309E+02 -0.38717479891E+02 -0.12602321917E+04  0.12610881770E+04  0.00000000000E+00 0.  1.
<scales pt_clust_3="102.33659" pt_clust_4="33.46685" pt_clust_5="14000.00000" pt_clust_6="46.53891"></scales>
<clustering>
<clus scale="   33.467">  1  4  2 -1</clus>
<clus scale="   46.539">  2  6  1 -1</clus>
<clus scale="  102.337">  1  3  2 -1</clus>
<clus scale="   33.467">  1  3  2 -1</clus>
</clustering>
</event>
<event>
 6    0  0.1361919E+003  0.1304516E+03  0.7546771E-02  0.1226787E+00
         21   -1    0    0  506  501  0.00000000000E+00  0.00000000000E+00  0.11330227543E+03  0.11330227543E+03  0.00000000000E+00 0. -1.
         21   -1    0    0  505  502 -0.00000000000E+00 -0.00000000000E+00 -0.39049851590E+03  0.39049851590E+03  0.00000000000E+00 0.  1.
         21    1    1    2  503  502 -0.41262177329E+02 -0.11323113388E+03 -0.41690714050E+02  0.12752243958E+03  0.00000000000E+00 0. -1.
         21    1    1    2  504  501 -0.23732757660E+02  0.32838901319E+02 -0.65134218347E+01  0.41037323133E+02  0.00000000000E+00 0. -1.
         21    1    1    2  505  504  0.89167814280E+02  0.10360682569E+03 -0.25730951709E+03  0.29136482461E+03  0.00000000000E+00 0.  1.
         21    1    1    2  506  503 -0.24172879291E+02 -0.23214593128E+02  0.28317412499E+02  0.43876204006E+02  0.00000000000E+00 0. -1.
<scales pt_clust_3="14000.00000" pt_clust_4="40.16751" pt_clust_5="130.45157" pt_clust_6="33.51485"></scales>
<clustering>
<clus scale="   33.515">  1  6  2 -1</clus>
<clus scale="   40.168">  1  4  2 -1</clus>
<clus scale="  130.452">  2  5  1 -1</clus>
<clus scale="   33.515">  1  3  2 -1</clus>
</clustering>
</event>
<event>
 6    0  0.1361919E+003  0.8298534E+02  0.7546771E-02  0.1320787E+00
         21   -1    0    0  504  501  0.00000000000E+00  0.00000000000E+00  0.29382832986E+03  0.29382832986E+03  0.00000000000E+00 0. -1.
         21   -1    0    0  506  502 -0.00000000000E+00 -0.00000000000E+00 -0.62182131088E+03  0.62182131088E+03  0.00000000000E+00 0. -1.
         21    1    1    2  503  502 -0.49547779637E+02 -0.52307314848E+02 -0.31011200907E+02  0.78439353868E+02  0.00000000000E+00 0. -1.
         21    1    1    2  504  503 -0.53847348194E+02  0.12759343129E+02  0.11533531104E+03  0.12792408576E+03  0.00000000000E+00 0. -1.
         21    1    1    2  505  501  0.15993258864E+02  0.38266738903E+02  0.14209578555E+03  0.14802479490E+03  0.00000000000E+00 0. -1.
         21    1    1    2  506  505  0.87401868967E+02  0.12812328161E+01 -0.55441287669E+03  0.56126140621E+03  0.00000000000E+00 0. -1.
<scales pt_clust_3="14000.00000" pt_clust_4="60.01936" pt_clust_5="41.47442" pt_clust_6="82.98534"></scales>
<clustering>
<clus scale="   41.474">  1  5  2 -1</clus>
<clus scale="   60.019">  1  4  2 -1</clus>
<clus scale="   82.985">  2  6  1 -1</clus>
<clus scale="   41.474">  1  3  2 -1</clus>
</clustering>
</event>
<event>
 6    0  0.1361919E+003  0.1143817E+03  0.7546771E-02  0.1252664E+00
         21   -1    0    0  503  501  0.00000000000E+00  0.00000000000E+00  0.47184331099E+03  0.47184331099E+03  0.00000000000E+00 0. -1.
         21   -1    0    0  505  502 -0.00000000000E+00 -0.00000000000E+00 -0.12612466058E+03  0.12612466058E+03  0.00000000000E+00 0. -1.
         21    1    1    2  503  504 -0.58873679904E+02 -0.52097086499E+02  0.67316999973E+02  0.10349780236E+03  0.00000000000E+00 0. -1.
         21    1    1    2  504  502 -0.54058018474E+02 -0.48706383530E+01 -0.27006038134E+02  0.60624405770E+02  0.00000000000E+00 0. -1.
         21    1    1    2  505  506  0.13031422689E+03  0.10410755914E+03  0.50843739573E+02  0.17437106255E+03  0.00000000000E+00 0. -1.
         21    1    1    2  506  501 -0.17382528516E+02 -0.47139834284E+02  0.25456394900E+03  0.25947470090E+03  0.00000000000E+00 0. -1.
<scales pt_clust_3="14000.00000" pt_clust_4="56.07521" pt_clust_5="114.38166" pt_clust_6="50.24257"></scales>
<clustering>
<clus scale="   50.243">  1  6  2 -1</clus>
<clus scale="   56.075">  2  4  1 -1</clus>
<clus scale="  114.382">  2  5  1 -1</clus>
<clus scale="   50.243">  1  3  2 -1</clus>
</clustering>
</event>
<event>
 6    0  0.1361919E+003  0.7712974E+02  0.7546771E-02  0.1337400E+00
         21   -1    0    0  505  501  0.00000000000E+00  0.00000000000E+00  0.27940860393E+03  0.27940860393E+03  0.00000000000E+00 0.  1.
         21   -1    0    0  506  502 -0.00000000000E+00 -0.00000000000E+00 -0.91822335811E+02  0.91822335811E+02  0.00000000000E+00 0.  1.
         21    1    1    2  503  501 -0.12825323251E+02  0.32149937883E+02  0.41602728171E+02  0.54119261022E+02  0.00000000000E+00 0.  1.
         21    1    1    2  504  502 -0.87253876289E+02 -0.73150788773E+02  0.35635135052E+02  0.11930691378E+03  0.00000000000E+00 0.  1.
         21    1    1    2  505  504  0.39729492310E+02  0.42118618328E+02  0.12316800273E+03  0.13609837422E+03  0.00000000000E+00 0.  1.
         21    1    1    2  506  503  0.60349707231E+02 -0.11177674375E+01 -0.12819597832E+02  0.61706390718E+02  0.00000000000E+00 0. -1.
<scales pt_clust_3="34.61369" pt_clust_4="77.12974" pt_clust_5="14000.00000" pt_clust_6="59.03969"></scales>
<clustering>
<clus scale="   34.614">  1  3  2 -1</clus>
<clus scale="   59.040">  2  6  1 -1</clus>
<clus scale="   77.130">  2  4  1 -1</clus>
<clus scale="   34.614">  1  3  2 -1</clus>
</clustering>
</event>
<event>
 6    0  0.1361919E+003  0.8629891E+02  0.7546771E-02  0.1312070E+00
         21   -1    0    0  503  501  0.00000000000E+00  0.00000000000E+00  0.12139288824E+03  0.12139288824E+03  0.00000000000E+00 0. -1.
         21   -1    0    0  505  502 -0.00000000000E+00 -0.00000000000E+00 -0.29328664690E+03  0.29328664690E+03  0.00000000000E+00 0. -1.
         21    1    1    2  503  504  0.86085807513E+02  0.42811185491E+02  0.38759892526E+02  0.10366239977E+03  0.00000000000E+00 0. -1.
         21    1    1    2  504  502 -0.68262405220E+01  0.41382149202E+02 -0.14489527684E+03  0.15084336605E+03  0.00000000000E+00 0. -1.
         21    1    1    2  505  506 -0.28046960043E+02 -0.24124349663E+02 -0.72043756429E+02  0.80987153641E+02  0.00000000000E+00 0. -1.
         21    1    1    2  506  501 -0.51212606948E+02 -0.60068985030E+02  0.62853820857E+01  0.79186615667E+02  0.00000000000E+00 0. -1.
<scales pt_clust_3="86.29891" pt_clust_4="35.98795" pt_clust_5="36.99481" pt_clust_6="14000.00000"></scales>
<clustering>
<clus scale="   36.995">  2  5  1 -1</clus>
<clus scale="   35.988">  2  4  1 -1</clus>
<clus scale="   86.299">  1  3  2 -1</clus>
<clus scale="   86.299">  1  3  2 -1</clus>
</clustering>
</event>
<event>
 6    0  0.1361919E+003  0.7107085E+02  0.7546771E-02  0.1356489E+00
         21   -1    0    0  506  501  0.00000000000E+00  0.00000000000E+00  0.57902750865E+02  0.57902750865E+02  0.00000000000E+00 0.  1.
         21   -1    0    0  505  502 -0.00000000000E+00 -0.00000000000E+00 -0.17118308810E+04  0.17118308810E+04  0.00000000000E+00 0. -1.
         21    1    1    2  503  502 -0.93149409547E+02  0.44868676195E+02 -0.47915953793E+03  0.49018759000E+03  0.00000000000E+00 0. -1.
         21    1    1    2  504  501  0.89662934219E+02  0.10601413826E+02  0.44030785712E+01  0.90394794367E+02  0.00000000000E+00 0.  1.
         21    1    1    2  505  504  0.31999222733E+02 -0.32523027558E+02 -0.11096187689E+04  0.11105563965E+04  0.00000000000E+00 0. -1.
         21    1    1    2  506  503 -0.28512747405E+02 -0.22947062463E+02 -0.69552901952E+02  0.78594851041E+02  0.00000000000E+00 0. -1.
<scales pt_clust_3="14000.00000" pt_clust_4="71.07085" pt_clust_5="45.59478" pt_clust_6="36.59979"></scales>
<clustering>
<clus scale="   36.600">  1  6  2 -1</clus>
<clus scale="   45.595">  2  5  1 -1</clus>
<clus scale="   71.071">  1  4  2 -1</clus>
<clus scale="   36.600">  1  3  2 -1</clus>
</clustering>
</event>
<event>
 6    0  0.1361919E+003  0.7989591E+02  0.7546771E-02  0.1329347E+00
         21   -1    0    0  505  501  0.00000000000E+00  0.00000000000E+00  0.10665606727E+03  0.10665606727E+03  0.00000000000E+00 0.  1.
         21   -1    0    0  503  502 -0.00000000000E+00 -0.00000000000E+00 -0.68059525546E+03  0.68059525546E+03  0.00000000000E+00 0.  1.
         21    1    1    2  503  506  0.61723990023E+01  0.32489653593E+02 -0.46290321335E+03  0.46408303247E+03  0.00000000000E+00 0.  1.
         21    1    1    2  504  501 -0.88653619661E+02  0.55125309928E+02 -0.75461554149E+02  0.12881269436E+03  0.00000000000E+00 0. -1.
         21    1    1    2  505  502  0.35515745394E+02 -0.25703696210E+02  0.58010183017E+02  0.72713337864E+02  0.00000000000E+00 0.  1.
         21    1    1    2  506  504  0.46965475265E+02 -0.61911267311E+02 -0.93584603714E+02  0.12164225803E+03  0.00000000000E+00 0.  1.
<scales pt_clust_3="33.07077" pt_clust_4="79.89591" pt_clust_5="43.37732" pt_clust_6="14000.00000"></scales>
<clustering>
<clus scale="   33.071">  2  3  1 -1</clus>
<clus scale="   43.377">  1  5  2 -1</clus>
<clus scale="   79.896">  1  4  2 -1</clus>
<clus scale="   43.377">  1  3  2 -1</clus>
</clustering>
</event>
<event>
 6    0  0.1361919E+003  0.7844192E+02  0.7546771E-02  0.1333532E+00
         21   -1    0    0  503  501  0.00000000000E+00  0.00000000000E+00  0.20571503541E+03  0.20571503541E+03  0.00000000000E+00 0.  1.
         21   -1    0    0  505  502 -0.00000000000E+00 -0.00000000000E+00 -0.27036672792E+03  0.27036672792E+03  0.00000000000E+00 0.  1.
         21    1    1    2  503  506 -0.10286948837E+02 -0.58087065899E+02  0.79662244403E+02  0.99126190911E+02  0.00000000000E+00 0.  1.
         21    1    1    2  504  502  0.45353296214E+02 -0.41796209031E+01 -0.17372630452E+03  0.17959738191E+03  0.00000000000E+00 0.  1.
         21    1    1    2  505  501  0.45121383083E+02 -0.19919223723E+02 -0.39720984523E+02  0.63328281964E+02  0.00000000000E+00 0.  1.
         21    1    1    2  506  504 -0.80187730459E+02  0.82185910526E+02  0.69133352132E+02  0.13402990854E+03  0.00000000000E+00 0.  1.
<scales pt_clust_3="58.78626" pt_clust_4="45.54548" pt_clust_5="78.44192" pt_clust_6="14000.00000"></scales>
<clustering>
<clus scale="   45.545">  2  4  1 -1</clus>
<clus scale="   58.786">  1  3  2 -1</clus>
<clus scale="   78.442">  2  5  1 -1</clus>
<clus scale="   58.786">  1  3  2 -1</clus>
</clustering>
</event>
<event>
 6    0  0.1361919E+003  0.1668819E+03  0.7546771E-02  0.1181139E+00
         21   -1    0    0  506  501  0.00000000000E+00  0.00000000000E+00  0.20900513509E+04  0.20900513509E+04  0.00000000000E+00 0.  1.
         21   -1    0    0  504  502 -0.00000000000E+00 -0.00000000000E+00 -0.12028102327E+03  0.12028102327E+03  0.00000000000E+00 0.  1.
         21    1    1    2  503  501 -0.47858483103E+02 -0.28934973903E+02  0.11094672604E+03  0.12424509302E+03  0.00000000000E+00 0. -1.
         21    1    1    2  504  503 -0.18234549521E+03 -0.15227771334E+02 -0.19625171133E+02  0.18402964975E+03  0.00000000000E+00 0.  1.
         21    1    1    2  505  502  0.10608442035E+03 -0.45390690702E+01  0.30470432963E+03  0.32267512436E+03  0.00000000000E+00 0.  1.
         21    1    1    2  506  505  0.12411955797E+03  0.48701814308E+02  0.15737444431E+04  0.15793825071E+04  0.00000000000E+00 0.  1.
<scales pt_clust_3="55.92555" pt_clust_4="166.88192" pt_clust_5="14000.00000" pt_clust_6="89.59436"></scales>
<clustering>
<clus scale="   55.926">  1  3  2 -1</clus>
<clus scale="   89.594">  1  6  2 -1</clus>
<clus scale="  166.882">  2  4  1 -1</clus>
<clus scale="   55.926">  1  3  2 -1</clus>
</clustering>
</event>
<event>
 6    0  0.1361919E+003  0.1154036E+03  0.7546771E-02  0.1250878E+00
         21   -1    0    0  503  501  0.00000000000E+00  0.00000000000E+00  0.54617980924E+02  0.54617980924E+02  0.00000000000E+00 0. -1.
         21   -1    0    0  504  502 -0.00000000000E+00 -0.00000000000E+00 -0.14030129259E+04  0.14030129259E+04  0.00000000000E+00 0.  1.
         21    1    1    2  503  502  0.40642646803E+02 -0.48160552564E+01 -0.80365197596E+02  0.90186385402E+02  0.00000000000E+00 0. -1.
         21    1    1    2  504  505  0.36611488309E+02 -0.15979816075E+02 -0.96155407502E+03  0.96238349673E+03  0.00000000000E+00 0.  1.
         21    1    1    2  505  506 -0.37487109865E+01 -0.89137316693E+02 -0.24203102765E+03  0.25795063948E+03  0.00000000000E+00 0.  1.
         21    1    1    2  506  501 -0.73505424125E+02  0.10993318802E+03 -0.64444644710E+02  0.14711038521E+03  0.00000000000E+00 0. -1.
<scales pt_clust_3="48.37189" pt_clust_4="39.94691" pt_clust_5="115.40359" pt_clust_6="14000.00000"></scales>
<clustering>
<clus scale="   39.947">  2  4  1 -1</clus>
<clus scale="   48.372">  2  3  1 -1</clus>
<clus scale="  115.404">  2  5  1 -1</clus>
<clus scale="  115.404">  1  3  2 -1</clus>
</clustering>
</event>
<event>
 6    0  0.1361919E+003  0.1092534E+03  0.7546771E-02  0.1261959E+00
         21   -1    0    0  503  501  0.00000000000E+00  0.00000000000E+00  0.77991887002E+02  0.77991887002E+02  0.00000000000E+00 0.  1.
         21   -1    0    0  504  502 -0.00000000000E+00 -0.00000000000E+00 -0.60481262562E+03  0.60481262562E+03  0.00000000000E+00 0. -1.
         21    1    1    2  503  505  0.51008354184E+02 -0.51427290634E+02  0.73709436253E+01  0.72807617929E+02  0.00000000000E+00 0.  1.
         21    1    1    2  504  506 -0.55508947069E+02  0.84158653679E+02 -0.51218037029E+03  0.52200828912E+03  0.00000000000E+00 0. -1.
         21    1    1    2  505  502  0.40280037166E+02 -0.95624600873E+01 -0.18101048736E+02  0.45183736038E+02  0.00000000000E+00 0.  1.
         21    1    1    2  506  501 -0.35779444281E+02 -0.23168902958E+02 -0.39102632102E+01  0.42804869533E+02  0.00000000000E+00 0.  1.
<scales pt_clust_3="31.65784" pt_clust_4="100.90987" pt_clust_5="31.65784" pt_clust_6="42.62589"></scales>
<clustering>
<clus scale="   31.658">  3  5 -1 -1</clus>
<clus scale="   42.626">  1  6  2 -1</clus>
<clus scale="  100.910">  2  4  1 -1</clus>
<clus scale="   42.626">  1  3  2 -1</clus>
</clustering>
</event>
<event>
 6    0  0.1361919E+003  0.7526274E+02  0.7546771E-02  0.1343059E+00
         21   -1    0    0  503  501  0.00000000000E+00  0.00000000000E+00  0.54733841868E+03  0.54733841868E+03  0.00000000000E+00 0.  1.
         21   -1    0    0  504  502 -0.00000000000E+00 -0.00000000000E+00 -0.14857534136E+03  0.14857534136E+03  0.00000000000E+00 0.  1.
         21    1    1    2  503  506 -0.45290019264E+02  0.10432673422E+02  0.38641630184E+02  0.60441724850E+02  0.00000000000E+00 0.  1.
         21    1    1    2  504  501  0.94088911565E+02  0.39724121709E+02  0.44409987222E+03  0.45569224881E+03  0.00000000000E+00 0.  1.
         21    1    1    2  505  502  0.10999705021E+02  0.31534992539E+02  0.16404794658E+02  0.37209764213E+02  0.00000000000E+00 0. -1.
         21    1    1    2  506  505 -0.59798597322E+02 -0.81691787671E+02 -0.10038321974E+03  0.14257002217E+03  0.00000000000E+00 0.  1.
<scales pt_clust_3="46.26311" pt_clust_4="14000.00000" pt_clust_5="33.39834" pt_clust_6="75.26274"></scales>
<clustering>
<clus scale="   33.398">  2  5  1 -1</clus>
<clus scale="   46.263">  1  3  2 -1</clus>
<clus scale="   75.263">  2  6  1 -1</clus>
<clus scale="   46.263">  1  3  2 -1</clus>
</clustering>
</event>
<event>
 6    0  0.1361919E+003  0.9140262E+02  0.7546771E-02  0.1299490E+00
         21   -1    0    0  503  501  0.00000000000E+00  0.00000000000E+00  0.24850930907E+03  0.24850930907E+03  0.00000000000E+00 0.  1.
         21   -1    0    0  505  502 -0.00000000000E+00 -0.00000000000E+00 -0.34836026258E+04  0.34836026258E+04  0.00000000000E+00 0.  1.
         21    1    1    2  503  504  0.43891368135E+02  0.16715514136E+02  0.19896671546E+03  0.20443486608E+03  0.00000000000E+00 0.  1.
         21    1    1    2  504  506 -0.15046315750E+03  0.18126963169E+02 -0.11086316133E+04  0.11189422696E+04  0.00000000000E+00 0.  1.
         21    1    1    2  505  501  0.39428885332E+02  0.21965830325E+02  0.28359197182E+02  0.53304584843E+02  0.00000000000E+00 0. -1.
         21    1    1    2  506  502  0.67142904030E+02 -0.56808307630E+02 -0.23537876161E+04  0.23554302144E+04  0.00000000000E+00 0.  1.
<scales pt_clust_3="91.40262" pt_clust_4="14000.00000" pt_clust_5="45.13463" pt_clust_6="88.01395"></scales>
<clustering>
<clus scale="   45.135">  1  5  2 -1</clus>
<clus scale="   88.014">  2  6  1 -1</clus>
<clus scale="   91.403">  1  3  2 -1</clus>
<clus scale="   45.135">  1  3  2 -1</clus>
</clustering>
</event>
<event>
 6    0  0.1507487E+003  0.1635995E+03  0.7546771E-02  0.1184692E+00
         21   -1    0    0  505  501  0.00000000000E+00  0.00000000000E+00  0.84922187692E+03  0.84922187692E+03  0.00000000000E+00 0.  1.
         21   -1    0    0  501  502 -0.00000000000E+00 -0.00000000000E+00 -0.48730318982E+03  0.48730318982E+03  0.00000000000E+00 0. -1.
         21    1    1    2  503  504 -0.27289857997E+02 -0.75043470010E+02  0.37904414707E+03  0.38736381371E+03  0.00000000000E+00 0.  1.
         21    1    1    2  504  506  0.28118664427E+01  0.94733096860E+02 -0.10806755266E+03  0.14373886799E+03  0.00000000000E+00 0.  1.
         21    1    1    2  505  503  0.41153359811E+02 -0.76620726120E+02  0.44144680585E+03  0.44993290288E+03  0.00000000000E+00 0. -1.
         21    1    1    2  506  502 -0.16675368258E+02  0.56931099270E+02 -0.35050471317E+03  0.35548948216E+03  0.00000000000E+00 0. -1.
<scales pt_clust_3="65.54063" pt_clust_4="148.65614" pt_clust_5="65.54063" pt_clust_6="59.32300"></scales>
<clustering>
<clus scale="   59.323">  2  6  1 -1</clus>
<clus scale="   65.541">  3  5 -1 -1</clus>
<clus scale="  148.656">  2  4  1 -1</clus>
<clus scale="  163.600">  1  3  2 -1</clus>
</clustering>
</event>
<event>
 6    0  0.1361919E+003  0.6623635E+02  0.7546771E-02  0.1373380E+00
         21   -1    0    0  506  501  0.00000000000E+00  0.00000000000E+00  0.45587315612E+03  0.45587315612E+03  0.00000000000E+00 0.  1.
         21   -1    0    0  504  502 -0.00000000000E+00 -0.00000000000E+00 -0.62256107319E+02  0.62256107319E+02  0.00000000000E+00 0.  1.
         21    1    1    2  503  501 -0.88328308869E+02 -0.21427452476E+02  0.20107773646E+03  0.22066554323E+03  0.00000000000E+00 0.  1.
         21    1    1    2  504  503  0.61145861861E+02 -0.50786835183E+01  0.14250916441E+02  0.62989666362E+02  0.00000000000E+00 0.  1.
         21    1    1    2  505  502 -0.28929146985E+02  0.37677173352E+02  0.28607680391E+00  0.47503123866E+02  0.00000000000E+00 0.  1.
         21    1    1    2  506  505  0.56111593994E+02 -0.11171037358E+02  0.17800231909E+03  0.18697092998E+03  0.00000000000E+00 0.  1.
<scales pt_clust_3="14000.00000" pt_clust_4="46.79415" pt_clust_5="47.50226" pt_clust_6="66.23635"></scales>
<clustering>
<clus scale="   47.502">  2  5  1 -1</clus>
<clus scale="   46.794">  2  4  1 -1</clus>
<clus scale="   66.236">  1  6  2 -1</clus>
<clus scale="   66.236">  1  3  2 -1</clus>
</clustering>
</event>
<event>
 6    0  0.1361919E+003  0.1330559E+03  0.7546771E-02  0.1222990E+00
         21   -1    0    0  505  501  0.00000000000E+00  0.00000000000E+00  0.76504725963E+03  0.76504725963E+03  0.00000000000E+00 0.  1.
         21   -1    0    0  506  502 -0.00000000000E+00 -0.00000000000E+00 -0.76621851737E+03  0.76621851737E+03  0.00000000000E+00 0. -1.
         21    1    1    2  503  502  0.67623701833E+02  0.34180224909E+02  0.68453084880E+02  0.10211306309E+03  0.00000000000E+00 0.  1.
         21    1    1    2  504  501 -0.13005931423E+01  0.79674242374E+02  0.70371874640E+02  0.10631028728E+03  0.00000000000E+00 0.  1.
         21    1    1    2  505  503 -0.55587928977E+02  0.22686905652E+02  0.58345731323E+03  0.58653827658E+03  0.00000000000E+00 0.  1.
         21    1    1    2  506  504 -0.10735179714E+02 -0.13654137293E+03 -0.72345353049E+03  0.73630415005E+03  0.00000000000E+00 0. -1.
<scales pt_clust_3="61.02074" pt_clust_4="133.05594" pt_clust_5="60.03927" pt_clust_6="14000.00000"></scales>
<clustering>
<clus scale="   60.039">  1  5  2 -1</clus>
<clus scale="   61.021">  1  3  2 -1</clus>
<clus scale="  133.056">  1  4  2 -1</clus>
<clus scale="   60.039">  1  3  2 -1</clus>
</clustering>
</event>
<event>
 6    0  0.1361919E+003  0.1468764E+03  0.7546771E-02  0.1204365E+00
         21   -1    0    0  504  501  0.00000000000E+00  0.00000000000E+00  0.18642223920E+03  0.18642223920E+03  0.00000000000E+00 0.  1.
         21   -1    0    0  506  502 -0.00000000000E+00 -0.00000000000E+00 -0.31380146723E+03  0.31380146723E+03  0.00000000000E+00 0.  1.
         21    1    1    2  503  502  0.19468582158E+02  0.78750897500E+02 -0.68528465833E+02  0.10619265595E+03  0.00000000000E+00 0.  1.
         21    1    1    2  504  503  0.94402316333E+02 -0.17021876007E+03  0.46598414730E+02  0.20014403779E+03  0.00000000000E+00 0.  1.
         21    1    1    2  505  501 -0.25382174413E+02  0.29011746546E+02  0.53807300019E+01  0.38921568197E+02  0.00000000000E+00 0.  1.
         21    1    1    2  506  505 -0.88488724077E+02  0.62456116026E+02 -0.11082990693E+03  0.15496544449E+03  0.00000000000E+00 0.  1.
<scales pt_clust_3="83.73050" pt_clust_4="14000.00000" pt_clust_5="38.54784" pt_clust_6="146.87644"></scales>
<clustering>
<clus scale="   38.548">  1  5  2 -1</clus>
<clus scale="   83.730">  2  3  1 -1</clus>
<clus scale="  146.876">  2  6  1 -1</clus>
<clus scale="   38.548">  1  3  2 -1</clus>
</clustering>
</event>
<event>
 6    0  0.1361919E+003  0.1339357E+03  0.7546771E-02  0.1221730E+00
         21   -1    0    0  504  501  0.00000000000E+00  0.00000000000E+00  0.93151215481E+02  0.93151215481E+02  0.00000000000E+00 0.  1.
         21   -1    0    0  503  502 -0.00000000000E+00 -0.00000000000E+00 -0.26971830876E+04  0.26971830876E+04  0.00000000000E+00 0.  1.
         21    1    1    2  503  505 -0.10472386067E+03  0.98144829697E+02 -0.20865969693E+04  0.20915272905E+04  0.00000000000E+00 0.  1.
         21    1    1    2  504  502  0.86300532793E+02  0.33239727182E+02 -0.44868652518E+03  0.45811817176E+03  0.00000000000E+00 0. -1.
         21    1    1    2  505  506 -0.53322169311E+01 -0.16530694919E+03 -0.59942581539E+01  0.16550151395E+03  0.00000000000E+00 0.  1.
         21    1    1    2  506  501  0.23755544812E+02  0.33922392312E+02 -0.62754119464E+02  0.75187326852E+02  0.00000000000E+00 0. -1.
<scales pt_clust_3="133.93572" pt_clust_4="94.35285" pt_clust_5="14000.00000" pt_clust_6="41.41322"></scales>
<clustering>
<clus scale="   41.413">  1  6  2 -1</clus>
<clus scale="   94.353">  2  4  1 -1</clus>
<clus scale="  133.936">  2  3  1 -1</clus>
<clus scale="   41.413">  1  3  2 -1</clus>
</clustering>
</event>
<event>
 6    0  0.1361919E+003  0.8583126E+02  0.7546771E-02  0.1313273E+00
         21   -1    0    0  503  501  0.00000000000E+00  0.00000000000E+00  0.66957178124E+03  0.66957178124E+03  0.00000000000E+00 0.  1.
         21   -1    0    0  505  502 -0.00000000000E+00 -0.00000000000E+00 -0.92998459996E+02  0.92998459996E+02  0.00000000000E+00 0. -1.
         21    1    1    2  503  502  0.12098550283E+01 -0.78627371376E+02  0.17339227403E+03  0.19039067197E+03  0.00000000000E+00 0. -1.
         21    1    1    2  504  501  0.12491385379E+02  0.92665559923E+02  0.24861627202E+03  0.26561813082E+03  0.00000000000E+00 0.  1.
         21    1    1    2  505  506  0.60276274264E+02 -0.24453028274E+01 -0.56472182518E+02  0.82633625985E+02  0.00000000000E+00 0. -1.
         21    1    1    2  506  504 -0.73977514672E+02 -0.11592885721E+02  0.21103695771E+03  0.22392781247E+03  0.00000000000E+00 0.  1.
<scales pt_clust_3="85.83126" pt_clust_4="14000.00000" pt_clust_5="60.32585" pt_clust_6="58.70256"></scales>
<clustering>
<clus scale="   60.326">  2  5  1 -1</clus>
<clus scale="   58.703">  2  6  1 -1</clus>
<clus scale="   85.831">  1  3  2 -1</clus>
<clus scale="   85.831">  1  3  2 -1</clus>
</clustering>
</event>
<event>
 6    0  0.1361919E+003  0.8952217E+02  0.7546771E-02  0.1304013E+00
         21   -1    0    0  504  501  0.00000000000E+00  0.00000000000E+00  0.29816834040E+03  0.29816834040E+03  0.00000000000E+00 0.  1.
         21   -1    0    0  506  502 -0.00000000000E+00 -0.00000000000E+00 -0.48995050093E+03  0.48995050093E+03  0.00000000000E+00 0.  1.
         21    1    1    2  503  505  0.34970032899E+02 -0.81364937994E+02 -0.68848412209E+01  0.88828809372E+02  0.00000000000E+00 0.  1.
         21    1    1    2  504  502 -0.10759235560E+03  0.15663286655E+02  0.99123012671E+02  0.14712860080E+03  0.00000000000E+00 0.  1.
         21    1    1    2  505  501  0.36688693846E+02  0.53497863249E+02  0.12529433920E+03  0.14109129337E+03  0.00000000000E+00 0.  1.
         21    1    1    2  506  503  0.35933628859E+02  0.12203788091E+02 -0.40931467119E+03  0.41107013778E+03  0.00000000000E+00 0.  1.
<scales pt_clust_3="14000.00000" pt_clust_4="89.52217" pt_clust_5="67.91634" pt_clust_6="37.94942"></scales>
<clustering>
<clus scale="   37.949">  2  6  1 -1</clus>
<clus scale="   67.916">  1  5  2 -1</clus>
<clus scale="   89.522">  1  4  2 -1</clus>
<clus scale="   67.916">  1  3  2 -1</clus>
</clustering>
</event>
<event>
 6    0  0.1361919E+003  0.8173868E+02  0.7546771E-02  0.1324188E+00
         21   -1    0    0  505  501  0.00000000000E+00  0.00000000000E+00  0.19281711638E+03  0.19281711638E+03  0.00000000000E+00 0. -1.
         21   -1    0    0  504  502 -0.00000000000E+00 -0.00000000000E+00 -0.37196538552E+03  0.37196538552E+03  0.00000000000E+00 0. -1.
         21    1    1    2  503  502 -0.69032572020E+02 -0.60687756702E+02 -0.31771491564E+03  0.33074350702E+03  0.00000000000E+00 0. -1.
         21    1    1    2  504  506  0.45011190444E+02  0.20600918812E+02 -0.63179870465E+01  0.49903126970E+02  0.00000000000E+00 0. -1.
         21    1    1    2  505  503  0.31820040427E+02 -0.29569961639E+02  0.59429748648E+02  0.73612448869E+02  0.00000000000E+00 0. -1.
         21    1    1    2  506  501 -0.77986588514E+01  0.69656799529E+02  0.85454884903E+02  0.11052341903E+03  0.00000000000E+00 0. -1.
<scales pt_clust_3="14000.00000" pt_clust_4="81.73868" pt_clust_5="43.43843" pt_clust_6="49.67383"></scales>
<clustering>
<clus scale="   43.438">  1  5  2 -1</clus>
<clus scale="   49.674">  1  6  2 -1</clus>
<clus scale="   81.739">  1  4  2 -1</clus>
<clus scale="   43.438">  1  3  2 -1</clus>
</clustering>
</event>
<event>
 6    0  0.1361919E+003  0.2369724E+03  0.7546771E-02  0.1121826E+00
         21   -1    0    0  505  501  0.00000000000E+00  0.00000000000E+00  0.25657178250E+03  0.25657178250E+03  0.00000000000E+00 0.  1.
         21   -1    0    0  504  502 -0.00000000000E+00 -0.00000000000E+00 -0.66489015961E+03  0.66489015961E+03  0.00000000000E+00 0.  1.
         21    1    1    2  503  502 -0.50266447709E+02  0.15835460511E+02 -0.31847303154E+03  0.32280419668E+03  0.00000000000E+00 0.  1.
         21    1    1    2  504  501  0.10529555240E+03 -0.24063944185E+03  0.75705158542E+02  0.27336013857E+03  0.00000000000E+00 0.  1.
         21    1    1    2  505  506 -0.16612409444E+02  0.20666615785E+03 -0.66851749632E+02  0.21784404829E+03  0.00000000000E+00 0.  1.
         21    1    1    2  506  503 -0.38416695249E+02  0.18137823492E+02 -0.98698754470E+02  0.10745355857E+03  0.00000000000E+00 0.  1.
<scales pt_clust_3="105.30640" pt_clust_4="14000.00000" pt_clust_5="236.97244" pt_clust_6="40.85443"></scales>
<clustering>
<clus scale="   40.854">  3  6 -1 -1</clus>
<clus scale="  105.306">  2  3  1 -1</clus>
<clus scale="  236.972">  2  5  1 -1</clus>
<clus scale="  236.972">  1  3  2 -1</clus>
</clustering>
</event>
<event>
 6    0  0.1919912E+003  0.1244599E+03  0.7546771E-02  0.1235916E+00
         21   -1    0    0  504  501  0.00000000000E+00  0.00000000000E+00  0.10972176689E+03  0.10972176689E+03  0.00000000000E+00 0.  1.
         21   -1    0    0  506  502 -0.00000000000E+00 -0.00000000000E+00 -0.25461180045E+04  0.25461180045E+04  0.00000000000E+00 0. -1.
         21    1    1    2  503  501 -0.24443703043E+02 -0.38752095639E+02 -0.84530804771E+02  0.96149240715E+02  0.00000000000E+00 0. -1.
         21    1    1    2  504  505 -0.10136652235E+03  0.15738866521E+02  0.74338692594E+02  0.12668514115E+03  0.00000000000E+00 0.  1.
         21    1    1    2  505  502  0.84272052608E+02  0.35563017226E+01 -0.22266659523E+04  0.22282629309E+04  0.00000000000E+00 0. -1.
         21    1    1    2  506  503  0.41538172780E+02  0.19456927395E+02 -0.19953817322E+03  0.20474245869E+03  0.00000000000E+00 0. -1.
<scales pt_clust_3="45.81724" pt_clust_4="14000.00000" pt_clust_5="124.45991" pt_clust_6="44.90761"></scales>
<clustering>
<clus scale="   45.817">  1  3  2 -1</clus>
<clus scale="   44.908">  2  6  1 -1</clus>
<clus scale="  124.460">  2  5  1 -1</clus>
<clus scale="   45.817">  1  3  2 -1</clus>
</clustering>
</event>
<event>
 6    0  0.1361919E+003  0.9862089E+02  0.7546771E-02  0.1283223E+00
         21   -1    0    0  505  501  0.00000000000E+00  0.00000000000E+00  0.16356198370E+04  0.16356198370E+04  0.00000000000E+00 0. -1.
         21   -1    0    0  506  502 -0.00000000000E+00 -0.00000000000E+00 -0.26153472979E+03  0.26153472979E+03  0.00000000000E+00 0. -1.
         21    1    1    2  503  504  0.97724257711E+02 -0.20878243312E+02  0.10067564161E+03  0.14185033099E+03  0.00000000000E+00 0.  1.
         21    1    1    2  504  501 -0.91416070604E+02 -0.40448033119E+02  0.14773727847E+04  0.14807509197E+04  0.00000000000E+00 0. -1.
         21    1    1    2  505  502  0.31364308462E+02  0.33799829659E+02  0.16677297171E+02  0.49033463789E+02  0.00000000000E+00 0.  1.
         21    1    1    2  506  503 -0.37672495569E+02  0.27526446772E+02 -0.22064061630E+03  0.22551985224E+03  0.00000000000E+00 0. -1.
<scales pt_clust_3="98.62089" pt_clust_4="14000.00000" pt_clust_5="46.11018" pt_clust_6="58.97260"></scales>
<clustering>
<clus scale="   46.110">  2  5  1 -1</clus>
<clus scale="   58.973">  2  6  1 -1</clus>
<clus scale="   98.621">  2  3  1 -1</clus>
<clus scale="   98.621">  1  3  2 -1</clus>
</clustering>
</event>
<event>
 6    0  0.1361919E+003  0.1797767E+03  0.7546771E-02  0.1168019E+00
         21   -1    0    0  503  501  0.00000000000E+00  0.00000000000E+00  0.10169414751E+04  0.10169414751E+04  0.00000000000E+00 0. -1.
         21   -1    0    0  506  502 -0.00000000000E+00 -0.00000000000E+00 -0.14496443247E+03  0.14496443247E+03  0.00000000000E+00 0. -1.
         21    1    1    2  503  505 -0.44336878370E+02  0.62822310175E+02  0.17817360588E+03  0.19405729894E+03  0.00000000000E+00 0. -1.
         21    1    1    2  504  501  0.14494397409E+03  0.41866360798E+02  0.62705962266E+03  0.64495373335E+03  0.00000000000E+00 0. -1.
         21    1    1    2  505  502 -0.14222650104E+03 -0.80768793338E+02 -0.70044890899E+02  0.17792768845E+03  0.00000000000E+00 0. -1.
         21    1    1    2  506  504  0.41619405317E+02 -0.23919877635E+02  0.13678870504E+03  0.14496718688E+03  0.00000000000E+00 0. -1.
<scales pt_clust_3="76.89214" pt_clust_4="41.38481" pt_clust_5="164.12449" pt_clust_6="41.38481"></scales>
<clustering>
<clus scale="   41.385">  4  6 -1 -1</clus>
<clus scale="   76.892">  1  3  2 -1</clus>
<clus scale="  164.124">  2  5  1 -1</clus>
<clus scale="   76.892">  1  3  2 -1</clus>
</clustering>
</event>
<event>
 6    0  0.1361919E+003  0.7512818E+02  0.7546771E-02  0.1343475E+00
         21   -1    0    0  505  501  0.00000000000E+00  0.00000000000E+00  0.66001665438E+02  0.66001665438E+02  0.00000000000E+00 0. -1.
         21   -1    0    0  504  502 -0.00000000000E+00 -0.00000000000E+00 -0.13017504126E+04  0.13017504126E+04  0.00000000000E+00 0.  1.
         21    1    1    2  503  502  0.36803627623E+02 -0.24618547908E+02 -0.58497752167E+03  0.58665090196E+03  0.00000000000E+00 0.  1.
         21    1    1    2  504  501  0.33639472273E+02 -0.60739946376E+00 -0.10864629896E+03  0.11373654341E+03  0.00000000000E+00 0.  1.
         21    1    1    2  505  506  0.47407400948E+02 -0.54834868198E+02  0.29494416471E+02  0.78257555788E+02  0.00000000000E+00 0. -1.
         21    1    1    2  506  503 -0.11785050084E+03  0.80060815569E+02 -0.57161934300E+03  0.58910707688E+03  0.00000000000E+00 0.  1.
<scales pt_clust_3="58.88745" pt_clust_4="33.64496" pt_clust_5="14000.00000" pt_clust_6="75.12818"></scales>
<clustering>
<clus scale="   33.645">  2  4  1 -1</clus>
<clus scale="   58.887">  2  3  1 -1</clus>
<clus scale="   75.128">  2  6  1 -1</clus>
<clus scale="   75.128">  1  3  2 -1</clus>
</clustering>
</event>
<event>
 6    0  0.1361919E+003  0.1308181E+03  0.7546771E-02  0.1226247E+00
         21   -1    0    0  505  501  0.00000000000E+00  0.00000000000E+00  0.84547110617E+02  0.84547110617E+02  0.00000000000E+00 0. -1.
         21   -1    0    0  506  502 -0.00000000000E+00 -0.00000000000E+00 -0.79370520351E+03  0.79370520351E+03  0.00000000000E+00 0.  1.
         21    1    1    2  503  502  0.16117083397E+02  0.39277095397E+02 -0.22790663558E+03  0.23182727437E+03  0.00000000000E+00 0.  1.
         21    1    1    2  504  503  0.11922278246E+03  0.14642196867E+02 -0.31628728909E+02  0.12421289095E+03  0.00000000000E+00 0. -1.
         21    1    1    2  505  504 -0.86005948563E+00  0.35499699809E+02  0.84530531739E+01  0.36502362893E+02  0.00000000000E+00 0. -1.
         21    1    1    2  506  501 -0.13447980637E+03 -0.89418992073E+02 -0.45807578158E+03  0.48570978592E+03  0.00000000000E+00 0.  1.
<scales pt_clust_3="43.48455" pt_clust_4="130.81805" pt_clust_5="35.51012" pt_clust_6="14000.00000"></scales>
<clustering>
<clus scale="   35.510">  1  5  2 -1</clus>
<clus scale="   43.485">  2  3  1 -1</clus>
<clus scale="  130.818">  1  4  2 -1</clus>
<clus scale="   35.510">  1  3  2 -1</clus>
</clustering>
</event>
<event>
 6    0  0.1361919E+003  0.9878076E+02  0.7546771E-02  0.1282881E+00
         21   -1    0    0  505  501  0.00000000000E+00  0.00000000000E+00  0.10329449963E+04  0.10329449963E+04  0.00000000000E+00 0. -1.
         21   -1    0    0  506  502 -0.00000000000E+00 -0.00000000000E+00 -0.48498105509E+03  0.48498105509E+03  0.00000000000E+00 0.  1.
         21    1    1    2  503  502  0.10205324664E+02  0.29260808760E+02 -0.14028770337E+03  0.14366970208E+03  0.00000000000E+00 0.  1.
         21    1    1    2  504  503 -0.88511789854E+02  0.41339093294E+02  0.48000141737E+02  0.10884517070E+03  0.00000000000E+00 0.  1.
         21    1    1    2  505  504 -0.99619801656E+01 -0.74414451195E+02  0.94506961447E+03  0.94804711264E+03  0.00000000000E+00 0. -1.
         21    1    1    2  506  501  0.88268445356E+02  0.38145491410E+01 -0.30481811159E+03  0.31736406600E+03  0.00000000000E+00 0.  1.
<scales pt_clust_3="30.98941" pt_clust_4="14000.00000" pt_clust_5="74.94655" pt_clust_6="98.78076"></scales>
<clustering>
<clus scale="   30.989">  2  3  1 -1</clus>
<clus scale="   74.947">  1  5  2 -1</clus>
<clus scale="   98.781">  2  6  1 -1</clus>
<clus scale="   74.947">  1  3  2 -1</clus>
</clustering>
</event>
<event>
 6    0  0.1361919E+003  0.1027394E+03  0.7546771E-02  0.1274639E+00
         21   -1    0    0  504  501  0.00000000000E+00  0.00000000000E+00  0.33920644615E+02  0.33920644615E+02  0.00000000000E+00 0.  1.
         21   -1    0    0  503  502 -0.00000000000E+00 -0.00000000000E+00 -0.14098530639E+04  0.14098530639E+04  0.00000000000E+00 0. -1.
         21    1    1    2  503  506  0.48952566335E+02 -0.46694749585E+02 -0.24652809218E+03  0.25564204197E+03  0.00000000000E+00 0.  1.
         21    1    1    2  504  505 -0.34016378112E+02  0.97774743732E+01 -0.95684284468E+02  0.10202056302E+03  0.00000000000E+00 0.  1.
         21    1    1    2  505  502 -0.26742614142E+02 -0.65503831697E+02 -0.95180581774E+03  0.95443189074E+03  0.00000000000E+00 0. -1.
         21    1    1    2  506  501  0.11806425920E+02  0.10242110691E+03 -0.81914224847E+02  0.13167921273E+03  0.00000000000E+00 0.  1.
<scales pt_clust_3="63.05117" pt_clust_4="35.39369" pt_clust_5="102.73938" pt_clust_6="14000.00000"></scales>
<clustering>
<clus scale="   35.394">  1  4  2 -1</clus>
<clus scale="   63.051">  2  3  1 -1</clus>
<clus scale="  102.739">  2  5  1 -1</clus>
<clus scale="   35.394">  1  3  2 -1</clus>
</clustering>
</event>
<event>
 6    0  0.1361919E+003  0.8947461E+02  0.7546771E-02  0.1304129E+00
         21   -1    0    0  503  501  0.00000000000E+00  0.00000000000E+00  0.23444068821E+03  0.23444068821E+03  0.00000000000E+00 0. -1.
         21   -1    0    0  505  502 -0.00000000000E+00 -0.00000000000E+00 -0.63284377988E+03  0.63284377988E+03  0.00000000000E+00 0. -1.
         21    1    1    2  503  504 -0.16416074469E+02  0.40957263316E+02  0.19085358921E+03  0.19588792059E+03  0.00000000000E+00 0. -1.
         21    1    1    2  504  506  0.54557980836E+02  0.52418165775E+02 -0.38813925684E+02  0.85033865037E+02  0.00000000000E+00 0.  1.
         21    1    1    2  505  501  0.45770199312E+02 -0.31009053654E+02 -0.39611772544E+03  0.39995715391E+03  0.00000000000E+00 0. -1.
         21    1    1    2  506  502 -0.83912105679E+02 -0.62366375437E+02 -0.15432502976E+03  0.18640552855E+03  0.00000000000E+00 0.  1.
<scales pt_clust_3="44.12465" pt_clust_4="89.47461" pt_clust_5="53.58875" pt_clust_6="14000.00000"></scales>
<clustering>
<clus scale="   44.125">  1  3  2 -1</clus>
<clus scale="   53.589">  2  5  1 -1</clus>
<clus scale="   89.475">  1  4  2 -1</clus>
<clus scale="   44.125">  1  3  2 -1</clus>
</clustering>
</event>
<event>
 6    0  0.1361919E+003  0.1455752E+03  0.7546771E-02  0.1206018E+00
         21   -1    0    0  504  501  0.00000000000E+00  0.00000000000E+00  0.42010224076E+03  0.42010224076E+03  0.00000000000E+00 0. -1.
         21   -1    0    0  506  502 -0.00000000000E+00 -0.00000000000E+00 -0.10457335200E+03  0.10457335200E+03  0.00000000000E+00 0. -1.
         21    1    1    2  503  501  0.19521344521E+02  0.64141215950E+02  0.10806654722E+03  0.12717530068E+03  0.00000000000E+00 0.  1.
         21    1    1    2  504  505 -0.41928171763E+02 -0.13349865172E+03  0.13195158647E+03  0.19233065998E+03  0.00000000000E+00 0. -1.
         21    1    1    2  505  502 -0.44141493689E+02  0.25105645714E+02 -0.40044434233E+02  0.64670871533E+02  0.00000000000E+00 0. -1.
         21    1    1    2  506  503  0.66548320932E+02  0.44251790055E+02  0.11555518931E+03  0.14049876055E+03  0.00000000000E+00 0.  1.
<scales pt_clust_3="45.66545" pt_clust_4="136.77156" pt_clust_5="50.78154" pt_clust_6="45.66545"></scales>
<clustering>
<clus scale="   45.665">  3  6 -1 -1</clus>
<clus scale="   50.782">  2  5  1 -1</clus>
<clus scale="  136.772">  2  4  1 -1</clus>
<clus scale="  145.575">  1  3  2 -1</clus>
</clustering>
</event>
<event>
 6    0  0.1361919E+003  0.1530907E+03  0.7546771E-02  0.1196726E+00
         21   -1    0    0  506  501  0.00000000000E+00  0.00000000000E+00  0.50963822702E+03  0.50963822702E+03  0.00000000000E+00 0.  1.
         21   -1    0    0  504  502 -0.00000000000E+00 -0.00000000000E+00 -0.30612280935E+03  0.30612280935E+03  0.00000000000E+00 0. -1.
         21    1    1    2  503  502 -0.41143031819E+02  0.28662358133E+02 -0.10181982780E+03  0.11349694786E+03  0.00000000000E+00 0.  1.
         21    1    1    2  504  501 -0.85359137656E+01  0.30943880784E+02  0.11371764558E+03  0.11816128172E+03  0.00000000000E+00 0. -1.
         21    1    1    2  505  503 -0.61490737451E+01  0.10059231488E+03 -0.16263213097E+03  0.19132651396E+03  0.00000000000E+00 0. -1.
         21    1    1    2  506  505  0.55828019330E+02 -0.16019855380E+03  0.35424973087E+03  0.39277629282E+03  0.00000000000E+00 0.  1.
<scales pt_clust_3="44.73984" pt_clust_4="32.09962" pt_clust_5="44.73984" pt_clust_6="139.27511"></scales>
<clustering>
<clus scale="   32.100">  1  4  2 -1</clus>
<clus scale="   44.740">  3  5 -1 -1</clus>
<clus scale="  139.275">  1  6  2 -1</clus>
<clus scale="   32.100">  1  3  2 -1</clus>
</clustering>
</event>
<event>
 6    0  0.1361919E+003  0.2190064E+03  0.7546771E-02  0.1134626E+00
         21   -1    0    0  502  501  0.00000000000E+00  0.00000000000E+00  0.84500974270E+03  0.84500974270E+03  0.00000000000E+00 0.  1.
         21   -1    0    0  504  502 -0.00000000000E+00 -0.00000000000E+00 -0.69126594830E+03  0.69126594830E+03  0.00000000000E+00 0.  1.
         21    1    1    2  503  506  0.20761828859E+03  0.50234486181E+02 -0.18360178814E+03  0.28167086106E+03  0.00000000000E+00 0.  1.
         21    1    1    2  504  503  0.18128438013E+02 -0.33296684215E+02 -0.43707631534E+03  0.43871746589E+03  0.00000000000E+00 0.  1.
         21    1    1    2  505  501 -0.79668577127E+02  0.22336899075E+02  0.13114363827E+03  0.15506344862E+03  0.00000000000E+00 0.  1.
         21    1    1    2  506  505 -0.14607814947E+03 -0.39274701042E+02  0.64327825962E+03  0.66082391543E+03  0.00000000000E+00 0.  1.
<scales pt_clust_3="219.00644" pt_clust_4="37.91186" pt_clust_5="81.50250" pt_clust_6="14000.00000"></scales>
<clustering>
<clus scale="   37.912">  2  4  1 -1</clus>
<clus scale="   81.503">  1  5  2 -1</clus>
<clus scale="  219.006">  2  3  1 -1</clus>
<clus scale="   81.503">  1  3  2 -1</clus>
</clustering>
</event>
<event>
 6    0  0.1361919E+003  0.1042779E+03  0.7546771E-02  0.1271549E+00
         21   -1    0    0  506  501  0.00000000000E+00  0.00000000000E+00  0.11778731590E+04  0.11778731590E+04  0.00000000000E+00 0.  1.
         21   -1    0    0  504  502 -0.00000000000E+00 -0.00000000000E+00 -0.14587766330E+03  0.14587766330E+03  0.00000000000E+00 0.  1.
         21    1    1    2  503  502  0.47355783070E+02  0.95302456348E+02 -0.10745547353E+03  0.15123427908E+03  0.00000000000E+00 0.  1.
         21    1    1    2  504  505 -0.67098617501E+02  0.84769365789E+01  0.30159734146E+03  0.30908742986E+03  0.00000000000E+00 0.  1.
         21    1    1    2  505  501 -0.52195862551E+02 -0.34583270872E+02  0.94226991347E+02  0.11313326916E+03  0.00000000000E+00 0.  1.
         21    1    1    2  506  503  0.71938696982E+02 -0.69196122055E+02  0.74362663646E+03  0.75029584424E+03  0.00000000000E+00 0.  1.
<scales pt_clust_3="104.27787" pt_clust_4="81.94662" pt_clust_5="62.61318" pt_clust_6="14000.00000"></scales>
<clustering>
<clus scale="   62.613">  1  5  2 -1</clus>
<clus scale="   81.947">  1  4  2 -1</clus>
<clus scale="  104.278">  2  3  1 -1</clus>
<clus scale="   62.613">  1  3  2 -1</clus>
</clustering>
</event>
<event>
 6    0  0.1361919E+003  0.9983427E+02  0.7546771E-02  0.1280645E+00
         21   -1    0    0  505  501  0.00000000000E+00  0.00000000000E+00  0.16793180793E+04  0.16793180793E+04  0.00000000000E+00 0.  1.
         21   -1    0    0  504  502 -0.00000000000E+00 -0.00000000000E+00 -0.24447678889E+02  0.24447678889E+02  0.00000000000E+00 0.  1.
         21    1    1    2  503  501 -0.11873738990E+03 -0.18204480449E+02  0.10676956809E+04  0.10744319606E+04  0.00000000000E+00 0.  1.
         21    1    1    2  504  506  0.23117074563E+02  0.61355367225E+02  0.78663854929E+02  0.10240547981E+03  0.00000000000E+00 0.  1.
         21    1    1    2  505  502  0.62543018596E+02 -0.48810918506E+02  0.46631227080E+03  0.47301296900E+03  0.00000000000E+00 0.  1.
         21    1    1    2  506  503  0.33077296739E+02  0.56600317304E+01  0.42198593703E+02  0.53915348736E+02  0.00000000000E+00 0. -1.
<scales pt_clust_3="88.24559" pt_clust_4="33.40011" pt_clust_5="79.33558" pt_clust_6="33.40011"></scales>
<clustering>
<clus scale="   33.400">  4  6 -1 -1</clus>
<clus scale="   79.336">  1  5  2 -1</clus>
<clus scale="   88.246">  1  3  2 -1</clus>
<clus scale="   79.336">  1  3  2 -1</clus>
</clustering>
</event>
<event>
 6    0  0.1361919E+003  0.7955004E+02  0.7546771E-02  0.1330333E+00
         21   -1    0    0  504  501  0.00000000000E+00  0.00000000000E+00  0.15697077254E+04  0.15697077254E+04  0.00000000000E+00 0. -1.
         21   -1    0    0  506  502 -0.00000000000E+00 -0.00000000000E+00 -0.15326623158E+03  0.15326623158E+03  0.00000000000E+00 0. -1.
         21    1    1    2  503  501 -0.84480615734E+02 -0.28335525696E+02  0.11379971188E+04  0.11414803190E+04  0.00000000000E+00 0. -1.
         21    1    1    2  504  505  0.67002864439E+02 -0.49078087260E+02  0.40709311431E+03  0.41547905629E+03  0.00000000000E+00 0. -1.
         21    1    1    2  505  502 -0.47602421583E+01  0.44943819915E+02 -0.11629161460E+03  0.12476516533E+03  0.00000000000E+00 0. -1.
         21    1    1    2  506  503  0.22237993453E+02  0.32469793040E+02 -0.12357124693E+02  0.41249416281E+02  0.00000000000E+00 0.  1.
<scales pt_clust_3="79.55004" pt_clust_4="14000.00000" pt_clust_5="77.64894" pt_clust_6="39.35500"></scales>
<clustering>
<clus scale="   39.355">  2  6  1 -1</clus>
<clus scale="   77.649">  2  5  1 -1</clus>
<clus scale="   79.550">  1  3  2 -1</clus>
<clus scale="   79.550">  1  3  2 -1</clus>
</clustering>
</event>
<event>
 6    0  0.1361919E+003  0.1071700E+03  0.7546771E-02  0.1265902E+00
         21   -1    0    0  504  501  0.00000000000E+00  0.00000000000E+00  0.68158285627E+03  0.68158285627E+03  0.00000000000E+00 0.  1.
         21   -1    0    0  503  502 -0.00000000000E+00 -0.00000000000E+00 -0.64490431576E+03  0.64490431576E+03  0.00000000000E+00 0. -1.
         21    1    1    2  503  506 -0.29728094043E+02 -0.23200721255E+02 -0.38470522308E+03  0.38654901591E+03  0.00000000000E+00 0. -1.
         21    1    1    2  504  502 -0.73803489388E+02  0.50656362186E+02  0.64088781551E+03  0.64710912074E+03  0.00000000000E+00 0.  1.
         21    1    1    2  505  501  0.58389726033E+01  0.32697154281E+02  0.11299656874E+02  0.35083895801E+02  0.00000000000E+00 0.  1.
         21    1    1    2  506  505  0.97692610828E+02 -0.60152795211E+02 -0.23080370879E+03  0.25774513958E+03  0.00000000000E+00 0. -1.
<scales pt_clust_3="37.67525" pt_clust_4="14000.00000" pt_clust_5="33.21442" pt_clust_6="107.17001"></scales>
<clustering>
<clus scale="   33.214">  1  5  2 -1</clus>
<clus scale="   37.675">  2  3  1 -1</clus>
<clus scale="  107.170">  2  6  1 -1</clus>
<clus scale="   33.214">  1  3  2 -1</clus>
</clustering>
</event>
<event>
 6    0  0.1361919E+003  0.1666405E+03  0.7546771E-02  0.1181397E+00
         21   -1    0    0  505  501  0.00000000000E+00  0.00000000000E+00  0.50789996974E+03  0.50789996974E+03  0.00000000000E+00 0.  1.
         21   -1    0    0  503  502 -0.00000000000E+00 -0.00000000000E+00 -0.22907407071E+03  0.22907407071E+03  0.00000000000E+00 0.  1.
         21    1    1    2  503  506 -0.13507399199E+02 -0.60016504205E+02 -0.16690791670E+02  0.63741769169E+02  0.00000000000E+00 0.  1.
         21    1    1    2  504  502  0.13445943197E+03  0.14432767861E+03 -0.68994951427E+02  0.20897397201E+03  0.00000000000E+00 0.  1.
         21    1    1    2  505  504 -0.11148329553E+03 -0.16729037208E+03  0.28633755922E+03  0.34986253242E+03  0.00000000000E+00 0.  1.
         21    1    1    2  506  501 -0.94687372336E+01  0.82979197678E+02  0.78174082910E+02  0.11439576684E+03  0.00000000000E+00 0. -1.
<scales pt_clust_3="61.51773" pt_clust_4="14000.00000" pt_clust_5="166.64049" pt_clust_6="77.97039"></scales>
<clustering>
<clus scale="   61.518">  2  3  1 -1</clus>
<clus scale="   77.970">  1  6  2 -1</clus>
<clus scale="  166.640">  1  5  2 -1</clus>
<clus scale="   77.970">  1  3  2 -1</clus>
</clustering>
</event>
<event>
 6    0  0.1361919E+003  0.8991186E+02  0.7546771E-02  0.1303065E+00
         21   -1    0    0  505  501  0.00000000000E+00  0.00000000000E+00  0.39127224936E+03  0.39127224936E+03  0.00000000000E+00 0. -1.
         21   -1    0    0  504  502 -0.00000000000E+00 -0.00000000000E+00 -0.12722445871E+03  0.12722445871E+03  0.00000000000E+00 0. -1.
         21    1    1    2  503  501  0.99657749787E+02 -0.43213108038E+02  0.11964749284E+03  0.16160000725E+03  0.00000000000E+00 0. -1.
         21    1    1    2  504  503 -0.42781629691E+02  0.97936815331E+02 -0.22885925460E+02  0.10929617203E+03  0.00000000000E+00 0. -1.
         21    1    1    2  505  506 -0.43090897544E+02 -0.14011608500E+02  0.19250501775E+03  0.19776585268E+03  0.00000000000E+00 0. -1.
         21    1    1    2  506  502 -0.13785222552E+02 -0.40712098793E+02 -0.25218794483E+02  0.49834676121E+02  0.00000000000E+00 0. -1.
<scales pt_clust_3="89.91186" pt_clust_4="14000.00000" pt_clust_5="46.07641" pt_clust_6="42.98264"></scales>
<clustering>
<clus scale="   42.983">  2  6  1 -1</clus>
<clus scale="   46.076">  1  5  2 -1</clus>
<clus scale="   89.912">  1  3  2 -1</clus>
<clus scale="   46.076">  1  3  2 -1</clus>
</clustering>
</event>
<event>
 6    0  0.1361919E+003  0.2886343E+03  0.7546771E-02  0.1091064E+00
         21   -1    0    0  502  501  0.00000000000E+00  0.00000000000E+00  0.14689055788E+04  0.14689055788E+04  0.00000000000E+00 0. -1.
         21   -1    0    0  504  502 -0.00000000000E+00 -0.00000000000E+00 -0.13491537175E+04  0.13491537175E+04  0.00000000000E+00 0.  1.
         21    1    1    2  503  506  0.23262588445E+03 -0.16610369591E+03 -0.18658522512E+02  0.28644961227E+03  0.00000000000E+00 0.  1.
         21    1    1    2  504  503  0.25754635969E+02  0.45684452854E+02 -0.11646452245E+04  0.11658254026E+04  0.00000000000E+00 0.  1.
         21    1    1    2  505  501  0.17261987723E+02 -0.28046441820E+02  0.53990814077E+03  0.54091161901E+03  0.00000000000E+00 0. -1.
         21    1    1    2  506  505 -0.27564250814E+03  0.14846568488E+03  0.76314746753E+03  0.82487266234E+03  0.00000000000E+00 0. -1.
<scales pt_clust_3="14000.00000" pt_clust_4="52.43384" pt_clust_5="32.93295" pt_clust_6="288.63429"></scales>
<clustering>
<clus scale="   32.933">  1  5  2 -1</clus>
<clus scale="   52.434">  2  4  1 -1</clus>
<clus scale="  288.634">  1  6  2 -1</clus>
<clus scale="   32.933">  1  3  2 -1</clus>
</clustering>
</event>
<event>
 6    0  0.1361919E+003  0.1270324E+03  0.7546771E-02  0.1231927E+00
         21   -1    0    0  503  501  0.00000000000E+00  0.00000000000E+00  0.76635302455E+02  0.76635302455E+02  0.00000000000E+00 0.  1.
         21   -1    0    0  504  502 -0.00000000000E+00 -0.00000000000E+00 -0.33931070390E+03  0.33931070390E+03  0.00000000000E+00 0.  1.
         21    1    1    2  503  505  0.46731354004E+02  0.96787538036E+01  0.17507510345E+01  0.47755238994E+02  0.00000000000E+00 0.  1.
         21    1    1    2  504  501 -0.10829150324E+03  0.79330511765E+02 -0.11247806140E+03  0.17513336081E+03  0.00000000000E+00 0.  1.
         21    1    1    2  505  506  0.16387035031E+01 -0.33094157434E+02 -0.23247713243E+02  0.40476718944E+02  0.00000000000E+00 0.  1.
         21    1    1    2  506  502  0.59921445735E+02 -0.55915108135E+02 -0.12870037784E+03  0.15258068761E+03  0.00000000000E+00 0.  1.
<scales pt_clust_3="47.72314" pt_clust_4="116.90424" pt_clust_5="31.60465" pt_clust_6="31.60465"></scales>
<clustering>
<clus scale="   31.605">  5  6 -1 -1</clus>
<clus scale="   47.723">  1  3  2 -1</clus>
<clus scale="  116.904">  1  4  2 -1</clus>
<clus scale="   47.723">  1  3  2 -1</clus>
</clustering>
</event>
<event>
 6    0  0.1361919E+003  0.1038079E+03  0.7546771E-02  0.1272486E+00
         21   -1    0    0  503  501  0.00000000000E+00  0.00000000000E+00  0.16754169172E+04  0.16754169172E+04  0.00000000000E+00 0.  1.
         21   -1    0    0  505  502 -0.00000000000E+00 -0.00000000000E+00 -0.18573117895E+03  0.18573117895E+03  0.00000000000E+00 0.  1.
         21    1    1    2  503  504 -0.27919389416E+02 -0.89440974552E+02  0.35594738933E+03  0.36807298760E+03  0.00000000000E+00 0.  1.
         21    1    1    2  504  502  0.77001249514E+01  0.10409379773E+03 -0.14774688438E+03  0.18089762988E+03  0.00000000000E+00 0.  1.
         21    1    1    2  505  506  0.39457473192E+02 -0.57635815934E+02  0.67025086235E+02  0.96804657191E+02  0.00000000000E+00 0.  1.
         21    1    1    2  506  501 -0.19238208727E+02  0.42982992752E+02  0.12144601471E+04  0.12153728214E+04  0.00000000000E+00 0.  1.
<scales pt_clust_3="103.80790" pt_clust_4="14000.00000" pt_clust_5="61.62415" pt_clust_6="47.09189"></scales>
<clustering>
<clus scale="   47.092">  1  6  2 -1</clus>
<clus scale="   61.624">  1  5  2 -1</clus>
<clus scale="  103.808">  1  3  2 -1</clus>
<clus scale="   47.092">  1  3  2 -1</clus>
</clustering>
</event>
<event>
 6    0  0.1361919E+003  0.8526431E+02  0.7546771E-02  0.1314743E+00
         21   -1    0    0  506  501  0.00000000000E+00  0.00000000000E+00  0.32229762626E+02  0.32229762626E+02  0.00000000000E+00 0.  1.
         21   -1    0    0  504  502 -0.00000000000E+00 -0.00000000000E+00 -0.29363505312E+04  0.29363505312E+04  0.00000000000E+00 0.  1.
         21    1    1    2  503  501  0.25113851399E+02 -0.44071137703E+02  0.21640921854E+01  0.50770601784E+02  0.00000000000E+00 0.  1.
         21    1    1    2  504  505 -0.58397992580E+02  0.74460107882E+02 -0.21749483845E+04  0.21770059964E+04  0.00000000000E+00 0.  1.
         21    1    1    2  505  503  0.12360033979E+02 -0.69305026316E+02 -0.53142282489E+03  0.53606545862E+03  0.00000000000E+00 0.  1.
         21    1    1    2  506  502  0.20924107202E+02  0.38916056137E+02 -0.19991365142E+03  0.20473823705E+03  0.00000000000E+00 0.  1.
<scales pt_clust_3="44.71387" pt_clust_4="14000.00000" pt_clust_5="85.26431" pt_clust_6="44.18459"></scales>
<clustering>
<clus scale="   44.185">  1  6  2 -1</clus>
<clus scale="   44.714">  1  3  2 -1</clus>
<clus scale="   85.264">  1  5  2 -1</clus>
<clus scale="   44.185">  1  3  2 -1</clus>
</clustering>
</event>
<event>
 6    0  0.1361919E+003  0.9970925E+02  0.7546771E-02  0.1280909E+00
         21   -1    0    0  504  501  0.00000000000E+00  0.00000000000E+00  0.10884029888E+04  0.10884029888E+04  0.00000000000E+00 0.  1.
         21   -1    0    0  503  502 -0.00000000000E+00 -0.00000000000E+00 -0.43219749691E+03  0.43219749691E+03  0.00000000000E+00 0.  1.
         21    1    1    2  503  506  0.44039348197E+02  0.14852390441E+02 -0.27977692165E+03  0.28361097224E+03  0.00000000000E+00 0.  1.
         21    1    1    2  504  502  0.33572756572E+02  0.76854842820E+02 -0.82403582625E+02  0.11757613396E+03  0.00000000000E+00 0.  1.
         21    1    1    2  505  501  0.12153015296E+02 -0.32976240142E+02  0.10112977871E+04  0.10119082678E+04  0.00000000000E+00 0.  1.
         21    1    1    2  506  505 -0.89765120065E+02 -0.58730993118E+02  0.70882090347E+01  0.10750511169E+03  0.00000000000E+00 0. -1.
<scales pt_clust_3="46.50909" pt_clust_4="99.70925" pt_clust_5="35.14439" pt_clust_6="14000.00000"></scales>
<clustering>
<clus scale="   35.144">  1  5  2 -1</clus>
<clus scale="   46.509">  2  3  1 -1</clus>
<clus scale="   99.709">  2  4  1 -1</clus>
<clus scale="   35.144">  1  3  2 -1</clus>
</clustering>
</event>
<event>
 6    0  0.1361919E+003  0.8681414E+02  0.7546771E-02  0.1310755E+00
         21   -1    0    0  504  501  0.00000000000E+00  0.00000000000E+00  0.31226810786E+03  0.31226810786E+03  0.00000000000E+00 0. -1.
         21   -1    0    0  505  502 -0.00000000000E+00 -0.00000000000E+00 -0.30338728439E+03  0.30338728439E+03  0.00000000000E+00 0. -1.
         21    1    1    2  503  502 -0.80614746686E+02  0.60678572235E+02 -0.22978962433E+03  0.25096592988E+03  0.00000000000E+00 0. -1.
         21    1    1    2  504  503 -0.27923862415E+02 -0.36753668306E+02  0.23599044742E+03  0.24046219141E+03  0.00000000000E+00 0. -1.
         21    1    1    2  505  506  0.65613391354E+02 -0.84742064140E+00 -0.22502693395E+02  0.69370068882E+02  0.00000000000E+00 0. -1.
         21    1    1    2  506  501  0.42925217747E+02 -0.23077483287E+02  0.25182693771E+02  0.54857202071E+02  0.00000000000E+00 0. -1.
<scales pt_clust_3="14000.00000" pt_clust_4="46.15814" pt_clust_5="86.81414" pt_clust_6="51.17359"></scales>
<clustering>
<clus scale="   46.158">  1  4  2 -1</clus>
<clus scale="   51.174">  1  6  2 -1</clus>
<clus scale="   86.814">  1  5  2 -1</clus>
<clus scale="   46.158">  1  3  2 -1</clus>
</clustering>
</event>
<event>
 6    0  0.1361919E+003  0.1300619E+03  0.7546771E-02  0.1227364E+00
         21   -1    0    0  503  501  0.00000000000E+00  0.00000000000E+00  0.11719092055E+04  0.11719092055E+04  0.00000000000E+00 0.  1.
         21   -1    0    0  504  502 -0.00000000000E+00 -0.00000000000E+00 -0.67296629962E+03  0.67296629962E+03  0.00000000000E+00 0.  1.
         21    1    1    2  503  506 -0.12028545894E+03  0.44365847218E+02  0.10242103382E+04  0.10322033409E+04  0.00000000000E+00 0.  1.
         21    1    1    2  504  505  0.70528853526E+01 -0.36081755318E+02 -0.26113424430E+02  0.45094868822E+02  0.00000000000E+00 0.  1.
         21    1    1    2  505  501  0.15008478830E+03 -0.26631314948E+02  0.89980588269E+02  0.17700614927E+03  0.00000000000E+00 0.  1.
         21    1    1    2  506  502 -0.36852214706E+02  0.18347223048E+02 -0.58913459614E+03  0.59057114617E+03  0.00000000000E+00 0.  1.
<scales pt_clust_3="130.06192" pt_clust_4="36.76461" pt_clust_5="14000.00000" pt_clust_6="33.85204"></scales>
<clustering>
<clus scale="   36.765">  2  4  1 -1</clus>
<clus scale="   33.852">  2  6  1 -1</clus>
<clus scale="  130.062">  1  3  2 -1</clus>
<clus scale="  130.062">  1  3  2 -1</clus>
</clustering>
</event>
<event>
 6    0  0.1361919E+003  0.9933992E+02  0.7546771E-02  0.1281690E+00
         21   -1    0    0  506  501  0.00000000000E+00  0.00000000000E+00  0.11906360243E+02  0.11906360243E+02  0.00000000000E+00 0. -1.
         21   -1    0    0  503  502 -0.00000000000E+00 -0.00000000000E+00 -0.20807221919E+04  0.20807221919E+04  0.00000000000E+00 0. -1.
         21    1    1    2  503  501 -0.91911145227E+01 -0.53957994837E+02 -0.82471073771E+03  0.82652510106E+03  0.00000000000E+00 0. -1.
         21    1    1    2  504  502  0.19116546818E+02  0.43497067543E+02 -0.42502988021E+03  0.42767725719E+03  0.00000000000E+00 0. -1.
         21    1    1    2  505  504  0.71098564466E+02  0.16579931346E+02 -0.60603316050E+03  0.61041468823E+03  0.00000000000E+00 0. -1.
         21    1    1    2  506  505 -0.81023996761E+02 -0.61190040523E+01 -0.21304205325E+03  0.22801150566E+03  0.00000000000E+00 0. -1.
<scales pt_clust_3="54.73520" pt_clust_4="42.65633" pt_clust_5="42.65633" pt_clust_6="84.09839"></scales>
<clustering>
<clus scale="   42.656">  4  5 -1 -1</clus>
<clus scale="   54.735">  2  3  1 -1</clus>
<clus scale="   84.098">  1  6  2 -1</clus>
<clus scale="   84.098">  1  3  2 -1</clus>
</clustering>
</event>
<event>
 6    0  0.1361919E+003  0.7666626E+02  0.7546771E-02  0.1338787E+00
         21   -1    0    0  506  501  0.00000000000E+00  0.00000000000E+00  0.37769301473E+03  0.37769301473E+03  0.00000000000E+00 0. -1.
         21   -1    0    0  503  502 -0.00000000000E+00 -0.00000000000E+00 -0.77160652479E+03  0.77160652479E+03  0.00000000000E+00 0.  1.
         21    1    1    2  503  501 -0.34483038101E+02  0.38391074067E+02  0.21284784439E+02  0.55821111896E+02  0.00000000000E+00 0. -1.
         21    1    1    2  504  502  0.20785198849E+02 -0.38798732604E+02 -0.54397721241E+03  0.54575504924E+03  0.00000000000E+00 0.  1.
         21    1    1    2  505  504 -0.39700713914E+02  0.65911100278E+02 -0.19682521749E+03  0.21133051380E+03  0.00000000000E+00 0.  1.
         21    1    1    2  506  505  0.53398553166E+02 -0.65503441741E+02  0.32560413539E+03  0.33639286459E+03  0.00000000000E+00 0. -1.
<scales pt_clust_3="14000.00000" pt_clust_4="44.01552" pt_clust_5="37.43130" pt_clust_6="76.66626"></scales>
<clustering>
<clus scale="   44.016">  2  4  1 -1</clus>
<clus scale="   37.431">  2  5  1 -1</clus>
<clus scale="   76.666">  1  6  2 -1</clus>
<clus scale="   76.666">  1  3  2 -1</clus>
</clustering>
</event>
<event>
 6    0  0.1361919E+003  0.6790363E+02  0.7546771E-02  0.1367370E+00
         21   -1    0    0  503  501  0.00000000000E+00  0.00000000000E+00  0.32515362302E+03  0.32515362302E+03  0.00000000000E+00 0.  1.
         21   -1    0    0  506  502 -0.00000000000E+00 -0.00000000000E+00 -0.14162244762E+03  0.14162244762E+03  0.00000000000E+00 0.  1.
         21    1    1    2  503  504 -0.62263305090E+01 -0.96423628330E+02  0.20488654463E+03  0.22652765716E+03  0.00000000000E+00 0.  1.
         21    1    1    2  504  502 -0.75004651102E+02  0.23073383421E+02 -0.63711496586E+02  0.10108033195E+03  0.00000000000E+00 0.  1.
         21    1    1    2  505  501  0.42637137665E+02  0.38831961166E+02  0.61177960906E+02  0.84074904798E+02  0.00000000000E+00 0.  1.
         21    1    1    2  506  505  0.38593843946E+02  0.34518283743E+02 -0.18821833545E+02  0.55093176720E+02  0.00000000000E+00 0.  1.
<scales pt_clust_3="14000.00000" pt_clust_4="67.90363" pt_clust_5="63.33357" pt_clust_6="51.77834"></scales>
<clustering>
<clus scale="   51.778">  2  6  1 -1</clus>
<clus scale="   63.334">  1  5  2 -1</clus>
<clus scale="   67.904">  2  4  1 -1</clus>
<clus scale="   63.334">  1  3  2 -1</clus>
</clustering>
</event>
<event>
 6    0  0.1361919E+003  0.1181224E+03  0.7546771E-02  0.1246227E+00
         21   -1    0    0  503  501  0.00000000000E+00  0.00000000000E+00  0.18218005518E+03  0.18218005518E+03  0.00000000000E+00 0.  1.
         21   -1    0    0  504  502 -0.00000000000E+00 -0.00000000000E+00 -0.49195765766E+03  0.49195765766E+03  0.00000000000E+00 0. -1.
         21    1    1    2  503  505 -0.12047083480E+03  0.14470296739E+02  0.13981081413E+03  0.18512070460E+03  0.00000000000E+00 0.  1.
         21    1    1    2  504  501  0.61372668437E+02 -0.53739200189E+02 -0.34938748254E+03  0.35878422349E+03  0.00000000000E+00 0. -1.
         21    1    1    2  505  506  0.38484324448E+02  0.13540390143E+02 -0.24310883929E+02  0.47491098859E+02  0.00000000000E+00 0. -1.
         21    1    1    2  506  502  0.20613841913E+02  0.25728513306E+02 -0.75890050138E+02  0.82741685899E+02  0.00000000000E+00 0. -1.
<scales pt_clust_3="14000.00000" pt_clust_4="118.12238" pt_clust_5="43.25820" pt_clust_6="32.96797"></scales>
<clustering>
<clus scale="   32.968">  2  6  1 -1</clus>
<clus scale="   43.258">  2  5  1 -1</clus>
<clus scale="  118.122">  2  4  1 -1</clus>
<clus scale="  118.122">  1  3  2 -1</clus>
</clustering>
</event>
<event>
 6    0  0.1361919E+003  0.1206761E+03  0.7546771E-02  0.1241986E+00
         21   -1    0    0  503  501  0.00000000000E+00  0.00000000000E+00  0.96052939656E+02  0.96052939656E+02  0.00000000000E+00 0. -1.
         21   -1    0    0  506  502 -0.00000000000E+00 -0.00000000000E+00 -0.15965973780E+04  0.15965973780E+04  0.00000000000E+00 0.  1.
         21    1    1    2  503  504 -0.99964806229E+02 -0.68896043406E+02  0.10901228672E+02  0.12189529961E+03  0.00000000000E+00 0. -1.
         21    1    1    2  504  502  0.97981862072E+01  0.14108119500E+03 -0.15842643147E+03  0.21236487992E+03  0.00000000000E+00 0. -1.
         21    1    1    2  505  501  0.40641877374E+02 -0.53560913152E+02 -0.81960954561E+03  0.82236265775E+03  0.00000000000E+00 0.  1.
         21    1    1    2  506  505  0.49524742648E+02 -0.18624238440E+02 -0.53340968998E+03  0.53602748041E+03  0.00000000000E+00 0.  1.
<scales pt_clust_3="14000.00000" pt_clust_4="116.55948" pt_clust_5="120.67608" pt_clust_6="31.01064"></scales>
<clustering>
<clus scale="   31.011">  5  6 -1 -1</clus>
<clus scale="  120.676">  2  5  1 -1</clus>
<clus scale="  116.559">  2  4  1 -1</clus>
<clus scale="  120.676">  1  3  2 -1</clus>
</clustering>
</event>
<event>
 6    0  0.1361919E+003  0.1805303E+03  0.7546771E-02  0.1167291E+00
         21   -1    0    0  505  501  0.00000000000E+00  0.00000000000E+00  0.25660450865E+03  0.25660450865E+03  0.00000000000E+00 0. -1.
         21   -1    0    0  504  502 -0.00000000000E+00 -0.00000000000E+00 -0.19809771101E+04  0.19809771101E+04  0.00000000000E+00 0.  1.
         21    1    1    2  503  502 -0.16737286097E+03 -0.81187484049E+02 -0.52374054732E+03  0.55579604449E+03  0.00000000000E+00 0. -1.
         21    1    1    2  504  506  0.18431400244E+03 -0.66840290995E+02 -0.13732625182E+04  0.13871875215E+04  0.00000000000E+00 0.  1.
         21    1    1    2  505  503  0.48085483004E+02 -0.83519601491E+01  0.98086374959E+02  0.10955777410E+03  0.00000000000E+00 0. -1.
         21    1    1    2  506  501 -0.65026624476E+02  0.15637973519E+03  0.74544089152E+02  0.18504027858E+03  0.00000000000E+00 0. -1.
<scales pt_clust_3="14000.00000" pt_clust_4="180.53027" pt_clust_5="48.80542" pt_clust_6="151.22963"></scales>
<clustering>
<clus scale="   48.805">  1  5  2 -1</clus>
<clus scale="  151.230">  1  6  2 -1</clus>
<clus scale="  180.530">  2  4  1 -1</clus>
<clus scale="   48.805">  1  3  2 -1</clus>
</clustering>
</event>
<event>
 6    0  0.1361919E+003  0.2029937E+03  0.7546771E-02  0.1147238E+00
         21   -1    0    0  504  501  0.00000000000E+00  0.00000000000E+00  0.91119889617E+02  0.91119889617E+02  0.00000000000E+00 0.  1.
         21   -1    0    0  503  502 -0.00000000000E+00 -0.00000000000E+00 -0.15783128089E+04  0.15783128089E+04  0.00000000000E+00 0. -1.
         21    1    1    2  503  506  0.62517998288E+02  0.29333262349E+02 -0.22566016063E+03  0.23599035676E+03  0.00000000000E+00 0. -1.
         21    1    1    2  504  502 -0.56963598721E+02  0.34828061380E+01 -0.12320241523E+03  0.13577855735E+03  0.00000000000E+00 0. -1.
         21    1    1    2  505  501 -0.30454333560E+01  0.19900434305E+03 -0.80440269786E+02  0.21466867545E+03  0.00000000000E+00 0.  1.
         21    1    1    2  506  505 -0.25089662116E+01 -0.23182041153E+03 -0.10578900736E+04  0.10829951089E+04  0.00000000000E+00 0. -1.
<scales pt_clust_3="61.23245" pt_clust_4="57.06997" pt_clust_5="202.99372" pt_clust_6="14000.00000"></scales>
<clustering>
<clus scale="   57.070">  2  4  1 -1</clus>
<clus scale="   61.232">  2  3  1 -1</clus>
<clus scale="  202.994">  1  5  2 -1</clus>
<clus scale="  202.994">  1  3  2 -1</clus>
</clustering>
</event>
<event>
 6    0  0.1361919E+003  0.1108069E+03  0.7546771E-02  0.1259083E+00
         21   -1    0    0  504  501  0.00000000000E+00  0.00000000000E+00  0.43394598317E+02  0.43394598317E+02  0.00000000000E+00 0. -1.
         21   -1    0    0  505  502 -0.00000000000E+00 -0.00000000000E+00 -0.19867672294E+04  0.19867672294E+04  0.00000000000E+00 0. -1.
         21    1    1    2  503  506  0.19695404602E+02 -0.78266020444E+02 -0.28016227164E+03  0.29155510177E+03  0.00000000000E+00 0. -1.
         21    1    1    2  504  503  0.64547614088E+02 -0.59811593380E+02 -0.11564618545E+03  0.14531985892E+03  0.00000000000E+00 0. -1.
         21    1    1    2  505  501 -0.11532903959E+03  0.11262986621E+03 -0.26559179326E+03  0.31068516988E+03  0.00000000000E+00 0. -1.
         21    1    1    2  506  502  0.31086020904E+02  0.25447747611E+02 -0.12819723807E+04  0.12826016971E+04  0.00000000000E+00 0. -1.
<scales pt_clust_3="75.23121" pt_clust_4="14000.00000" pt_clust_5="110.80688" pt_clust_6="40.17373"></scales>
<clustering>
<clus scale="   40.174">  2  6  1 -1</clus>
<clus scale="   75.231">  2  3  1 -1</clus>
<clus scale="  110.807">  2  5  1 -1</clus>
<clus scale="  110.807">  1  3  2 -1</clus>
</clustering>
</event>
<event>
 6    0  0.1361919E+003  0.7909821E+02  0.7546771E-02  0.1331630E+00
         21   -1    0    0  506  501  0.00000000000E+00  0.00000000000E+00  0.11326251908E+04  0.11326251908E+04  0.00000000000E+00 0.  1.
         21   -1    0    0  505  502 -0.00000000000E+00 -0.00000000000E+00 -0.58498165854E+02  0.58498165854E+02  0.00000000000E+00 0. -1.
         21    1    1    2  503  502 -0.27045216882E+02 -0.49995052424E+02  0.29742915956E+03  0.30281191188E+03  0.00000000000E+00 0.  1.
         21    1    1    2  504  501  0.73738120046E+02  0.69627507839E+02  0.18079319248E+03  0.20729563102E+03  0.00000000000E+00 0. -1.
         21    1    1    2  505  504 -0.53537008948E+02  0.22626099690E+02 -0.21617296597E+02  0.62011766839E+02  0.00000000000E+00 0. -1.
         21    1    1    2  506  503  0.68441057840E+01 -0.42258555105E+02  0.61752196951E+03  0.61900404691E+03  0.00000000000E+00 0.  1.
<scales pt_clust_3="14000.00000" pt_clust_4="79.09821" pt_clust_5="57.24607" pt_clust_6="42.80920"></scales>
<clustering>
<clus scale="   42.809">  1  6  2 -1</clus>
<clus scale="   57.246">  2  5  1 -1</clus>
<clus scale="   79.098">  2  4  1 -1</clus>
<clus scale="   42.809">  1  3  2 -1</clus>
</clustering>
</event>
<event>
 6    0  0.1361919E+003  0.1403535E+03  0.7546771E-02  0.1212854E+00
         21   -1    0    0  506  501  0.00000000000E+00  0.00000000000E+00  0.99572562310E+03  0.99572562310E+03  0.00000000000E+00 0. -1.
         21   -1    0    0  503  502 -0.00000000000E+00 -0.00000000000E+00 -0.24855331876E+04  0.24855331876E+04  0.00000000000E+00 0. -1.
         21    1    1    2  503  504 -0.10820115312E+03 -0.93684208398E+02 -0.23217345887E+04  0.23261418101E+04  0.00000000000E+00 0. -1.
         21    1    1    2  504  501 -0.19990312514E+01  0.41192449725E+02  0.45469858684E+03  0.45656502156E+03  0.00000000000E+00 0. -1.
         21    1    1    2  505  502 -0.30738759549E+02  0.72526850764E+02 -0.14079046883E+03  0.16132876846E+03  0.00000000000E+00 0.  1.
         21    1    1    2  506  505  0.14093894392E+03 -0.20035092091E+02  0.51801890617E+03  0.53722321057E+03  0.00000000000E+00 0. -1.
<scales pt_clust_3="140.35352" pt_clust_4="41.24093" pt_clust_5="79.50834" pt_clust_6="14000.00000"></scales>
<clustering>
<clus scale="   41.241">  1  4  2 -1</clus>
<clus scale="   79.508">  2  5  1 -1</clus>
<clus scale="  140.354">  2  3  1 -1</clus>
<clus scale="   41.241">  1  3  2 -1</clus>
</clustering>
</event>
<event>
 6    0  0.1361919E+003  0.7145280E+02  0.7546771E-02  0.1355221E+00
         21   -1    0    0  506  501  0.00000000000E+00  0.00000000000E+00  0.48812593588E+03  0.48812593588E+03  0.00000000000E+00 0.  1.
         21   -1    0    0  504  502 -0.00000000000E+00 -0.00000000000E+00 -0.48575467363E+03  0.48575467363E+03  0.00000000000E+00 0.  1.
         21    1    1    2  503  501 -0.12170862668E+03  0.17698798830E+02  0.14539387222E+03  0.19043533119E+03  0.00000000000E+00 0.  1.
         21    1    1    2  504  503 -0.42354875837E+01  0.33516728513E+02 -0.31925864456E+03  0.32104110729E+03  0.00000000000E+00 0.  1.
         21    1    1    2  505  502  0.62381300915E+02 -0.44658847010E+02 -0.12925117706E+03  0.15030537612E+03  0.00000000000E+00 0.  1.
         21    1    1    2  506  505  0.63562813350E+02 -0.65566803338E+01  0.30548721165E+03  0.31209879490E+03  0.00000000000E+00 0.  1.
<scales pt_clust_3="14000.00000" pt_clust_4="33.78329" pt_clust_5="61.04208" pt_clust_6="71.45280"></scales>
<clustering>
<clus scale="   33.783">  2  4  1 -1</clus>
<clus scale="   61.042">  2  5  1 -1</clus>
<clus scale="   71.453">  1  6  2 -1</clus>
<clus scale="   71.453">  1  3  2 -1</clus>
</clustering>
</event>
<event>
 6    0  0.1361919E+003  0.2628933E+03  0.7546771E-02  0.1105417E+00
         21   -1    0    0  504  501  0.00000000000E+00  0.00000000000E+00  0.28634520069E+03  0.28634520069E+03  0.00000000000E+00 0. -1.
         21   -1    0    0  505  502 -0.00000000000E+00 -0.00000000000E+00 -0.16290706709E+04  0.16290706709E+04  0.00000000000E+00 0. -1.
         21    1    1    2  503  506 -0.22456841017E+03 -0.65439889800E+02 -0.37471028202E+02  0.23689117328E+03  0.00000000000E+00 0. -1.
         21    1    1    2  504  503  0.26100838799E+03  0.12211169771E+03  0.70433247201E+02  0.29664370485E+03  0.00000000000E+00 0. -1.
         21    1    1    2  505  501 -0.43192256150E+02  0.21107298220E+02 -0.35973724506E+03  0.36293522082E+03  0.00000000000E+00 0.  1.
         21    1    1    2  506  502  0.67522783324E+01 -0.77779106126E+02 -0.10159504441E+04  0.10189457726E+04  0.00000000000E+00 0. -1.
<scales pt_clust_3="262.89325" pt_clust_4="14000.00000" pt_clust_5="48.07379" pt_clust_6="66.93650"></scales>
<clustering>
<clus scale="   48.074">  2  5  1 -1</clus>
<clus scale="   66.937">  2  6  1 -1</clus>
<clus scale="  262.893">  2  3  1 -1</clus>
<clus scale="  262.893">  1  3  2 -1</clus>
</clustering>
</event>
<event>
 6    0  0.1361919E+003  0.9252357E+02  0.7546771E-02  0.1296853E+00
         21   -1    0    0  506  501  0.00000000000E+00  0.00000000000E+00  0.17367174895E+02  0.17367174895E+02  0.00000000000E+00 0.  1.
         21   -1    0    0  505  502 -0.00000000000E+00 -0.00000000000E+00 -0.16310289343E+04  0.16310289343E+04  0.00000000000E+00 0.  1.
         21    1    1    2  503  501 -0.25859219046E+02  0.19127505171E+02 -0.79838698822E+02  0.86074261504E+02  0.00000000000E+00 0.  1.
         21    1    1    2  504  502  0.46865209153E+02 -0.67189437533E+02 -0.15886968720E+03  0.17874659677E+03  0.00000000000E+00 0.  1.
         21    1    1    2  505  503 -0.30132031039E+02  0.90211099982E+02 -0.11839352545E+04  0.11877494133E+04  0.00000000000E+00 0.  1.
         21    1    1    2  506  504  0.91260409325E+01 -0.42149167619E+02 -0.19101811879E+03  0.19582583757E+03  0.00000000000E+00 0.  1.
<scales pt_clust_3="32.16459" pt_clust_4="14000.00000" pt_clust_5="92.52357" pt_clust_6="39.21280"></scales>
<clustering>
<clus scale="   32.165">  1  3  2 -1</clus>
<clus scale="   39.213">  1  6  2 -1</clus>
<clus scale="   92.524">  2  5  1 -1</clus>
<clus scale="   32.165">  1  3  2 -1</clus>
</clustering>
</event>
<event>
 6    0  0.1361919E+003  0.9307723E+02  0.7546771E-02  0.1295566E+00
         21   -1    0    0  504  501  0.00000000000E+00  0.00000000000E+00  0.72963038250E+02  0.72963038250E+02  0.00000000000E+00 0. -1.
         21   -1    0    0  505  502 -0.00000000000E+00 -0.00000000000E+00 -0.81685892909E+03  0.81685892909E+03  0.00000000000E+00 0. -1.
         21    1    1    2  503  501 -0.36444669689E+02  0.13314361922E+02  0.13953764368E+02  0.41233405416E+02  0.00000000000E+00 0.  1.
         21    1    1    2  504  506  0.10926935882E+03 -0.84829238758E+02 -0.12483471564E+03  0.18633169015E+03  0.00000000000E+00 0. -1.
         21    1    1    2  505  503 -0.55489703823E+02  0.39496309904E+01 -0.55429250359E+03  0.55707709193E+03  0.00000000000E+00 0. -1.
         21    1    1    2  506  502 -0.17334985308E+02  0.67565245845E+02 -0.78722435971E+02  0.10517977984E+03  0.00000000000E+00 0. -1.
<scales pt_clust_3="38.80060" pt_clust_4="93.07723" pt_clust_5="56.77564" pt_clust_6="14000.00000"></scales>
<clustering>
<clus scale="   38.801">  1  3  2 -1</clus>
<clus scale="   56.776">  2  5  1 -1</clus>
<clus scale="   93.077">  1  4  2 -1</clus>
<clus scale="   38.801">  1  3  2 -1</clus>
</clustering>
</event>
<event>
 6    0  0.1361919E+003  0.1227117E+03  0.7546771E-02  0.1238689E+00
         21   -1    0    0  503  501  0.00000000000E+00  0.00000000000E+00  0.52968866654E+03  0.52968866654E+03  0.00000000000E+00 0. -1.
         21   -1    0    0  504  502 -0.00000000000E+00 -0.00000000000E+00 -0.17235719139E+03  0.17235719139E+03  0.00000000000E+00 0.  1.
         21    1    1    2  503  506  0.90025640069E+02 -0.96579833113E+02  0.56653640754E+02  0.14367294472E+03  0.00000000000E+00 0. -1.
         21    1    1    2  504  505 -0.96203345441E+02  0.97746223691E+02  0.56636075722E+02  0.14838144423E+03  0.00000000000E+00 0.  1.
         21    1    1    2  505  501  0.51136974663E+02 -0.49919492290E+02  0.30900207592E+03  0.31715805021E+03  0.00000000000E+00 0. -1.
         21    1    1    2  506  502 -0.44959269291E+02  0.48753101711E+02 -0.64960317248E+02  0.92833418759E+02  0.00000000000E+00 0.  1.
<scales pt_clust_3="14000.00000" pt_clust_4="122.71175" pt_clust_5="68.57334" pt_clust_6="66.31893"></scales>
<clustering>
<clus scale="   66.319">  2  6  1 -1</clus>
<clus scale="   68.573">  1  5  2 -1</clus>
<clus scale="  122.712">  1  4  2 -1</clus>
<clus scale="   68.573">  1  3  2 -1</clus>
</clustering>
</event>
<event>
 6    0  0.1361919E+003  0.8074322E+02  0.7546771E-02  0.1326955E+00
         21   -1    0    0  506  501  0.00000000000E+00  0.00000000000E+00  0.21786413568E+03  0.21786413568E+03  0.00000000000E+00 0.  1.
         21   -1    0    0  504  502 -0.00000000000E+00 -0.00000000000E+00 -0.58527724213E+03  0.58527724213E+03  0.00000000000E+00 0.  1.
         21    1    1    2  503  505  0.46232536686E+02  0.31418282118E+02  0.51345539658E+02  0.75900726890E+02  0.00000000000E+00 0.  1.
         21    1    1    2  504  503  0.37950265067E+02 -0.34023718399E+02 -0.42876106941E+03  0.43177990999E+03  0.00000000000E+00 0.  1.
         21    1    1    2  505  501  0.35068178499E+02 -0.62130155360E+01  0.12474953672E+03  0.12973367187E+03  0.00000000000E+00 0.  1.
         21    1    1    2  506  502 -0.11925098025E+03  0.88184518173E+01 -0.11474711342E+03  0.16572706906E+03  0.00000000000E+00 0.  1.
<scales pt_clust_3="14000.00000" pt_clust_4="51.47391" pt_clust_5="35.61430" pt_clust_6="80.74322"></scales>
<clustering>
<clus scale="   35.614">  1  5  2 -1</clus>
<clus scale="   51.474">  2  4  1 -1</clus>
<clus scale="   80.743">  2  6  1 -1</clus>
<clus scale="   35.614">  1  3  2 -1</clus>
</clustering>
</event>
<event>
 6    0  0.1361919E+003  0.1554900E+03  0.7546771E-02  0.1193885E+00
         21   -1    0    0  505  501  0.00000000000E+00  0.00000000000E+00  0.14537030521E+04  0.14537030521E+04  0.00000000000E+00 0.  1.
         21   -1    0    0  504  502 -0.00000000000E+00 -0.00000000000E+00 -0.38257268931E+02  0.38257268931E+02  0.00000000000E+00 0.  1.
         21    1    1    2  503  502  0.47517117521E+02  0.98311038485E+01  0.49385333681E+02  0.69234660706E+02  0.00000000000E+00 0.  1.
         21    1    1    2  504  501 -0.35977535259E+02 -0.28718781193E+02  0.22010040478E+03  0.22486293519E+03  0.00000000000E+00 0.  1.
         21    1    1    2  505  506  0.13885835884E+03 -0.68730793833E+02  0.74191980841E+03  0.75792517305E+03  0.00000000000E+00 0.  1.
         21    1    1    2  506  503 -0.15039794111E+03  0.87618471178E+02  0.40404023627E+03  0.43993755205E+03  0.00000000000E+00 0.  1.
<scales pt_clust_3="46.55684" pt_clust_4="46.03424" pt_clust_5="14000.00000" pt_clust_6="155.49003"></scales>
<clustering>
<clus scale="   46.034">  1  4  2 -1</clus>
<clus scale="   46.557">  2  3  1 -1</clus>
<clus scale="  155.490">  2  6  1 -1</clus>
<clus scale="   46.034">  1  3  2 -1</clus>
</clustering>
</event>
<event>
 6    0  0.1361919E+003  0.1522730E+03  0.7546771E-02  0.1197707E+00
         21   -1    0    0  506  501  0.00000000000E+00  0.00000000000E+00  0.22741980835E+04  0.22741980835E+04  0.00000000000E+00 0.  1.
         21   -1    0    0  505  502 -0.00000000000E+00 -0.00000000000E+00 -0.86883690629E+02  0.86883690629E+02  0.00000000000E+00 0.  1.
         21    1    1    2  503  502 -0.99391817995E+02 -0.35042068849E+02  0.36151399995E+03  0.37656214923E+03  0.00000000000E+00 0. -1.
         21    1    1    2  504  503 -0.24018882879E+02 -0.47059280238E+02  0.94958233461E+02  0.10866714634E+03  0.00000000000E+00 0.  1.
         21    1    1    2  505  501  0.13337403058E+03  0.16812498718E+02 -0.90251310110E+01  0.13473212362E+03  0.00000000000E+00 0.  1.
         21    1    1    2  506  504 -0.99633297054E+01  0.65288850368E+02  0.17398672905E+04  0.17411203550E+04  0.00000000000E+00 0.  1.
<scales pt_clust_3="50.61298" pt_clust_4="50.61298" pt_clust_5="134.45199" pt_clust_6="66.04470"></scales>
<clustering>
<clus scale="   50.613">  3  4 -1 -1</clus>
<clus scale="   66.045">  1  6  2 -1</clus>
<clus scale="  134.452">  2  5  1 -1</clus>
<clus scale="   66.045">  1  3  2 -1</clus>
</clustering>
</event>
<event>
 6    0  0.1361919E+003  0.1224476E+03  0.7546771E-02  0.1239113E+00
         21   -1    0    0  504  501  0.00000000000E+00  0.00000000000E+00  0.32059974098E+03  0.32059974098E+03  0.00000000000E+00 0. -1.
         21   -1    0    0  506  502 -0.00000000000E+00 -0.00000000000E+00 -0.19692211034E+03  0.19692211034E+03  0.00000000000E+00 0. -1.
         21    1    1    2  503  501 -0.10535766197E+03  0.64621954036E+02  0.98550698906E+02  0.15807743082E+03  0.00000000000E+00 0. -1.
         21    1    1    2  504  502 -0.37461158229E+02 -0.37796992071E+02  0.96149578753E+02  0.10989400566E+03  0.00000000000E+00 0. -1.
         21    1    1    2  505  503  0.12510633614E+03 -0.19385078044E+01  0.42381575666E+02  0.13210431905E+03  0.00000000000E+00 0. -1.
         21    1    1    2  506  505  0.17712484063E+02 -0.24886454161E+02 -0.11340422269E+03  0.11744609579E+03  0.00000000000E+00 0. -1.
<scales pt_clust_3="14000.00000" pt_clust_4="53.71517" pt_clust_5="122.44764" pt_clust_6="30.54616"></scales>
<clustering>
<clus scale="   30.546">  2  6  1 -1</clus>
<clus scale="   53.715">  1  4  2 -1</clus>
<clus scale="  122.448">  2  5  1 -1</clus>
<clus scale="   53.715">  1  3  2 -1</clus>
</clustering>
</event>
<event>
 6    0  0.1361919E+003  0.1704092E+03  0.7546771E-02  0.1177422E+00
         21   -1    0    0  505  501  0.00000000000E+00  0.00000000000E+00  0.15199599633E+03  0.15199599633E+03  0.00000000000E+00 0. -1.
         21   -1    0    0  504  502 -0.00000000000E+00 -0.00000000000E+00 -0.83102459680E+03  0.83102459680E+03  0.00000000000E+00 0. -1.
         21    1    1    2  503  501 -0.18672482917E+01  0.33674395699E+02  0.80750022212E+02  0.87510100155E+02  0.00000000000E+00 0. -1.
         21    1    1    2  504  503 -0.15426968342E+03 -0.95497242870E+02 -0.63841337257E+03  0.66369457802E+03  0.00000000000E+00 0. -1.
         21    1    1    2  505  506  0.83421369867E+01  0.46351335652E+02 -0.16355622725E+02  0.49855230026E+02  0.00000000000E+00 0. -1.
         21    1    1    2  506  502  0.14779479473E+03  0.15471511518E+02 -0.10500962739E+03  0.18196068494E+03  0.00000000000E+00 0. -1.
<scales pt_clust_3="33.72613" pt_clust_4="14000.00000" pt_clust_5="55.22766" pt_clust_6="170.40921"></scales>
<clustering>
<clus scale="   33.726">  1  3  2 -1</clus>
<clus scale="   55.228">  1  5  2 -1</clus>
<clus scale="  170.409">  1  6  2 -1</clus>
<clus scale="   33.726">  1  3  2 -1</clus>
</clustering>
</event>
<event>
 6    0  0.1361919E+003  0.6904996E+02  0.7546771E-02  0.1363354E+00
         21   -1    0    0  505  501  0.00000000000E+00  0.00000000000E+00  0.65688875710E+02  0.65688875710E+02  0.00000000000E+00 0. -1.
         21   -1    0    0  504  502 -0.00000000000E+00 -0.00000000000E+00 -0.64049388822E+03  0.64049388822E+03  0.00000000000E+00 0. -1.
         21    1    1    2  503  502  0.52788219367E+02  0.22940157934E+02 -0.47802731820E+03  0.48147997248E+03  0.00000000000E+00 0. -1.
         21    1    1    2  504  506 -0.75592037023E+02  0.36973075782E+02 -0.74036453975E+02  0.11208283058E+03  0.00000000000E+00 0. -1.
         21    1    1    2  505  503  0.57335033974E+02 -0.37907253553E+02 -0.84511384458E+01  0.69250904209E+02  0.00000000000E+00 0. -1.
         21    1    1    2  506  501 -0.34531216319E+02 -0.22005980163E+02 -0.14290101883E+02  0.43369056656E+02  0.00000000000E+00 0. -1.
<scales pt_clust_3="56.19285" pt_clust_4="69.04996" pt_clust_5="14000.00000" pt_clust_6="40.94714"></scales>
<clustering>
<clus scale="   40.947">  1  6  2 -1</clus>
<clus scale="   56.193">  2  3  1 -1</clus>
<clus scale="   69.050">  2  4  1 -1</clus>
<clus scale="   40.947">  1  3  2 -1</clus>
</clustering>
</event>
<event>
 6    0  0.1361919E+003  0.7925447E+02  0.7546771E-02  0.1331181E+00
         21   -1    0    0  505  501  0.00000000000E+00  0.00000000000E+00  0.21784542074E+03  0.21784542074E+03  0.00000000000E+00 0.  1.
         21   -1    0    0  504  502 -0.00000000000E+00 -0.00000000000E+00 -0.82240506344E+03  0.82240506344E+03  0.00000000000E+00 0.  1.
         21    1    1    2  503  501  0.53751699582E+02  0.29502106115E+02 -0.12459282144E+03  0.13886320833E+03  0.00000000000E+00 0. -1.
         21    1    1    2  504  503 -0.57528518601E+02  0.52418974418E+02 -0.58616692798E+03  0.59131120976E+03  0.00000000000E+00 0.  1.
         21    1    1    2  505  506 -0.54352864320E+02 -0.10350713177E+02  0.18230812453E+03  0.19051935175E+03  0.00000000000E+00 0.  1.
         21    1    1    2  506  502  0.58129683339E+02 -0.71570367356E+02 -0.76108017808E+02  0.11955671434E+03  0.00000000000E+00 0.  1.
<scales pt_clust_3="49.52082" pt_clust_4="14000.00000" pt_clust_5="55.32966" pt_clust_6="79.25447"></scales>
<clustering>
<clus scale="   55.330">  1  5  2 -1</clus>
<clus scale="   49.521">  1  3  2 -1</clus>
<clus scale="   79.254">  1  6  2 -1</clus>
<clus scale="   55.330">  1  3  2 -1</clus>
</clustering>
</event>
<event>
 6    0  0.1361919E+003  0.1084546E+03  0.7546771E-02  0.1263459E+00
         21   -1    0    0  505  501  0.00000000000E+00  0.00000000000E+00  0.18433224087E+04  0.18433224087E+04  0.00000000000E+00 0.  1.
         21   -1    0    0  504  502 -0.00000000000E+00 -0.00000000000E+00 -0.58462902890E+03  0.58462902890E+03  0.00000000000E+00 0. -1.
         21    1    1    2  503  501  0.34542738013E+02  0.12432970182E+02  0.20617585397E+03  0.20941886796E+03  0.00000000000E+00 0.  1.
         21    1    1    2  504  506 -0.91213587924E+02 -0.52217253122E+02 -0.49889680967E+03  0.50984761139E+03  0.00000000000E+00 0. -1.
         21    1    1    2  505  502 -0.11912623148E+03 -0.21018704111E+01  0.15207181046E+04  0.15253783237E+04  0.00000000000E+00 0.  1.
         21    1    1    2  506  503  0.17579708139E+03  0.41886153352E+02  0.30696230906E+02  0.18330663453E+03  0.00000000000E+00 0.  1.
<scales pt_clust_3="36.71212" pt_clust_4="108.45459" pt_clust_5="87.47382" pt_clust_6="14000.00000"></scales>
<clustering>
<clus scale="   36.712">  1  3  2 -1</clus>
<clus scale="   87.474">  1  5  2 -1</clus>
<clus scale="  108.455">  2  4  1 -1</clus>
<clus scale="   36.712">  1  3  2 -1</clus>
</clustering>
</event>
<event>
 6    0  0.1361919E+003  0.8556804E+02  0.7546771E-02  0.1313954E+00
         21   -1    0    0  503  501  0.00000000000E+00  0.00000000000E+00  0.14867151187E+03  0.14867151187E+03  0.00000000000E+00 0. -1.
         21   -1    0    0  506  502 -0.00000000000E+00 -0.00000000000E+00 -0.29358828105E+03  0.29358828105E+03  0.00000000000E+00 0.  1.
         21    1    1    2  503  505 -0.79458939053E+02  0.11072007472E+02  0.75929284864E+02  0.11046071087E+03  0.00000000000E+00 0. -1.
         21    1    1    2  504  501 -0.59827834410E+01  0.62571831801E+02  0.26691300624E+01  0.62913846552E+02  0.00000000000E+00 0.  1.
         21    1    1    2  505  502  0.28181168791E+02 -0.70678746150E+02 -0.64163521674E+02  0.99532009652E+02  0.00000000000E+00 0.  1.
         21    1    1    2  506  504  0.57260553703E+02 -0.29650931227E+01 -0.15935166243E+03  0.16935322585E+03  0.00000000000E+00 0.  1.
<scales pt_clust_3="14000.00000" pt_clust_4="62.31730" pt_clust_5="85.56804" pt_clust_6="57.33727"></scales>
<clustering>
<clus scale="   57.337">  2  6  1 -1</clus>
<clus scale="   62.317">  1  4  2 -1</clus>
<clus scale="   85.568">  2  5  1 -1</clus>
<clus scale="   62.317">  1  3  2 -1</clus>
</clustering>
</event>
<event>
 6    0  0.1361919E+003  0.1524501E+03  0.7546771E-02  0.1197494E+00
         21   -1    0    0  505  501  0.00000000000E+00  0.00000000000E+00  0.36019689422E+03  0.36019689422E+03  0.00000000000E+00 0.  1.
         21   -1    0    0  506  502 -0.00000000000E+00 -0.00000000000E+00 -0.99799889958E+03  0.99799889958E+03  0.00000000000E+00 0.  1.
         21    1    1    2  503  501 -0.15079730082E+03 -0.98469728796E+02  0.22279912529E+03  0.28648833075E+03  0.00000000000E+00 0.  1.
         21    1    1    2  504  502  0.12437108523E+03  0.33314735636E+02 -0.23452812670E+03  0.26754715596E+03  0.00000000000E+00 0.  1.
         21    1    1    2  505  504  0.46702271229E+02 -0.18051219177E+02  0.79203911054E+02  0.93702765049E+02  0.00000000000E+00 0.  1.
         21    1    1    2  506  503 -0.20276055635E+02  0.83206212338E+02 -0.70527691500E+03  0.71045754204E+03  0.00000000000E+00 0.  1.
<scales pt_clust_3="152.45010" pt_clust_4="14000.00000" pt_clust_5="50.06944" pt_clust_6="85.37137"></scales>
<clustering>
<clus scale="   50.069">  1  5  2 -1</clus>
<clus scale="   85.371">  2  6  1 -1</clus>
<clus scale="  152.450">  1  3  2 -1</clus>
<clus scale="   50.069">  1  3  2 -1</clus>
</clustering>
</event>
<event>
 6    0  0.1361919E+003  0.7614543E+02  0.7546771E-02  0.1340360E+00
         21   -1    0    0  504  501  0.00000000000E+00  0.00000000000E+00  0.13076855640E+04  0.13076855640E+04  0.00000000000E+00 0. -1.
         21   -1    0    0  506  502 -0.00000000000E+00 -0.00000000000E+00 -0.23134154567E+03  0.23134154567E+03  0.00000000000E+00 0. -1.
         21    1    1    2  503  501  0.22986360557E+02  0.57394212080E+02  0.19222055669E+03  0.20191882221E+03  0.00000000000E+00 0. -1.
         21    1    1    2  504  505 -0.62239755967E+02 -0.66564100639E+02  0.10746184720E+04  0.10784755107E+04  0.00000000000E+00 0. -1.
         21    1    1    2  505  502  0.87652571842E+02  0.54454088500E+02 -0.83367561264E+02  0.13265885336E+03  0.00000000000E+00 0. -1.
         21    1    1    2  506  503 -0.48399176432E+02 -0.45284199940E+02 -0.10712744907E+03  0.12597392345E+03  0.00000000000E+00 0. -1.
<scales pt_clust_3="61.82611" pt_clust_4="41.42655" pt_clust_5="76.14543" pt_clust_6="14000.00000"></scales>
<clustering>
<clus scale="   61.826">  1  3  2 -1</clus>
<clus scale="   41.427">  1  4  2 -1</clus>
<clus scale="   76.145">  1  5  2 -1</clus>
<clus scale="   61.826">  1  3  2 -1</clus>
</clustering>
</event>
<event>
 6    0  0.1361919E+003  0.1338019E+03  0.7546771E-02  0.1221921E+00
         21   -1    0    0  505  501  0.00000000000E+00  0.00000000000E+00  0.11204291868E+04  0.11204291868E+04  0.00000000000E+00 0. -1.
         21   -1    0    0  501  502 -0.00000000000E+00 -0.00000000000E+00 -0.39535698771E+03  0.39535698771E+03  0.00000000000E+00 0.  1.
         21    1    1    2  503  506 -0.14953138176E+03 -0.59481740271E+02  0.44824129111E+02  0.16705362644E+03  0.00000000000E+00 0.  1.
         21    1    1    2  504  502 -0.20138119157E+02  0.31659314991E+02 -0.25293390754E+03  0.25570181394E+03  0.00000000000E+00 0.  1.
         21    1    1    2  505  503  0.39355160891E+02  0.96926037827E+02  0.93958324634E+03  0.94538889474E+03  0.00000000000E+00 0. -1.
         21    1    1    2  506  504  0.13031434002E+03 -0.69103612547E+02 -0.64012688690E+01  0.14764183935E+03  0.00000000000E+00 0.  1.
<scales pt_clust_3="14000.00000" pt_clust_4="37.52141" pt_clust_5="105.06081" pt_clust_6="133.80186"></scales>
<clustering>
<clus scale="   37.521">  2  4  1 -1</clus>
<clus scale="  105.061">  1  5  2 -1</clus>
<clus scale="  133.802">  2  6  1 -1</clus>
<clus scale="  105.061">  1  3  2 -1</clus>
</clustering>
</event>
<event>
 6    0  0.1361919E+003  0.1842118E+03  0.7546771E-02  0.1163788E+00
         21   -1    0    0  502  501  0.00000000000E+00  0.00000000000E+00  0.30125158689E+03  0.30125158689E+03  0.00000000000E+00 0.  1.
         21   -1    0    0  503  502 -0.00000000000E+00 -0.00000000000E+00 -0.42570223787E+03  0.42570223787E+03  0.00000000000E+00 0.  1.
         21    1    1    2  503  504 -0.12288536863E+01 -0.84651402915E+02 -0.66267841286E+02  0.10751184533E+03  0.00000000000E+00 0.  1.
         21    1    1    2  504  505  0.49893075332E+02 -0.58196895814E+02 -0.95606431509E+02  0.12254300222E+03  0.00000000000E+00 0.  1.
         21    1    1    2  505  506  0.35987726303E+02  0.28407932960E+03 -0.76837939381E+02  0.29647976471E+03  0.00000000000E+00 0.  1.
         21    1    1    2  506  501 -0.84651947949E+02 -0.14123103087E+03  0.11426156120E+03  0.20041921251E+03  0.00000000000E+00 0.  1.
<scales pt_clust_3="163.46851" pt_clust_4="59.79003" pt_clust_5="184.21181" pt_clust_6="14000.00000"></scales>
<clustering>
<clus scale="   59.790">  3  4 -1 -1</clus>
<clus scale="  163.469">  2  3  1 -1</clus>
<clus scale="  184.212">  2  5  1 -1</clus>
<clus scale="  184.212">  1  3  2 -1</clus>
</clustering>
</event>
<event>
 6    0  0.1361919E+003  0.1362827E+03  0.7546771E-02  0.1218420E+00
         21   -1    0    0  504  501  0.00000000000E+00  0.00000000000E+00  0.21758602143E+03  0.21758602143E+03  0.00000000000E+00 0.  1.
         21   -1    0    0  503  502 -0.00000000000E+00 -0.00000000000E+00 -0.18608858148E+03  0.18608858148E+03  0.00000000000E+00 0.  1.
         21    1    1    2  503  505  0.50610939299E+02  0.12462506860E+03  0.44116332513E+02  0.14155961887E+03  0.00000000000E+00 0.  1.
         21    1    1    2  504  506 -0.17046650093E+02 -0.13550876970E+03 -0.16697647427E+01  0.13658697984E+03  0.00000000000E+00 0.  1.
         21    1    1    2  505  501 -0.14298316487E+01  0.30246425284E+02  0.47347693950E+02  0.56202266711E+02  0.00000000000E+00 0. -1.
         21    1    1    2  506  502 -0.32134457558E+02 -0.19362724184E+02 -0.58296821774E+02  0.69325737495E+02  0.00000000000E+00 0.  1.
<scales pt_clust_3="14000.00000" pt_clust_4="136.28268" pt_clust_5="30.28020" pt_clust_6="37.04935"></scales>
<clustering>
<clus scale="   30.280">  1  5  2 -1</clus>
<clus scale="   37.049">  2  6  1 -1</clus>
<clus scale="  136.283">  1  4  2 -1</clus>
<clus scale="   30.280">  1  3  2 -1</clus>
</clustering>
</event>
<event>
 6    0  0.1361919E+003  0.7942623E+02  0.7546771E-02  0.1330688E+00
         21   -1    0    0  506  501  0.00000000000E+00  0.00000000000E+00  0.44248443565E+03  0.44248443565E+03  0.00000000000E+00 0.  1.
         21   -1    0    0  501  502 -0.00000000000E+00 -0.00000000000E+00 -0.18384695924E+03  0.18384695924E+03  0.00000000000E+00 0.  1.
         21    1    1    2  503  504 -0.39384123282E+02  0.75647864196E+02  0.13052220340E+03  0.15591585584E+03  0.00000000000E+00 0.  1.
         21    1    1    2  504  505  0.74170122961E+02 -0.63622181571E+02 -0.22406706695E+02  0.10025492324E+03  0.00000000000E+00 0.  1.
         21    1    1    2  505  502 -0.65270464939E+02 -0.13806658099E+02 -0.98668345253E+02  0.11910625406E+03  0.00000000000E+00 0.  1.
         21    1    1    2  506  503  0.30484465260E+02  0.17809754741E+01  0.24919032497E+03  0.25105436175E+03  0.00000000000E+00 0.  1.
<scales pt_clust_3="79.42623" pt_clust_4="14000.00000" pt_clust_5="65.11123" pt_clust_6="30.53645"></scales>
<clustering>
<clus scale="   30.536">  1  6  2 -1</clus>
<clus scale="   65.111">  2  5  1 -1</clus>
<clus scale="   79.426">  1  3  2 -1</clus>
<clus scale="   30.536">  1  3  2 -1</clus>
</clustering>
</event>
<event>
 6    0  0.1361919E+003  0.1896391E+03  0.7546771E-02  0.1158787E+00
         21   -1    0    0  503  501  0.00000000000E+00  0.00000000000E+00  0.85864263944E+03  0.85864263944E+03  0.00000000000E+00 0. -1.
         21   -1    0    0  505  502 -0.00000000000E+00 -0.00000000000E+00 -0.25861835381E+03  0.25861835381E+03  0.00000000000E+00 0.  1.
         21    1    1    2  503  502 -0.70733998294E+02 -0.19802846193E+03 -0.56333133419E+02  0.21769701920E+03  0.00000000000E+00 0.  1.
         21    1    1    2  504  506  0.10926699569E+03  0.14210913331E+03  0.31887695499E+03  0.36580977918E+03  0.00000000000E+00 0.  1.
         21    1    1    2  505  504  0.27662818174E+02  0.12416490046E+02 -0.92083922745E+02  0.96947664039E+02  0.00000000000E+00 0.  1.
         21    1    1    2  506  501 -0.66195815571E+02  0.43502838568E+02  0.42956438681E+03  0.43680653083E+03  0.00000000000E+00 0. -1.
<scales pt_clust_3="14000.00000" pt_clust_4="189.63914" pt_clust_5="30.32162" pt_clust_6="78.85338"></scales>
<clustering>
<clus scale="   30.322">  2  5  1 -1</clus>
<clus scale="   78.853">  1  6  2 -1</clus>
<clus scale="  189.639">  1  4  2 -1</clus>
<clus scale="   78.853">  1  3  2 -1</clus>
</clustering>
</event>
<event>
 6    0  0.1361919E+003  0.1231608E+03  0.7546771E-02  0.1237972E+00
         21   -1    0    0  505  501  0.00000000000E+00  0.00000000000E+00  0.12901236458E+04  0.12901236458E+04  0.00000000000E+00 0.  1.
         21   -1    0    0  503  502 -0.00000000000E+00 -0.00000000000E+00 -0.76856447229E+02  0.76856447229E+02  0.00000000000E+00 0. -1.
         21    1    1    2  503  504 -0.30330414707E+02  0.61673270101E+02  0.31557807359E+02  0.75626857046E+02  0.00000000000E+00 0. -1.
         21    1    1    2  504  506 -0.14205078797E+03 -0.14598416206E+01  0.27281604488E+03  0.30758600723E+03  0.00000000000E+00 0.  1.
         21    1    1    2  505  502  0.73458290606E+02  0.15172266726E+02  0.92610201869E+01  0.75578334404E+02  0.00000000000E+00 0. -1.
         21    1    1    2  506  501  0.98922912068E+02 -0.75385695207E+02  0.89963232612E+03  0.90818889432E+03  0.00000000000E+00 0.  1.
<scales pt_clust_3="68.72792" pt_clust_4="123.16081" pt_clust_5="76.09912" pt_clust_6="14000.00000"></scales>
<clustering>
<clus scale="   68.728">  2  3  1 -1</clus>
<clus scale="   76.099">  2  5  1 -1</clus>
<clus scale="  123.161">  2  4  1 -1</clus>
<clus scale="  123.161">  1  3  2 -1</clus>
</clustering>
</event>
<event>
 6    0  0.1361919E+003  0.9738980E+02  0.7546771E-02  0.1285883E+00
         21   -1    0    0  505  501  0.00000000000E+00  0.00000000000E+00  0.11015848694E+03  0.11015848694E+03  0.00000000000E+00 0. -1.
         21   -1    0    0  504  502 -0.00000000000E+00 -0.00000000000E+00 -0.38269956160E+03  0.38269956160E+03  0.00000000000E+00 0. -1.
         21    1    1    2  503  506  0.72082134671E+01  0.84095086460E+02 -0.44483871135E+02  0.95408368078E+02  0.00000000000E+00 0. -1.
         21    1    1    2  504  501 -0.42518515017E+02  0.71232846680E+01  0.34816227390E+02  0.55414212919E+02  0.00000000000E+00 0. -1.
         21    1    1    2  505  503  0.47898130558E+02  0.10111801741E+02  0.10628573463E+02  0.50094371133E+02  0.00000000000E+00 0. -1.
         21    1    1    2  506  502 -0.12587829008E+02 -0.10133017287E+03 -0.27350200438E+03  0.29194109641E+03  0.00000000000E+00 0. -1.
<scales pt_clust_3="97.38980" pt_clust_4="43.11108" pt_clust_5="31.10315" pt_clust_6="14000.00000"></scales>
<clustering>
<clus scale="   43.111">  1  4  2 -1</clus>
<clus scale="   31.103">  1  5  2 -1</clus>
<clus scale="   97.390">  1  3  2 -1</clus>
<clus scale="   43.111">  1  3  2 -1</clus>
</clustering>
</event>
<event>
 6    0  0.1361919E+003  0.1042845E+03  0.7546771E-02  0.1271536E+00
         21   -1    0    0  505  501  0.00000000000E+00  0.00000000000E+00  0.65602667679E+02  0.65602667679E+02  0.00000000000E+00 0.  1.
         21   -1    0    0  503  502 -0.00000000000E+00 -0.00000000000E+00 -0.89706678258E+03  0.89706678258E+03  0.00000000000E+00 0. -1.
         21    1    1    2  503  506 -0.11185077656E+03 -0.34738574797E+02 -0.48611630246E+03  0.50002642362E+03  0.00000000000E+00 0. -1.
         21    1    1    2  504  502  0.31464226235E+02 -0.31360003129E+02 -0.22113487021E+03  0.22555282785E+03  0.00000000000E+00 0.  1.
         21    1    1    2  505  504  0.49193244185E+02 -0.51178209893E+02 -0.82338668346E+02  0.10871449189E+03  0.00000000000E+00 0.  1.
         21    1    1    2  506  501  0.31193306144E+02  0.11727678782E+03 -0.41874273882E+02  0.12837570690E+03  0.00000000000E+00 0.  1.
<scales pt_clust_3="14000.00000" pt_clust_4="44.42350" pt_clust_5="77.28465" pt_clust_6="104.28451"></scales>
<clustering>
<clus scale="   44.423">  2  4  1 -1</clus>
<clus scale="   77.285">  1  5  2 -1</clus>
<clus scale="  104.285">  1  6  2 -1</clus>
<clus scale="   77.285">  1  3  2 -1</clus>
</clustering>
</event>
<event>
 6    0  0.1361919E+003  0.1346962E+03  0.7546771E-02  0.1220649E+00
         21   -1    0    0  503  501  0.00000000000E+00  0.00000000000E+00  0.58257551523E+02  0.58257551523E+02  0.00000000000E+00 0. -1.
         21   -1    0    0  505  502 -0.00000000000E+00 -0.00000000000E+00 -0.14446693307E+04  0.14446693307E+04  0.00000000000E+00 0. -1.
         21    1    1    2  503  504 -0.62306638163E+01 -0.44335003773E+02 -0.96185747687E+01  0.45792256024E+02  0.00000000000E+00 0.  1.
         21    1    1    2  504  502  0.10890165597E+03 -0.10256603777E+03 -0.10098310752E+04  0.10208516852E+04  0.00000000000E+00 0. -1.
         21    1    1    2  505  506 -0.55716965545E+02  0.99238492432E+02 -0.34888384220E+03  0.36697764779E+03  0.00000000000E+00 0. -1.
         21    1    1    2  506  501 -0.46954026608E+02  0.47662549112E+02 -0.18078287005E+02  0.69305293186E+02  0.00000000000E+00 0. -1.
<scales pt_clust_3="44.77068" pt_clust_4="14000.00000" pt_clust_5="134.69623" pt_clust_6="54.49458"></scales>
<clustering>
<clus scale="   44.771">  1  3  2 -1</clus>
<clus scale="   54.495">  1  6  2 -1</clus>
<clus scale="  134.696">  1  5  2 -1</clus>
<clus scale="   44.771">  1  3  2 -1</clus>
</clustering>
</event>
<event>
 6    0  0.1361919E+003  0.1630146E+03  0.7546771E-02  0.1185335E+00
         21   -1    0    0  505  501  0.00000000000E+00  0.00000000000E+00  0.33403966461E+03  0.33403966461E+03  0.00000000000E+00 0. -1.
         21   -1    0    0  506  502 -0.00000000000E+00 -0.00000000000E+00 -0.47918150885E+03  0.47918150885E+03  0.00000000000E+00 0. -1.
         21    1    1    2  503  501  0.38408859695E+02  0.55424235411E+02 -0.21325705353E+03  0.22366416176E+03  0.00000000000E+00 0. -1.
         21    1    1    2  504  502 -0.55282704715E+02  0.80699768298E+01 -0.88010321162E+02  0.10424547279E+03  0.00000000000E+00 0. -1.
         21    1    1    2  505  504 -0.39636921297E+01 -0.15100292751E+03  0.28827333409E+03  0.32545216256E+03  0.00000000000E+00 0. -1.
         21    1    1    2  506  503  0.20837537150E+02  0.87508715268E+02 -0.13214780363E+03  0.15985937635E+03  0.00000000000E+00 0.  1.
<scales pt_clust_3="53.69259" pt_clust_4="55.86861" pt_clust_5="150.75788" pt_clust_6="53.69259"></scales>
<clustering>
<clus scale="   53.693">  3  6 -1 -1</clus>
<clus scale="   55.869">  2  4  1 -1</clus>
<clus scale="  150.758">  1  5  2 -1</clus>
<clus scale="  150.758">  1  3  2 -1</clus>
</clustering>
</event>
<event>
 6    0  0.1361919E+003  0.9761999E+02  0.7546771E-02  0.1285382E+00
         21   -1    0    0  506  501  0.00000000000E+00  0.00000000000E+00  0.18813435004E+04  0.18813435004E+04  0.00000000000E+00 0.  1.
         21   -1    0    0  504  502 -0.00000000000E+00 -0.00000000000E+00 -0.13896515350E+03  0.13896515350E+03  0.00000000000E+00 0.  1.
         21    1    1    2  503  501  0.43168427433E+02 -0.12091283597E+03  0.10922067639E+03  0.16856032505E+03  0.00000000000E+00 0.  1.
         21    1    1    2  504  503 -0.29437329605E+01  0.37131841682E+02 -0.53657545119E+02  0.65318997073E+02  0.00000000000E+00 0.  1.
         21    1    1    2  505  502  0.29238186176E+02  0.16382819861E+02 -0.42658465288E+02  0.54249543575E+02  0.00000000000E+00 0.  1.
         21    1    1    2  506  505 -0.69462880649E+02  0.67398174430E+02  0.17294736810E+04  0.17321797882E+04  0.00000000000E+00 0.  1.
<scales pt_clust_3="14000.00000" pt_clust_4="50.58819" pt_clust_5="33.51520" pt_clust_6="97.61999"></scales>
<clustering>
<clus scale="   33.515">  2  5  1 -1</clus>
<clus scale="   50.588">  2  4  1 -1</clus>
<clus scale="   97.620">  1  6  2 -1</clus>
<clus scale="   97.620">  1  3  2 -1</clus>
</clustering>
</event>
<event>
 6    0  0.1361919E+003  0.1028359E+03  0.7546771E-02  0.1274443E+00
         21   -1    0    0  505  501  0.00000000000E+00  0.00000000000E+00  0.57035484043E+03  0.57035484043E+03  0.00000000000E+00 0.  1.
         21   -1    0    0  506  502 -0.00000000000E+00 -0.00000000000E+00 -0.21082309194E+03  0.21082309194E+03  0.00000000000E+00 0. -1.
         21    1    1    2  503  502 -0.12558844186E+03  0.78414343071E+02 -0.13023599579E+03  0.19718691773E+03  0.00000000000E+00 0. -1.
         21    1    1    2  504  501  0.36281856414E+02 -0.47168972809E+02  0.46059666737E+03  0.46442499405E+03  0.00000000000E+00 0.  1.
         21    1    1    2  505  503  0.39682601250E+02 -0.23191966177E+02  0.47461042195E+02  0.66069105211E+02  0.00000000000E+00 0. -1.
         21    1    1    2  506  504  0.49623984191E+02 -0.80534040842E+01 -0.18289965287E+02  0.53496915374E+02  0.00000000000E+00 0.  1.
<scales pt_clust_3="14000.00000" pt_clust_4="102.83588" pt_clust_5="45.96277" pt_clust_6="51.74624"></scales>
<clustering>
<clus scale="   45.963">  1  5  2 -1</clus>
<clus scale="   51.746">  2  6  1 -1</clus>
<clus scale="  102.836">  1  4  2 -1</clus>
<clus scale="   45.963">  1  3  2 -1</clus>
</clustering>
</event>
<event>
 6    0  0.1361919E+003  0.1322591E+03  0.7546771E-02  0.1224142E+00
         21   -1    0    0  505  501  0.00000000000E+00  0.00000000000E+00  0.33598963690E+02  0.33598963690E+02  0.00000000000E+00 0. -1.
         21   -1    0    0  504  502 -0.00000000000E+00 -0.00000000000E+00 -0.81945972520E+03  0.81945972520E+03  0.00000000000E+00 0. -1.
         21    1    1    2  503  502  0.36673878219E+02 -0.50938445018E+02 -0.10077725409E+03  0.11872553839E+03  0.00000000000E+00 0.  1.
         21    1    1    2  504  506 -0.34132894840E+02 -0.56483214738E+02 -0.20264922755E+03  0.21312465246E+03  0.00000000000E+00 0. -1.
         21    1    1    2  505  503  0.34267625502E+02 -0.30955247834E+02 -0.19092895826E+03  0.19643412287E+03  0.00000000000E+00 0.  1.
         21    1    1    2  506  501 -0.36808608881E+02  0.13837690759E+03 -0.29150532161E+03  0.32477437518E+03  0.00000000000E+00 0. -1.
<scales pt_clust_3="42.83406" pt_clust_4="65.99552" pt_clust_5="42.83406" pt_clust_6="122.46896"></scales>
<clustering>
<clus scale="   42.834">  3  5 -1 -1</clus>
<clus scale="   65.996">  2  4  1 -1</clus>
<clus scale="  122.469">  2  6  1 -1</clus>
<clus scale="  132.259">  1  3  2 -1</clus>
</clustering>
</event>
<event>
 6    0  0.1361919E+003  0.1771200E+03  0.7546771E-02  0.1170620E+00
         21   -1    0    0  506  501  0.00000000000E+00  0.00000000000E+00  0.13560473533E+03  0.13560473533E+03  0.00000000000E+00 0. -1.
         21   -1    0    0  503  502 -0.00000000000E+00 -0.00000000000E+00 -0.30469512592E+03  0.30469512592E+03  0.00000000000E+00 0. -1.
         21    1    1    2  503  504  0.20849538828E+02 -0.22555144795E+02 -0.66552656456E+02  0.73298662385E+02  0.00000000000E+00 0. -1.
         21    1    1    2  504  505  0.52383953436E+02 -0.44717863650E+02 -0.12183531343E+02  0.69944294570E+02  0.00000000000E+00 0. -1.
         21    1    1    2  505  501  0.28530281387E+02 -0.90671208644E+02 -0.28017655901E+02  0.99097094181E+02  0.00000000000E+00 0. -1.
         21    1    1    2  506  502 -0.10176377365E+03  0.15794421709E+03 -0.62336546893E+02  0.19795981011E+03  0.00000000000E+00 0. -1.
<scales pt_clust_3="30.71543" pt_clust_4="38.79590" pt_clust_5="38.79590" pt_clust_6="171.14306"></scales>
<clustering>
<clus scale="   30.715">  2  3  1 -1</clus>
<clus scale="   38.796">  4  5 -1 -1</clus>
<clus scale="  171.143">  2  6  1 -1</clus>
<clus scale="  177.120">  1  3  2 -1</clus>
</clustering>
</event>
<event>
 6    0  0.1361919E+003  0.2493879E+03  0.7546771E-02  0.1113692E+00
         21   -1    0    0  506  501  0.00000000000E+00  0.00000000000E+00  0.13771184630E+04  0.13771184630E+04  0.00000000000E+00 0. -1.
         21   -1    0    0  503  502 -0.00000000000E+00 -0.00000000000E+00 -0.13752164786E+03  0.13752164786E+03  0.00000000000E+00 0. -1.
         21    1    1    2  503  501 -0.26770299505E+03 -0.22814406192E+02  0.44854671761E+03  0.52285710148E+03  0.00000000000E+00 0. -1.
         21    1    1    2  504  502  0.82578599293E+02 -0.12586516414E+03 -0.12039152650E+02  0.15101723677E+03  0.00000000000E+00 0. -1.
         21    1    1    2  505  504  0.13980827925E+03  0.14582646433E+03  0.61765612925E+03  0.64985445036E+03  0.00000000000E+00 0. -1.
         21    1    1    2  506  505  0.45316116501E+02  0.28531060085E+01  0.18543312092E+03  0.19091132225E+03  0.00000000000E+00 0. -1.
<scales pt_clust_3="237.98369" pt_clust_4="150.53659" pt_clust_5="35.34453" pt_clust_6="35.34453"></scales>
<clustering>
<clus scale="   35.345">  5  6 -1 -1</clus>
<clus scale="  150.537">  2  4  1 -1</clus>
<clus scale="  237.984">  2  3  1 -1</clus>
<clus scale="  249.388">  1  3  2 -1</clus>
</clustering>
</event>
<event>
 6    0  0.1361919E+003  0.1384041E+03  0.7546771E-02  0.1215493E+00
         21   -1    0    0  506  501  0.00000000000E+00  0.00000000000E+00  0.20602266752E+03  0.20602266752E+03  0.00000000000E+00 0.  1.
         21   -1    0    0  503  502 -0.00000000000E+00 -0.00000000000E+00 -0.48013894391E+03  0.48013894391E+03  0.00000000000E+00 0.  1.
         21    1    1    2  503  504  0.32332542016E+02 -0.27089309625E+02 -0.13535951200E+03  0.14177948179E+03  0.00000000000E+00 0.  1.
         21    1    1    2  504  505  0.49860045286E+02  0.86854593066E+02 -0.26620055745E+03  0.28441603548E+03  0.00000000000E+00 0.  1.
         21    1    1    2  505  501 -0.11309991959E+03 -0.87538557614E+02  0.15438001746E+03  0.21044662190E+03  0.00000000000E+00 0.  1.
         21    1    1    2  506  502  0.30907332288E+02  0.27773274172E+02 -0.26936224402E+02  0.49519472255E+02  0.00000000000E+00 0.  1.
<scales pt_clust_3="45.86794" pt_clust_4="14000.00000" pt_clust_5="138.40413" pt_clust_6="41.55259"></scales>
<clustering>
<clus scale="   41.553">  2  6  1 -1</clus>
<clus scale="   45.868">  2  3  1 -1</clus>
<clus scale="  138.404">  1  5  2 -1</clus>
<clus scale="  138.404">  1  3  2 -1</clus>
</clustering>
</event>
<event>
 6    0  0.1361919E+003  0.5710446E+02  0.7546771E-02  0.1410401E+00
         21   -1    0    0  504  501  0.00000000000E+00  0.00000000000E+00  0.39410919227E+02  0.39410919227E+02  0.00000000000E+00 0.  1.
         21   -1    0    0  503  502 -0.00000000000E+00 -0.00000000000E+00 -0.10021638430E+04  0.10021638430E+04  0.00000000000E+00 0.  1.
         21    1    1    2  503  505 -0.38354167880E+02 -0.31306558002E+02 -0.30955845806E+03  0.31349255449E+03  0.00000000000E+00 0.  1.
         21    1    1    2  504  506  0.52948067167E+02 -0.31193235254E+02 -0.90856709619E+01  0.62121374415E+02  0.00000000000E+00 0.  1.
         21    1    1    2  505  501 -0.55493057809E+02 -0.18458238231E+02 -0.11376410657E+03  0.12791582375E+03  0.00000000000E+00 0.  1.
         21    1    1    2  506  502  0.40899158522E+02  0.80958031487E+02 -0.53034468815E+03  0.53804500952E+03  0.00000000000E+00 0.  1.
<scales pt_clust_3="49.50902" pt_clust_4="57.10446" pt_clust_5="14000.00000" pt_clust_6="57.84421"></scales>
<clustering>
<clus scale="   49.509">  2  3  1 -1</clus>
<clus scale="   57.844">  2  6  1 -1</clus>
<clus scale="   57.104">  1  4  2 -1</clus>
<clus scale="   57.104">  1  3  2 -1</clus>
</clustering>
</event>
<event>
 6    0  0.1361919E+003  0.8712036E+02  0.7546771E-02  0.1309979E+00
         21   -1    0    0  506  501  0.00000000000E+00  0.00000000000E+00  0.66043360042E+03  0.66043360042E+03  0.00000000000E+00 0.  1.
         21   -1    0    0  505  502 -0.00000000000E+00 -0.00000000000E+00 -0.27936236861E+03  0.27936236861E+03  0.00000000000E+00 0.  1.
         21    1    1    2  503  502  0.15374388755E+02  0.69322458285E+02  0.73729906378E+02  0.10236246454E+03  0.00000000000E+00 0. -1.
         21    1    1    2  504  501 -0.13183595444E+03 -0.10627508510E+03  0.41471035304E+03  0.44795065522E+03  0.00000000000E+00 0.  1.
         21    1    1    2  505  504  0.86053548835E+02  0.51702880245E+01 -0.23721213767E+03  0.25239164686E+03  0.00000000000E+00 0.  1.
         21    1    1    2  506  503  0.30408016852E+02  0.31782338790E+02  0.12984311007E+03  0.13709120241E+03  0.00000000000E+00 0.  1.
<scales pt_clust_3="77.38505" pt_clust_4="14000.00000" pt_clust_5="87.12036" pt_clust_6="43.98596"></scales>
<clustering>
<clus scale="   43.986">  1  6  2 -1</clus>
<clus scale="   77.385">  1  3  2 -1</clus>
<clus scale="   87.120">  2  5  1 -1</clus>
<clus scale="   43.986">  1  3  2 -1</clus>
</clustering>
</event>
<event>
 6    0  0.1361919E+003  0.6249761E+02  0.7546771E-02  0.1387640E+00
         21   -1    0    0  506  501  0.00000000000E+00  0.00000000000E+00  0.75858576478E+03  0.75858576478E+03  0.00000000000E+00 0.  1.
         21   -1    0    0  504  502 -0.00000000000E+00 -0.00000000000E+00 -0.18471903591E+03  0.18471903591E+03  0.00000000000E+00 0. -1.
         21    1    1    2  503  502 -0.74033899953E+02 -0.47166376130E+02 -0.24824161794E+02  0.91224582149E+02  0.00000000000E+00 0. -1.
         21    1    1    2  504  505  0.59691431775E+02  0.11611802659E+02 -0.75225674488E+02  0.96730569576E+02  0.00000000000E+00 0. -1.
         21    1    1    2  505  501 -0.46514549228E+02  0.50538331390E+02 -0.92574658919E+01  0.69306759442E+02  0.00000000000E+00 0. -1.
         21    1    1    2  506  503  0.60857017406E+02 -0.14983757919E+02  0.68317403105E+03  0.68604288953E+03  0.00000000000E+00 0.  1.
<scales pt_clust_3="56.08175" pt_clust_4="60.81037" pt_clust_5="62.49761" pt_clust_6="14000.00000"></scales>
<clustering>
<clus scale="   60.810">  2  4  1 -1</clus>
<clus scale="   56.082">  2  3  1 -1</clus>
<clus scale="   62.498">  2  5  1 -1</clus>
<clus scale="   62.498">  1  3  2 -1</clus>
</clustering>
</event>
<event>
 6    0  0.1361919E+003  0.8102357E+02  0.7546771E-02  0.1326172E+00
         21   -1    0    0  503  501  0.00000000000E+00  0.00000000000E+00  0.69232152330E+03  0.69232152330E+03  0.00000000000E+00 0.  1.
         21   -1    0    0  505  502 -0.00000000000E+00 -0.00000000000E+00 -0.67244334144E+03  0.67244334144E+03  0.00000000000E+00 0.  1.
         21    1    1    2  503  502  0.21870984868E+02 -0.78637896023E+02  0.58974330585E+03  0.59536495149E+03  0.00000000000E+00 0.  1.
         21    1    1    2  504  501 -0.39931897647E+02  0.12130068797E+02  0.29111511330E+02  0.50883937649E+02  0.00000000000E+00 0. -1.
         21    1    1    2  505  506 -0.60408421405E+02 -0.50080127618E+02 -0.56955374210E+03  0.57493361504E+03  0.00000000000E+00 0.  1.
         21    1    1    2  506  504  0.78469334184E+02  0.11658795484E+03 -0.29422893218E+02  0.14358236057E+03  0.00000000000E+00 0.  1.
<scales pt_clust_3="69.13599" pt_clust_4="41.73362" pt_clust_5="14000.00000" pt_clust_6="81.02357"></scales>
<clustering>
<clus scale="   41.734">  1  4  2 -1</clus>
<clus scale="   69.136">  1  3  2 -1</clus>
<clus scale="   81.024">  1  6  2 -1</clus>
<clus scale="   41.734">  1  3  2 -1</clus>
</clustering>
</event>
<event>
 6    0  0.1361919E+003  0.7001523E+02  0.7546771E-02  0.1360041E+00
         21   -1    0    0  503  501  0.00000000000E+00  0.00000000000E+00  0.34264041208E+02  0.34264041208E+02  0.00000000000E+00 0.  1.
         21   -1    0    0  504  502 -0.00000000000E+00 -0.00000000000E+00 -0.15987838542E+04  0.15987838542E+04  0.00000000000E+00 0.  1.
         21    1    1    2  503  502 -0.13289814223E+02 -0.54366033984E+02 -0.11808880542E+04  0.11822135515E+04  0.00000000000E+00 0.  1.
         21    1    1    2  504  506  0.66190438640E+02 -0.79132140254E+01 -0.14424502316E+03  0.15890380685E+03  0.00000000000E+00 0.  1.
         21    1    1    2  505  501 -0.43683925529E+02 -0.43055777986E+02 -0.86217582743E+02  0.10580905888E+03  0.00000000000E+00 0. -1.
         21    1    1    2  506  505 -0.92166988873E+01  0.10533502600E+03 -0.15316915288E+03  0.18612147816E+03  0.00000000000E+00 0.  1.
<scales pt_clust_3="55.96682" pt_clust_4="67.30991" pt_clust_5="70.01523" pt_clust_6="14000.00000"></scales>
<clustering>
<clus scale="   55.967">  2  3  1 -1</clus>
<clus scale="   67.310">  2  4  1 -1</clus>
<clus scale="   70.015">  1  5  2 -1</clus>
<clus scale="   70.015">  1  3  2 -1</clus>
</clustering>
</event>
<event>
 6    0  0.1361919E+003  0.1243126E+03  0.7546771E-02  0.1236148E+00
         21   -1    0    0  505  501  0.00000000000E+00  0.00000000000E+00  0.20487623519E+04  0.20487623519E+04  0.00000000000E+00 0. -1.
         21   -1    0    0  506  502 -0.00000000000E+00 -0.00000000000E+00 -0.95268021178E+02  0.95268021178E+02  0.00000000000E+00 0. -1.
         21    1    1    2  503  502 -0.28863632461E+02  0.22718660558E+02 -0.27472326776E+02  0.45869113299E+02  0.00000000000E+00 0. -1.
         21    1    1    2  504  503 -0.70104984300E+01  0.10322210848E+03  0.39953844351E+03  0.41271651119E+03  0.00000000000E+00 0. -1.
         21    1    1    2  505  504 -0.67232332608E+02 -0.47896120568E+00  0.15040617540E+04  0.15055637402E+04  0.00000000000E+00 0. -1.
         21    1    1    2  506  501  0.10310646350E+03 -0.12546180783E+03  0.77366459943E+02  0.17988100835E+03  0.00000000000E+00 0. -1.
<scales pt_clust_3="36.73210" pt_clust_4="124.31259" pt_clust_5="67.60251" pt_clust_6="14000.00000"></scales>
<clustering>
<clus scale="   36.732">  2  3  1 -1</clus>
<clus scale="   67.603">  1  5  2 -1</clus>
<clus scale="  124.313">  1  4  2 -1</clus>
<clus scale="   67.603">  1  3  2 -1</clus>
</clustering>
</event>
<event>
 6    0  0.1361919E+003  0.1334600E+03  0.7546771E-02  0.1222410E+00
         21   -1    0    0  502  501  0.00000000000E+00  0.00000000000E+00  0.47668134710E+02  0.47668134710E+02  0.00000000000E+00 0. -1.
         21   -1    0    0  506  502 -0.00000000000E+00 -0.00000000000E+00 -0.11304237389E+04  0.11304237389E+04  0.00000000000E+00 0. -1.
         21    1    1    2  503  501  0.72605059623E+02 -0.12729049042E+02 -0.55117953188E+02  0.92040817771E+02  0.00000000000E+00 0. -1.
         21    1    1    2  504  505 -0.13561710616E+03 -0.50460627396E+02 -0.23347276222E+03  0.27467763851E+03  0.00000000000E+00 0. -1.
         21    1    1    2  505  503  0.27298952629E+02  0.36157383498E+02 -0.56828361883E+02  0.72677726370E+02  0.00000000000E+00 0. -1.
         21    1    1    2  506  504  0.35713093907E+02  0.27032292940E+02 -0.73733652689E+03  0.73869569095E+03  0.00000000000E+00 0. -1.
<scales pt_clust_3="51.76905" pt_clust_4="117.22220" pt_clust_5="51.76905" pt_clust_6="44.79029"></scales>
<clustering>
<clus scale="   44.790">  2  6  1 -1</clus>
<clus scale="   51.769">  3  5 -1 -1</clus>
<clus scale="  117.222">  2  4  1 -1</clus>
<clus scale="  133.460">  1  3  2 -1</clus>
</clustering>
</event>
<event>
 6    0  0.1361919E+003  0.8951833E+02  0.7546771E-02  0.1304022E+00
         21   -1    0    0  506  501  0.00000000000E+00  0.00000000000E+00  0.48067262513E+03  0.48067262513E+03  0.00000000000E+00 0. -1.
         21   -1    0    0  503  502 -0.00000000000E+00 -0.00000000000E+00 -0.56003459851E+03  0.56003459851E+03  0.00000000000E+00 0.  1.
         21    1    1    2  503  504  0.46346666206E+02 -0.71236401888E+02 -0.22638088070E+03  0.24180765407E+03  0.00000000000E+00 0.  1.
         21    1    1    2  504  505 -0.67157624617E+01  0.60238693660E+02  0.87740486319E+02  0.10664049240E+03  0.00000000000E+00 0.  1.
         21    1    1    2  505  501  0.23186052990E+02  0.34973052148E+02  0.37100163836E+03  0.37336700858E+03  0.00000000000E+00 0. -1.
         21    1    1    2  506  502 -0.62816956734E+02 -0.23975343920E+02 -0.31172321736E+03  0.31889206859E+03  0.00000000000E+00 0.  1.
<scales pt_clust_3="89.51833" pt_clust_4="14000.00000" pt_clust_5="41.96078" pt_clust_6="66.11398"></scales>
<clustering>
<clus scale="   41.961">  1  5  2 -1</clus>
<clus scale="   66.114">  2  6  1 -1</clus>
<clus scale="   89.518">  2  3  1 -1</clus>
<clus scale="   41.961">  1  3  2 -1</clus>
</clustering>
</event>
<event>
 6    0  0.1361919E+003  0.1555194E+03  0.7546771E-02  0.1193850E+00
         21   -1    0    0  505  501  0.00000000000E+00  0.00000000000E+00  0.54881899632E+03  0.54881899632E+03  0.00000000000E+00 0. -1.
         21   -1    0    0  503  502 -0.00000000000E+00 -0.00000000000E+00 -0.42423544584E+03  0.42423544584E+03  0.00000000000E+00 0. -1.
         21    1    1    2  503  504 -0.22204872180E+02 -0.44111032299E+02 -0.29400610188E+03  0.29812485214E+03  0.00000000000E+00 0. -1.
         21    1    1    2  504  501  0.31280558052E+02  0.17757575519E+03  0.45861245159E+03  0.49278494589E+03  0.00000000000E+00 0. -1.
         21    1    1    2  505  506 -0.12000671456E+02 -0.10009494523E+03  0.29443542690E+02  0.10502350395E+03  0.00000000000E+00 0. -1.
         21    1    1    2  506  502  0.29249855845E+01 -0.33369777663E+02 -0.69466341926E+02  0.77121140179E+02  0.00000000000E+00 0. -1.
<scales pt_clust_3="74.90978" pt_clust_4="14000.00000" pt_clust_5="155.51937" pt_clust_6="33.49773"></scales>
<clustering>
<clus scale="   33.498">  2  6  1 -1</clus>
<clus scale="   74.910">  2  3  1 -1</clus>
<clus scale="  155.519">  2  5  1 -1</clus>
<clus scale="  155.519">  1  3  2 -1</clus>
</clustering>
</event>
<event>
 6    0  0.1361919E+003  0.1211144E+03  0.7546771E-02  0.1241270E+00
         21   -1    0    0  504  501  0.00000000000E+00  0.00000000000E+00  0.67989482293E+02  0.67989482293E+02  0.00000000000E+00 0. -1.
         21   -1    0    0  505  502 -0.00000000000E+00 -0.00000000000E+00 -0.34771316861E+03  0.34771316861E+03  0.00000000000E+00 0. -1.
         21    1    1    2  503  501 -0.33448748675E+02 -0.12211782930E+02 -0.14107689673E+02  0.38301087950E+02  0.00000000000E+00 0. -1.
         21    1    1    2  504  506 -0.30630066851E+01  0.82684250755E+02 -0.14928025965E+03  0.17067707302E+03  0.00000000000E+00 0. -1.
         21    1    1    2  505  503  0.37482233889E+01 -0.97192058276E+02 -0.16963229037E+02  0.98732449123E+02  0.00000000000E+00 0. -1.
         21    1    1    2  506  502  0.32763531971E+02  0.26719590451E+02 -0.99372507954E+02  0.10799204081E+03  0.00000000000E+00 0.  1.
<scales pt_clust_3="35.60824" pt_clust_4="38.21790" pt_clust_5="108.12836" pt_clust_6="38.21790"></scales>
<clustering>
<clus scale="   35.608">  1  3  2 -1</clus>
<clus scale="   38.218">  4  6 -1 -1</clus>
<clus scale="  108.128">  1  5  2 -1</clus>
<clus scale="   35.608">  1  3  2 -1</clus>
</clustering>
</event>
<event>
 6    0  0.1361919E+003  0.8332465E+02  0.7546771E-02  0.1319873E+00
         21   -1    0    0  506  501  0.00000000000E+00  0.00000000000E+00  0.17683967018E+03  0.17683967018E+03  0.00000000000E+00 0.  1.
         21   -1    0    0  501  502 -0.00000000000E+00 -0.00000000000E+00 -0.35735297831E+03  0.35735297831E+03  0.00000000000E+00 0.  1.
         21    1    1    2  503  505 -0.57206469415E+02  0.29263367326E+02  0.31493798875E+02  0.71559654679E+02  0.00000000000E+00 0.  1.
         21    1    1    2  504  502 -0.45943281115E+02  0.68439293701E+01 -0.21216968861E+03  0.21719484620E+03  0.00000000000E+00 0.  1.
         21    1    1    2  505  504  0.72882341065E+02 -0.91148357941E+02 -0.81548957336E+02  0.14237307062E+03  0.00000000000E+00 0.  1.
         21    1    1    2  506  503  0.30267409466E+02  0.55041061245E+02  0.81711538942E+02  0.10306507699E+03  0.00000000000E+00 0.  1.
<scales pt_clust_3="83.32465" pt_clust_4="46.45024" pt_clust_5="14000.00000" pt_clust_6="61.69254"></scales>
<clustering>
<clus scale="   46.450">  2  4  1 -1</clus>
<clus scale="   61.693">  1  6  2 -1</clus>
<clus scale="   83.325">  1  3  2 -1</clus>
<clus scale="   61.693">  1  3  2 -1</clus>
</clustering>
</event>
<event>
 6    0  0.1361919E+003  0.7214459E+02  0.7546771E-02  0.1352948E+00
         21   -1    0    0  506  501  0.00000000000E+00  0.00000000000E+00  0.16221699605E+03  0.16221699605E+03  0.00000000000E+00 0.  1.
         21   -1    0    0  504  502 -0.00000000000E+00 -0.00000000000E+00 -0.64805142612E+03  0.64805142612E+03  0.00000000000E+00 0.  1.
         21    1    1    2  503  501  0.50693978669E+02 -0.84016395731E+02 -0.13527058022E+02  0.99053599246E+02  0.00000000000E+00 0.  1.
         21    1    1    2  504  505 -0.64870869418E+02  0.24188508723E+02 -0.44052628611E+03  0.44593354035E+03  0.00000000000E+00 0.  1.
         21    1    1    2  505  503  0.81696519473E+02  0.49569791680E+02 -0.12020127113E+03  0.15355725682E+03  0.00000000000E+00 0.  1.
         21    1    1    2  506  502 -0.67519628724E+02  0.10258095328E+02  0.88420185192E+02  0.11172402576E+03  0.00000000000E+00 0.  1.
<scales pt_clust_3="14000.00000" pt_clust_4="72.14459" pt_clust_5="71.16499" pt_clust_6="68.29443"></scales>
<clustering>
<clus scale="   68.294">  1  6  2 -1</clus>
<clus scale="   72.145">  2  4  1 -1</clus>
<clus scale="   71.165">  2  5  1 -1</clus>
<clus scale="   68.294">  1  3  2 -1</clus>
</clustering>
</event>
<event>
 6    0  0.1361919E+003  0.8874485E+02  0.7546771E-02  0.1305920E+00
         21   -1    0    0  506  501  0.00000000000E+00  0.00000000000E+00  0.42586809143E+02  0.42586809143E+02  0.00000000000E+00 0.  1.
         21   -1    0    0  505  502 -0.00000000000E+00 -0.00000000000E+00 -0.18286071419E+04  0.18286071419E+04  0.00000000000E+00 0.  1.
         21    1    1    2  503  502  0.52209075425E+02  0.30352049853E+02 -0.14870694412E+04  0.14882951849E+04  0.00000000000E+00 0.  1.
         21    1    1    2  504  501 -0.78990188860E+02  0.17587437793E+02 -0.39877770984E+02  0.90216431557E+02  0.00000000000E+00 0.  1.
         21    1    1    2  505  504  0.25218151853E+02  0.28512897059E+02 -0.17475972650E+03  0.17885721257E+03  0.00000000000E+00 0.  1.
         21    1    1    2  506  503  0.15629615823E+01 -0.76452384705E+02 -0.84313394023E+02  0.11382512195E+03  0.00000000000E+00 0.  1.
<scales pt_clust_3="14000.00000" pt_clust_4="88.74485" pt_clust_5="38.06495" pt_clust_6="74.80553"></scales>
<clustering>
<clus scale="   38.065">  2  5  1 -1</clus>
<clus scale="   74.806">  1  6  2 -1</clus>
<clus scale="   88.745">  1  4  2 -1</clus>
<clus scale="   74.806">  1  3  2 -1</clus>
</clustering>
</event>
<event>
 6    0  0.1361919E+003  0.1027512E+03  0.7546771E-02  0.1274615E+00
         21   -1    0    0  506  501  0.00000000000E+00  0.00000000000E+00  0.40282273983E+03  0.40282273983E+03  0.00000000000E+00 0. -1.
         21   -1    0    0  503  502 -0.00000000000E+00 -0.00000000000E+00 -0.66974493102E+03  0.66974493102E+03  0.00000000000E+00 0.  1.
         21    1    1    2  503  505 -0.97888203394E+02 -0.63165041606E+02  0.15868704301E+03  0.19685908784E+03  0.00000000000E+00 0.  1.
         21    1    1    2  504  502  0.38451461239E+02 -0.38486468759E+02 -0.62355408537E+03  0.62592285510E+03  0.00000000000E+00 0.  1.
         21    1    1    2  505  501  0.28864019200E+02  0.96388858894E+02  0.19396461261E+03  0.21850907228E+03  0.00000000000E+00 0. -1.
         21    1    1    2  506  504  0.30572722955E+02  0.52626514715E+01  0.39802385613E+01  0.31276655646E+02  0.00000000000E+00 0. -1.
<scales pt_clust_3="14000.00000" pt_clust_4="54.45839" pt_clust_5="102.75122" pt_clust_6="31.02236"></scales>
<clustering>
<clus scale="   31.022">  1  6  2 -1</clus>
<clus scale="   54.458">  2  4  1 -1</clus>
<clus scale="  102.751">  1  5  2 -1</clus>
<clus scale="   31.022">  1  3  2 -1</clus>
</clustering>
</event>
<event>
 6    0  0.1361919E+003  0.1690825E+03  0.7546771E-02  0.1178808E+00
         21   -1    0    0  505  501  0.00000000000E+00  0.00000000000E+00  0.13279494228E+04  0.13279494228E+04  0.00000000000E+00 0. -1.
         21   -1    0    0  503  502 -0.00000000000E+00 -0.00000000000E+00 -0.10540355708E+03  0.10540355708E+03  0.00000000000E+00 0. -1.
         21    1    1    2  503  506  0.10239695458E+03 -0.10264889759E+03  0.35560191746E+03  0.38402429114E+03  0.00000000000E+00 0. -1.
         21    1    1    2  504  502 -0.58641277042E+02  0.52478837479E+02 -0.21902209710E+02  0.81685583468E+02  0.00000000000E+00 0. -1.
         21    1    1    2  505  504 -0.17299222959E+02  0.88299220720E+02  0.13402915918E+02  0.90970619707E+02  0.00000000000E+00 0. -1.
         21    1    1    2  506  501 -0.26456454577E+02 -0.38129160609E+02  0.87544324207E+03  0.87667248558E+03  0.00000000000E+00 0. -1.
<scales pt_clust_3="156.32146" pt_clust_4="61.39968" pt_clust_5="61.39968" pt_clust_6="46.40880"></scales>
<clustering>
<clus scale="   46.409">  1  6  2 -1</clus>
<clus scale="   61.400">  4  5 -1 -1</clus>
<clus scale="  156.321">  1  3  2 -1</clus>
<clus scale="   46.409">  1  3  2 -1</clus>
</clustering>
</event>
<event>
 6    0  0.1361919E+003  0.2889438E+03  0.7546771E-02  0.1090902E+00
         21   -1    0    0  504  501  0.00000000000E+00  0.00000000000E+00  0.92352618781E+03  0.92352618781E+03  0.00000000000E+00 0. -1.
         21   -1    0    0  503  502 -0.00000000000E+00 -0.00000000000E+00 -0.69236956825E+03  0.69236956825E+03  0.00000000000E+00 0.  1.
         21    1    1    2  503  505  0.17394550611E+03 -0.23399925133E+02 -0.16993592350E+03  0.24430066248E+03  0.00000000000E+00 0. -1.
         21    1    1    2  504  506 -0.38242462988E+02  0.33280734762E+03  0.27284699496E+03  0.43205173216E+03  0.00000000000E+00 0. -1.
         21    1    1    2  505  501 -0.11488587110E+03 -0.25716357227E+03  0.49445019131E+03  0.56904556757E+03  0.00000000000E+00 0. -1.
         21    1    1    2  506  502 -0.20817172025E+02 -0.52243850220E+02 -0.36620464321E+03  0.37049779385E+03  0.00000000000E+00 0.  1.
<scales pt_clust_3="170.38342" pt_clust_4="14000.00000" pt_clust_5="288.94384" pt_clust_6="56.23855"></scales>
<clustering>
<clus scale="   56.239">  2  6  1 -1</clus>
<clus scale="  170.383">  2  3  1 -1</clus>
<clus scale="  288.944">  1  5  2 -1</clus>
<clus scale="  288.944">  1  3  2 -1</clus>
</clustering>
</event>
<event>
 6    0  0.1361919E+003  0.1652055E+03  0.7546771E-02  0.1182942E+00
         21   -1    0    0  504  501  0.00000000000E+00  0.00000000000E+00  0.25519943148E+04  0.25519943148E+04  0.00000000000E+00 0.  1.
         21   -1    0    0  506  502 -0.00000000000E+00 -0.00000000000E+00 -0.37714732392E+02  0.37714732392E+02  0.00000000000E+00 0.  1.
         21    1    1    2  503  501 -0.27366529222E+02  0.22192293340E+02  0.16834412757E+03  0.17199177332E+03  0.00000000000E+00 0. -1.
         21    1    1    2  504  505  0.25936756896E+02 -0.54966285065E+02  0.15182949353E+04  0.15195109471E+04  0.00000000000E+00 0.  1.
         21    1    1    2  505  502 -0.13031002205E+03  0.11223240006E+03  0.27325911403E+03  0.32287359271E+03  0.00000000000E+00 0.  1.
         21    1    1    2  506  503  0.13173979438E+03 -0.79458408336E+02  0.55438140555E+03  0.57533273408E+03  0.00000000000E+00 0. -1.
<scales pt_clust_3="35.23386" pt_clust_4="41.68680" pt_clust_5="14000.00000" pt_clust_6="165.20546"></scales>
<clustering>
<clus scale="   35.234">  1  3  2 -1</clus>
<clus scale="   41.687">  1  4  2 -1</clus>
<clus scale="  165.205">  1  6  2 -1</clus>
<clus scale="   35.234">  1  3  2 -1</clus>
</clustering>
</event>
<event>
 6    0  0.1361919E+003  0.1330513E+03  0.7546771E-02  0.1222997E+00
         21   -1    0    0  505  501  0.00000000000E+00  0.00000000000E+00  0.13660754857E+03  0.13660754857E+03  0.00000000000E+00 0.  1.
         21   -1    0    0  503  502 -0.00000000000E+00 -0.00000000000E+00 -0.18296816221E+04  0.18296816221E+04  0.00000000000E+00 0.  1.
         21    1    1    2  503  504 -0.42204735455E+02  0.98302694852E+00 -0.38497097308E+03  0.38727878350E+03  0.00000000000E+00 0.  1.
         21    1    1    2  504  506 -0.69695093977E+02 -0.75548262520E+02 -0.90668688570E+03  0.91249441357E+03  0.00000000000E+00 0.  1.
         21    1    1    2  505  502  0.94397625334E+02  0.46668753139E+02 -0.52662428635E+03  0.53704936753E+03  0.00000000000E+00 0.  1.
         21    1    1    2  506  501  0.17502204099E+02  0.27896482432E+02  0.12520807162E+03  0.12946660604E+03  0.00000000000E+00 0.  1.
<scales pt_clust_3="35.79913" pt_clust_4="35.79913" pt_clust_5="121.46545" pt_clust_6="32.93237"></scales>
<clustering>
<clus scale="   32.932">  1  6  2 -1</clus>
<clus scale="   35.799">  3  4 -1 -1</clus>
<clus scale="  121.465">  1  5  2 -1</clus>
<clus scale="   32.932">  1  3  2 -1</clus>
</clustering>
</event>
<event>
 6    0  0.1361919E+003  0.1594374E+03  0.7546771E-02  0.1189333E+00
         21   -1    0    0  505  501  0.00000000000E+00  0.00000000000E+00  0.11379115611E+04  0.11379115611E+04  0.00000000000E+00 0. -1.
         21   -1    0    0  504  502 -0.00000000000E+00 -0.00000000000E+00 -0.98146578875E+02  0.98146578875E+02  0.00000000000E+00 0. -1.
         21    1    1    2  503  506  0.54282669926E+02 -0.14938964284E+03  0.45117505907E+02  0.16522549132E+03  0.00000000000E+00 0. -1.
         21    1    1    2  504  503  0.20229125720E+02  0.28650218833E+02  0.24346843978E+02  0.42694512273E+02  0.00000000000E+00 0.  1.
         21    1    1    2  505  502  0.93977369482E+02 -0.40944201750E+02  0.37248514931E+03  0.38633322415E+03  0.00000000000E+00 0. -1.
         21    1    1    2  506  501 -0.16848916513E+03  0.16168362576E+03  0.59781548302E+03  0.64180491222E+03  0.00000000000E+00 0. -1.
<scales pt_clust_3="14000.00000" pt_clust_4="35.07211" pt_clust_5="103.09673" pt_clust_6="159.43743"></scales>
<clustering>
<clus scale="   35.072">  2  4  1 -1</clus>
<clus scale="  103.097">  1  5  2 -1</clus>
<clus scale="  159.437">  1  6  2 -1</clus>
<clus scale="  103.097">  1  3  2 -1</clus>
</clustering>
</event>
<event>
 6    0  0.1361919E+003  0.1068199E+03  0.7546771E-02  0.1266575E+00
         21   -1    0    0  506  501  0.00000000000E+00  0.00000000000E+00  0.17805399667E+04  0.17805399667E+04  0.00000000000E+00 0. -1.
         21   -1    0    0  504  502 -0.00000000000E+00 -0.00000000000E+00 -0.23226879526E+03  0.23226879526E+03  0.00000000000E+00 0. -1.
         21    1    1    2  503  505  0.19845599376E+01 -0.10903390040E+03  0.24887205940E+03  0.27171608687E+03  0.00000000000E+00 0. -1.
         21    1    1    2  504  501 -0.27702875215E+02  0.27545867077E+02  0.13521942963E+01  0.39090312324E+02  0.00000000000E+00 0. -1.
         21    1    1    2  505  502 -0.48850578807E+02 -0.77706672003E+00 -0.19693404397E+03  0.20290391952E+03  0.00000000000E+00 0. -1.
         21    1    1    2  506  503  0.74568894085E+02  0.82265100040E+02  0.14949809617E+04  0.14990984432E+04  0.00000000000E+00 0. -1.
<scales pt_clust_3="106.81992" pt_clust_4="39.06692" pt_clust_5="78.87958" pt_clust_6="14000.00000"></scales>
<clustering>
<clus scale="   39.067">  2  4  1 -1</clus>
<clus scale="   78.880">  2  5  1 -1</clus>
<clus scale="  106.820">  2  3  1 -1</clus>
<clus scale="  106.820">  1  3  2 -1</clus>
</clustering>
</event>
<event>
 6    0  0.1361919E+003  0.1315856E+03  0.7546771E-02  0.1225122E+00
         21   -1    0    0  504  501  0.00000000000E+00  0.00000000000E+00  0.57033429432E+03  0.57033429432E+03  0.00000000000E+00 0.  1.
         21   -1    0    0  506  502 -0.00000000000E+00 -0.00000000000E+00 -0.54119860921E+03  0.54119860921E+03  0.00000000000E+00 0.  1.
         21    1    1    2  503  501 -0.10142298572E+03 -0.31863747348E+02  0.13541265398E+03  0.17215837849E+03  0.00000000000E+00 0.  1.
         21    1    1    2  504  505 -0.61354182733E+02  0.67462057194E+02  0.29065395084E+03  0.30462301955E+03  0.00000000000E+00 0.  1.
         21    1    1    2  505  502  0.13096195330E+03  0.93630948903E+02  0.49880483369E+02  0.16854035251E+03  0.00000000000E+00 0.  1.
         21    1    1    2  506  503  0.31815215151E+02 -0.12922925875E+03 -0.44681140309E+03  0.46621115298E+03  0.00000000000E+00 0.  1.
<scales pt_clust_3="14000.00000" pt_clust_4="91.18917" pt_clust_5="131.58557" pt_clust_6="130.24536"></scales>
<clustering>
<clus scale="   91.189">  1  4  2 -1</clus>
<clus scale="  130.245">  2  6  1 -1</clus>
<clus scale="  131.586">  2  5  1 -1</clus>
<clus scale="   91.189">  1  3  2 -1</clus>
</clustering>
</event>
<event>
 6    0  0.1361919E+003  0.7071893E+02  0.7546771E-02  0.1357665E+00
         21   -1    0    0  503  501  0.00000000000E+00  0.00000000000E+00  0.68889496044E+03  0.68889496044E+03  0.00000000000E+00 0. -1.
         21   -1    0    0  505  502 -0.00000000000E+00 -0.00000000000E+00 -0.33241347098E+02  0.33241347098E+02  0.00000000000E+00 0. -1.
         21    1    1    2  503  502  0.59532931000E+02  0.74764322549E+01  0.29670947739E+03  0.30271534630E+03  0.00000000000E+00 0. -1.
         21    1    1    2  504  501 -0.50300717070E+02  0.64946669426E+02  0.19027930925E+03  0.20725454768E+03  0.00000000000E+00 0. -1.
         21    1    1    2  505  506  0.38540079848E+02  0.36539540842E+01  0.45933663229E+02  0.60071545284E+02  0.00000000000E+00 0. -1.
         21    1    1    2  506  504 -0.47772293778E+02 -0.76077055765E+02  0.12273116348E+03  0.15209486827E+03  0.00000000000E+00 0. -1.
<scales pt_clust_3="64.44044" pt_clust_4="70.71893" pt_clust_5="38.71291" pt_clust_6="14000.00000"></scales>
<clustering>
<clus scale="   38.713">  2  5  1 -1</clus>
<clus scale="   64.440">  1  3  2 -1</clus>
<clus scale="   70.719">  1  4  2 -1</clus>
<clus scale="   64.440">  1  3  2 -1</clus>
</clustering>
</event>
<event>
 6    0  0.1361919E+003  0.1765671E+03  0.7546771E-02  0.1171167E+00
         21   -1    0    0  506  501  0.00000000000E+00  0.00000000000E+00  0.32700782649E+03  0.32700782649E+03  0.00000000000E+00 0. -1.
         21   -1    0    0  505  502 -0.00000000000E+00 -0.00000000000E+00 -0.17667406752E+04  0.17667406752E+04  0.00000000000E+00 0. -1.
         21    1    1    2  503  502  0.22190595623E+02  0.30820095788E+02 -0.15178978611E+03  0.15646865503E+03  0.00000000000E+00 0. -1.
         21    1    1    2  504  503 -0.10046148321E+03  0.17751169307E+03 -0.42314774986E+01  0.20401180404E+03  0.00000000000E+00 0. -1.
         21    1    1    2  505  501 -0.41190442258E+02 -0.87800449249E+02 -0.14746381322E+04  0.14778238029E+04  0.00000000000E+00 0. -1.
         21    1    1    2  506  504  0.11946132984E+03 -0.12053133961E+03  0.19092654719E+03  0.25544423966E+03  0.00000000000E+00 0. -1.
<scales pt_clust_3="37.97764" pt_clust_4="14000.00000" pt_clust_5="63.13812" pt_clust_6="176.56706"></scales>
<clustering>
<clus scale="   37.978">  2  3  1 -1</clus>
<clus scale="   63.138">  2  5  1 -1</clus>
<clus scale="  176.567">  1  6  2 -1</clus>
<clus scale="  176.567">  1  3  2 -1</clus>
</clustering>
</event>
<event>
 6    0  0.1361919E+003  0.7171636E+02  0.7546771E-02  0.1354352E+00
         21   -1    0    0  506  501  0.00000000000E+00  0.00000000000E+00  0.84074832666E+02  0.84074832666E+02  0.00000000000E+00 0. -1.
         21   -1    0    0  503  502 -0.00000000000E+00 -0.00000000000E+00 -0.11482783230E+04  0.11482783230E+04  0.00000000000E+00 0. -1.
         21    1    1    2  503  501 -0.24287398718E+02  0.66429870815E+02  0.45668890058E+02  0.84192950965E+02  0.00000000000E+00 0. -1.
         21    1    1    2  504  502  0.49338824718E+02  0.10645227428E+02 -0.78033302048E+03  0.78196372253E+03  0.00000000000E+00 0. -1.
         21    1    1    2  505  504 -0.64981156721E+02 -0.94246827533E+01 -0.23114448232E+03  0.24028971488E+03  0.00000000000E+00 0. -1.
         21    1    1    2  506  505  0.39929730720E+02 -0.67650415490E+02 -0.98394877563E+02  0.12590676726E+03  0.00000000000E+00 0. -1.
<scales pt_clust_3="71.71636" pt_clust_4="50.47416" pt_clust_5="33.40354" pt_clust_6="14000.00000"></scales>
<clustering>
<clus scale="   50.474">  2  4  1 -1</clus>
<clus scale="   33.404">  2  5  1 -1</clus>
<clus scale="   71.716">  1  3  2 -1</clus>
<clus scale="   71.716">  1  3  2 -1</clus>
</clustering>
</event>
<event>
 6    0  0.1361919E+003  0.9000393E+02  0.7546771E-02  0.1302842E+00
         21   -1    0    0  506  501  0.00000000000E+00  0.00000000000E+00  0.98125242669E+03  0.98125242669E+03  0.00000000000E+00 0. -1.
         21   -1    0    0  504  502 -0.00000000000E+00 -0.00000000000E+00 -0.13500145113E+04  0.13500145113E+04  0.00000000000E+00 0. -1.
         21    1    1    2  503  501 -0.19456469947E+02  0.30957680792E+02  0.92624164925E+03  0.92696306562E+03  0.00000000000E+00 0. -1.
         21    1    1    2  504  505  0.15478159996E+02 -0.47407637743E+02 -0.11446984549E+04  0.11457842773E+04  0.00000000000E+00 0. -1.
         21    1    1    2  505  503  0.63146941902E+02  0.83608075195E+02 -0.12959202290E+03  0.16664914914E+03  0.00000000000E+00 0.  1.
         21    1    1    2  506  502 -0.59168631951E+02 -0.67158118244E+02 -0.20713256072E+02  0.91870445902E+02  0.00000000000E+00 0. -1.
<scales pt_clust_3="36.56408" pt_clust_4="49.51814" pt_clust_5="14000.00000" pt_clust_6="90.00393"></scales>
<clustering>
<clus scale="   36.564">  1  3  2 -1</clus>
<clus scale="   49.518">  2  4  1 -1</clus>
<clus scale="   90.004">  1  6  2 -1</clus>
<clus scale="   36.564">  1  3  2 -1</clus>
</clustering>
</event>
<event>
 6    0  0.1361919E+003  0.6829142E+02  0.7546771E-02  0.1366001E+00
         21   -1    0    0  504  501  0.00000000000E+00  0.00000000000E+00  0.17182715383E+04  0.17182715383E+04  0.00000000000E+00 0.  1.
         21   -1    0    0  505  502 -0.00000000000E+00 -0.00000000000E+00 -0.33270710716E+02  0.33270710716E+02  0.00000000000E+00 0.  1.
         21    1    1    2  503  501  0.55093749408E+02  0.87293974305E+01  0.59393580673E+03  0.59654946661E+03  0.00000000000E+00 0.  1.
         21    1    1    2  504  502  0.55020090935E+02  0.22717336236E+02  0.11916754381E+03  0.13320732438E+03  0.00000000000E+00 0.  1.
         21    1    1    2  505  506 -0.29503938582E+02 -0.83520690385E+02  0.65110316047E+02  0.10993425931E+03  0.00000000000E+00 0.  1.
         21    1    1    2  506  503 -0.80609901762E+02  0.52073956718E+02  0.90678716096E+03  0.91185119867E+03  0.00000000000E+00 0.  1.
<scales pt_clust_3="55.78103" pt_clust_4="65.63798" pt_clust_5="68.29142" pt_clust_6="14000.00000"></scales>
<clustering>
<clus scale="   55.781">  1  3  2 -1</clus>
<clus scale="   65.638">  2  4  1 -1</clus>
<clus scale="   68.291">  2  5  1 -1</clus>
<clus scale="   55.781">  1  3  2 -1</clus>
</clustering>
</event>
<event>
 6    0  0.1361919E+003  0.9938868E+02  0.7546771E-02  0.1281587E+00
         21   -1    0    0  504  501  0.00000000000E+00  0.00000000000E+00  0.25218295339E+04  0.25218295339E+04  0.00000000000E+00 0.  1.
         21   -1    0    0  501  502 -0.00000000000E+00 -0.00000000000E+00 -0.47982754882E+02  0.47982754882E+02  0.00000000000E+00 0.  1.
         21    1    1    2  503  502 -0.38917025424E+02 -0.28269824393E+02 -0.84587286952E+01  0.48839204848E+02  0.00000000000E+00 0.  1.
         21    1    1    2  504  505  0.44725944270E+02 -0.42065432853E+02  0.18427503829E+04  0.18437730024E+04  0.00000000000E+00 0.  1.
         21    1    1    2  505  506  0.76199144436E+02  0.13872764699E+02  0.49887168111E+03  0.50484821226E+03  0.00000000000E+00 0.  1.
         21    1    1    2  506  503 -0.82008063283E+02  0.56462492546E+02  0.14068344374E+03  0.17235186929E+03  0.00000000000E+00 0. -1.
<scales pt_clust_3="48.10112" pt_clust_4="61.17485" pt_clust_5="99.38868" pt_clust_6="14000.00000"></scales>
<clustering>
<clus scale="   48.101">  2  3  1 -1</clus>
<clus scale="   61.175">  1  4  2 -1</clus>
<clus scale="   99.389">  1  5  2 -1</clus>
<clus scale="   61.175">  1  3  2 -1</clus>
</clustering>
</event>
<event>
 6    0  0.1361919E+003  0.1180096E+03  0.7546771E-02  0.1246417E+00
         21   -1    0    0  506  501  0.00000000000E+00  0.00000000000E+00  0.56901216907E+03  0.56901216907E+03  0.00000000000E+00 0. -1.
         21   -1    0    0  504  502 -0.00000000000E+00 -0.00000000000E+00 -0.55191823700E+03  0.55191823700E+03  0.00000000000E+00 0. -1.
         21    1    1    2  503  502 -0.92792674800E+02 -0.65689023739E+02 -0.42711455168E+03  0.44198684210E+03  0.00000000000E+00 0. -1.
         21    1    1    2  504  505  0.13287653780E+03  0.74344334743E+02 -0.42701687703E+02  0.15813503261E+03  0.00000000000E+00 0. -1.
         21    1    1    2  505  501 -0.70219094332E+02  0.17748900950E+02  0.65977605622E+02  0.97973410359E+02  0.00000000000E+00 0. -1.
         21    1    1    2  506  503  0.30135231333E+02 -0.26404211955E+02  0.42093256583E+03  0.42283512100E+03  0.00000000000E+00 0. -1.
<scales pt_clust_3="14000.00000" pt_clust_4="118.00956" pt_clust_5="53.51490" pt_clust_6="40.06638"></scales>
<clustering>
<clus scale="   40.066">  1  6  2 -1</clus>
<clus scale="   53.515">  1  5  2 -1</clus>
<clus scale="  118.010">  1  4  2 -1</clus>
<clus scale="   40.066">  1  3  2 -1</clus>
</clustering>
</event>
<event>
 6    0  0.1361919E+003  0.8384174E+02  0.7546771E-02  0.1318490E+00
         21   -1    0    0  503  501  0.00000000000E+00  0.00000000000E+00  0.86084876423E+03  0.86084876423E+03  0.00000000000E+00 0. -1.
         21   -1    0    0  501  502 -0.00000000000E+00 -0.00000000000E+00 -0.31333769551E+03  0.31333769551E+03  0.00000000000E+00 0.  1.
         21    1    1    2  503  505 -0.23788958094E+02 -0.36737568868E+02  0.57982879407E+03  0.58147828328E+03  0.00000000000E+00 0. -1.
         21    1    1    2  504  502 -0.71769484155E+02  0.45194906347E+02 -0.28316352641E+03  0.29559266078E+03  0.00000000000E+00 0.  1.
         21    1    1    2  505  506  0.14291211632E+00 -0.45865391970E+02  0.13430803026E+03  0.14192357661E+03  0.00000000000E+00 0. -1.
         21    1    1    2  506  504  0.95415530132E+02  0.37408054491E+02  0.11653777080E+03  0.15519193908E+03  0.00000000000E+00 0. -1.
<scales pt_clust_3="43.76715" pt_clust_4="83.84174" pt_clust_5="65.01452" pt_clust_6="14000.00000"></scales>
<clustering>
<clus scale="   43.767">  1  3  2 -1</clus>
<clus scale="   65.015">  1  5  2 -1</clus>
<clus scale="   83.842">  2  4  1 -1</clus>
<clus scale="   43.767">  1  3  2 -1</clus>
</clustering>
</event>
<event>
 6    0  0.1361919E+003  0.9693705E+02  0.7546771E-02  0.1286872E+00
         21   -1    0    0  506  501  0.00000000000E+00  0.00000000000E+00  0.62340361940E+03  0.62340361940E+03  0.00000000000E+00 0.  1.
         21   -1    0    0  504  502 -0.00000000000E+00 -0.00000000000E+00 -0.24294769258E+03  0.24294769258E+03  0.00000000000E+00 0. -1.
         21    1    1    2  503  502  0.94916721210E+01  0.43316420579E+02  0.26315690202E+02  0.51564713538E+02  0.00000000000E+00 0.  1.
         21    1    1    2  504  501 -0.63502503918E+02 -0.60036474272E+02 -0.21158577083E+03  0.22892244247E+03  0.00000000000E+00 0. -1.
         21    1    1    2  505  503 -0.14917115350E+02  0.50530687350E+02  0.92513027346E+02  0.10646375403E+03  0.00000000000E+00 0.  1.
         21    1    1    2  506  505  0.68927947147E+02 -0.33810633657E+02  0.47321298010E+03  0.47940040194E+03  0.00000000000E+00 0.  1.
<scales pt_clust_3="41.19225" pt_clust_4="85.91143" pt_clust_5="41.19225" pt_clust_6="76.77383"></scales>
<clustering>
<clus scale="   41.192">  3  5 -1 -1</clus>
<clus scale="   76.774">  1  6  2 -1</clus>
<clus scale="   85.911">  2  4  1 -1</clus>
<clus scale="   76.774">  1  3  2 -1</clus>
</clustering>
</event>
<event>
 6    0  0.1361919E+003  0.1616592E+03  0.7546771E-02  0.1186836E+00
         21   -1    0    0  504  501  0.00000000000E+00  0.00000000000E+00  0.82228830138E+03  0.82228830138E+03  0.00000000000E+00 0.  1.
         21   -1    0    0  505  502 -0.00000000000E+00 -0.00000000000E+00 -0.10936540975E+03  0.10936540975E+03  0.00000000000E+00 0. -1.
         21    1    1    2  503  502  0.52290988993E+02 -0.13171043761E+02  0.12119999001E+02  0.55269506054E+02  0.00000000000E+00 0. -1.
         21    1    1    2  504  503  0.12538784928E+03  0.75787758899E+02  0.15728946601E+03  0.21495551462E+03  0.00000000000E+00 0. -1.
         21    1    1    2  505  506 -0.15270805039E+03 -0.10770532868E+03  0.94386049611E+02  0.20935355942E+03  0.00000000000E+00 0. -1.
         21    1    1    2  506  501 -0.24970787880E+02  0.45088613538E+02  0.44912737702E+03  0.45207513104E+03  0.00000000000E+00 0.  1.
<scales pt_clust_3="50.84528" pt_clust_4="14000.00000" pt_clust_5="161.65924" pt_clust_6="51.54147"></scales>
<clustering>
<clus scale="   51.541">  1  6  2 -1</clus>
<clus scale="   50.845">  2  3  1 -1</clus>
<clus scale="  161.659">  2  5  1 -1</clus>
<clus scale="   51.541">  1  3  2 -1</clus>
</clustering>
</event>
<event>
 6    0  0.1361919E+003  0.6728825E+02  0.7546771E-02  0.1369565E+00
         21   -1    0    0  504  501  0.00000000000E+00  0.00000000000E+00  0.33624003769E+03  0.33624003769E+03  0.00000000000E+00 0. -1.
         21   -1    0    0  506  502 -0.00000000000E+00 -0.00000000000E+00 -0.48422572870E+03  0.48422572870E+03  0.00000000000E+00 0.  1.
         21    1    1    2  503  501  0.47118824879E+02 -0.46946281906E+02  0.28776819295E+03  0.29535515894E+03  0.00000000000E+00 0. -1.
         21    1    1    2  504  505 -0.93659535797E+02  0.91691431356E+02 -0.29881213075E+03  0.32629452449E+03  0.00000000000E+00 0.  1.
         21    1    1    2  505  502 -0.10215389590E+02 -0.49188279077E+02 -0.13251059356E+03  0.14171414322E+03  0.00000000000E+00 0.  1.
         21    1    1    2  506  503  0.56756100507E+02  0.44431296271E+01 -0.44311596524E+01  0.57101939735E+02  0.00000000000E+00 0.  1.
<scales pt_clust_3="14000.00000" pt_clust_4="67.28825" pt_clust_5="50.23784" pt_clust_6="55.85072"></scales>
<clustering>
<clus scale="   50.238">  2  5  1 -1</clus>
<clus scale="   55.851">  2  6  1 -1</clus>
<clus scale="   67.288">  2  4  1 -1</clus>
<clus scale="   67.288">  1  3  2 -1</clus>
</clustering>
</event>
<event>
 6    0  0.1361919E+003  0.2518212E+03  0.7546771E-02  0.1112159E+00
         21   -1    0    0  505  501  0.00000000000E+00  0.00000000000E+00  0.19458024378E+04  0.19458024378E+04  0.00000000000E+00 0.  1.
         21   -1    0    0  503  502 -0.00000000000E+00 -0.00000000000E+00 -0.21145652207E+03  0.21145652207E+03  0.00000000000E+00 0. -1.
         21    1    1    2  503  506 -0.44688211447E+02  0.17588693267E+01 -0.17630369270E+03  0.18188766292E+03  0.00000000000E+00 0. -1.
         21    1    1    2  504  501 -0.48081247399E+02 -0.42842691186E+02  0.23955535856E+03  0.24806062234E+03  0.00000000000E+00 0.  1.
         21    1    1    2  505  502  0.24554984458E+03  0.11459976062E+02  0.13281574398E+04  0.13507139749E+04  0.00000000000E+00 0.  1.
         21    1    1    2  506  504 -0.15278038573E+03  0.29623845798E+02  0.34293681007E+03  0.37659669968E+03  0.00000000000E+00 0.  1.
<scales pt_clust_3="44.72281" pt_clust_4="63.20141" pt_clust_5="230.29197" pt_clust_6="63.20141"></scales>
<clustering>
<clus scale="   44.723">  2  3  1 -1</clus>
<clus scale="   63.201">  4  6 -1 -1</clus>
<clus scale="  230.292">  1  5  2 -1</clus>
<clus scale="  230.292">  1  3  2 -1</clus>
</clustering>
</event>
<event>
 6    0  0.1361919E+003  0.1141235E+03  0.7546771E-02  0.1253119E+00
         21   -1    0    0  504  501  0.00000000000E+00  0.00000000000E+00  0.11233219940E+04  0.11233219940E+04  0.00000000000E+00 0.  1.
         21   -1    0    0  503  502 -0.00000000000E+00 -0.00000000000E+00 -0.65013091677E+03  0.65013091677E+03  0.00000000000E+00 0.  1.
         21    1    1    2  503  506  0.22202227746E+02 -0.47046882453E+02 -0.80081986277E+02  0.95495929712E+02  0.00000000000E+00 0.  1.
         21    1    1    2  504  505 -0.36851086806E+02 -0.12184853056E+02  0.24906666745E+02  0.46117407680E+02  0.00000000000E+00 0. -1.
         21    1    1    2  505  502  0.79977265343E+02  0.98942490149E+02 -0.54302223821E+03  0.55772675256E+03  0.00000000000E+00 0.  1.
         21    1    1    2  506  501 -0.65328406284E+02 -0.39710754641E+02  0.10713886350E+04  0.10741128209E+04  0.00000000000E+00 0.  1.
<scales pt_clust_3="51.98993" pt_clust_4="38.81331" pt_clust_5="14000.00000" pt_clust_6="114.12347"></scales>
<clustering>
<clus scale="   38.813">  1  4  2 -1</clus>
<clus scale="   51.990">  2  3  1 -1</clus>
<clus scale="  114.123">  1  6  2 -1</clus>
<clus scale="   38.813">  1  3  2 -1</clus>
</clustering>
</event>
<event>
 6    0  0.1361919E+003  0.1852443E+03  0.7546771E-02  0.1162822E+00
         21   -1    0    0  503  501  0.00000000000E+00  0.00000000000E+00  0.12772781919E+03  0.12772781919E+03  0.00000000000E+00 0. -1.
         21   -1    0    0  501  502 -0.00000000000E+00 -0.00000000000E+00 -0.47793702832E+03  0.47793702832E+03  0.00000000000E+00 0. -1.
         21    1    1    2  503  506  0.16704583378E+03  0.92620895562E+02 -0.78998232959E+01  0.19116837627E+03  0.00000000000E+00 0. -1.
         21    1    1    2  504  502 -0.32914912171E+02 -0.17406409091E+02 -0.18536119427E+03  0.18906386980E+03  0.00000000000E+00 0. -1.
         21    1    1    2  505  504 -0.47785715620E+02 -0.27564679694E+02 -0.92242157380E+02  0.10747977383E+03  0.00000000000E+00 0. -1.
         21    1    1    2  506  505 -0.86345205985E+02 -0.47649806778E+02 -0.64706034175E+02  0.11795282761E+03  0.00000000000E+00 0. -1.
<scales pt_clust_3="178.26010" pt_clust_4="37.23405" pt_clust_5="39.54445" pt_clust_6="39.54445"></scales>
<clustering>
<clus scale="   37.234">  2  4  1 -1</clus>
<clus scale="   39.544">  5  6 -1 -1</clus>
<clus scale="  178.260">  1  3  2 -1</clus>
<clus scale="  178.260">  1  3  2 -1</clus>
</clustering>
</event>
<event>
 6    0  0.1361919E+003  0.9201199E+02  0.7546771E-02  0.1298051E+00
         21   -1    0    0  505  501  0.00000000000E+00  0.00000000000E+00  0.21115905759E+03  0.21115905759E+03  0.00000000000E+00 0. -1.
         21   -1    0    0  503  502 -0.00000000000E+00 -0.00000000000E+00 -0.15164943539E+04  0.15164943539E+04  0.00000000000E+00 0. -1.
         21    1    1    2  503  506  0.55219943225E+02 -0.18058658782E+02 -0.62752428665E+03  0.63020797172E+03  0.00000000000E+00 0. -1.
         21    1    1    2  504  502 -0.10223433060E+03 -0.59322879042E+02 -0.84412156466E+03  0.85235689606E+03  0.00000000000E+00 0. -1.
         21    1    1    2  505  504  0.10032712443E+03  0.70579805953E+02  0.91780825354E+02  0.15320169976E+03  0.00000000000E+00 0. -1.
         21    1    1    2  506  501 -0.53312737064E+02  0.68017318705E+01  0.74529729651E+02  0.91886843952E+02  0.00000000000E+00 0. -1.
<scales pt_clust_3="57.54435" pt_clust_4="92.01199" pt_clust_5="14000.00000" pt_clust_6="53.74487"></scales>
<clustering>
<clus scale="   53.745">  1  6  2 -1</clus>
<clus scale="   57.544">  2  3  1 -1</clus>
<clus scale="   92.012">  2  4  1 -1</clus>
<clus scale="   53.745">  1  3  2 -1</clus>
</clustering>
</event>
<event>
 6    0  0.1361919E+003  0.1635122E+03  0.7546771E-02  0.1184788E+00
         21   -1    0    0  505  501  0.00000000000E+00  0.00000000000E+00  0.46229740738E+03  0.46229740738E+03  0.00000000000E+00 0.  1.
         21   -1    0    0  501  502 -0.00000000000E+00 -0.00000000000E+00 -0.59803559028E+03  0.59803559028E+03  0.00000000000E+00 0. -1.
         21    1    1    2  503  506  0.12785473200E+03  0.55367887624E+02 -0.69797256248E+02  0.15583354086E+03  0.00000000000E+00 0.  1.
         21    1    1    2  504  503  0.74824120282E+02 -0.20329894383E+02  0.64171865959E+01  0.77801888573E+02  0.00000000000E+00 0. -1.
         21    1    1    2  505  504 -0.77647926933E+02 -0.59468254738E+01  0.36379946431E+03  0.37204114762E+03  0.00000000000E+00 0.  1.
         21    1    1    2  506  502 -0.12503092535E+03 -0.29091167767E+02 -0.43615757756E+03  0.45465642061E+03  0.00000000000E+00 0. -1.
<scales pt_clust_3="67.80773" pt_clust_4="67.80773" pt_clust_5="77.87532" pt_clust_6="135.91957"></scales>
<clustering>
<clus scale="   67.808">  3  4 -1 -1</clus>
<clus scale="   77.875">  1  5  2 -1</clus>
<clus scale="  135.920">  2  6  1 -1</clus>
<clus scale="   77.875">  1  3  2 -1</clus>
</clustering>
</event>
<event>
 6    0  0.1361919E+003  0.9261663E+02  0.7546771E-02  0.1296636E+00
         21   -1    0    0  505  501  0.00000000000E+00  0.00000000000E+00  0.17494708550E+03  0.17494708550E+03  0.00000000000E+00 0. -1.
         21   -1    0    0  503  502 -0.00000000000E+00 -0.00000000000E+00 -0.82631180603E+03  0.82631180603E+03  0.00000000000E+00 0. -1.
         21    1    1    2  503  506  0.17663315634E+02  0.37043799850E+02 -0.23992570439E+03  0.24341031091E+03  0.00000000000E+00 0. -1.
         21    1    1    2  504  501 -0.31723055073E+02 -0.30601184946E+02  0.91071986612E+01  0.45008063841E+02  0.00000000000E+00 0. -1.
         21    1    1    2  505  502  0.84473660998E+02 -0.47254492851E+02  0.12677498437E+03  0.15950135786E+03  0.00000000000E+00 0. -1.
         21    1    1    2  506  504 -0.70413921560E+02  0.40811877947E+02 -0.54732119917E+03  0.55333915892E+03  0.00000000000E+00 0. -1.
<scales pt_clust_3="41.03944" pt_clust_4="42.89936" pt_clust_5="92.61663" pt_clust_6="14000.00000"></scales>
<clustering>
<clus scale="   41.039">  2  3  1 -1</clus>
<clus scale="   42.899">  1  4  2 -1</clus>
<clus scale="   92.617">  1  5  2 -1</clus>
<clus scale="   42.899">  1  3  2 -1</clus>
</clustering>
</event>
<event>
 6    0  0.1361919E+003  0.9459223E+02  0.7546771E-02  0.1292097E+00
         21   -1    0    0  504  501  0.00000000000E+00  0.00000000000E+00  0.22342879063E+03  0.22342879063E+03  0.00000000000E+00 0. -1.
         21   -1    0    0  503  502 -0.00000000000E+00 -0.00000000000E+00 -0.35766314865E+03  0.35766314865E+03  0.00000000000E+00 0.  1.
         21    1    1    2  503  501  0.43207521960E+02 -0.38061131213E+02  0.17632730546E+02  0.60220036945E+02  0.00000000000E+00 0. -1.
         21    1    1    2  504  505 -0.33249949769E+02  0.12134848510E+03  0.15525724006E+03  0.19983949707E+03  0.00000000000E+00 0. -1.
         21    1    1    2  505  506 -0.15392949398E+02 -0.36938785938E+02 -0.83542955780E+02  0.92632835745E+02  0.00000000000E+00 0.  1.
         21    1    1    2  506  502  0.54353772069E+01 -0.46348567953E+02 -0.22358137284E+03  0.22839956953E+03  0.00000000000E+00 0.  1.
<scales pt_clust_3="57.58072" pt_clust_4="85.13034" pt_clust_5="38.18697" pt_clust_6="38.18697"></scales>
<clustering>
<clus scale="   38.187">  5  6 -1 -1</clus>
<clus scale="   57.581">  1  3  2 -1</clus>
<clus scale="   85.130">  1  4  2 -1</clus>
<clus scale="   57.581">  1  3  2 -1</clus>
</clustering>
</event>
<event>
 6    0  0.1361919E+003  0.2128752E+03  0.7546771E-02  0.1139309E+00
         21   -1    0    0  504  501  0.00000000000E+00  0.00000000000E+00  0.27243661226E+03  0.27243661226E+03  0.00000000000E+00 0. -1.
         21   -1    0    0  501  502 -0.00000000000E+00 -0.00000000000E+00 -0.92416729261E+03  0.92416729261E+03  0.00000000000E+00 0. -1.
         21    1    1    2  503  502  0.22029046803E+03  0.81164784216E+02 -0.41858918902E+03  0.47992970492E+03  0.00000000000E+00 0. -1.
         21    1    1    2  504  505  0.15286309241E+02  0.50290072079E+02  0.22500312127E+02  0.57175402454E+02  0.00000000000E+00 0. -1.
         21    1    1    2  505  506 -0.32497308638E+02 -0.25296459184E+03  0.62883291021E+02  0.26268130517E+03  0.00000000000E+00 0. -1.
         21    1    1    2  506  503 -0.20307946863E+03  0.12150973555E+03 -0.31852509447E+03  0.39681749233E+03  0.00000000000E+00 0. -1.
<scales pt_clust_3="212.87522" pt_clust_4="52.56199" pt_clust_5="218.85787" pt_clust_6="14000.00000"></scales>
<clustering>
<clus scale="   52.562">  1  4  2 -1</clus>
<clus scale="  218.858">  1  5  2 -1</clus>
<clus scale="  212.875">  2  3  1 -1</clus>
<clus scale="   52.562">  1  3  2 -1</clus>
</clustering>
</event>
<event>
 6    0  0.1361919E+003  0.1563108E+03  0.7546771E-02  0.1192926E+00
         21   -1    0    0  506  501  0.00000000000E+00  0.00000000000E+00  0.11764583593E+04  0.11764583593E+04  0.00000000000E+00 0. -1.
         21   -1    0    0  504  502 -0.00000000000E+00 -0.00000000000E+00 -0.30942536459E+03  0.30942536459E+03  0.00000000000E+00 0.  1.
         21    1    1    2  503  502 -0.12341192974E+03  0.10575812777E+03  0.25594720221E+03  0.30319013228E+03  0.00000000000E+00 0. -1.
         21    1    1    2  504  505  0.39957836561E+02  0.78712924056E+01 -0.24277305307E+03  0.24616527221E+03  0.00000000000E+00 0.  1.
         21    1    1    2  505  501  0.56063410341E+02  0.47930816768E+02  0.71462804352E+01  0.74104915486E+02  0.00000000000E+00 0.  1.
         21    1    1    2  506  503  0.27390682839E+02 -0.16156023694E+03  0.84671256511E+03  0.86242340390E+03  0.00000000000E+00 0. -1.
<scales pt_clust_3="156.31082" pt_clust_4="40.72574" pt_clust_5="92.62405" pt_clust_6="14000.00000"></scales>
<clustering>
<clus scale="   40.726">  2  4  1 -1</clus>
<clus scale="   92.624">  2  5  1 -1</clus>
<clus scale="  156.311">  2  3  1 -1</clus>
<clus scale="  156.311">  1  3  2 -1</clus>
</clustering>
</event>
<event>
 6    0  0.1361919E+003  0.8269804E+02  0.7546771E-02  0.1321565E+00
         21   -1    0    0  503  501  0.00000000000E+00  0.00000000000E+00  0.43794035611E+03  0.43794035611E+03  0.00000000000E+00 0. -1.
         21   -1    0    0  505  502 -0.00000000000E+00 -0.00000000000E+00 -0.27847446856E+03  0.27847446856E+03  0.00000000000E+00 0. -1.
         21    1    1    2  503  502 -0.92727235501E+02  0.67059201989E+02  0.92457368220E+02  0.14711778177E+03  0.00000000000E+00 0. -1.
         21    1    1    2  504  501 -0.23444857381E+02 -0.63520065550E+02  0.25440435606E+03  0.26326039665E+03  0.00000000000E+00 0. -1.
         21    1    1    2  505  506  0.47062766209E+02 -0.43497608519E+02 -0.21281734361E+03  0.22225698561E+03  0.00000000000E+00 0. -1.
         21    1    1    2  506  504  0.69109326672E+02  0.39958472080E+02  0.25421506892E+02  0.83779660639E+02  0.00000000000E+00 0. -1.
<scales pt_clust_3="82.69804" pt_clust_4="69.62280" pt_clust_5="64.08546" pt_clust_6="14000.00000"></scales>
<clustering>
<clus scale="   64.085">  2  5  1 -1</clus>
<clus scale="   69.623">  1  4  2 -1</clus>
<clus scale="   82.698">  2  3  1 -1</clus>
<clus scale="   69.623">  1  3  2 -1</clus>
</clustering>
</event>
<event>
 6    0  0.1361919E+003  0.1513732E+03  0.7546771E-02  0.1198796E+00
         21   -1    0    0  502  501  0.00000000000E+00  0.00000000000E+00  0.50158854017E+03  0.50158854017E+03  0.00000000000E+00 0. -1.
         21   -1    0    0  503  502 -0.00000000000E+00 -0.00000000000E+00 -0.10780616553E+03  0.10780616553E+03  0.00000000000E+00 0.  1.
         21    1    1    2  503  506 -0.37135972323E+02 -0.12232509773E+02 -0.35247099357E+02  0.52640979747E+02  0.00000000000E+00 0.  1.
         21    1    1    2  504  505  0.13356308050E+03 -0.10409423477E+01  0.38558967403E+03  0.40806810308E+03  0.00000000000E+00 0. -1.
         21    1    1    2  505  501  0.23291566820E+01  0.34785418794E+02  0.31363286841E+02  0.46894627550E+02  0.00000000000E+00 0.  1.
         21    1    1    2  506  504 -0.98756264859E+02 -0.21511966674E+02  0.12076513118E+02  0.10179099532E+03  0.00000000000E+00 0. -1.
<scales pt_clust_3="37.95950" pt_clust_4="138.58883" pt_clust_5="34.86331" pt_clust_6="37.95950"></scales>
<clustering>
<clus scale="   34.863">  1  5  2 -1</clus>
<clus scale="   37.960">  3  6 -1 -1</clus>
<clus scale="  138.589">  1  4  2 -1</clus>
<clus scale="   34.863">  1  3  2 -1</clus>
</clustering>
</event>
<event>
 6    0  0.1361919E+003  0.9112845E+02  0.7546771E-02  0.1300142E+00
         21   -1    0    0  506  501  0.00000000000E+00  0.00000000000E+00  0.38361820338E+03  0.38361820338E+03  0.00000000000E+00 0.  1.
         21   -1    0    0  503  502 -0.00000000000E+00 -0.00000000000E+00 -0.26875415586E+03  0.26875415586E+03  0.00000000000E+00 0. -1.
         21    1    1    2  503  501 -0.25820012518E+02 -0.10109484739E+03 -0.92644836626E+02  0.13953460850E+03  0.00000000000E+00 0. -1.
         21    1    1    2  504  502  0.63967286584E+02  0.48003562467E+02 -0.58522101075E+02  0.99100918647E+02  0.00000000000E+00 0. -1.
         21    1    1    2  505  504 -0.18669148347E+02  0.11096698568E+03 -0.25915589191E+02  0.11547219048E+03  0.00000000000E+00 0. -1.
         21    1    1    2  506  505 -0.19478125718E+02 -0.57875700754E+02  0.29194657442E+03  0.29826464161E+03  0.00000000000E+00 0.  1.
<scales pt_clust_3="14000.00000" pt_clust_4="68.89985" pt_clust_5="91.12845" pt_clust_6="61.06549"></scales>
<clustering>
<clus scale="   61.065">  1  6  2 -1</clus>
<clus scale="   68.900">  2  4  1 -1</clus>
<clus scale="   91.128">  1  5  2 -1</clus>
<clus scale="   61.065">  1  3  2 -1</clus>
</clustering>
</event>
<event>
 6    0  0.1361919E+003  0.8061979E+02  0.7546771E-02  0.1327302E+00
         21   -1    0    0  506  501  0.00000000000E+00  0.00000000000E+00  0.89117906437E+03  0.89117906437E+03  0.00000000000E+00 0. -1.
         21   -1    0    0  504  502 -0.00000000000E+00 -0.00000000000E+00 -0.91229782219E+02  0.91229782219E+02  0.00000000000E+00 0.  1.
         21    1    1    2  503  501  0.19444233294E+02  0.13729962134E+03  0.14267003303E+03  0.19895728826E+03  0.00000000000E+00 0.  1.
         21    1    1    2  504  503  0.18153920833E+02 -0.39151596226E+02 -0.47133928371E+02  0.63906334055E+02  0.00000000000E+00 0.  1.
         21    1    1    2  505  502 -0.22448783493E+02 -0.23542825082E+02  0.43792669066E+02  0.54552821715E+02  0.00000000000E+00 0. -1.
         21    1    1    2  506  505 -0.15149370634E+02 -0.74605200032E+02  0.66062050843E+03  0.66499240256E+03  0.00000000000E+00 0. -1.
<scales pt_clust_3="14000.00000" pt_clust_4="54.49848" pt_clust_5="32.53018" pt_clust_6="80.61979"></scales>
<clustering>
<clus scale="   32.530">  2  5  1 -1</clus>
<clus scale="   54.498">  2  4  1 -1</clus>
<clus scale="   80.620">  1  6  2 -1</clus>
<clus scale="   80.620">  1  3  2 -1</clus>
</clustering>
</event>
<event>
 6    0  0.1361919E+003  0.1008693E+03  0.7546771E-02  0.1278479E+00
         21   -1    0    0  503  501  0.00000000000E+00  0.00000000000E+00  0.97629595087E+02  0.97629595087E+02  0.00000000000E+00 0. -1.
         21   -1    0    0  501  502 -0.00000000000E+00 -0.00000000000E+00 -0.13344799155E+04  0.13344799155E+04  0.00000000000E+00 0.  1.
         21    1    1    2  503  506 -0.12141994333E+02 -0.68827839758E+02 -0.15091920144E+02  0.71501507717E+02  0.00000000000E+00 0. -1.
         21    1    1    2  504  505 -0.71245619459E+02 -0.10194319129E+02 -0.50575830257E+03  0.51085352406E+03  0.00000000000E+00 0.  1.
         21    1    1    2  505  502 -0.30964125292E+02  0.44940077538E+02 -0.72780588792E+03  0.72984916120E+03  0.00000000000E+00 0.  1.
         21    1    1    2  506  504  0.11435173908E+03  0.34082081348E+02  0.11805790237E+02  0.11990531758E+03  0.00000000000E+00 0. -1.
<scales pt_clust_3="67.16720" pt_clust_4="100.86926" pt_clust_5="54.57461" pt_clust_6="14000.00000"></scales>
<clustering>
<clus scale="   54.575">  2  5  1 -1</clus>
<clus scale="   67.167">  1  3  2 -1</clus>
<clus scale="  100.869">  2  4  1 -1</clus>
<clus scale="   67.167">  1  3  2 -1</clus>
</clustering>
</event>
<event>
 6    0  0.1361919E+003  0.1858220E+03  0.7546771E-02  0.1162284E+00
         21   -1    0    0  503  501  0.00000000000E+00  0.00000000000E+00  0.18945204693E+03  0.18945204693E+03  0.00000000000E+00 0. -1.
         21   -1    0    0  504  502 -0.00000000000E+00 -0.00000000000E+00 -0.84389754465E+03  0.84389754465E+03  0.00000000000E+00 0. -1.
         21    1    1    2  503  505  0.19126088197E+03  0.16033176518E+02  0.11429345540E+03  0.22338482864E+03  0.00000000000E+00 0. -1.
         21    1    1    2  504  506 -0.13413940455E+02  0.40259957126E+02 -0.22046412319E+03  0.22451108560E+03  0.00000000000E+00 0. -1.
         21    1    1    2  505  502 -0.37148262880E+02  0.70203663434E+01 -0.21369199524E+03  0.21701047857E+03  0.00000000000E+00 0. -1.
         21    1    1    2  506  501 -0.14069867863E+03 -0.63313499987E+02 -0.33458283469E+03  0.36844319877E+03  0.00000000000E+00 0. -1.
<scales pt_clust_3="14000.00000" pt_clust_4="50.32639" pt_clust_5="37.80581" pt_clust_6="185.82203"></scales>
<clustering>
<clus scale="   37.806">  2  5  1 -1</clus>
<clus scale="   50.326">  2  4  1 -1</clus>
<clus scale="  185.822">  2  6  1 -1</clus>
<clus scale="  185.822">  1  3  2 -1</clus>
</clustering>
</event>
<event>
 6    0  0.1361919E+003  0.1360823E+03  0.7546771E-02  0.1218700E+00
         21   -1    0    0  505  501  0.00000000000E+00  0.00000000000E+00  0.26161756963E+03  0.26161756963E+03  0.00000000000E+00 0. -1.
         21   -1    0    0  504  502 -0.00000000000E+00 -0.00000000000E+00 -0.85682407120E+03  0.85682407120E+03  0.00000000000E+00 0.  1.
         21    1    1    2  503  501  0.30646630389E+02  0.13442982980E+01  0.17426497911E+03  0.17694435859E+03  0.00000000000E+00 0. -1.
         21    1    1    2  504  503  0.10081426613E+03 -0.55677629864E+02  0.34545311081E+02  0.12023682148E+03  0.00000000000E+00 0. -1.
         21    1    1    2  505  506 -0.97917660897E+02  0.66387937047E+02 -0.44423096061E+03  0.45971335946E+03  0.00000000000E+00 0.  1.
         21    1    1    2  506  502 -0.33543235621E+02 -0.12054605481E+02 -0.35978583114E+03  0.36154710130E+03  0.00000000000E+00 0.  1.
<scales pt_clust_3="30.67610" pt_clust_4="136.08231" pt_clust_5="14000.00000" pt_clust_6="35.34373"></scales>
<clustering>
<clus scale="   30.676">  1  3  2 -1</clus>
<clus scale="   35.344">  2  6  1 -1</clus>
<clus scale="  136.082">  1  4  2 -1</clus>
<clus scale="   30.676">  1  3  2 -1</clus>
</clustering>
</event>
<event>
 6    0  0.1361919E+003  0.7948383E+02  0.7546771E-02  0.1330523E+00
         21   -1    0    0  504  501  0.00000000000E+00  0.00000000000E+00  0.81030579350E+02  0.81030579350E+02  0.00000000000E+00 0.  1.
         21   -1    0    0  506  502 -0.00000000000E+00 -0.00000000000E+00 -0.39224204494E+03  0.39224204494E+03  0.00000000000E+00 0.  1.
         21    1    1    2  503  505  0.30288140918E+01  0.58145091496E+02 -0.11955630221E+03  0.13298020446E+03  0.00000000000E+00 0.  1.
         21    1    1    2  504  503  0.59312079972E+02  0.38206682642E+02 -0.16867078990E+03  0.18283191405E+03  0.00000000000E+00 0.  1.
         21    1    1    2  505  502 -0.21634734439E+01 -0.42142357060E+02 -0.55895565017E+02  0.70035512881E+02  0.00000000000E+00 0.  1.
         21    1    1    2  506  501 -0.60177420620E+02 -0.54209417078E+02  0.32911191549E+02  0.87424992889E+02  0.00000000000E+00 0.  1.
<scales pt_clust_3="42.04224" pt_clust_4="79.48383" pt_clust_5="42.19785" pt_clust_6="14000.00000"></scales>
<clustering>
<clus scale="   42.198">  2  5  1 -1</clus>
<clus scale="   42.042">  2  3  1 -1</clus>
<clus scale="   79.484">  2  4  1 -1</clus>
<clus scale="   79.484">  1  3  2 -1</clus>
</clustering>
</event>
<event>
 6    0  0.1361919E+003  0.1357693E+03  0.7546771E-02  0.1219138E+00
         21   -1    0    0  505  501  0.00000000000E+00  0.00000000000E+00  0.63809371928E+03  0.63809371928E+03  0.00000000000E+00 0. -1.
         21   -1    0    0  506  502 -0.00000000000E+00 -0.00000000000E+00 -0.56407606339E+03  0.56407606339E+03  0.00000000000E+00 0. -1.
         21    1    1    2  503  501  0.84642625081E+01 -0.39520245548E+02  0.37851828445E+03  0.38066991635E+03  0.00000000000E+00 0. -1.
         21    1    1    2  504  502 -0.75740457086E+02 -0.28488493330E+02 -0.45226728600E+03  0.45944957186E+03  0.00000000000E+00 0. -1.
         21    1    1    2  505  504  0.10760251907E+03  0.11357234640E+03  0.21850692424E+03  0.26874198763E+03  0.00000000000E+00 0. -1.
         21    1    1    2  506  503 -0.40326324492E+02 -0.45563607527E+02 -0.70740266797E+02  0.93308306834E+02  0.00000000000E+00 0. -1.
<scales pt_clust_3="40.41650" pt_clust_4="14000.00000" pt_clust_5="135.76927" pt_clust_6="61.90941"></scales>
<clustering>
<clus scale="   40.417">  1  3  2 -1</clus>
<clus scale="   61.909">  2  6  1 -1</clus>
<clus scale="  135.769">  1  5  2 -1</clus>
<clus scale="   40.417">  1  3  2 -1</clus>
</clustering>
</event>
<event>
 6    0  0.1361919E+003  0.8680242E+02  0.7546771E-02  0.1310785E+00
         21   -1    0    0  503  501  0.00000000000E+00  0.00000000000E+00  0.85384246240E+03  0.85384246240E+03  0.00000000000E+00 0. -1.
         21   -1    0    0  505  502 -0.00000000000E+00 -0.00000000000E+00 -0.70436393980E+02  0.70436393980E+02  0.00000000000E+00 0. -1.
         21    1    1    2  503  506 -0.39962949968E+02  0.60841961302E+02  0.21129248836E+03  0.22347997061E+03  0.00000000000E+00 0. -1.
         21    1    1    2  504  501  0.56448882302E+02 -0.79365303713E+02  0.51137118575E+03  0.52056298117E+03  0.00000000000E+00 0. -1.
         21    1    1    2  505  504 -0.29493335569E+02 -0.52382194463E+02 -0.27655012820E+02  0.66170619415E+02  0.00000000000E+00 0. -1.
         21    1    1    2  506  502  0.13007403235E+02  0.70905536874E+02  0.88397407130E+02  0.11406528519E+03  0.00000000000E+00 0. -1.
<scales pt_clust_3="14000.00000" pt_clust_4="86.80242" pt_clust_5="60.11448" pt_clust_6="42.43915"></scales>
<clustering>
<clus scale="   60.114">  2  5  1 -1</clus>
<clus scale="   42.439">  2  6  1 -1</clus>
<clus scale="   86.802">  1  4  2 -1</clus>
<clus scale="   86.802">  1  3  2 -1</clus>
</clustering>
</event>
<event>
 6    0  0.1361919E+003  0.1007966E+03  0.7546771E-02  0.1278630E+00
         21   -1    0    0  503  501  0.00000000000E+00  0.00000000000E+00  0.99018229951E+03  0.99018229951E+03  0.00000000000E+00 0. -1.
         21   -1    0    0  506  502 -0.00000000000E+00 -0.00000000000E+00 -0.21179205532E+03  0.21179205532E+03  0.00000000000E+00 0. -1.
         21    1    1    2  503  504  0.10255862028E+02 -0.28264231517E+02  0.25212517893E+03  0.25391170776E+03  0.00000000000E+00 0. -1.
         21    1    1    2  504  502  0.49825140594E+02 -0.98978329932E+02  0.45117213807E+02  0.11964454611E+03  0.00000000000E+00 0.  1.
         21    1    1    2  505  501  0.45763150544E+02  0.11156192954E+03  0.63203944551E+03  0.64343934505E+03  0.00000000000E+00 0. -1.
         21    1    1    2  506  505 -0.10584415317E+03  0.15680631905E+02 -0.15089159406E+03  0.18497875590E+03  0.00000000000E+00 0. -1.
<scales pt_clust_3="30.06742" pt_clust_4="100.79663" pt_clust_5="102.82600" pt_clust_6="14000.00000"></scales>
<clustering>
<clus scale="   30.067">  1  3  2 -1</clus>
<clus scale="  102.826">  1  5  2 -1</clus>
<clus scale="  100.797">  1  4  2 -1</clus>
<clus scale="   30.067">  1  3  2 -1</clus>
</clustering>
</event>
<event>
 6    0  0.1361919E+003  0.1217760E+03  0.7546771E-02  0.1240196E+00
         21   -1    0    0  504  501  0.00000000000E+00  0.00000000000E+00  0.47782950703E+02  0.47782950703E+02  0.00000000000E+00 0.  1.
         21   -1    0    0  503  502 -0.00000000000E+00 -0.00000000000E+00 -0.21553544597E+04  0.21553544597E+04  0.00000000000E+00 0.  1.
         21    1    1    2  503  501 -0.11214239958E+03  0.88884013246E+02 -0.95515534622E+02  0.17204506081E+03  0.00000000000E+00 0.  1.
         21    1    1    2  504  505  0.17776183461E+02 -0.26780781530E+02 -0.25889169767E+02  0.41272897512E+02  0.00000000000E+00 0.  1.
         21    1    1    2  505  506  0.69790832778E+02 -0.31089968759E+02 -0.15427014701E+04  0.15445922349E+04  0.00000000000E+00 0.  1.
         21    1    1    2  506  502  0.24575383338E+02 -0.31013262956E+02 -0.44346533456E+03  0.44522721716E+03  0.00000000000E+00 0.  1.
<scales pt_clust_3="114.31667" pt_clust_4="32.14347" pt_clust_5="30.20077" pt_clust_6="30.20077"></scales>
<clustering>
<clus scale="   30.201">  5  6 -1 -1</clus>
<clus scale="   32.143">  1  4  2 -1</clus>
<clus scale="  114.317">  1  3  2 -1</clus>
<clus scale="   32.143">  1  3  2 -1</clus>
</clustering>
</event>
<event>
 6    0  0.1361919E+003  0.9863290E+02  0.7546771E-02  0.1283197E+00
         21   -1    0    0  504  501  0.00000000000E+00  0.00000000000E+00  0.28013302431E+02  0.28013302431E+02  0.00000000000E+00 0.  1.
         21   -1    0    0  505  502 -0.00000000000E+00 -0.00000000000E+00 -0.36388747391E+04  0.36388747391E+04  0.00000000000E+00 0.  1.
         21    1    1    2  503  501  0.12799883309E+02 -0.89914215057E+02 -0.26113634657E+03  0.27647892249E+03  0.00000000000E+00 0.  1.
         21    1    1    2  504  506  0.49801853962E+02  0.77448875791E+00 -0.27998944119E+02  0.57138125299E+02  0.00000000000E+00 0.  1.
         21    1    1    2  505  503 -0.17722615848E+02  0.10479445992E+03 -0.50122907108E+03  0.51237344939E+03  0.00000000000E+00 0.  1.
         21    1    1    2  506  502 -0.44879121423E+02 -0.15654733616E+02 -0.28204970749E+04  0.28208975444E+04  0.00000000000E+00 0.  1.
<scales pt_clust_3="98.63290" pt_clust_4="47.46688" pt_clust_5="14000.00000" pt_clust_6="47.53111"></scales>
<clustering>
<clus scale="   47.531">  2  6  1 -1</clus>
<clus scale="   47.467">  1  4  2 -1</clus>
<clus scale="   98.633">  1  3  2 -1</clus>
<clus scale="   47.467">  1  3  2 -1</clus>
</clustering>
</event>
<event>
 6    0  0.1361919E+003  0.9708870E+02  0.7546771E-02  0.1286540E+00
         21   -1    0    0  505  501  0.00000000000E+00  0.00000000000E+00  0.72003086475E+02  0.72003086475E+02  0.00000000000E+00 0.  1.
         21   -1    0    0  506  502 -0.00000000000E+00 -0.00000000000E+00 -0.75292685071E+03  0.75292685071E+03  0.00000000000E+00 0.  1.
         21    1    1    2  503  501  0.88309238633E+02  0.31103168979E+02 -0.14854838343E+01  0.93638322341E+02  0.00000000000E+00 0.  1.
         21    1    1    2  504  502  0.48686359951E+02 -0.16525942716E+02 -0.23384518530E+03  0.23943065617E+03  0.00000000000E+00 0.  1.
         21    1    1    2  505  504 -0.11590079581E+03  0.12643763808E+02 -0.13091599858E+03  0.17530504247E+03  0.00000000000E+00 0.  1.
         21    1    1    2  506  503 -0.21094802778E+02 -0.27220990071E+02 -0.31467709652E+03  0.31655591620E+03  0.00000000000E+00 0.  1.
<scales pt_clust_3="97.08870" pt_clust_4="48.64248" pt_clust_5="14000.00000" pt_clust_6="34.43796"></scales>
<clustering>
<clus scale="   34.438">  2  6  1 -1</clus>
<clus scale="   48.642">  2  4  1 -1</clus>
<clus scale="   97.089">  1  3  2 -1</clus>
<clus scale="   97.089">  1  3  2 -1</clus>
</clustering>
</event>
<event>
 6    0  0.1361919E+003  0.8847431E+02  0.7546771E-02  0.1306589E+00
         21   -1    0    0  503  501  0.00000000000E+00  0.00000000000E+00  0.49715081435E+02  0.49715081435E+02  0.00000000000E+00 0. -1.
         21   -1    0    0  505  502 -0.00000000000E+00 -0.00000000000E+00 -0.56065871941E+03  0.56065871941E+03  0.00000000000E+00 0. -1.
         21    1    1    2  503  504 -0.64067839689E+02  0.84348786007E+02 -0.10965798706E+03  0.15246074875E+03  0.00000000000E+00 0. -1.
         21    1    1    2  504  502  0.85287237825E+02 -0.51109255112E+02 -0.23677269884E+03  0.25680221924E+03  0.00000000000E+00 0. -1.
         21    1    1    2  505  506 -0.30774033264E+02  0.81560191095E+01 -0.15412039330E+03  0.15737425902E+03  0.00000000000E+00 0. -1.
         21    1    1    2  506  501  0.95546351281E+01 -0.41395550005E+02 -0.10392558779E+02  0.43736573832E+02  0.00000000000E+00 0. -1.
<scales pt_clust_3="88.47431" pt_clust_4="14000.00000" pt_clust_5="31.83648" pt_clust_6="41.53276"></scales>
<clustering>
<clus scale="   31.836">  2  5  1 -1</clus>
<clus scale="   41.533">  1  6  2 -1</clus>
<clus scale="   88.474">  1  3  2 -1</clus>
<clus scale="   41.533">  1  3  2 -1</clus>
</clustering>
</event>
<event>
 6    0  0.1361919E+003  0.1389677E+03  0.7546771E-02  0.1214725E+00
         21   -1    0    0  504  501  0.00000000000E+00  0.00000000000E+00  0.16353879543E+03  0.16353879543E+03  0.00000000000E+00 0. -1.
         21   -1    0    0  506  502 -0.00000000000E+00 -0.00000000000E+00 -0.37683146407E+03  0.37683146407E+03  0.00000000000E+00 0. -1.
         21    1    1    2  503  502  0.15046381708E+02  0.27758853525E+02 -0.87370367115E+02  0.92900638326E+02  0.00000000000E+00 0. -1.
         21    1    1    2  504  503  0.44129801225E+02  0.12675454901E+03  0.28074700560E+02  0.13712163892E+03  0.00000000000E+00 0. -1.
         21    1    1    2  505  501 -0.10918815902E+03 -0.11030919559E+03 -0.14724554283E+02  0.15590697611E+03  0.00000000000E+00 0. -1.
         21    1    1    2  506  505  0.50011976082E+02 -0.44204206945E+02 -0.13927244780E+03  0.15444100615E+03  0.00000000000E+00 0. -1.
<scales pt_clust_3="31.57448" pt_clust_4="138.96772" pt_clust_5="14000.00000" pt_clust_6="65.04324"></scales>
<clustering>
<clus scale="   31.574">  2  3  1 -1</clus>
<clus scale="   65.043">  2  6  1 -1</clus>
<clus scale="  138.968">  1  4  2 -1</clus>
<clus scale="  138.968">  1  3  2 -1</clus>
</clustering>
</event>
<event>
 6    0  0.1361919E+003  0.7829341E+02  0.7546771E-02  0.1333965E+00
         21   -1    0    0  504  501  0.00000000000E+00  0.00000000000E+00  0.23826440686E+04  0.23826440686E+04  0.00000000000E+00 0. -1.
         21   -1    0    0  505  502 -0.00000000000E+00 -0.00000000000E+00 -0.69667235659E+02  0.69667235659E+02  0.00000000000E+00 0. -1.
         21    1    1    2  503  502 -0.38596771375E+02  0.28920548154E+02 -0.46636104750E+02  0.67089754302E+02  0.00000000000E+00 0. -1.
         21    1    1    2  504  503 -0.48062303267E+02  0.66292879889E+01  0.78181036069E+02  0.92011992998E+02  0.00000000000E+00 0.  1.
         21    1    1    2  505  506  0.11237178050E+03  0.70066996974E+01  0.56773223343E+03  0.57878873501E+03  0.00000000000E+00 0.  1.
         21    1    1    2  506  501 -0.25712705862E+02 -0.42556535840E+02  0.17136996682E+04  0.17144208219E+04  0.00000000000E+00 0. -1.
<scales pt_clust_3="48.22975" pt_clust_4="78.29341" pt_clust_5="14000.00000" pt_clust_6="49.60467"></scales>
<clustering>
<clus scale="   48.230">  2  3  1 -1</clus>
<clus scale="   49.605">  1  6  2 -1</clus>
<clus scale="   78.293">  2  4  1 -1</clus>
<clus scale="   49.605">  1  3  2 -1</clus>
</clustering>
</event>
<event>
 6    0  0.1361919E+003  0.1138961E+03  0.7546771E-02  0.1253520E+00
         21   -1    0    0  505  501  0.00000000000E+00  0.00000000000E+00  0.25964304831E+03  0.25964304831E+03  0.00000000000E+00 0. -1.
         21   -1    0    0  506  502 -0.00000000000E+00 -0.00000000000E+00 -0.38070447625E+03  0.38070447625E+03  0.00000000000E+00 0.  1.
         21    1    1    2  503  501  0.11088486994E+02 -0.39344484252E+02  0.47323270023E+02  0.62533470003E+02  0.00000000000E+00 0.  1.
         21    1    1    2  504  502 -0.79736708311E+02  0.91710442763E+02  0.91813407597E+02  0.15231037318E+03  0.00000000000E+00 0. -1.
         21    1    1    2  505  504 -0.41587719523E+02 -0.20552910494E+02  0.65456844949E+02  0.80228168966E+02  0.00000000000E+00 0. -1.
         21    1    1    2  506  503  0.11023594084E+03 -0.31813048016E+02 -0.32565495051E+03  0.34527551241E+03  0.00000000000E+00 0.  1.
<scales pt_clust_3="40.87717" pt_clust_4="14000.00000" pt_clust_5="51.09616" pt_clust_6="113.89608"></scales>
<clustering>
<clus scale="   40.877">  1  3  2 -1</clus>
<clus scale="   51.096">  1  5  2 -1</clus>
<clus scale="  113.896">  2  6  1 -1</clus>
<clus scale="   40.877">  1  3  2 -1</clus>
</clustering>
</event>
<event>
 6    0  0.1361919E+003  0.9249658E+02  0.7546771E-02  0.1296916E+00
         21   -1    0    0  502  501  0.00000000000E+00  0.00000000000E+00  0.26660539980E+03  0.26660539980E+03  0.00000000000E+00 0.  1.
         21   -1    0    0  503  502 -0.00000000000E+00 -0.00000000000E+00 -0.10785310575E+04  0.10785310575E+04  0.00000000000E+00 0.  1.
         21    1    1    2  503  506 -0.56776722067E+02  0.77046774469E+02 -0.10160868936E+04  0.10205843311E+04  0.00000000000E+00 0.  1.
         21    1    1    2  504  505 -0.21274427818E+02 -0.49594550757E+02  0.98883345897E+02  0.11265050750E+03  0.00000000000E+00 0.  1.
         21    1    1    2  505  501  0.33053208516E+02  0.18269610219E+02  0.13573280899E+03  0.14088892322E+03  0.00000000000E+00 0.  1.
         21    1    1    2  506  504  0.44997941368E+02 -0.45721833931E+02 -0.30454919011E+02  0.71012695466E+02  0.00000000000E+00 0.  1.
<scales pt_clust_3="92.49658" pt_clust_4="35.04603" pt_clust_5="37.76630" pt_clust_6="14000.00000"></scales>
<clustering>
<clus scale="   37.766">  1  5  2 -1</clus>
<clus scale="   35.046">  1  4  2 -1</clus>
<clus scale="   92.497">  2  3  1 -1</clus>
<clus scale="   37.766">  1  3  2 -1</clus>
</clustering>
</event>
<event>
 6    0  0.1361919E+003  0.1116502E+03  0.7546771E-02  0.1257544E+00
         21   -1    0    0  504  501  0.00000000000E+00  0.00000000000E+00  0.36227973483E+03  0.36227973483E+03  0.00000000000E+00 0. -1.
         21   -1    0    0  503  502 -0.00000000000E+00 -0.00000000000E+00 -0.20566957096E+04  0.20566957096E+04  0.00000000000E+00 0.  1.
         21    1    1    2  503  501  0.25221820795E+01  0.55508343427E+02 -0.18081141089E+04  0.18089677079E+04  0.00000000000E+00 0.  1.
         21    1    1    2  504  506  0.15433351941E+02  0.31610538224E+02  0.24729319617E+03  0.24978258416E+03  0.00000000000E+00 0. -1.
         21    1    1    2  505  502  0.22822880530E+01  0.62973332551E+02 -0.18879120107E+03  0.19903006570E+03  0.00000000000E+00 0. -1.
         21    1    1    2  506  505 -0.20237822073E+02 -0.15009221420E+03  0.55196138978E+02  0.16119508666E+03  0.00000000000E+00 0. -1.
<scales pt_clust_3="55.68676" pt_clust_4="35.17690" pt_clust_5="14000.00000" pt_clust_6="111.65019"></scales>
<clustering>
<clus scale="   35.177">  1  4  2 -1</clus>
<clus scale="   55.687">  2  3  1 -1</clus>
<clus scale="  111.650">  1  6  2 -1</clus>
<clus scale="   35.177">  1  3  2 -1</clus>
</clustering>
</event>
<event>
 6    0  0.1361919E+003  0.1084921E+03  0.7546771E-02  0.1263388E+00
         21   -1    0    0  505  501  0.00000000000E+00  0.00000000000E+00  0.25860442047E+03  0.25860442047E+03  0.00000000000E+00 0. -1.
         21   -1    0    0  503  502 -0.00000000000E+00 -0.00000000000E+00 -0.51521080651E+03  0.51521080651E+03  0.00000000000E+00 0.  1.
         21    1    1    2  503  504 -0.55489822519E+00  0.12715739976E+03 -0.20591096015E+03  0.24200957778E+03  0.00000000000E+00 0.  1.
         21    1    1    2  504  506 -0.32955923239E+02 -0.11475740396E+02  0.96628483434E+02  0.10273679626E+03  0.00000000000E+00 0. -1.
         21    1    1    2  505  502  0.58199768917E+02 -0.48741433150E+02 -0.27365115773E+03  0.28398573297E+03  0.00000000000E+00 0.  1.
         21    1    1    2  506  501 -0.24688947453E+02 -0.66940226214E+02  0.12632724840E+03  0.14508311997E+03  0.00000000000E+00 0. -1.
<scales pt_clust_3="97.65794" pt_clust_4="33.05146" pt_clust_5="75.91403" pt_clust_6="33.05146"></scales>
<clustering>
<clus scale="   33.051">  4  6 -1 -1</clus>
<clus scale="   75.914">  2  5  1 -1</clus>
<clus scale="   97.658">  2  3  1 -1</clus>
<clus scale="  108.492">  1  3  2 -1</clus>
</clustering>
</event>
<event>
 6    0  0.1361919E+003  0.1031250E+03  0.7546771E-02  0.1273858E+00
         21   -1    0    0  504  501  0.00000000000E+00  0.00000000000E+00  0.48960463494E+03  0.48960463494E+03  0.00000000000E+00 0.  1.
         21   -1    0    0  506  502 -0.00000000000E+00 -0.00000000000E+00 -0.87781279140E+02  0.87781279140E+02  0.00000000000E+00 0.  1.
         21    1    1    2  503  505  0.87152567959E+02 -0.54936423163E+02  0.27685642933E+03  0.29540322130E+03  0.00000000000E+00 0.  1.
         21    1    1    2  504  503 -0.33157288372E+02 -0.18614098541E+02  0.58187723461E+02  0.69510442368E+02  0.00000000000E+00 0.  1.
         21    1    1    2  505  502  0.34565809988E+02 -0.42375191388E+02  0.28426150510E+02  0.61631956793E+02  0.00000000000E+00 0.  1.
         21    1    1    2  506  501 -0.88561089576E+02  0.11592571309E+03  0.38353052494E+02  0.15084029362E+03  0.00000000000E+00 0.  1.
<scales pt_clust_3="103.12501" pt_clust_4="38.02487" pt_clust_5="54.13909" pt_clust_6="14000.00000"></scales>
<clustering>
<clus scale="   38.025">  1  4  2 -1</clus>
<clus scale="   54.139">  2  5  1 -1</clus>
<clus scale="  103.125">  1  3  2 -1</clus>
<clus scale="   38.025">  1  3  2 -1</clus>
</clustering>
</event>
<event>
 6    0  0.1361919E+003  0.1594419E+03  0.7546771E-02  0.1189328E+00
         21   -1    0    0  505  501  0.00000000000E+00  0.00000000000E+00  0.61444672913E+03  0.61444672913E+03  0.00000000000E+00 0.  1.
         21   -1    0    0  504  502 -0.00000000000E+00 -0.00000000000E+00 -0.11391987990E+03  0.11391987990E+03  0.00000000000E+00 0. -1.
         21    1    1    2  503  502  0.37215795557E+02 -0.38487883495E+02  0.41824831527E+01  0.53701264232E+02  0.00000000000E+00 0.  1.
         21    1    1    2  504  501 -0.24662790025E+02 -0.12769152682E+03  0.70220090086E+02  0.14779797118E+03  0.00000000000E+00 0. -1.
         21    1    1    2  505  506  0.45548177409E+02 -0.30930943185E+02  0.25071254522E+03  0.25668685210E+03  0.00000000000E+00 0.  1.
         21    1    1    2  506  503 -0.58101182941E+02  0.19711035350E+03  0.17541173077E+03  0.27018052152E+03  0.00000000000E+00 0.  1.
<scales pt_clust_3="53.53814" pt_clust_4="14000.00000" pt_clust_5="56.81486" pt_clust_6="159.44190"></scales>
<clustering>
<clus scale="   53.538">  2  3  1 -1</clus>
<clus scale="   56.815">  1  5  2 -1</clus>
<clus scale="  159.442">  1  6  2 -1</clus>
<clus scale="   56.815">  1  3  2 -1</clus>
</clustering>
</event>
<event>
 6    0  0.1361919E+003  0.8284802E+02  0.7546771E-02  0.1321158E+00
         21   -1    0    0  506  501  0.00000000000E+00  0.00000000000E+00  0.74608290044E+03  0.74608290044E+03  0.00000000000E+00 0. -1.
         21   -1    0    0  503  502 -0.00000000000E+00 -0.00000000000E+00 -0.84762585561E+03  0.84762585561E+03  0.00000000000E+00 0.  1.
         21    1    1    2  503  505  0.13764763995E+02  0.41420501192E+02 -0.82425352615E+03  0.82540838500E+03  0.00000000000E+00 0.  1.
         21    1    1    2  504  502 -0.69759783730E+02 -0.97178827915E+01  0.16290727469E+03  0.17748139288E+03  0.00000000000E+00 0.  1.
         21    1    1    2  505  501 -0.40118380177E+02 -0.73984384819E+01  0.40462043343E+03  0.40667175519E+03  0.00000000000E+00 0. -1.
         21    1    1    2  506  504  0.96113399913E+02 -0.24304179919E+02  0.15518286287E+03  0.18414722299E+03  0.00000000000E+00 0.  1.
<scales pt_clust_3="43.61443" pt_clust_4="14000.00000" pt_clust_5="40.79487" pt_clust_6="82.84802"></scales>
<clustering>
<clus scale="   40.795">  1  5  2 -1</clus>
<clus scale="   43.614">  2  3  1 -1</clus>
<clus scale="   82.848">  1  6  2 -1</clus>
<clus scale="   40.795">  1  3  2 -1</clus>
</clustering>
</event>
<event>
 6    0  0.1361919E+003  0.1180291E+03  0.7546771E-02  0.1246384E+00
         21   -1    0    0  503  501  0.00000000000E+00  0.00000000000E+00  0.27481410380E+03  0.27481410380E+03  0.00000000000E+00 0.  1.
         21   -1    0    0  504  502 -0.00000000000E+00 -0.00000000000E+00 -0.10207257585E+04  0.10207257585E+04  0.00000000000E+00 0.  1.
         21    1    1    2  503  506 -0.57982209709E+01  0.12628934829E+03 -0.14586292221E+03  0.19302489719E+03  0.00000000000E+00 0. -1.
         21    1    1    2  504  505  0.73763327314E+02 -0.12611519368E+03  0.18346202438E+03  0.23453013649E+03  0.00000000000E+00 0.  1.
         21    1    1    2  505  501 -0.26194898206E+02  0.22070113857E+02  0.34494343843E+02  0.48611957118E+02  0.00000000000E+00 0.  1.
         21    1    1    2  506  502 -0.41770208138E+02 -0.22244268476E+02 -0.81800510073E+03  0.81937287153E+03  0.00000000000E+00 0.  1.
<scales pt_clust_3="118.02914" pt_clust_4="14000.00000" pt_clust_5="34.25292" pt_clust_6="47.36143"></scales>
<clustering>
<clus scale="   34.253">  1  5  2 -1</clus>
<clus scale="   47.361">  2  6  1 -1</clus>
<clus scale="  118.029">  2  3  1 -1</clus>
<clus scale="   34.253">  1  3  2 -1</clus>
</clustering>
</event>
<event>
 6    0  0.1361919E+003  0.2267489E+03  0.7546771E-02  0.1128949E+00
         21   -1    0    0  505  501  0.00000000000E+00  0.00000000000E+00  0.86489321338E+03  0.86489321338E+03  0.00000000000E+00 0. -1.
         21   -1    0    0  504  502 -0.00000000000E+00 -0.00000000000E+00 -0.37282171280E+03  0.37282171280E+03  0.00000000000E+00 0. -1.
         21    1    1    2  503  501  0.33823002335E+02 -0.43650315013E+02  0.43261521235E+03  0.43612528870E+03  0.00000000000E+00 0. -1.
         21    1    1    2  504  503  0.45701638819E+02  0.22805597712E+03 -0.29887981824E+03  0.37871798775E+03  0.00000000000E+00 0. -1.
         21    1    1    2  505  506 -0.33898585293E+02 -0.15874707165E+02  0.20727004944E+02  0.42787020770E+02  0.00000000000E+00 0. -1.
         21    1    1    2  506  502 -0.45626055860E+02 -0.16853095494E+03  0.33760910153E+03  0.38008462898E+03  0.00000000000E+00 0. -1.
<scales pt_clust_3="54.38017" pt_clust_4="14000.00000" pt_clust_5="37.43154" pt_clust_6="226.74895"></scales>
<clustering>
<clus scale="   37.432">  1  5  2 -1</clus>
<clus scale="   54.380">  1  3  2 -1</clus>
<clus scale="  226.749">  1  6  2 -1</clus>
<clus scale="   37.432">  1  3  2 -1</clus>
</clustering>
</event>
<event>
 6    0  0.1361919E+003  0.1123064E+03  0.7546771E-02  0.1256357E+00
         21   -1    0    0  503  501  0.00000000000E+00  0.00000000000E+00  0.27884957509E+03  0.27884957509E+03  0.00000000000E+00 0.  1.
         21   -1    0    0  506  502 -0.00000000000E+00 -0.00000000000E+00 -0.19151361259E+04  0.19151361259E+04  0.00000000000E+00 0.  1.
         21    1    1    2  503  504 -0.10453214043E+03 -0.42986645187E+02  0.25474374224E+03  0.27869193432E+03  0.00000000000E+00 0.  1.
         21    1    1    2  504  502  0.11691385374E+02  0.27866289929E+02 -0.14887377063E+03  0.15190990155E+03  0.00000000000E+00 0. -1.
         21    1    1    2  505  501  0.11249358828E+03 -0.34592149876E+02 -0.33251029262E+03  0.35272442350E+03  0.00000000000E+00 0.  1.
         21    1    1    2  506  505 -0.19652833234E+02  0.49712505135E+02 -0.14096462299E+04  0.14106594417E+04  0.00000000000E+00 0.  1.
<scales pt_clust_3="112.30643" pt_clust_4="30.21951" pt_clust_5="14000.00000" pt_clust_6="72.71431"></scales>
<clustering>
<clus scale="   30.220">  2  4  1 -1</clus>
<clus scale="   72.714">  2  6  1 -1</clus>
<clus scale="  112.306">  1  3  2 -1</clus>
<clus scale="  112.306">  1  3  2 -1</clus>
</clustering>
</event>
<event>
 6    0  0.1361919E+003  0.1485608E+03  0.7546771E-02  0.1202253E+00
         21   -1    0    0  504  501  0.00000000000E+00  0.00000000000E+00  0.36813798423E+03  0.36813798423E+03  0.00000000000E+00 0. -1.
         21   -1    0    0  501  502 -0.00000000000E+00 -0.00000000000E+00 -0.10543023031E+04  0.10543023031E+04  0.00000000000E+00 0. -1.
         21    1    1    2  503  505  0.77427631055E+02 -0.14944794183E+03 -0.11459274863E+02  0.16870400217E+03  0.00000000000E+00 0.  1.
         21    1    1    2  504  503  0.20472462206E+02  0.36297488857E+02  0.27936020812E+03  0.28245133260E+03  0.00000000000E+00 0. -1.
         21    1    1    2  505  506 -0.10450571780E+03  0.81298908438E+02 -0.54201576880E+03  0.55795344895E+03  0.00000000000E+00 0. -1.
         21    1    1    2  506  502  0.66056245367E+01  0.31851544539E+02 -0.41204948331E+03  0.41333150360E+03  0.00000000000E+00 0. -1.
<scales pt_clust_3="148.56077" pt_clust_4="41.74754" pt_clust_5="14000.00000" pt_clust_6="32.52930"></scales>
<clustering>
<clus scale="   32.529">  2  6  1 -1</clus>
<clus scale="   41.748">  1  4  2 -1</clus>
<clus scale="  148.561">  1  3  2 -1</clus>
<clus scale="   41.748">  1  3  2 -1</clus>
</clustering>
</event>
<event>
 6    0  0.1361919E+003  0.1582099E+03  0.7546771E-02  0.1190733E+00
         21   -1    0    0  506  501  0.00000000000E+00  0.00000000000E+00  0.15901196954E+02  0.15901196954E+02  0.00000000000E+00 0.  1.
         21   -1    0    0  504  502 -0.00000000000E+00 -0.00000000000E+00 -0.17801278122E+04  0.17801278122E+04  0.00000000000E+00 0.  1.
         21    1    1    2  503  502  0.27592306427E+02  0.84552752173E+02 -0.27713821299E+03  0.29106028993E+03  0.00000000000E+00 0.  1.
         21    1    1    2  504  505 -0.27759973294E+02 -0.88056995046E+02 -0.63723333645E+03  0.64388739355E+03  0.00000000000E+00 0.  1.
         21    1    1    2  505  501 -0.54075307233E+02 -0.35802995438E+02 -0.55140906638E+03  0.55520982684E+03  0.00000000000E+00 0. -1.
         21    1    1    2  506  503  0.54242974099E+02  0.39307238311E+02 -0.29844599939E+03  0.30587149880E+03  0.00000000000E+00 0.  1.
<scales pt_clust_3="47.47141" pt_clust_4="157.99804" pt_clust_5="45.32797" pt_clust_6="47.47141"></scales>
<clustering>
<clus scale="   45.328">  4  5 -1 -1</clus>
<clus scale="   47.471">  3  6 -1 -1</clus>
<clus scale="  157.998">  2  4  1 -1</clus>
<clus scale="  158.210">  1  3  2 -1</clus>
</clustering>
</event>
<event>
 6    0  0.1361919E+003  0.9869600E+02  0.7546771E-02  0.1283062E+00
         21   -1    0    0  505  501  0.00000000000E+00  0.00000000000E+00  0.55983438007E+03  0.55983438007E+03  0.00000000000E+00 0. -1.
         21   -1    0    0  503  502 -0.00000000000E+00 -0.00000000000E+00 -0.12833999266E+03  0.12833999266E+03  0.00000000000E+00 0.  1.
         21    1    1    2  503  504  0.20282352602E+02  0.41229628133E+02 -0.77464298653E+02  0.90066495596E+02  0.00000000000E+00 0.  1.
         21    1    1    2  504  501  0.61481263547E+02  0.48303934591E+02  0.25117593100E+03  0.26306380249E+03  0.00000000000E+00 0.  1.
         21    1    1    2  505  506  0.39010539548E+02 -0.41764122768E+02  0.16720150066E+03  0.17669863036E+03  0.00000000000E+00 0. -1.
         21    1    1    2  506  502 -0.12077415570E+03 -0.47769439956E+02  0.90581254397E+02  0.15834544429E+03  0.00000000000E+00 0.  1.
<scales pt_clust_3="45.94841" pt_clust_4="14000.00000" pt_clust_5="55.60332" pt_clust_6="98.69600"></scales>
<clustering>
<clus scale="   45.948">  2  3  1 -1</clus>
<clus scale="   55.603">  1  5  2 -1</clus>
<clus scale="   98.696">  2  6  1 -1</clus>
<clus scale="   55.603">  1  3  2 -1</clus>
</clustering>
</event>
<event>
 6    0  0.1361919E+003  0.8318510E+02  0.7546771E-02  0.1320248E+00
         21   -1    0    0  503  501  0.00000000000E+00  0.00000000000E+00  0.26854162932E+03  0.26854162932E+03  0.00000000000E+00 0. -1.
         21   -1    0    0  504  502 -0.00000000000E+00 -0.00000000000E+00 -0.48852655532E+03  0.48852655532E+03  0.00000000000E+00 0.  1.
         21    1    1    2  503  502  0.46634610934E+02  0.10623879687E+02  0.50571549758E+00  0.47832097013E+02  0.00000000000E+00 0. -1.
         21    1    1    2  504  506  0.13067649872E+02  0.82615770162E+02 -0.44173829154E+03  0.44958741883E+03  0.00000000000E+00 0.  1.
         21    1    1    2  505  501 -0.39867996086E+02 -0.22297030334E+02  0.15137914621E+03  0.15812103143E+03  0.00000000000E+00 0. -1.
         21    1    1    2  506  505 -0.19834264720E+02 -0.70942619515E+02  0.69868503830E+02  0.10152763736E+03  0.00000000000E+00 0. -1.
<scales pt_clust_3="38.61831" pt_clust_4="83.18510" pt_clust_5="45.67948" pt_clust_6="14000.00000"></scales>
<clustering>
<clus scale="   45.679">  1  5  2 -1</clus>
<clus scale="   38.618">  1  3  2 -1</clus>
<clus scale="   83.185">  2  4  1 -1</clus>
<clus scale="   45.679">  1  3  2 -1</clus>
</clustering>
</event>
<event>
 6    0  0.1361919E+003  0.2316794E+03  0.7546771E-02  0.1125463E+00
         21   -1    0    0  503  501  0.00000000000E+00  0.00000000000E+00  0.16024357615E+03  0.16024357615E+03  0.00000000000E+00 0.  1.
         21   -1    0    0  501  502 -0.00000000000E+00 -0.00000000000E+00 -0.52582959606E+03  0.52582959606E+03  0.00000000000E+00 0.  1.
         21    1    1    2  503  506  0.19671840568E+03  0.67033390296E+02  0.15157166765E+02  0.20837789291E+03  0.00000000000E+00 0.  1.
         21    1    1    2  504  502  0.26855263806E+02  0.19240638383E+02 -0.40266409509E+02  0.52084461159E+02  0.00000000000E+00 0. -1.
         21    1    1    2  505  504 -0.19969796160E+03 -0.43880838977E+02 -0.29558976848E+03  0.35941357115E+03  0.00000000000E+00 0.  1.
         21    1    1    2  506  505 -0.23875707883E+02 -0.42393189702E+02 -0.44887008688E+02  0.66197246989E+02  0.00000000000E+00 0. -1.
<scales pt_clust_3="214.20453" pt_clust_4="33.03646" pt_clust_5="43.76368" pt_clust_6="43.76368"></scales>
<clustering>
<clus scale="   33.036">  2  4  1 -1</clus>
<clus scale="   43.764">  5  6 -1 -1</clus>
<clus scale="  214.205">  1  3  2 -1</clus>
<clus scale="  214.205">  1  3  2 -1</clus>
</clustering>
</event>
<event>
 6    0  0.1361919E+003  0.1661518E+03  0.7546771E-02  0.1181921E+00
         21   -1    0    0  503  501  0.00000000000E+00  0.00000000000E+00  0.75023526998E+03  0.75023526998E+03  0.00000000000E+00 0.  1.
         21   -1    0    0  504  502 -0.00000000000E+00 -0.00000000000E+00 -0.16474625262E+03  0.16474625262E+03  0.00000000000E+00 0.  1.
         21    1    1    2  503  505 -0.29226532445E+02 -0.16010216602E+02  0.11871982102E+03  0.12330820386E+03  0.00000000000E+00 0.  1.
         21    1    1    2  504  501 -0.57906266986E+02  0.14494807739E+03  0.57328158800E+03  0.59415053651E+03  0.00000000000E+00 0.  1.
         21    1    1    2  505  506  0.63180392622E+02 -0.10485864972E+03 -0.51376004062E+02  0.13276517701E+03  0.00000000000E+00 0.  1.
         21    1    1    2  506  502  0.23952406809E+02 -0.24079211067E+02 -0.55136387600E+02  0.64757605230E+02  0.00000000000E+00 0.  1.
<scales pt_clust_3="33.32442" pt_clust_4="155.41284" pt_clust_5="30.95226" pt_clust_6="30.95226"></scales>
<clustering>
<clus scale="   30.952">  5  6 -1 -1</clus>
<clus scale="   33.324">  1  3  2 -1</clus>
<clus scale="  155.413">  1  4  2 -1</clus>
<clus scale="   33.324">  1  3  2 -1</clus>
</clustering>
</event>
<event>
 6    0  0.1361919E+003  0.1088951E+03  0.7546771E-02  0.1262630E+00
         21   -1    0    0  505  501  0.00000000000E+00  0.00000000000E+00  0.53254151603E+02  0.53254151603E+02  0.00000000000E+00 0.  1.
         21   -1    0    0  504  502 -0.00000000000E+00 -0.00000000000E+00 -0.12000340848E+04  0.12000340848E+04  0.00000000000E+00 0.  1.
         21    1    1    2  503  501 -0.41729686222E+02 -0.68673382741E+02 -0.18600431932E+02  0.82482581660E+02  0.00000000000E+00 0.  1.
         21    1    1    2  504  503 -0.11792352861E+03  0.27221934307E+02 -0.49471248455E+03  0.50930092743E+03  0.00000000000E+00 0.  1.
         21    1    1    2  505  506  0.12271023677E+03  0.25179758417E+02 -0.29302388825E+03  0.31867667239E+03  0.00000000000E+00 0.  1.
         21    1    1    2  506  502  0.36942978065E+02  0.16271690017E+02 -0.34044312847E+03  0.34282805493E+03  0.00000000000E+00 0.  1.
<scales pt_clust_3="78.42146" pt_clust_4="108.89511" pt_clust_5="14000.00000" pt_clust_6="40.36770"></scales>
<clustering>
<clus scale="   40.368">  2  6  1 -1</clus>
<clus scale="   78.421">  1  3  2 -1</clus>
<clus scale="  108.895">  2  4  1 -1</clus>
<clus scale="   78.421">  1  3  2 -1</clus>
</clustering>
</event>
<event>
 6    0  0.1361919E+003  0.1212243E+03  0.7546771E-02  0.1241091E+00
         21   -1    0    0  504  501  0.00000000000E+00  0.00000000000E+00  0.72601547233E+02  0.72601547233E+02  0.00000000000E+00 0.  1.
         21   -1    0    0  505  502 -0.00000000000E+00 -0.00000000000E+00 -0.47358789995E+03  0.47358789995E+03  0.00000000000E+00 0.  1.
         21    1    1    2  503  502  0.33725565641E+02 -0.43179624997E+02 -0.81799682529E+02  0.98453450191E+02  0.00000000000E+00 0.  1.
         21    1    1    2  504  506  0.38760286015E+01  0.35132597234E+02  0.99338380279E+01  0.36715175664E+02  0.00000000000E+00 0. -1.
         21    1    1    2  505  501  0.88327860142E+02  0.62891064376E+02 -0.15721642155E+03  0.19098193648E+03  0.00000000000E+00 0.  1.
         21    1    1    2  506  503 -0.12592945438E+03 -0.54844036613E+02 -0.17190408666E+03  0.22003888485E+03  0.00000000000E+00 0.  1.
<scales pt_clust_3="50.68584" pt_clust_4="35.34576" pt_clust_5="121.22433" pt_clust_6="14000.00000"></scales>
<clustering>
<clus scale="   35.346">  1  4  2 -1</clus>
<clus scale="   50.686">  2  3  1 -1</clus>
<clus scale="  121.224">  2  5  1 -1</clus>
<clus scale="   35.346">  1  3  2 -1</clus>
</clustering>
</event>
<event>
 6    0  0.1361919E+003  0.8441810E+02  0.7546771E-02  0.1316961E+00
         21   -1    0    0  505  501  0.00000000000E+00  0.00000000000E+00  0.16958393315E+04  0.16958393315E+04  0.00000000000E+00 0.  1.
         21   -1    0    0  504  502 -0.00000000000E+00 -0.00000000000E+00 -0.14234715740E+03  0.14234715740E+03  0.00000000000E+00 0.  1.
         21    1    1    2  503  502 -0.68910140722E+02 -0.67381290062E+02  0.17999071127E+03  0.20417027670E+03  0.00000000000E+00 0. -1.
         21    1    1    2  504  501 -0.32092910383E+02  0.40043399677E+02 -0.12252650062E+03  0.13283889531E+03  0.00000000000E+00 0.  1.
         21    1    1    2  505  506  0.46984877409E+02  0.53797335868E+01  0.10854088763E+04  0.10864386540E+04  0.00000000000E+00 0.  1.
         21    1    1    2  506  503  0.54018173697E+02  0.21958156798E+02  0.41061908715E+03  0.41473866286E+03  0.00000000000E+00 0.  1.
<scales pt_clust_3="14000.00000" pt_clust_4="51.10514" pt_clust_5="47.29186" pt_clust_6="84.41810"></scales>
<clustering>
<clus scale="   47.292">  1  5  2 -1</clus>
<clus scale="   51.105">  2  4  1 -1</clus>
<clus scale="   84.418">  1  6  2 -1</clus>
<clus scale="   47.292">  1  3  2 -1</clus>
</clustering>
</event>
<event>
 6    0  0.1361919E+003  0.8059542E+02  0.7546771E-02  0.1327370E+00
         21   -1    0    0  502  501  0.00000000000E+00  0.00000000000E+00  0.13236396310E+03  0.13236396310E+03  0.00000000000E+00 0. -1.
         21   -1    0    0  504  502 -0.00000000000E+00 -0.00000000000E+00 -0.34265564860E+03  0.34265564860E+03  0.00000000000E+00 0. -1.
         21    1    1    2  503  506  0.57527911510E+02 -0.84347181997E+02 -0.19261530443E+03  0.21800129177E+03  0.00000000000E+00 0. -1.
         21    1    1    2  504  503 -0.41042493268E+02  0.19154437517E+02 -0.46615547429E+02  0.64995292078E+02  0.00000000000E+00 0. -1.
         21    1    1    2  505  501 -0.43545219697E+02 -0.29835577073E+02  0.67734356938E+02  0.85873691708E+02  0.00000000000E+00 0. -1.
         21    1    1    2  506  505  0.27059801456E+02  0.95028321553E+02 -0.38795190575E+02  0.10614933614E+03  0.00000000000E+00 0. -1.
<scales pt_clust_3="14000.00000" pt_clust_4="45.29215" pt_clust_5="53.52827" pt_clust_6="80.59542"></scales>
<clustering>
<clus scale="   45.292">  2  4  1 -1</clus>
<clus scale="   53.528">  1  5  2 -1</clus>
<clus scale="   80.595">  1  6  2 -1</clus>
<clus scale="   53.528">  1  3  2 -1</clus>
</clustering>
</event>
<event>
 6    0  0.1361919E+003  0.1219603E+03  0.7546771E-02  0.1239898E+00
         21   -1    0    0  505  501  0.00000000000E+00  0.00000000000E+00  0.14888987474E+04  0.14888987474E+04  0.00000000000E+00 0. -1.
         21   -1    0    0  506  502 -0.00000000000E+00 -0.00000000000E+00 -0.54483046976E+02  0.54483046976E+02  0.00000000000E+00 0. -1.
         21    1    1    2  503  501  0.76953694266E+02 -0.13720576035E+03  0.86679011023E+03  0.88094970738E+03  0.00000000000E+00 0. -1.
         21    1    1    2  504  502 -0.35372194849E+02 -0.64270070716E+01 -0.24888119418E+02  0.43725473999E+02  0.00000000000E+00 0. -1.
         21    1    1    2  505  504 -0.50796477547E+02  0.83582708063E+02  0.48896558673E+03  0.49865187880E+03  0.00000000000E+00 0. -1.
         21    1    1    2  506  503  0.92149781296E+01  0.60050059363E+02  0.10354812283E+03  0.12005473416E+03  0.00000000000E+00 0. -1.
<scales pt_clust_3="121.96031" pt_clust_4="35.95134" pt_clust_5="14000.00000" pt_clust_6="57.66093"></scales>
<clustering>
<clus scale="   35.951">  2  4  1 -1</clus>
<clus scale="   57.661">  2  6  1 -1</clus>
<clus scale="  121.960">  2  3  1 -1</clus>
<clus scale="  121.960">  1  3  2 -1</clus>
</clustering>
</event>
<event>
 6    0  0.1361919E+003  0.8361189E+02  0.7546771E-02  0.1319103E+00
         21   -1    0    0  506  501  0.00000000000E+00  0.00000000000E+00  0.43043846484E+02  0.43043846484E+02  0.00000000000E+00 0.  1.
         21   -1    0    0  503  502 -0.00000000000E+00 -0.00000000000E+00 -0.71339923321E+03  0.71339923321E+03  0.00000000000E+00 0. -1.
         21    1    1    2  503  504  0.64349320833E+02 -0.10314032920E+01 -0.17145708584E+03  0.18313773825E+03  0.00000000000E+00 0. -1.
         21    1    1    2  504  505  0.59887659650E+01 -0.89434390681E+02 -0.33415960829E+03  0.34597257025E+03  0.00000000000E+00 0. -1.
         21    1    1    2  505  501 -0.43898398319E+02  0.71711551791E+02 -0.30827762924E+02  0.89554268475E+02  0.00000000000E+00 0.  1.
         21    1    1    2  506  502 -0.26439688479E+02  0.18754242182E+02 -0.13391092968E+03  0.13777850273E+03  0.00000000000E+00 0.  1.
<scales pt_clust_3="56.43110" pt_clust_4="83.61189" pt_clust_5="14000.00000" pt_clust_6="32.41572"></scales>
<clustering>
<clus scale="   32.416">  2  6  1 -1</clus>
<clus scale="   56.431">  2  3  1 -1</clus>
<clus scale="   83.612">  2  4  1 -1</clus>
<clus scale="   83.612">  1  3  2 -1</clus>
</clustering>
</event>
<event>
 6    0  0.1361919E+003  0.1148909E+03  0.7546771E-02  0.1251772E+00
         21   -1    0    0  504  501  0.00000000000E+00  0.00000000000E+00  0.13491754621E+03  0.13491754621E+03  0.00000000000E+00 0.  1.
         21   -1    0    0  505  502 -0.00000000000E+00 -0.00000000000E+00 -0.15968268246E+04  0.15968268246E+04  0.00000000000E+00 0.  1.
         21    1    1    2  503  506 -0.91882710568E+02  0.47643494690E+02 -0.54618900300E+02  0.11702802809E+03  0.00000000000E+00 0.  1.
         21    1    1    2  504  503  0.41310808293E+02  0.19285772632E+02  0.32195934205E+02  0.55813099602E+02  0.00000000000E+00 0.  1.
         21    1    1    2  505  501  0.42562336055E+02 -0.14186222421E+03 -0.34729965300E+02  0.15212696538E+03  0.00000000000E+00 0.  1.
         21    1    1    2  506  502  0.80095662202E+01  0.74932956884E+02 -0.14047563470E+04  0.14067762777E+04  0.00000000000E+00 0.  1.
<scales pt_clust_3="114.89090" pt_clust_4="45.59083" pt_clust_5="14000.00000" pt_clust_6="75.62287"></scales>
<clustering>
<clus scale="   45.591">  1  4  2 -1</clus>
<clus scale="   75.623">  2  6  1 -1</clus>
<clus scale="  114.891">  1  3  2 -1</clus>
<clus scale="   45.591">  1  3  2 -1</clus>
</clustering>
</event>
<event>
 6    0  0.1361919E+003  0.1247693E+03  0.7546771E-02  0.1235430E+00
         21   -1    0    0  504  501  0.00000000000E+00  0.00000000000E+00  0.45329933582E+02  0.45329933582E+02  0.00000000000E+00 0. -1.
         21   -1    0    0  506  502 -0.00000000000E+00 -0.00000000000E+00 -0.10852637486E+04  0.10852637486E+04  0.00000000000E+00 0. -1.
         21    1    1    2  503  505  0.43207731153E+02 -0.37991385753E+02 -0.17127065978E+03  0.18067620852E+03  0.00000000000E+00 0. -1.
         21    1    1    2  504  502  0.34483476910E+02  0.72043964456E+02 -0.36611456988E+03  0.37472566135E+03  0.00000000000E+00 0. -1.
         21    1    1    2  505  501 -0.11410547139E+03  0.19696589031E+02 -0.64872982478E+02  0.13272723186E+03  0.00000000000E+00 0. -1.
         21    1    1    2  506  503  0.36414263327E+02 -0.53749167733E+02 -0.43767560289E+03  0.44246458047E+03  0.00000000000E+00 0. -1.
<scales pt_clust_3="49.21286" pt_clust_4="79.87142" pt_clust_5="113.28931" pt_clust_6="49.21286"></scales>
<clustering>
<clus scale="   49.213">  3  6 -1 -1</clus>
<clus scale="   79.871">  2  4  1 -1</clus>
<clus scale="  113.289">  1  5  2 -1</clus>
<clus scale="  113.289">  1  3  2 -1</clus>
</clustering>
</event>
<event>
 6    0  0.1361919E+003  0.1446137E+03  0.7546771E-02  0.1207252E+00
         21   -1    0    0  505  501  0.00000000000E+00  0.00000000000E+00  0.33197815233E+03  0.33197815233E+03  0.00000000000E+00 0.  1.
         21   -1    0    0  503  502 -0.00000000000E+00 -0.00000000000E+00 -0.10674932253E+03  0.10674932253E+03  0.00000000000E+00 0.  1.
         21    1    1    2  503  504  0.11246576082E+03 -0.46536684533E+02  0.79123354546E+01  0.12197055143E+03  0.00000000000E+00 0.  1.
         21    1    1    2  504  501  0.69886081653E+01 -0.52086741784E+02  0.97828935634E+02  0.11105120423E+03  0.00000000000E+00 0.  1.
         21    1    1    2  505  506 -0.10278234132E+03  0.48546540720E+02  0.91767332653E+02  0.14608976571E+03  0.00000000000E+00 0.  1.
         21    1    1    2  506  502 -0.16672027660E+02  0.50076885597E+02  0.27720226063E+02  0.59615953489E+02  0.00000000000E+00 0.  1.
<scales pt_clust_3="129.89022" pt_clust_4="52.55349" pt_clust_5="43.31982" pt_clust_6="43.31982"></scales>
<clustering>
<clus scale="   43.320">  5  6 -1 -1</clus>
<clus scale="   52.553">  1  4  2 -1</clus>
<clus scale="  129.890">  2  3  1 -1</clus>
<clus scale="   52.553">  1  3  2 -1</clus>
</clustering>
</event>
<event>
 6    0  0.1361919E+003  0.8902658E+02  0.7546771E-02  0.1305226E+00
         21   -1    0    0  505  501  0.00000000000E+00  0.00000000000E+00  0.46206702585E+03  0.46206702585E+03  0.00000000000E+00 0.  1.
         21   -1    0    0  504  502 -0.00000000000E+00 -0.00000000000E+00 -0.64855208304E+03  0.64855208304E+03  0.00000000000E+00 0.  1.
         21    1    1    2  503  502  0.96107007125E+02  0.69442053674E+02 -0.18842821026E+03  0.22262961631E+03  0.00000000000E+00 0.  1.
         21    1    1    2  504  506 -0.55330203220E+02  0.90464861363E+01 -0.41621830000E+03  0.41997731315E+03  0.00000000000E+00 0.  1.
         21    1    1    2  505  503 -0.36551175594E+02 -0.27713600358E+02 -0.88635825388E+00  0.45878292395E+02  0.00000000000E+00 0. -1.
         21    1    1    2  506  501 -0.42256283107E+01 -0.50774939453E+02  0.41904781133E+03  0.42213388704E+03  0.00000000000E+00 0.  1.
<scales pt_clust_3="89.02658" pt_clust_4="56.20017" pt_clust_5="45.86973" pt_clust_6="14000.00000"></scales>
<clustering>
<clus scale="   45.870">  1  5  2 -1</clus>
<clus scale="   56.200">  2  4  1 -1</clus>
<clus scale="   89.027">  2  3  1 -1</clus>
<clus scale="   45.870">  1  3  2 -1</clus>
</clustering>
</event>
<event>
 6    0  0.1361919E+003  0.9646381E+02  0.7546771E-02  0.1287913E+00
         21   -1    0    0  505  501  0.00000000000E+00  0.00000000000E+00  0.62726110351E+03  0.62726110351E+03  0.00000000000E+00 0.  1.
         21   -1    0    0  503  502 -0.00000000000E+00 -0.00000000000E+00 -0.76327618622E+03  0.76327618622E+03  0.00000000000E+00 0.  1.
         21    1    1    2  503  504 -0.95622038825E+02  0.10235728364E+02 -0.41555732607E+03  0.42653984069E+03  0.00000000000E+00 0.  1.
         21    1    1    2  504  501 -0.48328708495E+02 -0.66267750214E+02 -0.17230188340E+03  0.19082719357E+03  0.00000000000E+00 0.  1.
         21    1    1    2  505  506  0.44751428758E+02  0.53916430678E+01  0.59224458720E+03  0.59395741536E+03  0.00000000000E+00 0.  1.
         21    1    1    2  506  502  0.99199318562E+02  0.50640378782E+02 -0.14040046044E+03  0.17921284011E+03  0.00000000000E+00 0.  1.
<scales pt_clust_3="96.46381" pt_clust_4="74.22808" pt_clust_5="45.07505" pt_clust_6="14000.00000"></scales>
<clustering>
<clus scale="   45.075">  1  5  2 -1</clus>
<clus scale="   74.228">  1  4  2 -1</clus>
<clus scale="   96.464">  2  3  1 -1</clus>
<clus scale="   45.075">  1  3  2 -1</clus>
</clustering>
</event>
<event>
 6    0  0.1361919E+003  0.1003300E+03  0.7546771E-02  0.1279603E+00
         21   -1    0    0  502  501  0.00000000000E+00  0.00000000000E+00  0.11174263598E+03  0.11174263598E+03  0.00000000000E+00 0. -1.
         21   -1    0    0  504  502 -0.00000000000E+00 -0.00000000000E+00 -0.58710378674E+03  0.58710378674E+03  0.00000000000E+00 0.  1.
         21    1    1    2  503  501  0.21047494504E+01 -0.38806701675E+02  0.68051680831E+02  0.78367221012E+02  0.00000000000E+00 0. -1.
         21    1    1    2  504  506  0.36087996588E+02 -0.15822766871E+02 -0.14187958019E+03  0.14724985135E+03  0.00000000000E+00 0.  1.
         21    1    1    2  505  503  0.55016303438E+00 -0.70422651637E+02 -0.25237116315E+02  0.74810190368E+02  0.00000000000E+00 0. -1.
         21    1    1    2  506  505 -0.38742909073E+02  0.12505212018E+03 -0.37629613509E+03  0.39841916000E+03  0.00000000000E+00 0.  1.
<scales pt_clust_3="38.86374" pt_clust_4="40.69643" pt_clust_5="100.33003" pt_clust_6="14000.00000"></scales>
<clustering>
<clus scale="   38.864">  1  3  2 -1</clus>
<clus scale="   40.696">  2  4  1 -1</clus>
<clus scale="  100.330">  1  5  2 -1</clus>
<clus scale="   38.864">  1  3  2 -1</clus>
</clustering>
</event>
<event>
 6    0  0.1361919E+003  0.2286765E+03  0.7546771E-02  0.1127575E+00
         21   -1    0    0  506  501  0.00000000000E+00  0.00000000000E+00  0.13790323505E+04  0.13790323505E+04  0.00000000000E+00 0.  1.
         21   -1    0    0  505  502 -0.00000000000E+00 -0.00000000000E+00 -0.97158441517E+02  0.97158441517E+02  0.00000000000E+00 0. -1.
         21    1    1    2  503  502  0.16733403696E+03 -0.12846448875E+03  0.14592344030E+03  0.25651014643E+03  0.00000000000E+00 0. -1.
         21    1    1    2  504  503 -0.16991519050E+03  0.14147938916E+03  0.73953043820E+03  0.77187619379E+03  0.00000000000E+00 0.  1.
         21    1    1    2  505  501  0.33177848274E+02 -0.56778071569E+01 -0.13800232527E+02  0.36379300818E+02  0.00000000000E+00 0. -1.
         21    1    1    2  506  504 -0.30596694740E+02 -0.73370932601E+01  0.41022026306E+03  0.41142515102E+03  0.00000000000E+00 0.  1.
<scales pt_clust_3="228.67649" pt_clust_4="14000.00000" pt_clust_5="33.32326" pt_clust_6="31.46412"></scales>
<clustering>
<clus scale="   31.464">  1  6  2 -1</clus>
<clus scale="   33.323">  2  5  1 -1</clus>
<clus scale="  228.676">  2  3  1 -1</clus>
<clus scale="   31.464">  1  3  2 -1</clus>
</clustering>
</event>
<event>
 6    0  0.1361919E+003  0.8526306E+02  0.7546771E-02  0.1314746E+00
         21   -1    0    0  506  501  0.00000000000E+00  0.00000000000E+00  0.49452649429E+03  0.49452649429E+03  0.00000000000E+00 0. -1.
         21   -1    0    0  505  502 -0.00000000000E+00 -0.00000000000E+00 -0.16396754498E+03  0.16396754498E+03  0.00000000000E+00 0. -1.
         21    1    1    2  503  504  0.44949938853E+02 -0.68825926500E+02  0.28893824968E+02  0.87134139594E+02  0.00000000000E+00 0.  1.
         21    1    1    2  504  502 -0.64114781621E+02 -0.53689708126E+02 -0.10267805649E+03  0.13242383949E+03  0.00000000000E+00 0. -1.
         21    1    1    2  505  501  0.50542086150E+02  0.11172481705E+03  0.22215883883E+03  0.25375477707E+03  0.00000000000E+00 0. -1.
         21    1    1    2  506  503 -0.31377243382E+02  0.10790817581E+02  0.18218434200E+03  0.18518128312E+03  0.00000000000E+00 0. -1.
<scales pt_clust_3="77.40913" pt_clust_4="14000.00000" pt_clust_5="85.26306" pt_clust_6="33.18092"></scales>
<clustering>
<clus scale="   33.181">  1  6  2 -1</clus>
<clus scale="   77.409">  1  3  2 -1</clus>
<clus scale="   85.263">  1  5  2 -1</clus>
<clus scale="   33.181">  1  3  2 -1</clus>
</clustering>
</event>
<event>
 6    0  0.1361919E+003  0.6144011E+02  0.7546771E-02  0.1391886E+00
         21   -1    0    0  505  501  0.00000000000E+00  0.00000000000E+00  0.49935919892E+02  0.49935919892E+02  0.00000000000E+00 0.  1.
         21   -1    0    0  503  502 -0.00000000000E+00 -0.00000000000E+00 -0.19537590426E+04  0.19537590426E+04  0.00000000000E+00 0. -1.
         21    1    1    2  503  501  0.22010061947E+02  0.63525027296E+02 -0.98847425958E+03  0.99075790876E+03  0.00000000000E+00 0. -1.
         21    1    1    2  504  502 -0.34645442542E+02 -0.70468353989E+01 -0.60804053235E+03  0.60906752792E+03  0.00000000000E+00 0.  1.
         21    1    1    2  505  506  0.44016026285E+02  0.40172574991E+02  0.18647018454E+02  0.62441633936E+02  0.00000000000E+00 0.  1.
         21    1    1    2  506  504 -0.31380645690E+02 -0.96650766889E+02 -0.32595534927E+03  0.34142789192E+03  0.00000000000E+00 0. -1.
<scales pt_clust_3="58.44447" pt_clust_4="35.35484" pt_clust_5="61.44011" pt_clust_6="14000.00000"></scales>
<clustering>
<clus scale="   35.355">  2  4  1 -1</clus>
<clus scale="   58.444">  2  3  1 -1</clus>
<clus scale="   61.440">  1  5  2 -1</clus>
<clus scale="   61.440">  1  3  2 -1</clus>
</clustering>
</event>
<event>
 6    0  0.1361919E+003  0.1312444E+03  0.7546771E-02  0.1225621E+00
         21   -1    0    0  504  501  0.00000000000E+00  0.00000000000E+00  0.28456424253E+03  0.28456424253E+03  0.00000000000E+00 0.  1.
         21   -1    0    0  503  502 -0.00000000000E+00 -0.00000000000E+00 -0.89191855040E+03  0.89191855040E+03  0.00000000000E+00 0. -1.
         21    1    1    2  503  506 -0.18419182801E+03  0.48901893662E+02 -0.63251552494E+03  0.66060117620E+03  0.00000000000E+00 0. -1.
         21    1    1    2  504  505  0.45897621487E+02 -0.20807540149E+02 -0.16671224480E+02  0.53079893659E+02  0.00000000000E+00 0. -1.
         21    1    1    2  505  502  0.53507455072E+02 -0.50693375939E+02 -0.19594530782E+03  0.20935001736E+03  0.00000000000E+00 0.  1.
         21    1    1    2  506  501  0.84786751447E+02  0.22599022427E+02  0.23777774937E+03  0.25345170572E+03  0.00000000000E+00 0.  1.
<scales pt_clust_3="131.24441" pt_clust_4="50.39390" pt_clust_5="74.90761" pt_clust_6="14000.00000"></scales>
<clustering>
<clus scale="   50.394">  1  4  2 -1</clus>
<clus scale="   74.908">  2  5  1 -1</clus>
<clus scale="  131.244">  2  3  1 -1</clus>
<clus scale="   50.394">  1  3  2 -1</clus>
</clustering>
</event>
<event>
 6    0  0.1361919E+003  0.1022110E+03  0.7546771E-02  0.1275714E+00
         21   -1    0    0  506  501  0.00000000000E+00  0.00000000000E+00  0.45346322606E+03  0.45346322606E+03  0.00000000000E+00 0.  1.
         21   -1    0    0  505  502 -0.00000000000E+00 -0.00000000000E+00 -0.15790349058E+04  0.15790349058E+04  0.00000000000E+00 0.  1.
         21    1    1    2  503  502 -0.58786260673E+02  0.93656737169E+02 -0.13474961754E+04  0.13520256475E+04  0.00000000000E+00 0.  1.
         21    1    1    2  504  501 -0.19579195442E+02 -0.88028391009E+02  0.39941011574E+03  0.40946401927E+03  0.00000000000E+00 0.  1.
         21    1    1    2  505  504  0.65292649184E+02 -0.45817319875E+02 -0.20541074386E+03  0.22035410260E+03  0.00000000000E+00 0. -1.
         21    1    1    2  506  503  0.13072806931E+02  0.40188973715E+02  0.27925123834E+02  0.50654362403E+02  0.00000000000E+00 0. -1.
<scales pt_clust_3="102.21104" pt_clust_4="49.25772" pt_clust_5="14000.00000" pt_clust_6="42.26171"></scales>
<clustering>
<clus scale="   42.262">  1  6  2 -1</clus>
<clus scale="   49.258">  1  4  2 -1</clus>
<clus scale="  102.211">  2  3  1 -1</clus>
<clus scale="   42.262">  1  3  2 -1</clus>
</clustering>
</event>
<event>
 6    0  0.1361919E+003  0.6204043E+02  0.7546771E-02  0.1389463E+00
         21   -1    0    0  506  501  0.00000000000E+00  0.00000000000E+00  0.26062051247E+03  0.26062051247E+03  0.00000000000E+00 0.  1.
         21   -1    0    0  504  502 -0.00000000000E+00 -0.00000000000E+00 -0.91987353357E+02  0.91987353357E+02  0.00000000000E+00 0.  1.
         21    1    1    2  503  502  0.19437973129E+02  0.51586832419E+02  0.12977840754E+02  0.56634445605E+02  0.00000000000E+00 0.  1.
         21    1    1    2  504  505 -0.46531158508E+02 -0.30445865793E+01 -0.61907799831E+01  0.47039812673E+02  0.00000000000E+00 0.  1.
         21    1    1    2  505  501  0.28440810442E+02 -0.10375817563E+03  0.39340497342E+02  0.11455266667E+03  0.00000000000E+00 0.  1.
         21    1    1    2  506  503 -0.13476250628E+01  0.55215929794E+02  0.12250560100E+03  0.13438094089E+03  0.00000000000E+00 0.  1.
<scales pt_clust_3="50.72044" pt_clust_4="46.63066" pt_clust_5="62.04043" pt_clust_6="14000.00000"></scales>
<clustering>
<clus scale="   46.631">  2  4  1 -1</clus>
<clus scale="   50.720">  2  3  1 -1</clus>
<clus scale="   62.040">  2  5  1 -1</clus>
<clus scale="   62.040">  1  3  2 -1</clus>
</clustering>
</event>
<event>
 6    0  0.1361919E+003  0.5981683E+02  0.7546771E-02  0.1398602E+00
         21   -1    0    0  504  501  0.00000000000E+00  0.00000000000E+00  0.62675915287E+03  0.62675915287E+03  0.00000000000E+00 0.  1.
         21   -1    0    0  501  502 -0.00000000000E+00 -0.00000000000E+00 -0.49590765438E+02  0.49590765438E+02  0.00000000000E+00 0.  1.
         21    1    1    2  503  505  0.10666799318E+02  0.62858330306E+02  0.24941826800E+03  0.25743819202E+03  0.00000000000E+00 0.  1.
         21    1    1    2  504  503 -0.54661979656E+02 -0.37290011741E+02  0.28112529875E+03  0.28880773984E+03  0.00000000000E+00 0.  1.
         21    1    1    2  505  506  0.74234315216E+02  0.91006249294E+01  0.22183713040E+02  0.78010717558E+02  0.00000000000E+00 0.  1.
         21    1    1    2  506  502 -0.30239134878E+02 -0.34668943494E+02  0.24441107645E+02  0.52093268895E+02  0.00000000000E+00 0. -1.
<scales pt_clust_3="14000.00000" pt_clust_4="59.81683" pt_clust_5="53.72352" pt_clust_6="46.00371"></scales>
<clustering>
<clus scale="   46.004">  2  6  1 -1</clus>
<clus scale="   53.724">  2  5  1 -1</clus>
<clus scale="   59.817">  1  4  2 -1</clus>
<clus scale="   59.817">  1  3  2 -1</clus>
</clustering>
</event>
<event>
 6    0  0.1361919E+003  0.9720542E+02  0.7546771E-02  0.1286285E+00
         21   -1    0    0  505  501  0.00000000000E+00  0.00000000000E+00  0.42538034183E+03  0.42538034183E+03  0.00000000000E+00 0. -1.
         21   -1    0    0  504  502 -0.00000000000E+00 -0.00000000000E+00 -0.10958988491E+03  0.10958988491E+03  0.00000000000E+00 0. -1.
         21    1    1    2  503  501 -0.33471400516E+02 -0.83786339426E+02  0.13340548929E+03  0.16105126482E+03  0.00000000000E+00 0. -1.
         21    1    1    2  504  506  0.45411794919E+02  0.60644627278E+01 -0.56795821269E+02  0.72971050009E+02  0.00000000000E+00 0. -1.
         21    1    1    2  505  502 -0.44724670271E+02  0.11236245692E+03  0.21683034593E+03  0.24827608981E+03  0.00000000000E+00 0. -1.
         21    1    1    2  506  503  0.32784275868E+02 -0.34640580223E+02  0.22350442962E+02  0.52671822097E+02  0.00000000000E+00 0. -1.
<scales pt_clust_3="14000.00000" pt_clust_4="45.81494" pt_clust_5="97.20542" pt_clust_6="58.16727"></scales>
<clustering>
<clus scale="   45.815">  2  4  1 -1</clus>
<clus scale="   58.167">  2  6  1 -1</clus>
<clus scale="   97.205">  2  5  1 -1</clus>
<clus scale="   97.205">  1  3  2 -1</clus>
</clustering>
</event>
<event>
 6    0  0.1361919E+003  0.1798326E+03  0.7546771E-02  0.1167965E+00
         21   -1    0    0  504  501  0.00000000000E+00  0.00000000000E+00  0.15178046659E+03  0.15178046659E+03  0.00000000000E+00 0. -1.
         21   -1    0    0  501  502 -0.00000000000E+00 -0.00000000000E+00 -0.92161909483E+03  0.92161909483E+03  0.00000000000E+00 0. -1.
         21    1    1    2  503  505 -0.25622697457E+02  0.47866503035E+02 -0.99829452001E+02  0.11363821639E+03  0.00000000000E+00 0.  1.
         21    1    1    2  504  506  0.16266062103E+03  0.78506966931E+02  0.60060220489E+02  0.19033930644E+03  0.00000000000E+00 0. -1.
         21    1    1    2  505  502 -0.24552765578E+02  0.33177464605E+02 -0.20782675027E+03  0.21188567810E+03  0.00000000000E+00 0. -1.
         21    1    1    2  506  503 -0.11248515799E+03 -0.15955093457E+03 -0.52224264646E+03  0.55753636050E+03  0.00000000000E+00 0. -1.
<scales pt_clust_3="106.36478" pt_clust_4="14000.00000" pt_clust_5="41.15322" pt_clust_6="179.83257"></scales>
<clustering>
<clus scale="   41.153">  3  5 -1 -1</clus>
<clus scale="  106.365">  2  3  1 -1</clus>
<clus scale="  179.833">  2  6  1 -1</clus>
<clus scale="  179.833">  1  3  2 -1</clus>
</clustering>
</event>
<event>
 6    0  0.1361919E+003  0.2145924E+03  0.7546771E-02  0.1137980E+00
         21   -1    0    0  505  501  0.00000000000E+00  0.00000000000E+00  0.10557877568E+04  0.10557877568E+04  0.00000000000E+00 0.  1.
         21   -1    0    0  503  502 -0.00000000000E+00 -0.00000000000E+00 -0.17890672210E+03  0.17890672210E+03  0.00000000000E+00 0.  1.
         21    1    1    2  503  504 -0.50611193624E+02 -0.32866543031E+02  0.85388436831E+01  0.60947636725E+02  0.00000000000E+00 0.  1.
         21    1    1    2  504  506  0.25438987469E+03  0.10687324570E+03  0.11601294865E+02  0.27617148483E+03  0.00000000000E+00 0.  1.
         21    1    1    2  505  502 -0.14014990646E+03 -0.10641002643E+03  0.42531350930E+03  0.46027890588E+03  0.00000000000E+00 0. -1.
         21    1    1    2  506  501 -0.63628774597E+02  0.32403323761E+02  0.43142738683E+03  0.43729645146E+03  0.00000000000E+00 0.  1.
<scales pt_clust_3="60.34652" pt_clust_4="214.59239" pt_clust_5="14000.00000" pt_clust_6="71.99154"></scales>
<clustering>
<clus scale="   60.347">  2  3  1 -1</clus>
<clus scale="   71.992">  1  6  2 -1</clus>
<clus scale="  214.592">  2  4  1 -1</clus>
<clus scale="   71.992">  1  3  2 -1</clus>
</clustering>
</event>
<event>
 6    0  0.1361919E+003  0.7858111E+02  0.7546771E-02  0.1333127E+00
         21   -1    0    0  503  501  0.00000000000E+00  0.00000000000E+00  0.10251331214E+03  0.10251331214E+03  0.00000000000E+00 0. -1.
         21   -1    0    0  504  502 -0.00000000000E+00 -0.00000000000E+00 -0.25547741975E+03  0.25547741975E+03  0.00000000000E+00 0. -1.
         21    1    1    2  503  502  0.91015850832E+01  0.11628319445E+03 -0.10228221189E+03  0.15513307523E+03  0.00000000000E+00 0. -1.
         21    1    1    2  504  506 -0.50981092238E+02 -0.35470341602E+02 -0.37643427621E+02  0.72623994259E+02  0.00000000000E+00 0. -1.
         21    1    1    2  505  501 -0.76218158664E+01 -0.36735374757E+02  0.32646658428E+02  0.49733129221E+02  0.00000000000E+00 0. -1.
         21    1    1    2  506  505  0.49501323021E+02 -0.44077478089E+02 -0.45685126536E+02  0.80500533179E+02  0.00000000000E+00 0. -1.
<scales pt_clust_3="14000.00000" pt_clust_4="70.26127" pt_clust_5="37.51773" pt_clust_6="78.58111"></scales>
<clustering>
<clus scale="   37.518">  1  5  2 -1</clus>
<clus scale="   70.261">  2  4  1 -1</clus>
<clus scale="   78.581">  1  6  2 -1</clus>
<clus scale="   37.518">  1  3  2 -1</clus>
</clustering>
</event>
<event>
 6    0  0.1361919E+003  0.7493571E+02  0.7546771E-02  0.1344070E+00
         21   -1    0    0  503  501  0.00000000000E+00  0.00000000000E+00  0.12200402468E+03  0.12200402468E+03  0.00000000000E+00 0.  1.
         21   -1    0    0  506  502 -0.00000000000E+00 -0.00000000000E+00 -0.36616879169E+03  0.36616879169E+03  0.00000000000E+00 0. -1.
         21    1    1    2  503  505  0.13274592425E+02  0.73989959282E+02  0.63304583677E+02  0.98276137455E+02  0.00000000000E+00 0.  1.
         21    1    1    2  504  501 -0.64728896384E+02 -0.60470966772E+02 -0.11257728565E+03  0.14324878043E+03  0.00000000000E+00 0. -1.
         21    1    1    2  505  502  0.12506199727E+01 -0.44871808127E+02 -0.18013845064E+03  0.18564725857E+03  0.00000000000E+00 0. -1.
         21    1    1    2  506  504  0.50203683987E+02  0.31352815617E+02 -0.14753614403E+02  0.61000639922E+02  0.00000000000E+00 0.  1.
<scales pt_clust_3="14000.00000" pt_clust_4="74.93571" pt_clust_5="44.88923" pt_clust_6="55.08106"></scales>
<clustering>
<clus scale="   44.889">  2  5  1 -1</clus>
<clus scale="   55.081">  2  6  1 -1</clus>
<clus scale="   74.936">  2  4  1 -1</clus>
<clus scale="   74.936">  1  3  2 -1</clus>
</clustering>
</event>
<event>
 6    0  0.1361919E+003  0.2145563E+03  0.7546771E-02  0.1138008E+00
         21   -1    0    0  505  501  0.00000000000E+00  0.00000000000E+00  0.19409885106E+03  0.19409885106E+03  0.00000000000E+00 0. -1.
         21   -1    0    0  503  502 -0.00000000000E+00 -0.00000000000E+00 -0.13220989856E+04  0.13220989856E+04  0.00000000000E+00 0. -1.
         21    1    1    2  503  504 -0.29418731565E+02 -0.97446575002E+01 -0.15559850421E+03  0.15865470251E+03  0.00000000000E+00 0.  1.
         21    1    1    2  504  501 -0.11728417618E+03  0.17784535569E+03  0.52956149917E+02  0.21951970831E+03  0.00000000000E+00 0. -1.
         21    1    1    2  505  506  0.81210276672E+02 -0.20679584037E+03 -0.17118715329E+03  0.28047222694E+03  0.00000000000E+00 0.  1.
         21    1    1    2  506  502  0.65492631076E+02  0.38695142180E+02 -0.85417062701E+03  0.85755119894E+03  0.00000000000E+00 0. -1.
<scales pt_clust_3="30.99065" pt_clust_4="214.55631" pt_clust_5="14000.00000" pt_clust_6="54.03669"></scales>
<clustering>
<clus scale="   30.991">  2  3  1 -1</clus>
<clus scale="   54.037">  2  6  1 -1</clus>
<clus scale="  214.556">  1  4  2 -1</clus>
<clus scale="  214.556">  1  3  2 -1</clus>
</clustering>
</event>
<event>
 6    0  0.1361919E+003  0.7677193E+02  0.7546771E-02  0.1338470E+00
         21   -1    0    0  506  501  0.00000000000E+00  0.00000000000E+00  0.14816281540E+03  0.14816281540E+03  0.00000000000E+00 0. -1.
         21   -1    0    0  505  502 -0.00000000000E+00 -0.00000000000E+00 -0.20238944772E+03  0.20238944772E+03  0.00000000000E+00 0.  1.
         21    1    1    2  503  502 -0.37698439840E+02  0.33855845302E+02  0.94847307848E+01  0.51549498014E+02  0.00000000000E+00 0. -1.
         21    1    1    2  504  501  0.57848045894E+02  0.68952688823E+02  0.55130213533E+02  0.10554719396E+03  0.00000000000E+00 0. -1.
         21    1    1    2  505  504 -0.30930463476E+02 -0.68888469031E+02 -0.13475278120E+03  0.15446885375E+03  0.00000000000E+00 0.  1.
         21    1    1    2  506  503  0.10780857422E+02 -0.33920065094E+02  0.15911204569E+02  0.38986717399E+02  0.00000000000E+00 0.  1.
<scales pt_clust_3="43.15347" pt_clust_4="76.77193" pt_clust_5="14000.00000" pt_clust_6="35.59210"></scales>
<clustering>
<clus scale="   35.592">  1  6  2 -1</clus>
<clus scale="   43.153">  1  3  2 -1</clus>
<clus scale="   76.772">  1  4  2 -1</clus>
<clus scale="   35.592">  1  3  2 -1</clus>
</clustering>
</event>
<event>
 6    0  0.1361919E+003  0.2276149E+03  0.7546771E-02  0.1128330E+00
         21   -1    0    0  506  501  0.00000000000E+00  0.00000000000E+00  0.38375076442E+03  0.38375076442E+03  0.00000000000E+00 0. -1.
         21   -1    0    0  505  502 -0.00000000000E+00 -0.00000000000E+00 -0.30295005405E+03  0.30295005405E+03  0.00000000000E+00 0. -1.
         21    1    1    2  503  501 -0.20995336440E+03 -0.30889923958E+02  0.57949697514E+02  0.21998356772E+03  0.00000000000E+00 0. -1.
         21    1    1    2  504  502  0.39778996141E+02 -0.34534976124E+00 -0.86981819612E+02  0.95646875242E+02  0.00000000000E+00 0.  1.
         21    1    1    2  505  503 -0.69065537648E+02  0.10428226215E+02 -0.47056281580E+02  0.84220484615E+02  0.00000000000E+00 0. -1.
         21    1    1    2  506  504  0.23923990591E+03  0.20807047505E+02  0.15688911404E+03  0.28684989090E+03  0.00000000000E+00 0. -1.
<scales pt_clust_3="227.61493" pt_clust_4="39.78050" pt_clust_5="57.65943" pt_clust_6="14000.00000"></scales>
<clustering>
<clus scale="   39.780">  2  4  1 -1</clus>
<clus scale="   57.659">  2  5  1 -1</clus>
<clus scale="  227.615">  2  3  1 -1</clus>
<clus scale="  227.615">  1  3  2 -1</clus>
</clustering>
</event>
<event>
 6    0  0.1361919E+003  0.9880991E+02  0.7546771E-02  0.1282819E+00
         21   -1    0    0  504  501  0.00000000000E+00  0.00000000000E+00  0.16414534606E+04  0.16414534606E+04  0.00000000000E+00 0.  1.
         21   -1    0    0  505  502 -0.00000000000E+00 -0.00000000000E+00 -0.27669384752E+02  0.27669384752E+02  0.00000000000E+00 0. -1.
         21    1    1    2  503  502  0.75921483785E+01  0.96693405453E+02  0.17856799158E+03  0.20320871780E+03  0.00000000000E+00 0. -1.
         21    1    1    2  504  506  0.17654589700E+02 -0.31071626743E+02  0.85454965101E+03  0.85529657814E+03  0.00000000000E+00 0.  1.
         21    1    1    2  505  501  0.62873389168E+02  0.19588068467E+02  0.18308488051E+03  0.19456831438E+03  0.00000000000E+00 0. -1.
         21    1    1    2  506  503 -0.88120127246E+02 -0.85209847177E+02  0.39758155277E+03  0.41604923505E+03  0.00000000000E+00 0. -1.
<scales pt_clust_3="14000.00000" pt_clust_4="35.73696" pt_clust_5="68.19896" pt_clust_6="98.80991"></scales>
<clustering>
<clus scale="   35.737">  1  4  2 -1</clus>
<clus scale="   68.199">  1  5  2 -1</clus>
<clus scale="   98.810">  1  6  2 -1</clus>
<clus scale="   35.737">  1  3  2 -1</clus>
</clustering>
</event>
<event>
 6    0  0.1361919E+003  0.9271456E+02  0.7546771E-02  0.1296408E+00
         21   -1    0    0  506  501  0.00000000000E+00  0.00000000000E+00  0.50704071325E+03  0.50704071325E+03  0.00000000000E+00 0.  1.
         21   -1    0    0  504  502 -0.00000000000E+00 -0.00000000000E+00 -0.67607450118E+02  0.67607450118E+02  0.00000000000E+00 0. -1.
         21    1    1    2  503  502  0.13979941240E+02 -0.35085471462E+02 -0.23924726636E+02  0.44708182801E+02  0.00000000000E+00 0. -1.
         21    1    1    2  504  501  0.90294538503E+02  0.29466773989E+02  0.28651016177E+03  0.30184344825E+03  0.00000000000E+00 0.  1.
         21    1    1    2  505  503 -0.87442282219E+02 -0.27160738866E+02  0.70542461650E+02  0.11558588733E+03  0.00000000000E+00 0. -1.
         21    1    1    2  506  505 -0.16832197525E+02  0.32779436339E+02  0.10630536635E+03  0.11251064499E+03  0.00000000000E+00 0.  1.
<scales pt_clust_3="36.80957" pt_clust_4="14000.00000" pt_clust_5="92.71456" pt_clust_6="36.84853"></scales>
<clustering>
<clus scale="   36.849">  1  6  2 -1</clus>
<clus scale="   36.810">  2  3  1 -1</clus>
<clus scale="   92.715">  2  5  1 -1</clus>
<clus scale="   36.849">  1  3  2 -1</clus>
</clustering>
</event>
<event>
 6    0  0.1361919E+003  0.1419402E+03  0.7546771E-02  0.1210742E+00
         21   -1    0    0  503  501  0.00000000000E+00  0.00000000000E+00  0.77131314109E+02  0.77131314109E+02  0.00000000000E+00 0.  1.
         21   -1    0    0  504  502 -0.00000000000E+00 -0.00000000000E+00 -0.85845686322E+03  0.85845686322E+03  0.00000000000E+00 0.  1.
         21    1    1    2  503  505  0.14501942205E+03  0.83808324974E+02 -0.21294206577E+03  0.27092211331E+03  0.00000000000E+00 0.  1.
         21    1    1    2  504  506 -0.11538161542E+03 -0.40126377498E+02 -0.99393850413E+02  0.15748708152E+03  0.00000000000E+00 0.  1.
         21    1    1    2  505  502 -0.33223306942E+02  0.39036567638E+01 -0.45667045637E+03  0.45789401872E+03  0.00000000000E+00 0.  1.
         21    1    1    2  506  501  0.35855003062E+01 -0.47585604240E+02 -0.12319176567E+02  0.49284963778E+02  0.00000000000E+00 0.  1.
<scales pt_clust_3="14000.00000" pt_clust_4="141.94019" pt_clust_5="33.45186" pt_clust_6="47.29720"></scales>
<clustering>
<clus scale="   33.452">  2  5  1 -1</clus>
<clus scale="   47.297">  1  6  2 -1</clus>
<clus scale="  141.940">  1  4  2 -1</clus>
<clus scale="   47.297">  1  3  2 -1</clus>
</clustering>
</event>
<event>
 6    0  0.1361919E+003  0.8752444E+02  0.7546771E-02  0.1308960E+00
         21   -1    0    0  506  501  0.00000000000E+00  0.00000000000E+00  0.18376328799E+03  0.18376328799E+03  0.00000000000E+00 0.  1.
         21   -1    0    0  503  502 -0.00000000000E+00 -0.00000000000E+00 -0.23998413597E+03  0.23998413597E+03  0.00000000000E+00 0.  1.
         21    1    1    2  503  501 -0.14501267290E+02  0.90980559591E+02  0.12870129411E+03  0.15827751603E+03  0.00000000000E+00 0.  1.
         21    1    1    2  504  505 -0.32500776257E+02 -0.19905933077E+02 -0.10236483163E+03  0.10922959940E+03  0.00000000000E+00 0. -1.
         21    1    1    2  505  502 -0.31682074074E+02 -0.25423161527E+02 -0.34844773262E+02  0.53518680694E+02  0.00000000000E+00 0.  1.
         21    1    1    2  506  504  0.78684117621E+02 -0.45651464987E+02 -0.47712537192E+02  0.10272162784E+03  0.00000000000E+00 0.  1.
<scales pt_clust_3="14000.00000" pt_clust_4="37.34374" pt_clust_5="87.52444" pt_clust_6="87.20708"></scales>
<clustering>
<clus scale="   37.344">  4  5 -1 -1</clus>
<clus scale="   87.524">  2  4  1 -1</clus>
<clus scale="   87.207">  2  6  1 -1</clus>
<clus scale="   87.524">  1  3  2 -1</clus>
</clustering>
</event>
<event>
 6    0  0.1361919E+003  0.1417638E+03  0.7546771E-02  0.1210975E+00
         21   -1    0    0  506  501  0.00000000000E+00  0.00000000000E+00  0.35608697444E+03  0.35608697444E+03  0.00000000000E+00 0.  1.
         21   -1    0    0  503  502 -0.00000000000E+00 -0.00000000000E+00 -0.15663116908E+04  0.15663116908E+04  0.00000000000E+00 0. -1.
         21    1    1    2  503  504 -0.69159899430E+02  0.16288495142E+03 -0.26776861392E+03  0.32095892212E+03  0.00000000000E+00 0.  1.
         21    1    1    2  504  501  0.89011875788E+02 -0.41679843828E+02  0.30571915942E+03  0.32113007933E+03  0.00000000000E+00 0.  1.
         21    1    1    2  505  502 -0.33522846396E+02  0.71883465257E+01 -0.99970885343E+03  0.10002965786E+04  0.00000000000E+00 0. -1.
         21    1    1    2  506  505  0.13670870039E+02 -0.12839345412E+03 -0.24846640841E+03  0.28001308515E+03  0.00000000000E+00 0.  1.
<scales pt_clust_3="14000.00000" pt_clust_4="97.83244" pt_clust_5="34.28489" pt_clust_6="141.76378"></scales>
<clustering>
<clus scale="   34.285">  2  5  1 -1</clus>
<clus scale="   97.832">  1  4  2 -1</clus>
<clus scale="  141.764">  2  6  1 -1</clus>
<clus scale="   97.832">  1  3  2 -1</clus>
</clustering>
</event>
<event>
 6    0  0.1361919E+003  0.7521492E+02  0.7546771E-02  0.1343207E+00
         21   -1    0    0  505  501  0.00000000000E+00  0.00000000000E+00  0.17267824840E+04  0.17267824840E+04  0.00000000000E+00 0. -1.
         21   -1    0    0  504  502 -0.00000000000E+00 -0.00000000000E+00 -0.34908159905E+02  0.34908159905E+02  0.00000000000E+00 0.  1.
         21    1    1    2  503  501  0.30054302959E+02 -0.17605752245E+02  0.84348979280E+03  0.84420865560E+03  0.00000000000E+00 0. -1.
         21    1    1    2  504  503 -0.41825851709E+02 -0.55920902682E+02  0.33640148181E+02  0.77512636373E+02  0.00000000000E+00 0.  1.
         21    1    1    2  505  506 -0.80116595926E+02  0.82504402609E+01  0.48123847280E+03  0.48793155915E+03  0.00000000000E+00 0. -1.
         21    1    1    2  506  502  0.91888144675E+02  0.65276214665E+02  0.33350591032E+03  0.35203779279E+03  0.00000000000E+00 0. -1.
<scales pt_clust_3="34.83136" pt_clust_4="14000.00000" pt_clust_5="63.63740" pt_clust_6="75.21492"></scales>
<clustering>
<clus scale="   34.831">  1  3  2 -1</clus>
<clus scale="   63.637">  1  5  2 -1</clus>
<clus scale="   75.215">  1  6  2 -1</clus>
<clus scale="   34.831">  1  3  2 -1</clus>
</clustering>
</event>
<event>
 6    0  0.1361919E+003  0.6606565E+02  0.7546771E-02  0.1374007E+00
         21   -1    0    0  504  501  0.00000000000E+00  0.00000000000E+00  0.11392325155E+04  0.11392325155E+04  0.00000000000E+00 0. -1.
         21   -1    0    0  503  502 -0.00000000000E+00 -0.00000000000E+00 -0.12872757158E+03  0.12872757158E+03  0.00000000000E+00 0. -1.
         21    1    1    2  503  501  0.64593980018E+01  0.33465114839E+02  0.30173077657E+02  0.45519801724E+02  0.00000000000E+00 0.  1.
         21    1    1    2  504  506  0.64745326691E+02 -0.13415186518E+02  0.10508159310E+04  0.10528941283E+04  0.00000000000E+00 0. -1.
         21    1    1    2  505  502  0.54422665546E+01  0.49693501447E+02 -0.16133543767E+02  0.52529549644E+02  0.00000000000E+00 0.  1.
         21    1    1    2  506  505 -0.76646991247E+02 -0.69743429767E+02 -0.54350521018E+02  0.11701660736E+03  0.00000000000E+00 0. -1.
<scales pt_clust_3="34.08281" pt_clust_4="66.06565" pt_clust_5="59.62972" pt_clust_6="14000.00000"></scales>
<clustering>
<clus scale="   34.083">  2  3  1 -1</clus>
<clus scale="   59.630">  2  5  1 -1</clus>
<clus scale="   66.066">  1  4  2 -1</clus>
<clus scale="   66.066">  1  3  2 -1</clus>
</clustering>
</event>
<event>
 6    0  0.1361919E+003  0.7869133E+02  0.7546771E-02  0.1332807E+00
         21   -1    0    0  506  501  0.00000000000E+00  0.00000000000E+00  0.35169103911E+03  0.35169103911E+03  0.00000000000E+00 0.  1.
         21   -1    0    0  505  502 -0.00000000000E+00 -0.00000000000E+00 -0.49957249818E+03  0.49957249818E+03  0.00000000000E+00 0. -1.
         21    1    1    2  503  502 -0.16760629262E+02  0.27788454037E+02 -0.19016948103E+03  0.19291850193E+03  0.00000000000E+00 0. -1.
         21    1    1    2  504  501 -0.10840294378E+03 -0.52302215663E+01  0.24387325063E+03  0.26693204343E+03  0.00000000000E+00 0.  1.
         21    1    1    2  505  504  0.69437977603E+02 -0.29249811187E+02 -0.28281452923E+03  0.29267941871E+03  0.00000000000E+00 0. -1.
         21    1    1    2  506  503  0.55725595437E+02  0.66915787167E+01  0.81229300562E+02  0.98733573227E+02  0.00000000000E+00 0.  1.
<scales pt_clust_3="32.45176" pt_clust_4="78.69133" pt_clust_5="53.88152" pt_clust_6="14000.00000"></scales>
<clustering>
<clus scale="   32.452">  2  3  1 -1</clus>
<clus scale="   53.882">  2  5  1 -1</clus>
<clus scale="   78.691">  2  4  1 -1</clus>
<clus scale="   78.691">  1  3  2 -1</clus>
</clustering>
</event>
<event>
 6    0  0.1361919E+003  0.8156514E+02  0.7546771E-02  0.1324668E+00
         21   -1    0    0  506  501  0.00000000000E+00  0.00000000000E+00  0.20436926692E+02  0.20436926692E+02  0.00000000000E+00 0.  1.
         21   -1    0    0  504  502 -0.00000000000E+00 -0.00000000000E+00 -0.14391346323E+04  0.14391346323E+04  0.00000000000E+00 0.  1.
         21    1    1    2  503  505  0.69035190556E+02  0.75407897069E+02 -0.54969514742E+03  0.55912159999E+03  0.00000000000E+00 0.  1.
         21    1    1    2  504  503  0.40705966956E+02 -0.30028567125E+02 -0.22023323888E+03  0.22596763064E+03  0.00000000000E+00 0.  1.
         21    1    1    2  505  501 -0.78552228624E+02 -0.16224679268E+02 -0.12212465164E+03  0.14610997015E+03  0.00000000000E+00 0.  1.
         21    1    1    2  506  502 -0.31188928887E+02 -0.29154650675E+02 -0.52664466771E+03  0.52837235826E+03  0.00000000000E+00 0.  1.
<scales pt_clust_3="14000.00000" pt_clust_4="49.74899" pt_clust_5="81.56514" pt_clust_6="42.69359"></scales>
<clustering>
<clus scale="   42.694">  2  6  1 -1</clus>
<clus scale="   49.749">  2  4  1 -1</clus>
<clus scale="   81.565">  1  5  2 -1</clus>
<clus scale="   81.565">  1  3  2 -1</clus>
</clustering>
</event>
<event>
 6    0  0.1361919E+003  0.1033467E+03  0.7546771E-02  0.1273412E+00
         21   -1    0    0  506  501  0.00000000000E+00  0.00000000000E+00  0.34338029793E+03  0.34338029793E+03  0.00000000000E+00 0. -1.
         21   -1    0    0  504  502 -0.00000000000E+00 -0.00000000000E+00 -0.29600880519E+03  0.29600880519E+03  0.00000000000E+00 0. -1.
         21    1    1    2  503  501  0.44611150699E+02 -0.27802173686E+01  0.46697898262E+02  0.64641921980E+02  0.00000000000E+00 0. -1.
         21    1    1    2  504  503  0.12235497629E+02  0.37684147731E+02 -0.14079496418E+03  0.14626354409E+03  0.00000000000E+00 0. -1.
         21    1    1    2  505  502 -0.11503641634E+03 -0.77651434062E+01 -0.11574784014E+03  0.16337452994E+03  0.00000000000E+00 0. -1.
         21    1    1    2  506  505  0.58189768013E+02 -0.27138786956E+02  0.25721639880E+03  0.26510910711E+03  0.00000000000E+00 0. -1.
<scales pt_clust_3="45.33459" pt_clust_4="39.62073" pt_clust_5="14000.00000" pt_clust_6="103.34673"></scales>
<clustering>
<clus scale="   39.621">  2  4  1 -1</clus>
<clus scale="   45.335">  1  3  2 -1</clus>
<clus scale="  103.347">  1  6  2 -1</clus>
<clus scale="   45.335">  1  3  2 -1</clus>
</clustering>
</event>
<event>
 6    0  0.1361919E+003  0.1074304E+03  0.7546771E-02  0.1265404E+00
         21   -1    0    0  504  501  0.00000000000E+00  0.00000000000E+00  0.55294259625E+03  0.55294259625E+03  0.00000000000E+00 0.  1.
         21   -1    0    0  505  502 -0.00000000000E+00 -0.00000000000E+00 -0.14344051272E+03  0.14344051272E+03  0.00000000000E+00 0.  1.
         21    1    1    2  503  502  0.10572698410E+03 -0.85493543391E+02 -0.69888578565E+02  0.15287823436E+03  0.00000000000E+00 0.  1.
         21    1    1    2  504  503  0.24553438644E+02 -0.17376948135E+02  0.43647179150E+02  0.53008545760E+02  0.00000000000E+00 0.  1.
         21    1    1    2  505  506 -0.52663552135E+02 -0.28540515901E-02  0.21870767861E+02  0.57024382666E+02  0.00000000000E+00 0.  1.
         21    1    1    2  506  501 -0.77616870604E+02  0.10287334558E+03  0.41387271508E+03  0.43347194618E+03  0.00000000000E+00 0.  1.
<scales pt_clust_3="14000.00000" pt_clust_4="30.08039" pt_clust_5="50.76238" pt_clust_6="107.43045"></scales>
<clustering>
<clus scale="   30.080">  1  4  2 -1</clus>
<clus scale="   50.762">  2  5  1 -1</clus>
<clus scale="  107.430">  1  6  2 -1</clus>
<clus scale="   30.080">  1  3  2 -1</clus>
</clustering>
</event>
<event>
 6    0  0.1361919E+003  0.2458065E+03  0.7546771E-02  0.1115984E+00
         21   -1    0    0  504  501  0.00000000000E+00  0.00000000000E+00  0.79948750319E+03  0.79948750319E+03  0.00000000000E+00 0. -1.
         21   -1    0    0  503  502 -0.00000000000E+00 -0.00000000000E+00 -0.20143805979E+03  0.20143805979E+03  0.00000000000E+00 0. -1.
         21    1    1    2  503  506 -0.20535658768E+03 -0.17692209211E+03  0.73267467334E+02  0.28078617586E+03  0.00000000000E+00 0. -1.
         21    1    1    2  504  505 -0.59910121991E+02  0.30375635518E+02  0.90782484530E+02  0.11293078167E+03  0.00000000000E+00 0. -1.
         21    1    1    2  505  502  0.46480576272E+02  0.11398493705E+02 -0.43622568437E+02  0.64755680108E+02  0.00000000000E+00 0.  1.
         21    1    1    2  506  501  0.21878613340E+03  0.13514796289E+03  0.47762205997E+03  0.54245292535E+03  0.00000000000E+00 0. -1.
<scales pt_clust_3="14000.00000" pt_clust_4="64.48321" pt_clust_5="47.85781" pt_clust_6="245.80652"></scales>
<clustering>
<clus scale="   47.858">  2  5  1 -1</clus>
<clus scale="   64.483">  1  4  2 -1</clus>
<clus scale="  245.807">  1  6  2 -1</clus>
<clus scale="   64.483">  1  3  2 -1</clus>
</clustering>
</event>
<event>
 6    0  0.1361919E+003  0.8579902E+02  0.7546771E-02  0.1313356E+00
         21   -1    0    0  506  501  0.00000000000E+00  0.00000000000E+00  0.22333052346E+03  0.22333052346E+03  0.00000000000E+00 0. -1.
         21   -1    0    0  504  502 -0.00000000000E+00 -0.00000000000E+00 -0.93535620368E+03  0.93535620368E+03  0.00000000000E+00 0. -1.
         21    1    1    2  503  501 -0.38185316411E+02  0.34907556370E+02  0.16819227239E+03  0.17596958934E+03  0.00000000000E+00 0. -1.
         21    1    1    2  504  505  0.33925132211E+02 -0.84305106329E+01 -0.45588685712E+03  0.45722512463E+03  0.00000000000E+00 0. -1.
         21    1    1    2  505  503  0.10218289720E+03 -0.72087913344E+02 -0.47973370878E+02  0.13393825459E+03  0.00000000000E+00 0. -1.
         21    1    1    2  506  502 -0.97922713000E+02  0.45610867607E+02 -0.37635772462E+03  0.39155375857E+03  0.00000000000E+00 0. -1.
<scales pt_clust_3="51.48703" pt_clust_4="34.95695" pt_clust_5="14000.00000" pt_clust_6="85.79902"></scales>
<clustering>
<clus scale="   34.957">  2  4  1 -1</clus>
<clus scale="   51.487">  1  3  2 -1</clus>
<clus scale="   85.799">  2  6  1 -1</clus>
<clus scale="   51.487">  1  3  2 -1</clus>
</clustering>
</event>
<event>
 6    0  0.1361919E+003  0.5848834E+02  0.7546771E-02  0.1404287E+00
         21   -1    0    0  503  501  0.00000000000E+00  0.00000000000E+00  0.68088096757E+03  0.68088096757E+03  0.00000000000E+00 0.  1.
         21   -1    0    0  501  502 -0.00000000000E+00 -0.00000000000E+00 -0.98724024989E+03  0.98724024989E+03  0.00000000000E+00 0. -1.
         21    1    1    2  503  506  0.36163292216E+02 -0.22135338483E+01  0.31772616608E+03  0.31978524051E+03  0.00000000000E+00 0.  1.
         21    1    1    2  504  505 -0.12546417636E+03 -0.14992913457E+02  0.22328244266E+03  0.25655622426E+03  0.00000000000E+00 0.  1.
         21    1    1    2  505  502  0.48630502401E+02  0.32134184735E+02 -0.96482678000E+03  0.96658587151E+03  0.00000000000E+00 0. -1.
         21    1    1    2  506  504  0.40670381741E+02 -0.14927737430E+02  0.11745888893E+03  0.12519388118E+03  0.00000000000E+00 0. -1.
<scales pt_clust_3="36.23097" pt_clust_4="58.48834" pt_clust_5="14000.00000" pt_clust_6="55.06311"></scales>
<clustering>
<clus scale="   36.231">  1  3  2 -1</clus>
<clus scale="   55.063">  1  6  2 -1</clus>
<clus scale="   58.488">  1  4  2 -1</clus>
<clus scale="   36.231">  1  3  2 -1</clus>
</clustering>
</event>
<event>
 6    0  0.1361919E+003  0.7414464E+02  0.7546771E-02  0.1346540E+00
         21   -1    0    0  504  501  0.00000000000E+00  0.00000000000E+00  0.36448062964E+03  0.36448062964E+03  0.00000000000E+00 0.  1.
         21   -1    0    0  503  502 -0.00000000000E+00 -0.00000000000E+00 -0.26247904437E+04  0.26247904437E+04  0.00000000000E+00 0. -1.
         21    1    1    2  503  501 -0.34435196165E+02 -0.84215733822E+02  0.27197848107E+03  0.28679324734E+03  0.00000000000E+00 0.  1.
         21    1    1    2  504  506 -0.25669324507E+02  0.37245080827E+02  0.58732260202E+02  0.74132237622E+02  0.00000000000E+00 0.  1.
         21    1    1    2  505  502  0.50135233921E+02 -0.29021247187E+02 -0.25292384962E+04  0.25299018054E+04  0.00000000000E+00 0. -1.
         21    1    1    2  506  505  0.99692867514E+01  0.75991900183E+02 -0.61782059160E+02  0.98443782972E+02  0.00000000000E+00 0.  1.
<scales pt_clust_3="74.14464" pt_clust_4="45.23395" pt_clust_5="57.88357" pt_clust_6="14000.00000"></scales>
<clustering>
<clus scale="   45.234">  1  4  2 -1</clus>
<clus scale="   57.884">  2  5  1 -1</clus>
<clus scale="   74.145">  1  3  2 -1</clus>
<clus scale="   45.234">  1  3  2 -1</clus>
</clustering>
</event>
<event>
 6    0  0.1361919E+003  0.1417925E+03  0.7546771E-02  0.1210937E+00
         21   -1    0    0  504  501  0.00000000000E+00  0.00000000000E+00  0.14621881306E+04  0.14621881306E+04  0.00000000000E+00 0. -1.
         21   -1    0    0  506  502 -0.00000000000E+00 -0.00000000000E+00 -0.25652257189E+03  0.25652257189E+03  0.00000000000E+00 0. -1.
         21    1    1    2  503  502 -0.67767682346E+02  0.34007603727E+02 -0.17426377116E+03  0.19004430489E+03  0.00000000000E+00 0. -1.
         21    1    1    2  504  503  0.14253188418E+03 -0.13948562601E+02  0.14031763099E+04  0.14104657589E+04  0.00000000000E+00 0. -1.
         21    1    1    2  505  501 -0.63196964921E+02  0.17657158151E+02  0.10293264463E+02  0.66419747836E+02  0.00000000000E+00 0. -1.
         21    1    1    2  506  505 -0.11567236910E+02 -0.37716199276E+02 -0.33540244494E+02  0.51780890861E+02  0.00000000000E+00 0. -1.
<scales pt_clust_3="141.79247" pt_clust_4="14000.00000" pt_clust_5="65.95076" pt_clust_6="39.45013"></scales>
<clustering>
<clus scale="   39.450">  2  6  1 -1</clus>
<clus scale="   65.951">  2  5  1 -1</clus>
<clus scale="  141.792">  2  3  1 -1</clus>
<clus scale="  141.792">  1  3  2 -1</clus>
</clustering>
</event>
<event>
 6    0  0.1361919E+003  0.6543310E+02  0.7546771E-02  0.1376350E+00
         21   -1    0    0  504  501  0.00000000000E+00  0.00000000000E+00  0.77277957401E+02  0.77277957401E+02  0.00000000000E+00 0. -1.
         21   -1    0    0  503  502 -0.00000000000E+00 -0.00000000000E+00 -0.87247794069E+03  0.87247794069E+03  0.00000000000E+00 0.  1.
         21    1    1    2  503  501 -0.44635803605E+02 -0.57283082816E+02 -0.42706891611E+03  0.43319922166E+03  0.00000000000E+00 0.  1.
         21    1    1    2  504  506 -0.48838984218E+02  0.46927674608E+02  0.47878834769E+02  0.82944775860E+02  0.00000000000E+00 0. -1.
         21    1    1    2  505  502  0.45927527024E+02 -0.24061159654E+02 -0.29004557391E+03  0.29464336424E+03  0.00000000000E+00 0. -1.
         21    1    1    2  506  505  0.47547260799E+02  0.34416567862E+02 -0.12596432803E+03  0.13896853633E+03  0.00000000000E+00 0. -1.
<scales pt_clust_3="65.43310" pt_clust_4="14000.00000" pt_clust_5="51.84860" pt_clust_6="64.84200"></scales>
<clustering>
<clus scale="   51.849">  2  5  1 -1</clus>
<clus scale="   64.842">  2  6  1 -1</clus>
<clus scale="   65.433">  2  3  1 -1</clus>
<clus scale="   65.433">  1  3  2 -1</clus>
</clustering>
</event>
<event>
 6    0  0.1361919E+003  0.1010537E+03  0.7546771E-02  0.1278096E+00
         21   -1    0    0  505  501  0.00000000000E+00  0.00000000000E+00  0.59505422834E+02  0.59505422834E+02  0.00000000000E+00 0. -1.
         21   -1    0    0  504  502 -0.00000000000E+00 -0.00000000000E+00 -0.17778100256E+04  0.17778100256E+04  0.00000000000E+00 0. -1.
         21    1    1    2  503  501  0.37885760803E+02  0.12891087118E+03 -0.70092653622E+02  0.15154644065E+03  0.00000000000E+00 0. -1.
         21    1    1    2  504  503  0.55869406155E+02 -0.25812638501E+02 -0.25251418632E+03  0.25990593903E+03  0.00000000000E+00 0.  1.
         21    1    1    2  505  506 -0.15544116839E+02 -0.34104177534E+02 -0.13653159176E+02  0.39888886285E+02  0.00000000000E+00 0. -1.
         21    1    1    2  506  502 -0.78211050118E+02 -0.68994055148E+02 -0.13820446037E+04  0.13859741825E+04  0.00000000000E+00 0. -1.
<scales pt_clust_3="101.05369" pt_clust_4="61.63191" pt_clust_5="37.47952" pt_clust_6="14000.00000"></scales>
<clustering>
<clus scale="   37.480">  1  5  2 -1</clus>
<clus scale="   61.632">  2  4  1 -1</clus>
<clus scale="  101.054">  1  3  2 -1</clus>
<clus scale="   37.480">  1  3  2 -1</clus>
</clustering>
</event>
<event>
 6    0  0.1361919E+003  0.9342197E+02  0.7546771E-02  0.1294770E+00
         21   -1    0    0  505  501  0.00000000000E+00  0.00000000000E+00  0.10451362964E+04  0.10451362964E+04  0.00000000000E+00 0. -1.
         21   -1    0    0  504  502 -0.00000000000E+00 -0.00000000000E+00 -0.44823425646E+02  0.44823425646E+02  0.00000000000E+00 0. -1.
         21    1    1    2  503  501  0.39046028503E+02 -0.35529304736E+01  0.27565815651E+03  0.27843246023E+03  0.00000000000E+00 0. -1.
         21    1    1    2  504  503  0.10600108968E+03 -0.39401564320E+02  0.98943838859E+02  0.15026176337E+03  0.00000000000E+00 0. -1.
         21    1    1    2  505  506 -0.92943113518E+02  0.67064938596E+02  0.56949615446E+03  0.58091479434E+03  0.00000000000E+00 0. -1.
         21    1    1    2  506  502 -0.52104004662E+02 -0.24110443802E+02  0.56214720931E+02  0.80350704113E+02  0.00000000000E+00 0. -1.
<scales pt_clust_3="39.20734" pt_clust_4="93.42197" pt_clust_5="14000.00000" pt_clust_6="54.42240"></scales>
<clustering>
<clus scale="   39.207">  1  3  2 -1</clus>
<clus scale="   54.422">  2  6  1 -1</clus>
<clus scale="   93.422">  2  4  1 -1</clus>
<clus scale="   39.207">  1  3  2 -1</clus>
</clustering>
</event>
<event>
 6    0  0.1361919E+003  0.1438362E+03  0.7546771E-02  0.1208258E+00
         21   -1    0    0  504  501  0.00000000000E+00  0.00000000000E+00  0.92809483759E+03  0.92809483759E+03  0.00000000000E+00 0. -1.
         21   -1    0    0  505  502 -0.00000000000E+00 -0.00000000000E+00 -0.36719295529E+03  0.36719295529E+03  0.00000000000E+00 0.  1.
         21    1    1    2  503  501  0.44188771574E+02  0.73232841026E+01  0.44647103422E+03  0.44871222673E+03  0.00000000000E+00 0. -1.
         21    1    1    2  504  506 -0.93312783082E+02  0.71430113490E+02 -0.57663802499E+02  0.13089939159E+03  0.00000000000E+00 0. -1.
         21    1    1    2  505  503  0.12942027364E+02 -0.14782556030E+03  0.42545382732E+03  0.45058944898E+03  0.00000000000E+00 0. -1.
         21    1    1    2  506  502  0.36181984144E+02  0.69072162711E+02 -0.25335917674E+03  0.26508672558E+03  0.00000000000E+00 0.  1.
<scales pt_clust_3="44.79149" pt_clust_4="143.83624" pt_clust_5="14000.00000" pt_clust_6="78.30560"></scales>
<clustering>
<clus scale="   44.791">  1  3  2 -1</clus>
<clus scale="   78.306">  2  6  1 -1</clus>
<clus scale="  143.836">  2  4  1 -1</clus>
<clus scale="   44.791">  1  3  2 -1</clus>
</clustering>
</event>
<event>
 6    0  0.1361919E+003  0.8944798E+02  0.7546771E-02  0.1304194E+00
         21   -1    0    0  506  501  0.00000000000E+00  0.00000000000E+00  0.17557806944E+03  0.17557806944E+03  0.00000000000E+00 0.  1.
         21   -1    0    0  504  502 -0.00000000000E+00 -0.00000000000E+00 -0.55504706505E+03  0.55504706505E+03  0.00000000000E+00 0.  1.
         21    1    1    2  503  502  0.60539248637E+02 -0.51377515231E+02 -0.33347589907E+03  0.34279851948E+03  0.00000000000E+00 0.  1.
         21    1    1    2  504  505  0.52825200846E+02  0.63092347684E+02 -0.11891005689E+03  0.14460549025E+03  0.00000000000E+00 0.  1.
         21    1    1    2  505  501 -0.81318892663E+02  0.70342348778E+02  0.10421065425E+03  0.14973532915E+03  0.00000000000E+00 0.  1.
         21    1    1    2  506  503 -0.32045556820E+02 -0.82057181232E+02 -0.31293693905E+02  0.93485795615E+02  0.00000000000E+00 0.  1.
<scales pt_clust_3="79.40182" pt_clust_4="95.10260" pt_clust_5="89.44798" pt_clust_6="14000.00000"></scales>
<clustering>
<clus scale="   79.402">  2  3  1 -1</clus>
<clus scale="   95.103">  2  4  1 -1</clus>
<clus scale="   89.448">  1  5  2 -1</clus>
<clus scale="   89.448">  1  3  2 -1</clus>
</clustering>
</event>
<event>
 6    0  0.1361919E+003  0.7222443E+02  0.7546771E-02  0.1352688E+00
         21   -1    0    0  504  501  0.00000000000E+00  0.00000000000E+00  0.14351621988E+04  0.14351621988E+04  0.00000000000E+00 0. -1.
         21   -1    0    0  503  502 -0.00000000000E+00 -0.00000000000E+00 -0.21410552854E+03  0.21410552854E+03  0.00000000000E+00 0.  1.
         21    1    1    2  503  505  0.22657792715E+02 -0.41315196200E+02  0.20287872490E+02  0.51302229755E+02  0.00000000000E+00 0. -1.
         21    1    1    2  504  502 -0.87214282199E+02 -0.36105373514E+02 -0.17446630865E+03  0.19836436643E+03  0.00000000000E+00 0.  1.
         21    1    1    2  505  506 -0.50944801291E+01  0.58747403632E+02  0.66492059715E+02  0.88872972080E+02  0.00000000000E+00 0.  1.
         21    1    1    2  506  501  0.69650969613E+02  0.18673166081E+02  0.13087430467E+04  0.13107281591E+04  0.00000000000E+00 0. -1.
<scales pt_clust_3="47.12028" pt_clust_4="14000.00000" pt_clust_5="56.54843" pt_clust_6="72.22443"></scales>
<clustering>
<clus scale="   47.120">  2  3  1 -1</clus>
<clus scale="   56.548">  2  5  1 -1</clus>
<clus scale="   72.224">  1  6  2 -1</clus>
<clus scale="   72.224">  1  3  2 -1</clus>
</clustering>
</event>
<event>
 6    0  0.1361919E+003  0.1564533E+03  0.7546771E-02  0.1192760E+00
         21   -1    0    0  505  501  0.00000000000E+00  0.00000000000E+00  0.20019895090E+03  0.20019895090E+03  0.00000000000E+00 0. -1.
         21   -1    0    0  503  502 -0.00000000000E+00 -0.00000000000E+00 -0.14736629096E+04  0.14736629096E+04  0.00000000000E+00 0.  1.
         21    1    1    2  503  501 -0.18449356177E+03 -0.29279888223E+02  0.68335975488E+02  0.19890950639E+03  0.00000000000E+00 0. -1.
         21    1    1    2  504  502  0.72625463785E+02  0.14971878625E+02 -0.13487802033E+04  0.13508170313E+04  0.00000000000E+00 0.  1.
         21    1    1    2  505  506  0.41509223407E+02  0.30271532976E+02  0.79217664139E+01  0.51982071136E+02  0.00000000000E+00 0. -1.
         21    1    1    2  506  504  0.70358874575E+02 -0.15963523378E+02 -0.94149727280E+00  0.72153251675E+02  0.00000000000E+00 0. -1.
<scales pt_clust_3="147.77001" pt_clust_4="74.15265" pt_clust_5="43.37154" pt_clust_6="43.37154"></scales>
<clustering>
<clus scale="   43.372">  5  6 -1 -1</clus>
<clus scale="   74.153">  2  4  1 -1</clus>
<clus scale="  147.770">  2  3  1 -1</clus>
<clus scale="  156.453">  1  3  2 -1</clus>
</clustering>
</event>
<event>
 6    0  0.1361919E+003  0.9923337E+02  0.7546771E-02  0.1281916E+00
         21   -1    0    0  504  501  0.00000000000E+00  0.00000000000E+00  0.34926465245E+03  0.34926465245E+03  0.00000000000E+00 0.  1.
         21   -1    0    0  503  502 -0.00000000000E+00 -0.00000000000E+00 -0.18726922965E+03  0.18726922965E+03  0.00000000000E+00 0. -1.
         21    1    1    2  503  506  0.68213817119E+02 -0.10478517543E+03  0.18251736846E+03  0.22123663265E+03  0.00000000000E+00 0.  1.
         21    1    1    2  504  505 -0.57117741718E+02  0.52976793009E+02  0.53754628676E+02  0.94649548972E+02  0.00000000000E+00 0.  1.
         21    1    1    2  505  502 -0.24928783204E+02  0.19956295867E+02 -0.14146044786E+03  0.14501984790E+03  0.00000000000E+00 0. -1.
         21    1    1    2  506  501  0.13832707803E+02  0.31852086550E+02  0.67183873527E+02  0.75627852573E+02  0.00000000000E+00 0.  1.
<scales pt_clust_3="14000.00000" pt_clust_4="99.23337" pt_clust_5="31.93271" pt_clust_6="35.65177"></scales>
<clustering>
<clus scale="   31.933">  2  5  1 -1</clus>
<clus scale="   35.652">  1  6  2 -1</clus>
<clus scale="   99.233">  2  4  1 -1</clus>
<clus scale="   35.652">  1  3  2 -1</clus>
</clustering>
</event>
<event>
 6    0  0.1361919E+003  0.1336703E+03  0.7546771E-02  0.1222109E+00
         21   -1    0    0  505  501  0.00000000000E+00  0.00000000000E+00  0.20781790858E+03  0.20781790858E+03  0.00000000000E+00 0.  1.
         21   -1    0    0  504  502 -0.00000000000E+00 -0.00000000000E+00 -0.15726431593E+04  0.15726431593E+04  0.00000000000E+00 0.  1.
         21    1    1    2  503  501 -0.11401817997E+03  0.83588671309E+02  0.16960980217E+03  0.22080465649E+03  0.00000000000E+00 0.  1.
         21    1    1    2  504  506  0.87027459039E+01 -0.37674956094E+02 -0.19581719170E+03  0.19959837842E+03  0.00000000000E+00 0. -1.
         21    1    1    2  505  502  0.18808263408E+02 -0.32696821112E+02 -0.11652051647E+04  0.11658155552E+04  0.00000000000E+00 0.  1.
         21    1    1    2  506  503  0.86507170660E+02 -0.13216894103E+02 -0.17341269648E+03  0.19424247776E+03  0.00000000000E+00 0.  1.
<scales pt_clust_3="14000.00000" pt_clust_4="56.44502" pt_clust_5="37.72046" pt_clust_6="133.67033"></scales>
<clustering>
<clus scale="   37.720">  2  5  1 -1</clus>
<clus scale="   56.445">  2  4  1 -1</clus>
<clus scale="  133.670">  2  6  1 -1</clus>
<clus scale="  133.670">  1  3  2 -1</clus>
</clustering>
</event>
<event>
 6    0  0.1361919E+003  0.1109148E+03  0.7546771E-02  0.1258885E+00
         21   -1    0    0  506  501  0.00000000000E+00  0.00000000000E+00  0.67777544826E+03  0.67777544826E+03  0.00000000000E+00 0.  1.
         21   -1    0    0  503  502 -0.00000000000E+00 -0.00000000000E+00 -0.28521986924E+03  0.28521986924E+03  0.00000000000E+00 0. -1.
         21    1    1    2  503  505  0.87525430240E+02  0.10690737730E+03 -0.19757666750E+03  0.24109423013E+03  0.00000000000E+00 0. -1.
         21    1    1    2  504  502 -0.25338264736E+02 -0.16474050865E+02 -0.52905973642E+02  0.60929993097E+02  0.00000000000E+00 0. -1.
         21    1    1    2  505  501 -0.91038006136E+02 -0.72381616153E+02  0.44060529215E+03  0.45569731225E+03  0.00000000000E+00 0.  1.
         21    1    1    2  506  504  0.28850840632E+02 -0.18051710286E+02  0.20243292800E+03  0.20527378203E+03  0.00000000000E+00 0.  1.
<scales pt_clust_3="14000.00000" pt_clust_4="30.22287" pt_clust_5="110.91476" pt_clust_6="33.95401"></scales>
<clustering>
<clus scale="   30.223">  2  4  1 -1</clus>
<clus scale="   33.954">  1  6  2 -1</clus>
<clus scale="  110.915">  1  5  2 -1</clus>
<clus scale="   33.954">  1  3  2 -1</clus>
</clustering>
</event>
<event>
 6    0  0.1361919E+003  0.9881457E+02  0.7546771E-02  0.1282809E+00
         21   -1    0    0  504  501  0.00000000000E+00  0.00000000000E+00  0.18908295419E+03  0.18908295419E+03  0.00000000000E+00 0.  1.
         21   -1    0    0  505  502 -0.00000000000E+00 -0.00000000000E+00 -0.39434965382E+03  0.39434965382E+03  0.00000000000E+00 0. -1.
         21    1    1    2  503  502  0.35023999541E+02  0.37897439047E+02 -0.22992788219E+03  0.23564746432E+03  0.00000000000E+00 0. -1.
         21    1    1    2  504  503  0.40216598783E+02  0.22836682075E+02  0.29785789524E+02  0.55009836606E+02  0.00000000000E+00 0.  1.
         21    1    1    2  505  506  0.58503327742E+02  0.13595775260E+02 -0.97153882057E+02  0.11422066915E+03  0.00000000000E+00 0. -1.
         21    1    1    2  506  501 -0.13374392607E+03 -0.74329896383E+02  0.92029275095E+02  0.17855463794E+03  0.00000000000E+00 0.  1.
<scales pt_clust_3="52.46311" pt_clust_4="46.24812" pt_clust_5="14000.00000" pt_clust_6="98.81457"></scales>
<clustering>
<clus scale="   46.248">  1  4  2 -1</clus>
<clus scale="   52.463">  2  3  1 -1</clus>
<clus scale="   98.815">  1  6  2 -1</clus>
<clus scale="   46.248">  1  3  2 -1</clus>
</clustering>
</event>
<event>
 6    0  0.1361919E+003  0.6640622E+02  0.7546771E-02  0.1372759E+00
         21   -1    0    0  506  501  0.00000000000E+00  0.00000000000E+00  0.22942989052E+03  0.22942989052E+03  0.00000000000E+00 0. -1.
         21   -1    0    0  505  502 -0.00000000000E+00 -0.00000000000E+00 -0.17749854019E+03  0.17749854019E+03  0.00000000000E+00 0. -1.
         21    1    1    2  503  501  0.23828528080E+01 -0.59797478581E+02  0.62235624251E+02  0.86340542957E+02  0.00000000000E+00 0. -1.
         21    1    1    2  504  503  0.71240610107E+02 -0.30582410762E+02 -0.25546934172E+02  0.81628146016E+02  0.00000000000E+00 0. -1.
         21    1    1    2  505  504 -0.12136594694E+02  0.27705834883E+02 -0.94035157752E+02  0.98780165574E+02  0.00000000000E+00 0. -1.
         21    1    1    2  506  502 -0.61486868220E+02  0.62674054460E+02  0.10927781800E+03  0.14017957616E+03  0.00000000000E+00 0.  1.
<scales pt_clust_3="55.68260" pt_clust_4="14000.00000" pt_clust_5="30.24748" pt_clust_6="66.40622"></scales>
<clustering>
<clus scale="   30.247">  2  5  1 -1</clus>
<clus scale="   55.683">  1  3  2 -1</clus>
<clus scale="   66.406">  1  6  2 -1</clus>
<clus scale="   55.683">  1  3  2 -1</clus>
</clustering>
</event>
<event>
 6    0  0.1361919E+003  0.1071787E+03  0.7546771E-02  0.1265886E+00
         21   -1    0    0  506  501  0.00000000000E+00  0.00000000000E+00  0.10296217584E+04  0.10296217584E+04  0.00000000000E+00 0.  1.
         21   -1    0    0  504  502 -0.00000000000E+00 -0.00000000000E+00 -0.19667663103E+03  0.19667663103E+03  0.00000000000E+00 0.  1.
         21    1    1    2  503  502  0.36106510661E+02 -0.67719131506E+01 -0.58543211903E+02  0.69114734896E+02  0.00000000000E+00 0.  1.
         21    1    1    2  504  505 -0.56385468967E+02  0.11267943851E+03 -0.97211951430E+02  0.15914188787E+03  0.00000000000E+00 0.  1.
         21    1    1    2  505  501 -0.22565047871E+02 -0.25581412640E+02  0.48369576435E+03  0.48489708445E+03  0.00000000000E+00 0.  1.
         21    1    1    2  506  503  0.42844006178E+02 -0.80326112722E+02  0.50500452634E+03  0.51314468220E+03  0.00000000000E+00 0.  1.
<scales pt_clust_3="36.56791" pt_clust_4="14000.00000" pt_clust_5="34.11144" pt_clust_6="107.17866"></scales>
<clustering>
<clus scale="   34.111">  1  5  2 -1</clus>
<clus scale="   36.568">  2  3  1 -1</clus>
<clus scale="  107.179">  1  6  2 -1</clus>
<clus scale="   34.111">  1  3  2 -1</clus>
</clustering>
</event>
<event>
 6    0  0.1361919E+003  0.1109165E+03  0.7546771E-02  0.1258882E+00
         21   -1    0    0  504  501  0.00000000000E+00  0.00000000000E+00  0.10495871659E+03  0.10495871659E+03  0.00000000000E+00 0. -1.
         21   -1    0    0  506  502 -0.00000000000E+00 -0.00000000000E+00 -0.59029479160E+03  0.59029479160E+03  0.00000000000E+00 0. -1.
         21    1    1    2  503  505 -0.70626949897E+02  0.40627861539E+02 -0.40059055627E+02  0.90793816544E+02  0.00000000000E+00 0. -1.
         21    1    1    2  504  503 -0.24476855104E+02  0.32694810324E+02  0.44618250004E+02  0.60488472383E+02  0.00000000000E+00 0. -1.
         21    1    1    2  505  502  0.13312144693E+03 -0.63484268427E+02 -0.18517304389E+03  0.23672901840E+03  0.00000000000E+00 0. -1.
         21    1    1    2  506  501 -0.38017641930E+02 -0.98384034355E+01 -0.30472222549E+03  0.30724220086E+03  0.00000000000E+00 0. -1.
<scales pt_clust_3="14000.00000" pt_clust_4="41.27052" pt_clust_5="110.91652" pt_clust_6="39.27003"></scales>
<clustering>
<clus scale="   39.270">  2  6  1 -1</clus>
<clus scale="   41.271">  1  4  2 -1</clus>
<clus scale="  110.917">  2  5  1 -1</clus>
<clus scale="   41.271">  1  3  2 -1</clus>
</clustering>
</event>
<event>
 6    0  0.1361919E+003  0.7802429E+02  0.7546771E-02  0.1334754E+00
         21   -1    0    0  505  501  0.00000000000E+00  0.00000000000E+00  0.75830991872E+02  0.75830991872E+02  0.00000000000E+00 0. -1.
         21   -1    0    0  506  502 -0.00000000000E+00 -0.00000000000E+00 -0.23015832899E+03  0.23015832899E+03  0.00000000000E+00 0. -1.
         21    1    1    2  503  501  0.22325734929E+02  0.67106662788E+02 -0.30294311276E+02  0.76938208494E+02  0.00000000000E+00 0. -1.
         21    1    1    2  504  502 -0.67683523194E+02  0.23306311830E+02 -0.43406936018E+02  0.83716220516E+02  0.00000000000E+00 0. -1.
         21    1    1    2  505  504 -0.16783153089E+02 -0.25063326031E+02 -0.14237628830E+02  0.33354978850E+02  0.00000000000E+00 0. -1.
         21    1    1    2  506  503  0.62140941355E+02 -0.65349648586E+02 -0.66388460995E+02  0.11197991300E+03  0.00000000000E+00 0. -1.
<scales pt_clust_3="60.55518" pt_clust_4="78.02429" pt_clust_5="30.16363" pt_clust_6="14000.00000"></scales>
<clustering>
<clus scale="   30.164">  1  5  2 -1</clus>
<clus scale="   60.555">  1  3  2 -1</clus>
<clus scale="   78.024">  2  4  1 -1</clus>
<clus scale="   30.164">  1  3  2 -1</clus>
</clustering>
</event>
<event>
 6    0  0.1361919E+003  0.1985151E+03  0.7546771E-02  0.1150998E+00
         21   -1    0    0  504  501  0.00000000000E+00  0.00000000000E+00  0.20011354201E+03  0.20011354201E+03  0.00000000000E+00 0. -1.
         21   -1    0    0  506  502 -0.00000000000E+00 -0.00000000000E+00 -0.16339469742E+04  0.16339469742E+04  0.00000000000E+00 0.  1.
         21    1    1    2  503  502  0.11291937305E+03 -0.16975647483E+03 -0.14714602073E+04  0.14855178179E+04  0.00000000000E+00 0.  1.
         21    1    1    2  504  505 -0.40561155176E+02 -0.15268452617E+01  0.24307470980E+02  0.47311644561E+02  0.00000000000E+00 0.  1.
         21    1    1    2  505  503 -0.81671962624E+02  0.53283982821E+02 -0.98351791787E+02  0.13850114531E+03  0.00000000000E+00 0.  1.
         21    1    1    2  506  501  0.93137447444E+01  0.11799933727E+03  0.11167109593E+03  0.16272990845E+03  0.00000000000E+00 0. -1.
<scales pt_clust_3="198.51511" pt_clust_4="40.58988" pt_clust_5="101.60561" pt_clust_6="14000.00000"></scales>
<clustering>
<clus scale="   40.590">  1  4  2 -1</clus>
<clus scale="  101.606">  1  5  2 -1</clus>
<clus scale="  198.515">  2  3  1 -1</clus>
<clus scale="   40.590">  1  3  2 -1</clus>
</clustering>
</event>
<event>
 6    0  0.1361919E+003  0.7186317E+02  0.7546771E-02  0.1353869E+00
         21   -1    0    0  505  501  0.00000000000E+00  0.00000000000E+00  0.15218666480E+03  0.15218666480E+03  0.00000000000E+00 0.  1.
         21   -1    0    0  503  502 -0.00000000000E+00 -0.00000000000E+00 -0.30243500945E+03  0.30243500945E+03  0.00000000000E+00 0.  1.
         21    1    1    2  503  501 -0.14685938031E+02 -0.34078062634E+02 -0.91972867512E+01  0.38230631859E+02  0.00000000000E+00 0. -1.
         21    1    1    2  504  502  0.48992481343E+02 -0.47503022518E+02 -0.20228689241E+03  0.21348720622E+03  0.00000000000E+00 0.  1.
         21    1    1    2  505  506 -0.92142919216E+00 -0.32544597030E+02  0.76385040569E+02  0.83034175195E+02  0.00000000000E+00 0.  1.
         21    1    1    2  506  504 -0.33385114119E+02  0.11412568218E+03 -0.15149206057E+02  0.11986966098E+03  0.00000000000E+00 0.  1.
<scales pt_clust_3="43.23436" pt_clust_4="71.86317" pt_clust_5="32.55764" pt_clust_6="14000.00000"></scales>
<clustering>
<clus scale="   32.558">  1  5  2 -1</clus>
<clus scale="   43.234">  1  3  2 -1</clus>
<clus scale="   71.863">  2  4  1 -1</clus>
<clus scale="   32.558">  1  3  2 -1</clus>
</clustering>
</event>
<event>
 6    0  0.1361919E+003  0.1058954E+03  0.7546771E-02  0.1268365E+00
         21   -1    0    0  503  501  0.00000000000E+00  0.00000000000E+00  0.53491440787E+03  0.53491440787E+03  0.00000000000E+00 0.  1.
         21   -1    0    0  504  502 -0.00000000000E+00 -0.00000000000E+00 -0.29053628406E+03  0.29053628406E+03  0.00000000000E+00 0.  1.
         21    1    1    2  503  506 -0.30615318388E+02 -0.16735173780E+00  0.22612814333E+03  0.22819128584E+03  0.00000000000E+00 0.  1.
         21    1    1    2  504  505  0.30510348925E+02 -0.79938413446E+02 -0.20607033938E+03  0.22312780218E+03  0.00000000000E+00 0.  1.
         21    1    1    2  505  501  0.60907550231E+02 -0.80528758522E+02  0.16303572683E+03  0.19176876401E+03  0.00000000000E+00 0.  1.
         21    1    1    2  506  502 -0.60802580769E+02  0.16063452371E+03  0.61284593020E+02  0.18236283990E+03  0.00000000000E+00 0.  1.
<scales pt_clust_3="30.61578" pt_clust_4="85.26852" pt_clust_5="14000.00000" pt_clust_6="105.89541"></scales>
<clustering>
<clus scale="   30.616">  1  3  2 -1</clus>
<clus scale="   85.269">  2  4  1 -1</clus>
<clus scale="  105.895">  2  6  1 -1</clus>
<clus scale="   30.616">  1  3  2 -1</clus>
</clustering>
</event>
<event>
 6    0  0.1361919E+003  0.9109297E+02  0.7546771E-02  0.1300226E+00
         21   -1    0    0  505  501  0.00000000000E+00  0.00000000000E+00  0.61184077527E+03  0.61184077527E+03  0.00000000000E+00 0.  1.
         21   -1    0    0  506  502 -0.00000000000E+00 -0.00000000000E+00 -0.88821725366E+02  0.88821725366E+02  0.00000000000E+00 0.  1.
         21    1    1    2  503  502 -0.30962638969E+02 -0.32318320276E+02 -0.34440292690E+02  0.56473822236E+02  0.00000000000E+00 0.  1.
         21    1    1    2  504  501 -0.65755823254E+01  0.11628788763E+03  0.17688269289E+03  0.21178668074E+03  0.00000000000E+00 0.  1.
         21    1    1    2  505  503 -0.78931071920E+01 -0.84179529504E+02  0.37751516126E+03  0.38686714943E+03  0.00000000000E+00 0.  1.
         21    1    1    2  506  504  0.45431328486E+02  0.20996214525E+00  0.30614884449E+01  0.45534848233E+02  0.00000000000E+00 0.  1.
<scales pt_clust_3="44.75666" pt_clust_4="91.09297" pt_clust_5="14000.00000" pt_clust_6="34.05961"></scales>
<clustering>
<clus scale="   44.757">  2  3  1 -1</clus>
<clus scale="   34.060">  2  6  1 -1</clus>
<clus scale="   91.093">  2  4  1 -1</clus>
<clus scale="   91.093">  1  3  2 -1</clus>
</clustering>
</event>
<event>
 6    0  0.1361919E+003  0.1226241E+03  0.7546771E-02  0.1238830E+00
         21   -1    0    0  504  501  0.00000000000E+00  0.00000000000E+00  0.34579687476E+02  0.34579687476E+02  0.00000000000E+00 0. -1.
         21   -1    0    0  505  502 -0.00000000000E+00 -0.00000000000E+00 -0.14099739097E+04  0.14099739097E+04  0.00000000000E+00 0. -1.
         21    1    1    2  503  501 -0.11074710206E+03  0.10752878923E+03 -0.34572407629E+03  0.37861919927E+03  0.00000000000E+00 0. -1.
         21    1    1    2  504  502  0.11122514390E+02 -0.47291942582E+02 -0.41431769706E+02  0.63850056386E+02  0.00000000000E+00 0. -1.
         21    1    1    2  505  506  0.26331141773E+02  0.14971966053E+02 -0.57204538835E+03  0.57284676408E+03  0.00000000000E+00 0. -1.
         21    1    1    2  506  503  0.73293445902E+02 -0.75208812701E+02 -0.41619298785E+03  0.42923757740E+03  0.00000000000E+00 0. -1.
<scales pt_clust_3="14000.00000" pt_clust_4="48.07985" pt_clust_5="30.29008" pt_clust_6="122.62414"></scales>
<clustering>
<clus scale="   30.290">  2  5  1 -1</clus>
<clus scale="   48.080">  1  4  2 -1</clus>
<clus scale="  122.624">  2  6  1 -1</clus>
<clus scale="   48.080">  1  3  2 -1</clus>
</clustering>
</event>
<event>
 6    0  0.1361919E+003  0.1375827E+03  0.7546771E-02  0.1216619E+00
         21   -1    0    0  504  501  0.00000000000E+00  0.00000000000E+00  0.11986463782E+04  0.11986463782E+04  0.00000000000E+00 0.  1.
         21   -1    0    0  505  502 -0.00000000000E+00 -0.00000000000E+00 -0.98915796147E+02  0.98915796147E+02  0.00000000000E+00 0. -1.
         21    1    1    2  503  506  0.32655164812E+02  0.17292728576E+03  0.10259435220E+03  0.20370519643E+03  0.00000000000E+00 0. -1.
         21    1    1    2  504  502 -0.95920935516E+02 -0.10388463480E+03  0.71223720686E+03  0.72613682047E+03  0.00000000000E+00 0.  1.
         21    1    1    2  505  503  0.10593567897E+02 -0.49057586778E+02 -0.22643769753E+02  0.55060065473E+02  0.00000000000E+00 0. -1.
         21    1    1    2  506  501  0.52672202807E+02 -0.19985064181E+02  0.30754279278E+03  0.31266009200E+03  0.00000000000E+00 0.  1.
<scales pt_clust_3="137.58270" pt_clust_4="14000.00000" pt_clust_5="50.18835" pt_clust_6="57.52741"></scales>
<clustering>
<clus scale="   50.188">  2  5  1 -1</clus>
<clus scale="   57.527">  1  6  2 -1</clus>
<clus scale="  137.583">  2  3  1 -1</clus>
<clus scale="   57.527">  1  3  2 -1</clus>
</clustering>
</event>
<event>
 6    0  0.1361919E+003  0.1941044E+03  0.7546771E-02  0.1154811E+00
         21   -1    0    0  505  501  0.00000000000E+00  0.00000000000E+00  0.10078548931E+04  0.10078548931E+04  0.00000000000E+00 0. -1.
         21   -1    0    0  503  502 -0.00000000000E+00 -0.00000000000E+00 -0.24001280640E+03  0.24001280640E+03  0.00000000000E+00 0. -1.
         21    1    1    2  503  504 -0.16118862535E+03  0.96712911146E+02 -0.13091758625E+03  0.22907329507E+03  0.00000000000E+00 0. -1.
         21    1    1    2  504  501 -0.21883442982E+02  0.20929599726E+02  0.31374821112E+02  0.43604043634E+02  0.00000000000E+00 0.  1.
         21    1    1    2  505  506 -0.62239079519E+02 -0.80093056207E+02  0.60726124469E+03  0.61567428075E+03  0.00000000000E+00 0. -1.
         21    1    1    2  506  502  0.24531114785E+03 -0.37549454665E+02  0.26012360710E+03  0.35951608000E+03  0.00000000000E+00 0. -1.
<scales pt_clust_3="194.10435" pt_clust_4="30.28091" pt_clust_5="101.27475" pt_clust_6="14000.00000"></scales>
<clustering>
<clus scale="   30.281">  1  4  2 -1</clus>
<clus scale="  101.275">  1  5  2 -1</clus>
<clus scale="  194.104">  2  3  1 -1</clus>
<clus scale="   30.281">  1  3  2 -1</clus>
</clustering>
</event>
<event>
 6    0  0.1361919E+003  0.9821939E+02  0.7546771E-02  0.1284086E+00
         21   -1    0    0  506  501  0.00000000000E+00  0.00000000000E+00  0.15073611370E+04  0.15073611370E+04  0.00000000000E+00 0.  1.
         21   -1    0    0  504  502 -0.00000000000E+00 -0.00000000000E+00 -0.61692149778E+02  0.61692149778E+02  0.00000000000E+00 0.  1.
         21    1    1    2  503  505 -0.40278332349E+01 -0.71126693615E+02  0.28657267410E+03  0.29529498391E+03  0.00000000000E+00 0.  1.
         21    1    1    2  504  503  0.54198565149E+01 -0.32014759297E+02  0.38492309485E+02  0.50358490317E+02  0.00000000000E+00 0.  1.
         21    1    1    2  505  501 -0.34457737289E+02  0.11412612318E+03  0.11626768260E+04  0.11687726508E+04  0.00000000000E+00 0.  1.
         21    1    1    2  506  502  0.33065714009E+02 -0.10984670266E+02 -0.42072822310E+02  0.54627161751E+02  0.00000000000E+00 0.  1.
<scales pt_clust_3="98.21939" pt_clust_4="32.47029" pt_clust_5="14000.00000" pt_clust_6="54.10576"></scales>
<clustering>
<clus scale="   32.470">  2  4  1 -1</clus>
<clus scale="   54.106">  2  6  1 -1</clus>
<clus scale="   98.219">  2  3  1 -1</clus>
<clus scale="   98.219">  1  3  2 -1</clus>
</clustering>
</event>
<event>
 6    0  0.1361919E+003  0.8539964E+02  0.7546771E-02  0.1314391E+00
         21   -1    0    0  503  501  0.00000000000E+00  0.00000000000E+00  0.48369131953E+03  0.48369131953E+03  0.00000000000E+00 0.  1.
         21   -1    0    0  505  502 -0.00000000000E+00 -0.00000000000E+00 -0.17328224932E+03  0.17328224932E+03  0.00000000000E+00 0.  1.
         21    1    1    2  503  506 -0.77804177192E+02 -0.15647845461E+02  0.81301390935E+02  0.11361452911E+03  0.00000000000E+00 0.  1.
         21    1    1    2  504  501  0.88828025921E+01 -0.55294894919E+02  0.35288691977E+03  0.35730324338E+03  0.00000000000E+00 0.  1.
         21    1    1    2  505  504  0.22667832915E+02  0.67272679466E+02 -0.12009968090E+03  0.13951120888E+03  0.00000000000E+00 0.  1.
         21    1    1    2  506  502  0.46253541685E+02  0.36700609138E+01 -0.36795595897E+01  0.46544587486E+02  0.00000000000E+00 0.  1.
<scales pt_clust_3="85.39964" pt_clust_4="56.06340" pt_clust_5="14000.00000" pt_clust_6="46.39892"></scales>
<clustering>
<clus scale="   46.399">  2  6  1 -1</clus>
<clus scale="   56.063">  1  4  2 -1</clus>
<clus scale="   85.400">  1  3  2 -1</clus>
<clus scale="   56.063">  1  3  2 -1</clus>
</clustering>
</event>
<event>
 6    0  0.1361919E+003  0.8034923E+02  0.7546771E-02  0.1328063E+00
         21   -1    0    0  505  501  0.00000000000E+00  0.00000000000E+00  0.11740940908E+04  0.11740940908E+04  0.00000000000E+00 0. -1.
         21   -1    0    0  504  502 -0.00000000000E+00 -0.00000000000E+00 -0.57346752973E+02  0.57346752973E+02  0.00000000000E+00 0. -1.
         21    1    1    2  503  502 -0.48224337502E+02 -0.62464368681E+02  0.91778194322E+02  0.12103974981E+03  0.00000000000E+00 0. -1.
         21    1    1    2  504  506 -0.31988401861E+02  0.14414250039E+01 -0.28577080526E+02  0.42918353778E+02  0.00000000000E+00 0. -1.
         21    1    1    2  505  503  0.83108134976E+02 -0.15790825671E+02  0.36581049556E+03  0.37546455351E+03  0.00000000000E+00 0. -1.
         21    1    1    2  506  501 -0.28953956137E+01  0.76813769348E+02  0.68773572848E+03  0.69201818669E+03  0.00000000000E+00 0. -1.
<scales pt_clust_3="14000.00000" pt_clust_4="32.02086" pt_clust_5="80.34923" pt_clust_6="77.19541"></scales>
<clustering>
<clus scale="   32.021">  2  4  1 -1</clus>
<clus scale="   77.195">  1  6  2 -1</clus>
<clus scale="   80.349">  1  5  2 -1</clus>
<clus scale="   77.195">  1  3  2 -1</clus>
</clustering>
</event>
<event>
 6    0  0.1361919E+003  0.9404536E+02  0.7546771E-02  0.1293341E+00
         21   -1    0    0  506  501  0.00000000000E+00  0.00000000000E+00  0.32866637944E+03  0.32866637944E+03  0.00000000000E+00 0.  1.
         21   -1    0    0  503  502 -0.00000000000E+00 -0.00000000000E+00 -0.97846008727E+03  0.97846008727E+03  0.00000000000E+00 0.  1.
         21    1    1    2  503  501  0.45903971795E+02  0.91963589593E+02 -0.33162849324E+03  0.34719149466E+03  0.00000000000E+00 0.  1.
         21    1    1    2  504  505  0.12136735062E+02 -0.13817164696E+03 -0.16115874202E+03  0.21262841883E+03  0.00000000000E+00 0.  1.
         21    1    1    2  505  502 -0.53365353310E+02 -0.18460173818E+02 -0.44679708246E+03  0.45035127605E+03  0.00000000000E+00 0.  1.
         21    1    1    2  506  504 -0.46753535466E+01  0.64668231184E+02  0.28979060989E+03  0.29695527717E+03  0.00000000000E+00 0.  1.
<scales pt_clust_3="14000.00000" pt_clust_4="94.04536" pt_clust_5="56.46803" pt_clust_6="64.73961"></scales>
<clustering>
<clus scale="   56.468">  2  5  1 -1</clus>
<clus scale="   64.740">  1  6  2 -1</clus>
<clus scale="   94.045">  1  4  2 -1</clus>
<clus scale="   64.740">  1  3  2 -1</clus>
</clustering>
</event>
<event>
 6    0  0.1361919E+003  0.1140235E+03  0.7546771E-02  0.1253295E+00
         21   -1    0    0  503  501  0.00000000000E+00  0.00000000000E+00  0.14357863165E+04  0.14357863165E+04  0.00000000000E+00 0.  1.
         21   -1    0    0  506  502 -0.00000000000E+00 -0.00000000000E+00 -0.26545272942E+02  0.26545272942E+02  0.00000000000E+00 0. -1.
         21    1    1    2  503  504  0.12055792790E+03  0.10893866514E+02  0.79278770906E+03  0.80197583626E+03  0.00000000000E+00 0.  1.
         21    1    1    2  504  502  0.37765912549E+02 -0.40264783577E+02  0.92379635328E+02  0.10761744269E+03  0.00000000000E+00 0.  1.
         21    1    1    2  505  501 -0.25096390475E+02  0.20504301970E+02  0.19387801694E+03  0.19656790345E+03  0.00000000000E+00 0.  1.
         21    1    1    2  506  505 -0.13322744998E+03  0.88666150927E+01  0.33019568220E+03  0.35617040702E+03  0.00000000000E+00 0. -1.
<scales pt_clust_3="14000.00000" pt_clust_4="52.61601" pt_clust_5="32.40764" pt_clust_6="114.02352"></scales>
<clustering>
<clus scale="   32.408">  1  5  2 -1</clus>
<clus scale="   52.616">  2  4  1 -1</clus>
<clus scale="  114.024">  2  6  1 -1</clus>
<clus scale="   32.408">  1  3  2 -1</clus>
</clustering>
</event>
<event>
 6    0  0.1361919E+003  0.1288377E+03  0.7546771E-02  0.1229191E+00
         21   -1    0    0  505  501  0.00000000000E+00  0.00000000000E+00  0.85925398977E+03  0.85925398977E+03  0.00000000000E+00 0. -1.
         21   -1    0    0  504  502 -0.00000000000E+00 -0.00000000000E+00 -0.63056879386E+03  0.63056879386E+03  0.00000000000E+00 0. -1.
         21    1    1    2  503  506  0.11718595238E+03  0.12715317237E+03 -0.16687341425E+03  0.24030649817E+03  0.00000000000E+00 0. -1.
         21    1    1    2  504  501 -0.39271402494E+02  0.19941380617E+02  0.79230100264E+03  0.79352427845E+03  0.00000000000E+00 0. -1.
         21    1    1    2  505  503 -0.74815075760E+02 -0.67950744921E+02 -0.78305907018E+02  0.12785309683E+03  0.00000000000E+00 0. -1.
         21    1    1    2  506  502 -0.30994741233E+01 -0.79143808063E+02 -0.31843648547E+03  0.32813891017E+03  0.00000000000E+00 0. -1.
<scales pt_clust_3="14000.00000" pt_clust_4="44.04432" pt_clust_5="128.83770" pt_clust_6="77.91474"></scales>
<clustering>
<clus scale="   44.044">  1  4  2 -1</clus>
<clus scale="   77.915">  2  6  1 -1</clus>
<clus scale="  128.838">  1  5  2 -1</clus>
<clus scale="   44.044">  1  3  2 -1</clus>
</clustering>
</event>
<event>
 6    0  0.1361919E+003  0.1575845E+03  0.7546771E-02  0.1191451E+00
         21   -1    0    0  505  501  0.00000000000E+00  0.00000000000E+00  0.16099939412E+03  0.16099939412E+03  0.00000000000E+00 0. -1.
         21   -1    0    0  504  502 -0.00000000000E+00 -0.00000000000E+00 -0.15537017266E+04  0.15537017266E+04  0.00000000000E+00 0.  1.
         21    1    1    2  503  502 -0.49953361962E+02 -0.13930555087E+03 -0.10725397331E+04  0.10827016459E+04  0.00000000000E+00 0.  1.
         21    1    1    2  504  506 -0.39267705898E+02  0.68602923828E+01 -0.37048848323E+03  0.37262680063E+03  0.00000000000E+00 0.  1.
         21    1    1    2  505  503 -0.53879494960E+02  0.52387945892E+02 -0.24626218120E+02  0.79081903561E+02  0.00000000000E+00 0. -1.
         21    1    1    2  506  501  0.14310056282E+03  0.80057312596E+02  0.74952102015E+02  0.18029077063E+03  0.00000000000E+00 0. -1.
<scales pt_clust_3="157.58451" pt_clust_4="39.86247" pt_clust_5="76.60087" pt_clust_6="14000.00000"></scales>
<clustering>
<clus scale="   39.862">  2  4  1 -1</clus>
<clus scale="   76.601">  1  5  2 -1</clus>
<clus scale="  157.585">  2  3  1 -1</clus>
<clus scale="   76.601">  1  3  2 -1</clus>
</clustering>
</event>
<event>
 6    0  0.1361919E+003  0.7893533E+02  0.7546771E-02  0.1332100E+00
         21   -1    0    0  503  501  0.00000000000E+00  0.00000000000E+00  0.91867496009E+03  0.91867496009E+03  0.00000000000E+00 0.  1.
         21   -1    0    0  505  502 -0.00000000000E+00 -0.00000000000E+00 -0.59617937076E+02  0.59617937076E+02  0.00000000000E+00 0.  1.
         21    1    1    2  503  502  0.11082552232E+03  0.19109653131E+02  0.83436468567E+02  0.14003256595E+03  0.00000000000E+00 0.  1.
         21    1    1    2  504  501 -0.45659988479E+02  0.53295753118E+02  0.57670997663E+03  0.58096443005E+03  0.00000000000E+00 0.  1.
         21    1    1    2  505  506 -0.41638630454E+02  0.96614458172E+01  0.21344744883E+01  0.42798073119E+02  0.00000000000E+00 0.  1.
         21    1    1    2  506  504 -0.23526903388E+02 -0.82066852067E+02  0.19677610334E+03  0.21449782804E+03  0.00000000000E+00 0.  1.
<scales pt_clust_3="78.93533" pt_clust_4="72.05749" pt_clust_5="42.74481" pt_clust_6="14000.00000"></scales>
<clustering>
<clus scale="   42.745">  2  5  1 -1</clus>
<clus scale="   72.057">  1  4  2 -1</clus>
<clus scale="   78.935">  2  3  1 -1</clus>
<clus scale="   72.057">  1  3  2 -1</clus>
</clustering>
</event>
<event>
 6    0  0.1361919E+003  0.1488880E+03  0.7546771E-02  0.1201846E+00
         21   -1    0    0  506  501  0.00000000000E+00  0.00000000000E+00  0.32376502251E+03  0.32376502251E+03  0.00000000000E+00 0. -1.
         21   -1    0    0  504  502 -0.00000000000E+00 -0.00000000000E+00 -0.24790207882E+04  0.24790207882E+04  0.00000000000E+00 0. -1.
         21    1    1    2  503  502 -0.16391057835E+03 -0.58607144099E+02 -0.22966934744E+04  0.23032807884E+04  0.00000000000E+00 0. -1.
         21    1    1    2  504  501  0.32777605512E+02 -0.16651471551E+02 -0.10455861938E+03  0.11083387485E+03  0.00000000000E+00 0.  1.
         21    1    1    2  505  503  0.68593744130E+02  0.11053437541E+03 -0.23948698784E+01  0.13011028123E+03  0.00000000000E+00 0. -1.
         21    1    1    2  506  505  0.62539228710E+02 -0.35275759757E+02  0.24839119791E+03  0.25856086624E+03  0.00000000000E+00 0. -1.
<scales pt_clust_3="14000.00000" pt_clust_4="36.76470" pt_clust_5="148.88798" pt_clust_6="71.88081"></scales>
<clustering>
<clus scale="   36.765">  2  4  1 -1</clus>
<clus scale="   71.881">  1  6  2 -1</clus>
<clus scale="  148.888">  1  5  2 -1</clus>
<clus scale="   71.881">  1  3  2 -1</clus>
</clustering>
</event>
<event>
 6    0  0.1361919E+003  0.3958584E+03  0.7546771E-02  0.1045223E+00
         21   -1    0    0  503  501  0.00000000000E+00  0.00000000000E+00  0.38270514303E+03  0.38270514303E+03  0.00000000000E+00 0.  1.
         21   -1    0    0  505  502 -0.00000000000E+00 -0.00000000000E+00 -0.54838573540E+03  0.54838573540E+03  0.00000000000E+00 0.  1.
         21    1    1    2  503  504 -0.17726705367E+03 -0.23852851591E+02 -0.33053259043E+02  0.18189305863E+03  0.00000000000E+00 0.  1.
         21    1    1    2  504  506 -0.23639681045E+03 -0.86714005086E+02  0.18260032064E+02  0.25246029280E+03  0.00000000000E+00 0.  1.
         21    1    1    2  505  501  0.32891488717E+03  0.13627904835E+03 -0.45260102736E+02  0.35889477416E+03  0.00000000000E+00 0.  1.
         21    1    1    2  506  502  0.84748976953E+02 -0.25712191670E+02 -0.10562726265E+03  0.13784275284E+03  0.00000000000E+00 0.  1.
<scales pt_clust_3="60.19636" pt_clust_4="60.19636" pt_clust_5="389.36190" pt_clust_6="88.56357"></scales>
<clustering>
<clus scale="   60.196">  3  4 -1 -1</clus>
<clus scale="   88.564">  2  6  1 -1</clus>
<clus scale="  389.362">  1  5  2 -1</clus>
<clus scale="  389.362">  1  3  2 -1</clus>
</clustering>
</event>
<event>
 6    0  0.1361919E+003  0.1585300E+03  0.7546771E-02  0.1190366E+00
         21   -1    0    0  506  501  0.00000000000E+00  0.00000000000E+00  0.56173543315E+03  0.56173543315E+03  0.00000000000E+00 0. -1.
         21   -1    0    0  503  502 -0.00000000000E+00 -0.00000000000E+00 -0.46942644691E+03  0.46942644691E+03  0.00000000000E+00 0. -1.
         21    1    1    2  503  505 -0.74559240417E+02  0.13738149638E+03 -0.38374111072E+03  0.41435491542E+03  0.00000000000E+00 0. -1.
         21    1    1    2  504  502  0.13995496142E+03 -0.16419690692E+03  0.33202592778E+03  0.39596620081E+03  0.00000000000E+00 0. -1.
         21    1    1    2  505  501 -0.69895240248E+02 -0.10852055452E+02 -0.12008082185E+01  0.70742870010E+02  0.00000000000E+00 0. -1.
         21    1    1    2  506  504  0.44995192454E+01  0.37667465988E+02  0.14522497740E+03  0.15009789382E+03  0.00000000000E+00 0. -1.
<scales pt_clust_3="158.52999" pt_clust_4="14000.00000" pt_clust_5="69.94133" pt_clust_6="37.93526"></scales>
<clustering>
<clus scale="   37.935">  1  6  2 -1</clus>
<clus scale="   69.941">  1  5  2 -1</clus>
<clus scale="  158.530">  2  3  1 -1</clus>
<clus scale="   37.935">  1  3  2 -1</clus>
</clustering>
</event>
<event>
 6    0  0.1361919E+003  0.1276724E+03  0.7546771E-02  0.1230951E+00
         21   -1    0    0  505  501  0.00000000000E+00  0.00000000000E+00  0.90767508005E+02  0.90767508005E+02  0.00000000000E+00 0.  1.
         21   -1    0    0  504  502 -0.00000000000E+00 -0.00000000000E+00 -0.24035133967E+04  0.24035133967E+04  0.00000000000E+00 0.  1.
         21    1    1    2  503  506  0.41354782193E+02  0.37188887202E+02 -0.84104062672E+03  0.84287755169E+03  0.00000000000E+00 0.  1.
         21    1    1    2  504  501 -0.12817329126E+03 -0.39989933716E+02 -0.58124266696E+03  0.59654892949E+03  0.00000000000E+00 0.  1.
         21    1    1    2  505  503  0.12605486514E+03  0.17459190089E+02  0.32178168641E+02  0.13126342553E+03  0.00000000000E+00 0.  1.
         21    1    1    2  506  502 -0.39236356081E+02 -0.14658143576E+02 -0.92264076365E+03  0.92359099798E+03  0.00000000000E+00 0. -1.
<scales pt_clust_3="34.56814" pt_clust_4="127.67236" pt_clust_5="14000.00000" pt_clust_6="41.88500"></scales>
<clustering>
<clus scale="   41.885">  2  6  1 -1</clus>
<clus scale="   34.568">  2  3  1 -1</clus>
<clus scale="  127.672">  2  4  1 -1</clus>
<clus scale="  127.672">  1  3  2 -1</clus>
</clustering>
</event>
<event>
 6    0  0.1361919E+003  0.2237918E+03  0.7546771E-02  0.1131087E+00
         21   -1    0    0  505  501  0.00000000000E+00  0.00000000000E+00  0.61866457453E+03  0.61866457453E+03  0.00000000000E+00 0. -1.
         21   -1    0    0  506  502 -0.00000000000E+00 -0.00000000000E+00 -0.12224581615E+04  0.12224581615E+04  0.00000000000E+00 0.  1.
         21    1    1    2  503  504  0.51187637520E+01 -0.31510115195E+03 -0.51867774010E+03  0.60691147277E+03  0.00000000000E+00 0.  1.
         21    1    1    2  504  502 -0.33504590672E+02 -0.45786057670E+01 -0.18622120336E+03  0.18926663152E+03  0.00000000000E+00 0.  1.
         21    1    1    2  505  503 -0.11497788811E+03  0.18966542851E+03  0.52992799353E+03  0.57447068494E+03  0.00000000000E+00 0. -1.
         21    1    1    2  506  501  0.14336371503E+03  0.13001432921E+03 -0.42882263706E+03  0.47047394682E+03  0.00000000000E+00 0. -1.
<scales pt_clust_3="14000.00000" pt_clust_4="33.81599" pt_clust_5="223.79182" pt_clust_6="181.60601"></scales>
<clustering>
<clus scale="   33.816">  2  4  1 -1</clus>
<clus scale="  181.606">  2  6  1 -1</clus>
<clus scale="  223.792">  1  5  2 -1</clus>
<clus scale="  223.792">  1  3  2 -1</clus>
</clustering>
</event>
<event>
 6    0  0.1361919E+003  0.1486361E+03  0.7546771E-02  0.1202159E+00
         21   -1    0    0  503  501  0.00000000000E+00  0.00000000000E+00  0.74476510498E+03  0.74476510498E+03  0.00000000000E+00 0.  1.
         21   -1    0    0  505  502 -0.00000000000E+00 -0.00000000000E+00 -0.17987165364E+03  0.17987165364E+03  0.00000000000E+00 0.  1.
         21    1    1    2  503  502 -0.50726940858E+02  0.13729063712E+03  0.42868365394E+03  0.45298081276E+03  0.00000000000E+00 0.  1.
         21    1    1    2  504  501  0.88701457351E+01 -0.34634559565E+02  0.23331593512E+03  0.23603931406E+03  0.00000000000E+00 0.  1.
         21    1    1    2  505  506  0.47287385416E+02 -0.14111303522E+03 -0.11942899336E+03  0.19081999367E+03  0.00000000000E+00 0.  1.
         21    1    1    2  506  504 -0.54305902926E+01  0.38456957666E+02  0.22322855635E+02  0.44796638128E+02  0.00000000000E+00 0. -1.
<scales pt_clust_3="14000.00000" pt_clust_4="35.75237" pt_clust_5="148.63611" pt_clust_6="36.50152"></scales>
<clustering>
<clus scale="   35.752">  1  4  2 -1</clus>
<clus scale="   36.502">  1  6  2 -1</clus>
<clus scale="  148.636">  2  5  1 -1</clus>
<clus scale="   35.752">  1  3  2 -1</clus>
</clustering>
</event>
<event>
 6    0  0.1361919E+003  0.2146608E+03  0.7546771E-02  0.1137927E+00
         21   -1    0    0  506  501  0.00000000000E+00  0.00000000000E+00  0.15314994889E+04  0.15314994889E+04  0.00000000000E+00 0. -1.
         21   -1    0    0  503  502 -0.00000000000E+00 -0.00000000000E+00 -0.91802961955E+02  0.91802961955E+02  0.00000000000E+00 0. -1.
         21    1    1    2  503  505  0.38226809748E+02 -0.68921697143E+01  0.99200552822E+01  0.40089880066E+02  0.00000000000E+00 0.  1.
         21    1    1    2  504  502 -0.16538961143E+03 -0.11876590802E+02  0.79300302141E+02  0.18380238001E+03  0.00000000000E+00 0. -1.
         21    1    1    2  505  501 -0.94876249976E+02  0.62999415007E+02  0.23440709334E+03  0.26060912208E+03  0.00000000000E+00 0. -1.
         21    1    1    2  506  504  0.22203905166E+03 -0.44230654491E+02  0.11160690762E+04  0.11388010687E+04  0.00000000000E+00 0. -1.
<scales pt_clust_3="38.84316" pt_clust_4="214.66084" pt_clust_5="107.83061" pt_clust_6="14000.00000"></scales>
<clustering>
<clus scale="   38.843">  2  3  1 -1</clus>
<clus scale="  107.831">  2  5  1 -1</clus>
<clus scale="  214.661">  2  4  1 -1</clus>
<clus scale="  214.661">  1  3  2 -1</clus>
</clustering>
</event>
<event>
 6    0  0.1361919E+003  0.8712517E+02  0.7546771E-02  0.1309967E+00
         21   -1    0    0  505  501  0.00000000000E+00  0.00000000000E+00  0.14937587912E+03  0.14937587912E+03  0.00000000000E+00 0.  1.
         21   -1    0    0  503  502 -0.00000000000E+00 -0.00000000000E+00 -0.18181301481E+03  0.18181301481E+03  0.00000000000E+00 0.  1.
         21    1    1    2  503  506 -0.43668050132E+02  0.52741321338E+02  0.93482827613E+01  0.69108146910E+02  0.00000000000E+00 0.  1.
         21    1    1    2  504  502 -0.44418097208E+02 -0.21383394284E+02 -0.80376184775E+02  0.94289702458E+02  0.00000000000E+00 0.  1.
         21    1    1    2  505  504  0.12148851731E+03 -0.26021043206E+02  0.12110302931E+02  0.12483274396E+03  0.00000000000E+00 0.  1.
         21    1    1    2  506  501 -0.33402369967E+02 -0.53368838476E+01  0.26480463401E+02  0.42958300601E+02  0.00000000000E+00 0. -1.
<scales pt_clust_3="87.12517" pt_clust_4="51.26715" pt_clust_5="14000.00000" pt_clust_6="33.82604"></scales>
<clustering>
<clus scale="   33.826">  1  6  2 -1</clus>
<clus scale="   51.267">  2  4  1 -1</clus>
<clus scale="   87.125">  1  3  2 -1</clus>
<clus scale="   33.826">  1  3  2 -1</clus>
</clustering>
</event>
<event>
 6    0  0.1361919E+003  0.1418055E+03  0.7546771E-02  0.1210920E+00
         21   -1    0    0  503  501  0.00000000000E+00  0.00000000000E+00  0.16609643500E+03  0.16609643500E+03  0.00000000000E+00 0. -1.
         21   -1    0    0  506  502 -0.00000000000E+00 -0.00000000000E+00 -0.71050091432E+03  0.71050091432E+03  0.00000000000E+00 0.  1.
         21    1    1    2  503  504 -0.63274787794E+02 -0.22116720259E+03 -0.38826622415E+03  0.45129734221E+03  0.00000000000E+00 0.  1.
         21    1    1    2  504  502  0.58897119172E+02 -0.58652229367E+01 -0.14349378490E+03  0.15522157643E+03  0.00000000000E+00 0.  1.
         21    1    1    2  505  501  0.33515701357E+02  0.12841430316E+03  0.58496784180E+02  0.14503588953E+03  0.00000000000E+00 0. -1.
         21    1    1    2  506  505 -0.29138032735E+02  0.98618122367E+02 -0.71141254455E+02  0.12504254115E+03  0.00000000000E+00 0. -1.
<scales pt_clust_3="141.80545" pt_clust_4="59.18844" pt_clust_5="14000.00000" pt_clust_6="99.39516"></scales>
<clustering>
<clus scale="   59.188">  2  4  1 -1</clus>
<clus scale="   99.395">  2  6  1 -1</clus>
<clus scale="  141.805">  2  3  1 -1</clus>
<clus scale="  141.805">  1  3  2 -1</clus>
</clustering>
</event>
<event>
 6    0  0.1361919E+003  0.1455441E+03  0.7546771E-02  0.1206058E+00
         21   -1    0    0  504  501  0.00000000000E+00  0.00000000000E+00  0.11121509706E+04  0.11121509706E+04  0.00000000000E+00 0. -1.
         21   -1    0    0  506  502 -0.00000000000E+00 -0.00000000000E+00 -0.30091872723E+03  0.30091872723E+03  0.00000000000E+00 0.  1.
         21    1    1    2  503  505 -0.42208953871E+02 -0.52755766227E+01  0.11500883237E+03  0.12262324013E+03  0.00000000000E+00 0.  1.
         21    1    1    2  504  502 -0.71172045475E+02 -0.11394903551E+03 -0.55340255854E+02  0.14530102088E+03  0.00000000000E+00 0.  1.
         21    1    1    2  505  501 -0.21869245590E+02  0.34211303773E+02  0.91541014353E+03  0.91631021389E+03  0.00000000000E+00 0. -1.
         21    1    1    2  506  503  0.13525024494E+03  0.85013308364E+02 -0.16384647665E+03  0.22883522295E+03  0.00000000000E+00 0.  1.
<scales pt_clust_3="57.55422" pt_clust_4="14000.00000" pt_clust_5="40.60391" pt_clust_6="145.54411"></scales>
<clustering>
<clus scale="   40.604">  1  5  2 -1</clus>
<clus scale="   57.554">  1  3  2 -1</clus>
<clus scale="  145.544">  2  6  1 -1</clus>
<clus scale="   40.604">  1  3  2 -1</clus>
</clustering>
</event>
<event>
 6    0  0.1361919E+003  0.1294878E+03  0.7546771E-02  0.1228218E+00
         21   -1    0    0  503  501  0.00000000000E+00  0.00000000000E+00  0.36025532674E+03  0.36025532674E+03  0.00000000000E+00 0. -1.
         21   -1    0    0  506  502 -0.00000000000E+00 -0.00000000000E+00 -0.14123595129E+03  0.14123595129E+03  0.00000000000E+00 0.  1.
         21    1    1    2  503  502 -0.40128427053E+02 -0.21386987195E+02  0.15241526425E+02  0.47958294452E+02  0.00000000000E+00 0.  1.
         21    1    1    2  504  505 -0.12316118961E+03  0.37981747908E+02  0.13395756000E+03  0.18589222599E+03  0.00000000000E+00 0.  1.
         21    1    1    2  505  501  0.35066530426E+02  0.43040303621E+01  0.12246891791E+03  0.12746302243E+03  0.00000000000E+00 0. -1.
         21    1    1    2  506  504  0.12822308624E+03 -0.20898791075E+02 -0.52648628886E+02  0.14017773516E+03  0.00000000000E+00 0.  1.
<scales pt_clust_3="41.07933" pt_clust_4="14000.00000" pt_clust_5="35.32968" pt_clust_6="129.48776"></scales>
<clustering>
<clus scale="   35.330">  1  5  2 -1</clus>
<clus scale="   41.079">  1  3  2 -1</clus>
<clus scale="  129.488">  2  6  1 -1</clus>
<clus scale="   35.330">  1  3  2 -1</clus>
</clustering>
</event>
<event>
 6    0  0.1361919E+003  0.6631151E+02  0.7546771E-02  0.1373105E+00
         21   -1    0    0  505  501  0.00000000000E+00  0.00000000000E+00  0.83442266796E+03  0.83442266796E+03  0.00000000000E+00 0. -1.
         21   -1    0    0  506  502 -0.00000000000E+00 -0.00000000000E+00 -0.54554474104E+03  0.54554474104E+03  0.00000000000E+00 0.  1.
         21    1    1    2  503  502  0.65737313441E+02  0.35998750684E+01 -0.52314815180E+03  0.52727444676E+03  0.00000000000E+00 0.  1.
         21    1    1    2  504  501  0.25296498886E+02  0.50410786509E+02  0.40520708842E+03  0.40911360862E+03  0.00000000000E+00 0. -1.
         21    1    1    2  505  503  0.33890683827E+02 -0.17137979034E+02  0.16061312178E+03  0.16504200575E+03  0.00000000000E+00 0. -1.
         21    1    1    2  506  504 -0.12492449615E+03 -0.36872682544E+02  0.24620586853E+03  0.27853734786E+03  0.00000000000E+00 0. -1.
<scales pt_clust_3="66.31151" pt_clust_4="60.85427" pt_clust_5="37.97748" pt_clust_6="14000.00000"></scales>
<clustering>
<clus scale="   37.977">  1  5  2 -1</clus>
<clus scale="   60.854">  1  4  2 -1</clus>
<clus scale="   66.312">  2  3  1 -1</clus>
<clus scale="   37.977">  1  3  2 -1</clus>
</clustering>
</event>
<event>
 6    0  0.1361919E+003  0.1817198E+03  0.7546771E-02  0.1166149E+00
         21   -1    0    0  503  501  0.00000000000E+00  0.00000000000E+00  0.39067631881E+03  0.39067631881E+03  0.00000000000E+00 0.  1.
         21   -1    0    0  505  502 -0.00000000000E+00 -0.00000000000E+00 -0.53694780785E+03  0.53694780785E+03  0.00000000000E+00 0. -1.
         21    1    1    2  503  506 -0.52384779640E+02 -0.43056121685E+02  0.70230327570E+02  0.97623222970E+02  0.00000000000E+00 0.  1.
         21    1    1    2  504  501 -0.67645445332E+02  0.18412539127E+03  0.25253073643E+03  0.31976528708E+03  0.00000000000E+00 0.  1.
         21    1    1    2  505  504  0.28242258964E+02 -0.13502907670E+02 -0.16546500742E+03  0.16840018523E+03  0.00000000000E+00 0. -1.
         21    1    1    2  506  502  0.91787966008E+02 -0.12756636191E+03 -0.30356754561E+03  0.34183543138E+03  0.00000000000E+00 0. -1.
<scales pt_clust_3="67.32645" pt_clust_4="181.71981" pt_clust_5="31.30421" pt_clust_6="14000.00000"></scales>
<clustering>
<clus scale="   31.304">  2  5  1 -1</clus>
<clus scale="   67.326">  1  3  2 -1</clus>
<clus scale="  181.720">  1  4  2 -1</clus>
<clus scale="   67.326">  1  3  2 -1</clus>
</clustering>
</event>
<event>
 6    0  0.1361919E+003  0.9267566E+02  0.7546771E-02  0.1296499E+00
         21   -1    0    0  505  501  0.00000000000E+00  0.00000000000E+00  0.10861463917E+04  0.10861463917E+04  0.00000000000E+00 0. -1.
         21   -1    0    0  504  502 -0.00000000000E+00 -0.00000000000E+00 -0.36820766056E+03  0.36820766056E+03  0.00000000000E+00 0.  1.
         21    1    1    2  503  501  0.97221053331E+01  0.40633651049E+02  0.47013507902E+03  0.47198792935E+03  0.00000000000E+00 0. -1.
         21    1    1    2  504  506  0.65525995284E+02 -0.14436559174E+03 -0.28459978312E+03  0.32577924533E+03  0.00000000000E+00 0.  1.
         21    1    1    2  505  502  0.83401504590E+01  0.87338597951E+02 -0.26170097708E+02  0.91555790727E+02  0.00000000000E+00 0. -1.
         21    1    1    2  506  503 -0.83588251077E+02  0.16393342740E+02  0.55857353299E+03  0.56503108690E+03  0.00000000000E+00 0. -1.
<scales pt_clust_3="41.78053" pt_clust_4="92.67566" pt_clust_5="89.93553" pt_clust_6="14000.00000"></scales>
<clustering>
<clus scale="   41.781">  1  3  2 -1</clus>
<clus scale="   89.936">  2  5  1 -1</clus>
<clus scale="   92.676">  2  4  1 -1</clus>
<clus scale="   41.781">  1  3  2 -1</clus>
</clustering>
</event>
<event>
 6    0  0.1361919E+003  0.1909629E+03  0.7546771E-02  0.1157596E+00
         21   -1    0    0  506  501  0.00000000000E+00  0.00000000000E+00  0.16376452062E+03  0.16376452062E+03  0.00000000000E+00 0.  1.
         21   -1    0    0  504  502 -0.00000000000E+00 -0.00000000000E+00 -0.14498856009E+04  0.14498856009E+04  0.00000000000E+00 0.  1.
         21    1    1    2  503  501  0.11954862105E+02  0.31351462634E+02  0.10959020541E+03  0.11461171869E+03  0.00000000000E+00 0.  1.
         21    1    1    2  504  503 -0.41024545206E+02  0.13595447545E+02 -0.14621028962E+03  0.15246408854E+03  0.00000000000E+00 0.  1.
         21    1    1    2  505  502  0.70700491280E+02  0.16903987798E+03 -0.99383887228E+03  0.10105883157E+04  0.00000000000E+00 0.  1.
         21    1    1    2  506  505 -0.41630808179E+02 -0.21398678815E+03 -0.25566212375E+03  0.33598599854E+03  0.00000000000E+00 0.  1.
<scales pt_clust_3="33.55343" pt_clust_4="43.17640" pt_clust_5="190.96288" pt_clust_6="14000.00000"></scales>
<clustering>
<clus scale="   33.553">  1  3  2 -1</clus>
<clus scale="   43.176">  2  4  1 -1</clus>
<clus scale="  190.963">  2  5  1 -1</clus>
<clus scale="   33.553">  1  3  2 -1</clus>
</clustering>
</event>
<event>
 6    0  0.1361919E+003  0.1103022E+03  0.7546771E-02  0.1260011E+00
         21   -1    0    0  505  501  0.00000000000E+00  0.00000000000E+00  0.32194408698E+03  0.32194408698E+03  0.00000000000E+00 0.  1.
         21   -1    0    0  504  502 -0.00000000000E+00 -0.00000000000E+00 -0.10449030339E+04  0.10449030339E+04  0.00000000000E+00 0. -1.
         21    1    1    2  503  506  0.56682730533E+02 -0.61678022069E+02 -0.71895801485E+03  0.72382161992E+03  0.00000000000E+00 0. -1.
         21    1    1    2  504  503  0.42766221967E+02  0.14179670439E+02 -0.27755593989E+03  0.28118910463E+03  0.00000000000E+00 0. -1.
         21    1    1    2  505  502 -0.13638591877E+03  0.80444531304E+02  0.11489578569E+03  0.19563609847E+03  0.00000000000E+00 0.  1.
         21    1    1    2  506  501  0.36936966275E+02 -0.32946179674E+02  0.15865922214E+03  0.16620029784E+03  0.00000000000E+00 0.  1.
<scales pt_clust_3="110.30223" pt_clust_4="45.05566" pt_clust_5="14000.00000" pt_clust_6="49.60643"></scales>
<clustering>
<clus scale="   45.056">  2  4  1 -1</clus>
<clus scale="   49.606">  1  6  2 -1</clus>
<clus scale="  110.302">  2  3  1 -1</clus>
<clus scale="   49.606">  1  3  2 -1</clus>
</clustering>
</event>
<event>
 6    0  0.1361919E+003  0.1804303E+03  0.7546771E-02  0.1167387E+00
         21   -1    0    0  505  501  0.00000000000E+00  0.00000000000E+00  0.67472079370E+02  0.67472079370E+02  0.00000000000E+00 0.  1.
         21   -1    0    0  503  502 -0.00000000000E+00 -0.00000000000E+00 -0.24121141565E+04  0.24121141565E+04  0.00000000000E+00 0.  1.
         21    1    1    2  503  506 -0.13744029480E+03 -0.33682813677E+02 -0.18187994908E+03  0.23044453226E+03  0.00000000000E+00 0.  1.
         21    1    1    2  504  502  0.72075599385E+02  0.16964195506E+02 -0.11970956869E+04  0.11993834914E+04  0.00000000000E+00 0.  1.
         21    1    1    2  505  504  0.84359854630E+02  0.62445787251E+02 -0.98932782844E+03  0.99487969802E+03  0.00000000000E+00 0.  1.
         21    1    1    2  506  501 -0.18995159211E+02 -0.45727169080E+02  0.23661387287E+02  0.54878514137E+02  0.00000000000E+00 0.  1.
<scales pt_clust_3="170.26429" pt_clust_4="50.77166" pt_clust_5="50.77166" pt_clust_6="49.51555"></scales>
<clustering>
<clus scale="   49.516">  1  6  2 -1</clus>
<clus scale="   50.772">  4  5 -1 -1</clus>
<clus scale="  170.264">  1  3  2 -1</clus>
<clus scale="   49.516">  1  3  2 -1</clus>
</clustering>
</event>
<event>
 6    0  0.1361919E+003  0.8117153E+02  0.7546771E-02  0.1325759E+00
         21   -1    0    0  503  501  0.00000000000E+00  0.00000000000E+00  0.73170422054E+02  0.73170422054E+02  0.00000000000E+00 0. -1.
         21   -1    0    0  504  502 -0.00000000000E+00 -0.00000000000E+00 -0.43692595644E+03  0.43692595644E+03  0.00000000000E+00 0. -1.
         21    1    1    2  503  505  0.36358782687E+02 -0.86990808229E+02 -0.42958951941E+02  0.10360904085E+03  0.00000000000E+00 0. -1.
         21    1    1    2  504  506 -0.15533440480E+02  0.69447069918E+02 -0.12370815942E+03  0.14271612383E+03  0.00000000000E+00 0.  1.
         21    1    1    2  505  502  0.34154966493E+02 -0.34379813974E+02 -0.17977360118E+03  0.18619097998E+03  0.00000000000E+00 0. -1.
         21    1    1    2  506  501 -0.54980308700E+02  0.51923552285E+02 -0.17314821852E+02  0.77580233839E+02  0.00000000000E+00 0. -1.
<scales pt_clust_3="81.17153" pt_clust_4="51.46754" pt_clust_5="48.46167" pt_clust_6="14000.00000"></scales>
<clustering>
<clus scale="   48.462">  2  5  1 -1</clus>
<clus scale="   51.468">  2  4  1 -1</clus>
<clus scale="   81.172">  2  3  1 -1</clus>
<clus scale="   81.172">  1  3  2 -1</clus>
</clustering>
</event>
<event>
 6    0  0.1361919E+003  0.8168131E+02  0.7546771E-02  0.1324347E+00
         21   -1    0    0  503  501  0.00000000000E+00  0.00000000000E+00  0.10838520782E+04  0.10838520782E+04  0.00000000000E+00 0. -1.
         21   -1    0    0  505  502 -0.00000000000E+00 -0.00000000000E+00 -0.77257306911E+02  0.77257306911E+02  0.00000000000E+00 0.  1.
         21    1    1    2  503  506 -0.44937696753E+02 -0.92256711700E+02  0.54068661939E+03  0.55033873008E+03  0.00000000000E+00 0. -1.
         21    1    1    2  504  502 -0.34108383426E+02  0.27668900768E+02 -0.46077564210E+02  0.63656043021E+02  0.00000000000E+00 0.  1.
         21    1    1    2  505  501  0.31954007361E+02  0.10329921603E+02  0.45276549684E+03  0.45400920805E+03  0.00000000000E+00 0. -1.
         21    1    1    2  506  504  0.47092072818E+02  0.54257889329E+02  0.59220219293E+02  0.93105403977E+02  0.00000000000E+00 0. -1.
<scales pt_clust_3="14000.00000" pt_clust_4="43.66635" pt_clust_5="33.58223" pt_clust_6="81.68131"></scales>
<clustering>
<clus scale="   33.582">  1  5  2 -1</clus>
<clus scale="   43.666">  2  4  1 -1</clus>
<clus scale="   81.681">  2  6  1 -1</clus>
<clus scale="   33.582">  1  3  2 -1</clus>
</clustering>
</event>
<event>
 6    0  0.1361919E+003  0.1430822E+03  0.7546771E-02  0.1209241E+00
         21   -1    0    0  504  501  0.00000000000E+00  0.00000000000E+00  0.62806028699E+03  0.62806028699E+03  0.00000000000E+00 0. -1.
         21   -1    0    0  503  502 -0.00000000000E+00 -0.00000000000E+00 -0.11441553627E+04  0.11441553627E+04  0.00000000000E+00 0. -1.
         21    1    1    2  503  506 -0.45852575488E+02  0.58220110102E+00 -0.52863963438E+03  0.53062478332E+03  0.00000000000E+00 0. -1.
         21    1    1    2  504  502  0.13214013774E+03 -0.65693228664E+02 -0.21276951577E+03  0.25893528754E+03  0.00000000000E+00 0. -1.
         21    1    1    2  505  501 -0.41084838647E+02 -0.85462610177E+02  0.58367454981E+03  0.59132715294E+03  0.00000000000E+00 0. -1.
         21    1    1    2  506  505 -0.45202723606E+02  0.15057363774E+03 -0.35836047542E+03  0.39132842594E+03  0.00000000000E+00 0. -1.
<scales pt_clust_3="45.85627" pt_clust_4="143.08217" pt_clust_5="94.94600" pt_clust_6="14000.00000"></scales>
<clustering>
<clus scale="   45.856">  2  3  1 -1</clus>
<clus scale="   94.946">  1  5  2 -1</clus>
<clus scale="  143.082">  1  4  2 -1</clus>
<clus scale="   94.946">  1  3  2 -1</clus>
</clustering>
</event>
<event>
 6    0  0.1361919E+003  0.9065940E+02  0.7546771E-02  0.1301263E+00
         21   -1    0    0  506  501  0.00000000000E+00  0.00000000000E+00  0.48076928423E+03  0.48076928423E+03  0.00000000000E+00 0.  1.
         21   -1    0    0  503  502 -0.00000000000E+00 -0.00000000000E+00 -0.12240460820E+04  0.12240460820E+04  0.00000000000E+00 0.  1.
         21    1    1    2  503  504  0.77403438851E+01 -0.63907273345E+02 -0.16312489581E+03  0.17536756868E+03  0.00000000000E+00 0. -1.
         21    1    1    2  504  501  0.24107508707E+02  0.28214568134E+02  0.12798182390E+02  0.39255920618E+02  0.00000000000E+00 0. -1.
         21    1    1    2  505  502  0.81854498669E+02  0.50560419428E+02 -0.10319690524E+04  0.10364442291E+04  0.00000000000E+00 0.  1.
         21    1    1    2  506  505 -0.11370235126E+03 -0.14867714217E+02  0.43901896804E+03  0.45374764783E+03  0.00000000000E+00 0.  1.
<scales pt_clust_3="64.03735" pt_clust_4="37.11110" pt_clust_5="14000.00000" pt_clust_6="90.65940"></scales>
<clustering>
<clus scale="   37.111">  1  4  2 -1</clus>
<clus scale="   64.037">  2  3  1 -1</clus>
<clus scale="   90.659">  1  6  2 -1</clus>
<clus scale="   37.111">  1  3  2 -1</clus>
</clustering>
</event>
<event>
 6    0  0.1361919E+003  0.1111096E+03  0.7546771E-02  0.1258529E+00
         21   -1    0    0  506  501  0.00000000000E+00  0.00000000000E+00  0.24084145263E+04  0.24084145263E+04  0.00000000000E+00 0.  1.
         21   -1    0    0  503  502 -0.00000000000E+00 -0.00000000000E+00 -0.68787216495E+03  0.68787216495E+03  0.00000000000E+00 0.  1.
         21    1    1    2  503  505 -0.11699330338E+02 -0.94354358389E+02 -0.55175987979E+02  0.10992728927E+03  0.00000000000E+00 0. -1.
         21    1    1    2  504  502  0.32585072742E+02  0.42865700474E+02  0.33811908946E+02  0.63580660812E+02  0.00000000000E+00 0.  1.
         21    1    1    2  505  501  0.37912197288E+02  0.14567915777E+03 -0.57949303944E+03  0.59872525792E+03  0.00000000000E+00 0.  1.
         21    1    1    2  506  504 -0.58797939692E+02 -0.94190499856E+02  0.23213994798E+04  0.23240534832E+04  0.00000000000E+00 0.  1.
<scales pt_clust_3="89.42857" pt_clust_4="53.84473" pt_clust_5="14000.00000" pt_clust_6="111.10960"></scales>
<clustering>
<clus scale="   53.845">  2  4  1 -1</clus>
<clus scale="   89.429">  2  3  1 -1</clus>
<clus scale="  111.110">  1  6  2 -1</clus>
<clus scale="  111.110">  1  3  2 -1</clus>
</clustering>
</event>
<event>
 6    0  0.1361919E+003  0.7873686E+02  0.7546771E-02  0.1332675E+00
         21   -1    0    0  504  501  0.00000000000E+00  0.00000000000E+00  0.14477627829E+04  0.14477627829E+04  0.00000000000E+00 0.  1.
         21   -1    0    0  506  502 -0.00000000000E+00 -0.00000000000E+00 -0.30678428872E+03  0.30678428872E+03  0.00000000000E+00 0. -1.
         21    1    1    2  503  501  0.36532450424E+02  0.57180346954E+02  0.49236753078E+03  0.49702112367E+03  0.00000000000E+00 0.  1.
         21    1    1    2  504  505 -0.75193764650E+02  0.11426692461E+02  0.81412431770E+03  0.81766929514E+03  0.00000000000E+00 0.  1.
         21    1    1    2  505  502 -0.45945505899E+02 -0.65561726461E+02 -0.28352869891E+03  0.29461475284E+03  0.00000000000E+00 0. -1.
         21    1    1    2  506  503  0.84606820125E+02 -0.30453129529E+01  0.11801534465E+03  0.14524190000E+03  0.00000000000E+00 0.  1.
<scales pt_clust_3="67.85434" pt_clust_4="74.66137" pt_clust_5="78.73686" pt_clust_6="14000.00000"></scales>
<clustering>
<clus scale="   67.854">  1  3  2 -1</clus>
<clus scale="   74.661">  1  4  2 -1</clus>
<clus scale="   78.737">  2  5  1 -1</clus>
<clus scale="   67.854">  1  3  2 -1</clus>
</clustering>
</event>
<event>
 6    0  0.1361919E+003  0.1635630E+03  0.7546771E-02  0.1184732E+00
         21   -1    0    0  506  501  0.00000000000E+00  0.00000000000E+00  0.86005762695E+03  0.86005762695E+03  0.00000000000E+00 0.  1.
         21   -1    0    0  504  502 -0.00000000000E+00 -0.00000000000E+00 -0.67234474663E+03  0.67234474663E+03  0.00000000000E+00 0. -1.
         21    1    1    2  503  501  0.53178373141E+02  0.55799744838E+02  0.26279388293E+03  0.27386525118E+03  0.00000000000E+00 0. -1.
         21    1    1    2  504  503 -0.20088951093E+03  0.83812568943E+02  0.38389667016E+03  0.44131371571E+03  0.00000000000E+00 0.  1.
         21    1    1    2  505  502  0.14686149224E+03 -0.68852332149E+02 -0.62025045741E+03  0.64110808095E+03  0.00000000000E+00 0. -1.
         21    1    1    2  506  505  0.84964554869E+00 -0.70759981632E+02  0.16127278463E+03  0.17611532574E+03  0.00000000000E+00 0.  1.
<scales pt_clust_3="60.54821" pt_clust_4="163.56300" pt_clust_5="14000.00000" pt_clust_6="70.76508"></scales>
<clustering>
<clus scale="   70.765">  1  6  2 -1</clus>
<clus scale="   60.548">  1  3  2 -1</clus>
<clus scale="  163.563">  1  4  2 -1</clus>
<clus scale="   70.765">  1  3  2 -1</clus>
</clustering>
</event>
<event>
 6    0  0.1361919E+003  0.6937555E+02  0.7546771E-02  0.1362229E+00
         21   -1    0    0  506  501  0.00000000000E+00  0.00000000000E+00  0.25104247492E+03  0.25104247492E+03  0.00000000000E+00 0.  1.
         21   -1    0    0  505  502 -0.00000000000E+00 -0.00000000000E+00 -0.24322376916E+03  0.24322376916E+03  0.00000000000E+00 0. -1.
         21    1    1    2  503  501 -0.17331574673E+02  0.64616010866E+02 -0.53439174041E+01  0.67113111939E+02  0.00000000000E+00 0. -1.
         21    1    1    2  504  502  0.44748406538E+02 -0.29983302465E+02  0.21481739237E+00  0.53865243534E+02  0.00000000000E+00 0. -1.
         21    1    1    2  505  503 -0.74842567881E+02  0.18216010986E+02 -0.16478283756E+03  0.18189726930E+03  0.00000000000E+00 0. -1.
         21    1    1    2  506  504  0.47425736016E+02 -0.52848719387E+02  0.17773064334E+03  0.19139061931E+03  0.00000000000E+00 0.  1.
<scales pt_clust_3="14000.00000" pt_clust_4="53.86482" pt_clust_5="39.42723" pt_clust_6="69.37555"></scales>
<clustering>
<clus scale="   53.865">  2  4  1 -1</clus>
<clus scale="   39.427">  2  5  1 -1</clus>
<clus scale="   69.376">  1  6  2 -1</clus>
<clus scale="   69.376">  1  3  2 -1</clus>
</clustering>
</event>
<event>
 6    0  0.1361919E+003  0.8714150E+02  0.7546771E-02  0.1309925E+00
         21   -1    0    0  506  501  0.00000000000E+00  0.00000000000E+00  0.28126616257E+02  0.28126616257E+02  0.00000000000E+00 0.  1.
         21   -1    0    0  504  502 -0.00000000000E+00 -0.00000000000E+00 -0.13086133687E+04  0.13086133687E+04  0.00000000000E+00 0. -1.
         21    1    1    2  503  502  0.30139374980E+02  0.58497753251E+02 -0.60805376848E+03  0.61160424657E+03  0.00000000000E+00 0. -1.
         21    1    1    2  504  501 -0.51241868991E+02  0.33010634239E+02 -0.44005488803E+03  0.44425638497E+03  0.00000000000E+00 0. -1.
         21    1    1    2  505  503  0.50556495243E+02 -0.10777650122E+03 -0.14731395091E+03  0.18940204212E+03  0.00000000000E+00 0.  1.
         21    1    1    2  506  505 -0.29454001233E+02  0.16268113727E+02 -0.85064144992E+02  0.91477311264E+02  0.00000000000E+00 0. -1.
<scales pt_clust_3="14000.00000" pt_clust_4="63.78465" pt_clust_5="87.14150" pt_clust_6="33.64803"></scales>
<clustering>
<clus scale="   33.648">  1  6  2 -1</clus>
<clus scale="   63.785">  2  4  1 -1</clus>
<clus scale="   87.141">  1  5  2 -1</clus>
<clus scale="   33.648">  1  3  2 -1</clus>
</clustering>
</event>
<event>
 6    0  0.1361919E+003  0.9157769E+02  0.7546771E-02  0.1299075E+00
         21   -1    0    0  506  501  0.00000000000E+00  0.00000000000E+00  0.14303482294E+03  0.14303482294E+03  0.00000000000E+00 0. -1.
         21   -1    0    0  505  502 -0.00000000000E+00 -0.00000000000E+00 -0.41755748894E+03  0.41755748894E+03  0.00000000000E+00 0.  1.
         21    1    1    2  503  501 -0.12008632201E+03 -0.69994973196E+02  0.38221687144E+02  0.14415588221E+03  0.00000000000E+00 0. -1.
         21    1    1    2  504  502  0.53992560379E+02  0.30539820568E+02 -0.20970083731E+03  0.21868314609E+03  0.00000000000E+00 0.  1.
         21    1    1    2  505  503  0.18703822664E+01  0.48063397287E+02 -0.12125352905E+03  0.13044541693E+03  0.00000000000E+00 0.  1.
         21    1    1    2  506  504  0.64223379364E+02 -0.86082446585E+01  0.18210013221E+02  0.67307866662E+02  0.00000000000E+00 0.  1.
<scales pt_clust_3="91.57769" pt_clust_4="14000.00000" pt_clust_5="48.09978" pt_clust_6="64.54231"></scales>
<clustering>
<clus scale="   48.100">  2  5  1 -1</clus>
<clus scale="   64.542">  1  6  2 -1</clus>
<clus scale="   91.578">  1  3  2 -1</clus>
<clus scale="   64.542">  1  3  2 -1</clus>
</clustering>
</event>
<event>
 6    0  0.1361919E+003  0.1553868E+03  0.7546771E-02  0.1194006E+00
         21   -1    0    0  506  501  0.00000000000E+00  0.00000000000E+00  0.16681032461E+03  0.16681032461E+03  0.00000000000E+00 0. -1.
         21   -1    0    0  504  502 -0.00000000000E+00 -0.00000000000E+00 -0.19283855361E+04  0.19283855361E+04  0.00000000000E+00 0.  1.
         21    1    1    2  503  501  0.19567441250E+02  0.24023127105E+02 -0.33728999121E+02  0.45800008457E+02  0.00000000000E+00 0.  1.
         21    1    1    2  504  503 -0.81664797840E+02  0.15591485159E+03 -0.93401258439E+03  0.95045151794E+03  0.00000000000E+00 0.  1.
         21    1    1    2  505  502 -0.42912450584E+02 -0.63653959891E+02 -0.90409899895E+03  0.90735235985E+03  0.00000000000E+00 0.  1.
         21    1    1    2  506  505  0.10500980717E+03 -0.11628401880E+03  0.11026537099E+03  0.19159197444E+03  0.00000000000E+00 0. -1.
<scales pt_clust_3="30.98379" pt_clust_4="14000.00000" pt_clust_5="76.45566" pt_clust_6="155.38678"></scales>
<clustering>
<clus scale="   30.984">  1  3  2 -1</clus>
<clus scale="   76.456">  2  5  1 -1</clus>
<clus scale="  155.387">  1  6  2 -1</clus>
<clus scale="   30.984">  1  3  2 -1</clus>
</clustering>
</event>
<event>
 6    0  0.1361919E+003  0.1442190E+03  0.7546771E-02  0.1207762E+00
         21   -1    0    0  506  501  0.00000000000E+00  0.00000000000E+00  0.26435153501E+03  0.26435153501E+03  0.00000000000E+00 0.  1.
         21   -1    0    0  505  502 -0.00000000000E+00 -0.00000000000E+00 -0.34561529975E+03  0.34561529975E+03  0.00000000000E+00 0.  1.
         21    1    1    2  503  502 -0.10921120948E+03  0.11738399890E+03 -0.10009831488E+03  0.18901260306E+03  0.00000000000E+00 0.  1.
         21    1    1    2  504  501  0.34138953329E+02 -0.16212744674E+03  0.15689486591E+03  0.22818145427E+03  0.00000000000E+00 0.  1.
         21    1    1    2  505  504  0.55827334342E+02  0.66464144962E+01 -0.13914820190E+03  0.15007694085E+03  0.00000000000E+00 0.  1.
         21    1    1    2  506  503  0.19244921807E+02  0.38097033342E+02  0.10878861248E+01  0.42695836577E+02  0.00000000000E+00 0. -1.
<scales pt_clust_3="144.21901" pt_clust_4="14000.00000" pt_clust_5="56.75942" pt_clust_6="42.68197"></scales>
<clustering>
<clus scale="   42.682">  1  6  2 -1</clus>
<clus scale="   56.759">  2  5  1 -1</clus>
<clus scale="  144.219">  2  3  1 -1</clus>
<clus scale="   42.682">  1  3  2 -1</clus>
</clustering>
</event>
<event>
 6    0  0.1361919E+003  0.6347448E+02  0.7546771E-02  0.1383804E+00
         21   -1    0    0  504  501  0.00000000000E+00  0.00000000000E+00  0.38410766963E+03  0.38410766963E+03  0.00000000000E+00 0. -1.
         21   -1    0    0  503  502 -0.00000000000E+00 -0.00000000000E+00 -0.20537927646E+03  0.20537927646E+03  0.00000000000E+00 0. -1.
         21    1    1    2  503  501  0.92459612137E+02  0.26025437716E+02 -0.50042828185E+02  0.10830691546E+03  0.00000000000E+00 0. -1.
         21    1    1    2  504  505 -0.44729758044E+02 -0.19470570712E+02  0.32405600033E+03  0.32770740872E+03  0.00000000000E+00 0. -1.
         21    1    1    2  505  506 -0.15800189861E+02 -0.57205433952E+02 -0.57734719329E+02  0.82797376102E+02  0.00000000000E+00 0.  1.
         21    1    1    2  506  502 -0.31929664232E+02  0.50650566948E+02 -0.37550059653E+02  0.70675245808E+02  0.00000000000E+00 0. -1.
<scales pt_clust_3="14000.00000" pt_clust_4="48.78375" pt_clust_5="63.15933" pt_clust_6="63.47448"></scales>
<clustering>
<clus scale="   48.784">  1  4  2 -1</clus>
<clus scale="   63.474">  2  6  1 -1</clus>
<clus scale="   63.159">  2  5  1 -1</clus>
<clus scale="   48.784">  1  3  2 -1</clus>
</clustering>
</event>
<event>
 6    0  0.1361919E+003  0.9897166E+02  0.7546771E-02  0.1282473E+00
         21   -1    0    0  505  501  0.00000000000E+00  0.00000000000E+00  0.67019096203E+03  0.67019096203E+03  0.00000000000E+00 0. -1.
         21   -1    0    0  506  502 -0.00000000000E+00 -0.00000000000E+00 -0.13054586932E+03  0.13054586932E+03  0.00000000000E+00 0.  1.
         21    1    1    2  503  501  0.16634092618E+03 -0.10268744757E+02  0.24087082933E+03  0.29290528719E+03  0.00000000000E+00 0. -1.
         21    1    1    2  504  502 -0.52022372728E+02  0.10943955605E+02  0.60691097862E+02  0.80681514538E+02  0.00000000000E+00 0. -1.
         21    1    1    2  505  504 -0.22967627377E+02  0.19461517651E+02  0.30856212619E+03  0.31002717348E+03  0.00000000000E+00 0. -1.
         21    1    1    2  506  503 -0.91350926078E+02 -0.20136728500E+02 -0.70478960677E+02  0.11712285613E+03  0.00000000000E+00 0.  1.
<scales pt_clust_3="14000.00000" pt_clust_4="58.41526" pt_clust_5="30.10420" pt_clust_6="98.97166"></scales>
<clustering>
<clus scale="   30.104">  1  5  2 -1</clus>
<clus scale="   58.415">  1  4  2 -1</clus>
<clus scale="   98.972">  2  6  1 -1</clus>
<clus scale="   30.104">  1  3  2 -1</clus>
</clustering>
</event>
<event>
 6    0  0.1361919E+003  0.1603448E+03  0.7546771E-02  0.1188308E+00
         21   -1    0    0  505  501  0.00000000000E+00  0.00000000000E+00  0.26858442361E+03  0.26858442361E+03  0.00000000000E+00 0. -1.
         21   -1    0    0  506  502 -0.00000000000E+00 -0.00000000000E+00 -0.13346044112E+03  0.13346044112E+03  0.00000000000E+00 0. -1.
         21    1    1    2  503  502  0.38750315290E+02  0.17292786015E+02 -0.21319794584E+02  0.47488535715E+02  0.00000000000E+00 0. -1.
         21    1    1    2  504  503  0.92097034090E+02  0.35822690466E+02  0.40009055617E+02  0.10661075636E+03  0.00000000000E+00 0. -1.
         21    1    1    2  505  504  0.29689963959E+02 -0.31085517905E+02  0.65015658124E+02  0.77941254702E+02  0.00000000000E+00 0. -1.
         21    1    1    2  506  501 -0.16053731334E+03 -0.22029958576E+02  0.51419063326E+02  0.17000431795E+03  0.00000000000E+00 0. -1.
<scales pt_clust_3="38.51783" pt_clust_4="38.51783" pt_clust_5="42.98608" pt_clust_6="149.18254"></scales>
<clustering>
<clus scale="   38.518">  3  4 -1 -1</clus>
<clus scale="   42.986">  1  5  2 -1</clus>
<clus scale="  149.183">  1  6  2 -1</clus>
<clus scale="   42.986">  1  3  2 -1</clus>
</clustering>
</event>
<event>
 6    0  0.1361919E+003  0.1145349E+03  0.7546771E-02  0.1252395E+00
         21   -1    0    0  503  501  0.00000000000E+00  0.00000000000E+00  0.38643445280E+03  0.38643445280E+03  0.00000000000E+00 0.  1.
         21   -1    0    0  505  502 -0.00000000000E+00 -0.00000000000E+00 -0.10494013497E+03  0.10494013497E+03  0.00000000000E+00 0.  1.
         21    1    1    2  503  504 -0.74910646630E+02 -0.69431164969E+02  0.95086386500E+02  0.13954824451E+03  0.00000000000E+00 0.  1.
         21    1    1    2  504  502  0.55850105379E+02 -0.58486691564E+02 -0.14835195460E+02  0.82219282321E+02  0.00000000000E+00 0.  1.
         21    1    1    2  505  506  0.53183743787E+02  0.12331058522E+03  0.11520845685E+03  0.17693784095E+03  0.00000000000E+00 0.  1.
         21    1    1    2  506  501 -0.34123202535E+02  0.46072713100E+01  0.86034669948E+02  0.92669219988E+02  0.00000000000E+00 0.  1.
<scales pt_clust_3="114.53486" pt_clust_4="77.85748" pt_clust_5="14000.00000" pt_clust_6="34.43283"></scales>
<clustering>
<clus scale="   34.433">  1  6  2 -1</clus>
<clus scale="   77.857">  2  4  1 -1</clus>
<clus scale="  114.535">  1  3  2 -1</clus>
<clus scale="   34.433">  1  3  2 -1</clus>
</clustering>
</event>
<event>
 6    0  0.1361919E+003  0.1090089E+03  0.7546771E-02  0.1262416E+00
         21   -1    0    0  503  501  0.00000000000E+00  0.00000000000E+00  0.38239637943E+03  0.38239637943E+03  0.00000000000E+00 0.  1.
         21   -1    0    0  506  502 -0.00000000000E+00 -0.00000000000E+00 -0.47097312820E+03  0.47097312820E+03  0.00000000000E+00 0.  1.
         21    1    1    2  503  502 -0.12319708122E+02 -0.47905059920E+02  0.17560866523E+02  0.52488608356E+02  0.00000000000E+00 0. -1.
         21    1    1    2  504  501 -0.26431854970E+02 -0.21867911341E+02  0.26937100219E+03  0.27154665405E+03  0.00000000000E+00 0.  1.
         21    1    1    2  505  504 -0.69038896769E+02  0.29991082697E+02  0.48825078941E+02  0.89720246556E+02  0.00000000000E+00 0.  1.
         21    1    1    2  506  505  0.10779045986E+03  0.39781888564E+02 -0.42433369643E+03  0.43961399867E+03  0.00000000000E+00 0.  1.
<scales pt_clust_3="58.49131" pt_clust_4="34.30523" pt_clust_5="14000.00000" pt_clust_6="109.00886"></scales>
<clustering>
<clus scale="   34.305">  1  4  2 -1</clus>
<clus scale="   58.491">  1  3  2 -1</clus>
<clus scale="  109.009">  2  6  1 -1</clus>
<clus scale="   34.305">  1  3  2 -1</clus>
</clustering>
</event>
<event>
 6    0  0.1361919E+003  0.1188988E+03  0.7546771E-02  0.1244925E+00
         21   -1    0    0  506  501  0.00000000000E+00  0.00000000000E+00  0.71533059640E+02  0.71533059640E+02  0.00000000000E+00 0.  1.
         21   -1    0    0  504  502 -0.00000000000E+00 -0.00000000000E+00 -0.31721074450E+03  0.31721074450E+03  0.00000000000E+00 0.  1.
         21    1    1    2  503  502 -0.85621582074E+02 -0.62767979428E+01 -0.40266275056E+02  0.94825241451E+02  0.00000000000E+00 0.  1.
         21    1    1    2  504  505  0.88249302120E+02  0.30714981913E+02 -0.14521563156E+03  0.17268158294E+03  0.00000000000E+00 0.  1.
         21    1    1    2  505  501  0.14658399913E+02  0.37299109573E+02 -0.31606204792E+02  0.51039636013E+02  0.00000000000E+00 0.  1.
         21    1    1    2  506  503 -0.17286119959E+02 -0.61737293543E+02 -0.28589573455E+02  0.70197343736E+02  0.00000000000E+00 0.  1.
<scales pt_clust_3="102.79888" pt_clust_4="39.12591" pt_clust_5="39.12591" pt_clust_6="64.11165"></scales>
<clustering>
<clus scale="   39.126">  4  5 -1 -1</clus>
<clus scale="   64.112">  1  6  2 -1</clus>
<clus scale="  102.799">  1  3  2 -1</clus>
<clus scale="   64.112">  1  3  2 -1</clus>
</clustering>
</event>
<event>
 6    0  0.1361919E+003  0.1080477E+03  0.7546771E-02  0.1264229E+00
         21   -1    0    0  506  501  0.00000000000E+00  0.00000000000E+00  0.12000007484E+03  0.12000007484E+03  0.00000000000E+00 0.  1.
         21   -1    0    0  503  502 -0.00000000000E+00 -0.00000000000E+00 -0.44816645891E+03  0.44816645891E+03  0.00000000000E+00 0.  1.
         21    1    1    2  503  501  0.50840757029E+02  0.14366039787E+02 -0.44300241860E+02  0.68946915111E+02  0.00000000000E+00 0.  1.
         21    1    1    2  504  505  0.23169456286E+02 -0.68963353278E+02 -0.12443789703E+02  0.73807965031E+02  0.00000000000E+00 0. -1.
         21    1    1    2  505  502 -0.86493929838E+02  0.87313911879E+02 -0.33278827419E+03  0.35475759970E+03  0.00000000000E+00 0.  1.
         21    1    1    2  506  504  0.12483716523E+02 -0.32716598388E+02  0.61365921687E+02  0.70654053902E+02  0.00000000000E+00 0.  1.
<scales pt_clust_3="54.13155" pt_clust_4="108.04766" pt_clust_5="14000.00000" pt_clust_6="35.01741"></scales>
<clustering>
<clus scale="   35.017">  1  6  2 -1</clus>
<clus scale="   54.132">  1  3  2 -1</clus>
<clus scale="  108.048">  1  4  2 -1</clus>
<clus scale="   35.017">  1  3  2 -1</clus>
</clustering>
</event>
<event>
 6    0  0.1361919E+003  0.9808532E+02  0.7546771E-02  0.1284375E+00
         21   -1    0    0  504  501  0.00000000000E+00  0.00000000000E+00  0.10524371203E+03  0.10524371203E+03  0.00000000000E+00 0. -1.
         21   -1    0    0  506  502 -0.00000000000E+00 -0.00000000000E+00 -0.44466479334E+03  0.44466479334E+03  0.00000000000E+00 0. -1.
         21    1    1    2  503  501 -0.23253252872E+02  0.24938231394E+02  0.15910366927E+02  0.37626705010E+02  0.00000000000E+00 0. -1.
         21    1    1    2  504  505  0.15157714371E+02 -0.11150562689E+03 -0.20530887036E+02  0.11438871647E+03  0.00000000000E+00 0. -1.
         21    1    1    2  505  502 -0.76588911272E+02  0.38180903107E+00 -0.21289552071E+03  0.22625319853E+03  0.00000000000E+00 0. -1.
         21    1    1    2  506  503  0.84684449773E+02  0.86185586467E+02 -0.12190504049E+03  0.17163988535E+03  0.00000000000E+00 0. -1.
<scales pt_clust_3="34.09735" pt_clust_4="14000.00000" pt_clust_5="78.60784" pt_clust_6="98.08532"></scales>
<clustering>
<clus scale="   34.097">  1  3  2 -1</clus>
<clus scale="   78.608">  2  5  1 -1</clus>
<clus scale="   98.085">  2  6  1 -1</clus>
<clus scale="   34.097">  1  3  2 -1</clus>
</clustering>
</event>
<event>
 6    0  0.1361919E+003  0.1474698E+03  0.7546771E-02  0.1203617E+00
         21   -1    0    0  505  501  0.00000000000E+00  0.00000000000E+00  0.12275209198E+04  0.12275209198E+04  0.00000000000E+00 0. -1.
         21   -1    0    0  503  502 -0.00000000000E+00 -0.00000000000E+00 -0.15430492793E+03  0.15430492793E+03  0.00000000000E+00 0.  1.
         21    1    1    2  503  501  0.16724140693E+03  0.35052195438E+02  0.87750262577E+03  0.89398501264E+03  0.00000000000E+00 0. -1.
         21    1    1    2  504  502  0.37548853667E+02  0.39592873037E+00 -0.80524243191E+02  0.88849462085E+02  0.00000000000E+00 0.  1.
         21    1    1    2  505  506 -0.30533004872E+02 -0.65285110015E+01  0.20687856982E+03  0.20922148191E+03  0.00000000000E+00 0. -1.
         21    1    1    2  506  504 -0.17425725572E+03 -0.28919613166E+02  0.69359039432E+02  0.18976989105E+03  0.00000000000E+00 0.  1.
<scales pt_clust_3="14000.00000" pt_clust_4="37.42601" pt_clust_5="31.22316" pt_clust_6="147.46979"></scales>
<clustering>
<clus scale="   31.223">  1  5  2 -1</clus>
<clus scale="   37.426">  2  4  1 -1</clus>
<clus scale="  147.470">  2  6  1 -1</clus>
<clus scale="   31.223">  1  3  2 -1</clus>
</clustering>
</event>
<event>
 6    0  0.1361919E+003  0.1322164E+03  0.7546771E-02  0.1224204E+00
         21   -1    0    0  506  501  0.00000000000E+00  0.00000000000E+00  0.20254150857E+03  0.20254150857E+03  0.00000000000E+00 0.  1.
         21   -1    0    0  504  502 -0.00000000000E+00 -0.00000000000E+00 -0.45863127031E+03  0.45863127031E+03  0.00000000000E+00 0.  1.
         21    1    1    2  503  501 -0.23793842219E+02  0.22175155154E+02  0.12768678338E+03  0.13176417982E+03  0.00000000000E+00 0.  1.
         21    1    1    2  504  503 -0.19530404762E+02 -0.17306889810E+03 -0.21992656299E+03  0.28053871981E+03  0.00000000000E+00 0.  1.
         21    1    1    2  505  502  0.49080923203E+02  0.43752900474E+02 -0.11159839780E+03  0.12952781831E+03  0.00000000000E+00 0.  1.
         21    1    1    2  506  505 -0.57566762225E+01  0.10714084248E+03 -0.52251584320E+02  0.11934206095E+03  0.00000000000E+00 0.  1.
<scales pt_clust_3="32.52514" pt_clust_4="14000.00000" pt_clust_5="65.50293" pt_clust_6="132.21643"></scales>
<clustering>
<clus scale="   32.525">  1  3  2 -1</clus>
<clus scale="   65.503">  2  5  1 -1</clus>
<clus scale="  132.216">  1  6  2 -1</clus>
<clus scale="   32.525">  1  3  2 -1</clus>
</clustering>
</event>
<event>
 6    0  0.1361919E+003  0.2225690E+03  0.7546771E-02  0.1131982E+00
         21   -1    0    0  505  501  0.00000000000E+00  0.00000000000E+00  0.28114422924E+03  0.28114422924E+03  0.00000000000E+00 0. -1.
         21   -1    0    0  506  502 -0.00000000000E+00 -0.00000000000E+00 -0.52240127091E+03  0.52240127091E+03  0.00000000000E+00 0. -1.
         21    1    1    2  503  502 -0.42759370193E+02 -0.19825346302E+01 -0.55166997817E+02  0.69826154348E+02  0.00000000000E+00 0.  1.
         21    1    1    2  504  501 -0.20219502983E+02  0.10000043793E+03  0.13516042996E+03  0.16934360843E+03  0.00000000000E+00 0. -1.
         21    1    1    2  505  503 -0.59923354151E+02 -0.24288081623E+03 -0.26900262575E+03  0.36734767173E+03  0.00000000000E+00 0. -1.
         21    1    1    2  506  504  0.12290222733E+03  0.14486291293E+03 -0.52247848061E+02  0.19702806565E+03  0.00000000000E+00 0. -1.
<scales pt_clust_3="42.80531" pt_clust_4="102.27889" pt_clust_5="222.56896" pt_clust_6="14000.00000"></scales>
<clustering>
<clus scale="   42.805">  2  3  1 -1</clus>
<clus scale="  102.279">  1  4  2 -1</clus>
<clus scale="  222.569">  2  5  1 -1</clus>
<clus scale="  102.279">  1  3  2 -1</clus>
</clustering>
</event>
<event>
 6    0  0.1365578E+003  0.9079259E+02  0.7546771E-02  0.1300944E+00
         21   -1    0    0  506  501  0.00000000000E+00  0.00000000000E+00  0.40438156073E+03  0.40438156073E+03  0.00000000000E+00 0. -1.
         21   -1    0    0  501  502 -0.00000000000E+00 -0.00000000000E+00 -0.42353159136E+03  0.42353159136E+03  0.00000000000E+00 0.  1.
         21    1    1    2  503  505  0.12464960977E+02  0.69975507032E+02  0.94832522565E+02  0.11851225326E+03  0.00000000000E+00 0.  1.
         21    1    1    2  504  502  0.47307723299E+02 -0.31374247565E+02 -0.30605488518E+03  0.31127472887E+03  0.00000000000E+00 0.  1.
         21    1    1    2  505  504 -0.77806517162E+02 -0.62855869977E+02 -0.77705586430E+02  0.12666046213E+03  0.00000000000E+00 0. -1.
         21    1    1    2  506  503  0.18033832887E+02  0.24254610511E+02  0.26977791841E+03  0.27146570782E+03  0.00000000000E+00 0. -1.
<scales pt_clust_3="90.79259" pt_clust_4="56.80060" pt_clust_5="14000.00000" pt_clust_6="30.22425"></scales>
<clustering>
<clus scale="   30.224">  1  6  2 -1</clus>
<clus scale="   56.801">  2  4  1 -1</clus>
<clus scale="   90.793">  1  3  2 -1</clus>
<clus scale="   30.224">  1  3  2 -1</clus>
</clustering>
</event>
<event>
 6    0  0.1361919E+003  0.1933974E+03  0.7546771E-02  0.1155432E+00
         21   -1    0    0  503  501  0.00000000000E+00  0.00000000000E+00  0.70736830219E+03  0.70736830219E+03  0.00000000000E+00 0. -1.
         21   -1    0    0  505  502 -0.00000000000E+00 -0.00000000000E+00 -0.34637106118E+03  0.34637106118E+03  0.00000000000E+00 0.  1.
         21    1    1    2  503  504 -0.18895662397E+03  0.10734362391E+02  0.52654189903E+03  0.55952319318E+03  0.00000000000E+00 0. -1.
         21    1    1    2  504  506 -0.10090539184E+03  0.30483805284E+02 -0.70544193891E+01  0.10564528063E+03  0.00000000000E+00 0.  1.
         21    1    1    2  505  501  0.24396966993E+03 -0.10770750680E+03 -0.15331462129E+03  0.30761579928E+03  0.00000000000E+00 0.  1.
         21    1    1    2  506  502  0.45892345874E+02  0.66489339124E+02 -0.51756173383E+01  0.80955090278E+02  0.00000000000E+00 0.  1.
<scales pt_clust_3="193.39740" pt_clust_4="101.82779" pt_clust_5="14000.00000" pt_clust_6="80.78948"></scales>
<clustering>
<clus scale="   80.789">  2  6  1 -1</clus>
<clus scale="  101.828">  2  4  1 -1</clus>
<clus scale="  193.397">  1  3  2 -1</clus>
<clus scale="  193.397">  1  3  2 -1</clus>
</clustering>
</event>
<event>
 6    0  0.1361919E+003  0.8421562E+02  0.7546771E-02  0.1317497E+00
         21   -1    0    0  505  501  0.00000000000E+00  0.00000000000E+00  0.61858185436E+03  0.61858185436E+03  0.00000000000E+00 0. -1.
         21   -1    0    0  503  502 -0.00000000000E+00 -0.00000000000E+00 -0.35325300333E+03  0.35325300333E+03  0.00000000000E+00 0. -1.
         21    1    1    2  503  504 -0.17904531367E+02 -0.91646018589E+02  0.18661693511E+03  0.20867545480E+03  0.00000000000E+00 0. -1.
         21    1    1    2  504  501  0.27729771575E+02  0.73747033570E+02  0.37406789792E+03  0.38227523782E+03  0.00000000000E+00 0. -1.
         21    1    1    2  505  506  0.34244518444E+02 -0.13903740578E+02  0.32097450612E+02  0.48951479869E+02  0.00000000000E+00 0. -1.
         21    1    1    2  506  502 -0.44069758653E+02  0.31802725598E+02 -0.32745343261E+03  0.33193268521E+03  0.00000000000E+00 0. -1.
<scales pt_clust_3="14000.00000" pt_clust_4="84.21562" pt_clust_5="36.95945" pt_clust_6="54.20754"></scales>
<clustering>
<clus scale="   36.959">  1  5  2 -1</clus>
<clus scale="   54.208">  2  6  1 -1</clus>
<clus scale="   84.216">  1  4  2 -1</clus>
<clus scale="   36.959">  1  3  2 -1</clus>
</clustering>
</event>
<event>
 6    0  0.1361919E+003  0.1118437E+03  0.7546771E-02  0.1257193E+00
         21   -1    0    0  503  501  0.00000000000E+00  0.00000000000E+00  0.44994658282E+03  0.44994658282E+03  0.00000000000E+00 0.  1.
         21   -1    0    0  504  502 -0.00000000000E+00 -0.00000000000E+00 -0.38273391018E+03  0.38273391018E+03  0.00000000000E+00 0.  1.
         21    1    1    2  503  505  0.43094098806E+02  0.53588570117E+01  0.21914334774E+03  0.22340462296E+03  0.00000000000E+00 0.  1.
         21    1    1    2  504  506 -0.86090944223E+02 -0.16281742963E+02 -0.29462301038E+03  0.30737511948E+03  0.00000000000E+00 0.  1.
         21    1    1    2  505  502  0.15191504713E+03 -0.12300798640E+02  0.62810288035E+02  0.16484727318E+03  0.00000000000E+00 0.  1.
         21    1    1    2  506  501 -0.10891820171E+03  0.23223684591E+02  0.79882047239E+02  0.13705347738E+03  0.00000000000E+00 0.  1.
<scales pt_clust_3="43.42601" pt_clust_4="86.40865" pt_clust_5="111.84366" pt_clust_6="14000.00000"></scales>
<clustering>
<clus scale="   43.426">  1  3  2 -1</clus>
<clus scale="   86.409">  2  4  1 -1</clus>
<clus scale="  111.844">  2  5  1 -1</clus>
<clus scale="   43.426">  1  3  2 -1</clus>
</clustering>
</event>
<event>
 6    0  0.1361919E+003  0.1208700E+03  0.7546771E-02  0.1241669E+00
         21   -1    0    0  504  501  0.00000000000E+00  0.00000000000E+00  0.14625927141E+04  0.14625927141E+04  0.00000000000E+00 0.  1.
         21   -1    0    0  506  502 -0.00000000000E+00 -0.00000000000E+00 -0.21480076805E+03  0.21480076805E+03  0.00000000000E+00 0.  1.
         21    1    1    2  503  502  0.84921258359E+01  0.49028430362E+02 -0.16468922789E+03  0.17204198606E+03  0.00000000000E+00 0.  1.
         21    1    1    2  504  503 -0.17537701765E+03  0.16176570941E+01  0.28630665377E+03  0.33575469487E+03  0.00000000000E+00 0.  1.
         21    1    1    2  505  501  0.11383315492E+03 -0.10482695771E+02  0.10857255747E+04  0.10917270253E+04  0.00000000000E+00 0.  1.
         21    1    1    2  506  505  0.53051736897E+02 -0.40163391685E+02  0.40448945404E+02  0.77869775932E+02  0.00000000000E+00 0.  1.
<scales pt_clust_3="49.75845" pt_clust_4="14000.00000" pt_clust_5="120.86996" pt_clust_6="60.04788"></scales>
<clustering>
<clus scale="   49.758">  2  3  1 -1</clus>
<clus scale="   60.048">  2  6  1 -1</clus>
<clus scale="  120.870">  1  5  2 -1</clus>
<clus scale="  120.870">  1  3  2 -1</clus>
</clustering>
</event>
<event>
 6    0  0.1361919E+003  0.8292243E+02  0.7546771E-02  0.1320957E+00
         21   -1    0    0  502  501  0.00000000000E+00  0.00000000000E+00  0.16690575911E+03  0.16690575911E+03  0.00000000000E+00 0.  1.
         21   -1    0    0  503  502 -0.00000000000E+00 -0.00000000000E+00 -0.18623326499E+03  0.18623326499E+03  0.00000000000E+00 0. -1.
         21    1    1    2  503  505 -0.15426639938E+02  0.37692315785E+02 -0.53622948512E+02  0.67335818819E+02  0.00000000000E+00 0.  1.
         21    1    1    2  504  501 -0.61951517281E+02 -0.52477453166E+02  0.96502153245E+02  0.12611319981E+03  0.00000000000E+00 0.  1.
         21    1    1    2  505  506  0.16241691287E+02 -0.53125297878E+02 -0.27001496824E+02  0.61767067611E+02  0.00000000000E+00 0. -1.
         21    1    1    2  506  504  0.61136465932E+02  0.67910435260E+02 -0.35205213788E+02  0.97922937873E+02  0.00000000000E+00 0. -1.
<scales pt_clust_3="40.72704" pt_clust_4="82.92243" pt_clust_5="41.25969" pt_clust_6="14000.00000"></scales>
<clustering>
<clus scale="   40.727">  2  3  1 -1</clus>
<clus scale="   41.260">  2  5  1 -1</clus>
<clus scale="   82.922">  1  4  2 -1</clus>
<clus scale="   82.922">  1  3  2 -1</clus>
</clustering>
</event>
<event>
 6    0  0.1361919E+003  0.9867849E+02  0.7546771E-02  0.1283100E+00
         21   -1    0    0  505  501  0.00000000000E+00  0.00000000000E+00  0.36949558653E+03  0.36949558653E+03  0.00000000000E+00 0. -1.
         21   -1    0    0  506  502 -0.00000000000E+00 -0.00000000000E+00 -0.70717947385E+03  0.70717947385E+03  0.00000000000E+00 0. -1.
         21    1    1    2  503  502 -0.25673095858E+02 -0.28142525827E+02 -0.41452208845E+02  0.56297382079E+02  0.00000000000E+00 0. -1.
         21    1    1    2  504  501  0.50091871842E+02 -0.30770198739E+02  0.13363470428E+03  0.14599395516E+03  0.00000000000E+00 0.  1.
         21    1    1    2  505  503 -0.62091501506E+02 -0.67624208546E+02  0.20569575808E+03  0.22525348617E+03  0.00000000000E+00 0. -1.
         21    1    1    2  506  504  0.37672725522E+02  0.12653693311E+03 -0.63556214083E+03  0.64913023697E+03  0.00000000000E+00 0. -1.
<scales pt_clust_3="38.09343" pt_clust_4="58.72174" pt_clust_5="14000.00000" pt_clust_6="98.67849"></scales>
<clustering>
<clus scale="   38.093">  2  3  1 -1</clus>
<clus scale="   58.722">  1  4  2 -1</clus>
<clus scale="   98.678">  2  6  1 -1</clus>
<clus scale="   58.722">  1  3  2 -1</clus>
</clustering>
</event>
<event>
 6    0  0.1361919E+003  0.9568351E+02  0.7546771E-02  0.1289644E+00
         21   -1    0    0  505  501  0.00000000000E+00  0.00000000000E+00  0.42339088081E+03  0.42339088081E+03  0.00000000000E+00 0.  1.
         21   -1    0    0  506  502 -0.00000000000E+00 -0.00000000000E+00 -0.43230552373E+03  0.43230552373E+03  0.00000000000E+00 0.  1.
         21    1    1    2  503  501  0.17289931656E+02 -0.10020634732E+03  0.58343364752E+02  0.11723566859E+03  0.00000000000E+00 0.  1.
         21    1    1    2  504  502  0.12827852007E+02  0.87541442776E+02  0.99709843004E+02  0.13330457900E+03  0.00000000000E+00 0.  1.
         21    1    1    2  505  504  0.23263121916E+02  0.35046110081E+02  0.21487370653E+03  0.21895230630E+03  0.00000000000E+00 0.  1.
         21    1    1    2  506  503 -0.53380905580E+02 -0.22381205537E+02 -0.38184155721E+03  0.38620385065E+03  0.00000000000E+00 0.  1.
<scales pt_clust_3="95.68351" pt_clust_4="14000.00000" pt_clust_5="42.06427" pt_clust_6="57.51373"></scales>
<clustering>
<clus scale="   42.064">  1  5  2 -1</clus>
<clus scale="   57.514">  2  6  1 -1</clus>
<clus scale="   95.684">  1  3  2 -1</clus>
<clus scale="   42.064">  1  3  2 -1</clus>
</clustering>
</event>
<event>
 6    0  0.1361919E+003  0.7694716E+02  0.7546771E-02  0.1337945E+00
         21   -1    0    0  504  501  0.00000000000E+00  0.00000000000E+00  0.41557598544E+03  0.41557598544E+03  0.00000000000E+00 0. -1.
         21   -1    0    0  506  502 -0.00000000000E+00 -0.00000000000E+00 -0.31954647520E+03  0.31954647520E+03  0.00000000000E+00 0. -1.
         21    1    1    2  503  501 -0.47943437789E+02 -0.46555505804E+02  0.28458641379E+02  0.72635271162E+02  0.00000000000E+00 0. -1.
         21    1    1    2  504  505  0.67706251915E+02  0.43302592177E+02  0.15848208438E+03  0.17769586969E+03  0.00000000000E+00 0. -1.
         21    1    1    2  505  502  0.20927121219E+02  0.73981992686E+02 -0.27387193975E+03  0.28445934512E+03  0.00000000000E+00 0. -1.
         21    1    1    2  506  503 -0.40689935345E+02 -0.70729079060E+02  0.18296072423E+03  0.20033197467E+03  0.00000000000E+00 0. -1.
<scales pt_clust_3="66.82805" pt_clust_4="50.59731" pt_clust_5="14000.00000" pt_clust_6="76.94716"></scales>
<clustering>
<clus scale="   66.828">  1  3  2 -1</clus>
<clus scale="   50.597">  1  4  2 -1</clus>
<clus scale="   76.947">  1  6  2 -1</clus>
<clus scale="   66.828">  1  3  2 -1</clus>
</clustering>
</event>
<event>
 6    0  0.1361919E+003  0.1851892E+03  0.7546771E-02  0.1162873E+00
         21   -1    0    0  504  501  0.00000000000E+00  0.00000000000E+00  0.28369773715E+03  0.28369773715E+03  0.00000000000E+00 0. -1.
         21   -1    0    0  505  502 -0.00000000000E+00 -0.00000000000E+00 -0.45250128602E+03  0.45250128602E+03  0.00000000000E+00 0. -1.
         21    1    1    2  503  502 -0.47534309375E+02 -0.15037428480E+03 -0.21659366932E+02  0.15918876930E+03  0.00000000000E+00 0. -1.
         21    1    1    2  504  503  0.18211045593E+03  0.13229212332E+03  0.10262813886E+03  0.24738221225E+03  0.00000000000E+00 0. -1.
         21    1    1    2  505  506 -0.10455390174E+03 -0.26426659548E+01 -0.26883797488E+03  0.28846552443E+03  0.00000000000E+00 0. -1.
         21    1    1    2  506  501 -0.30022244816E+02  0.20724827435E+02  0.19065654078E+02  0.41162517190E+02  0.00000000000E+00 0. -1.
<scales pt_clust_3="185.18921" pt_clust_4="14000.00000" pt_clust_5="105.73180" pt_clust_6="36.48087"></scales>
<clustering>
<clus scale="   36.481">  1  6  2 -1</clus>
<clus scale="  105.732">  2  5  1 -1</clus>
<clus scale="  185.189">  2  3  1 -1</clus>
<clus scale="   36.481">  1  3  2 -1</clus>
</clustering>
</event>
<event>
 6    0  0.1361919E+003  0.8610588E+02  0.7546771E-02  0.1312566E+00
         21   -1    0    0  506  501  0.00000000000E+00  0.00000000000E+00  0.26036221942E+03  0.26036221942E+03  0.00000000000E+00 0.  1.
         21   -1    0    0  503  502 -0.00000000000E+00 -0.00000000000E+00 -0.13948895426E+03  0.13948895426E+03  0.00000000000E+00 0.  1.
         21    1    1    2  503  505  0.58889231564E+02  0.65812787186E+01 -0.50963343076E+02  0.78157003277E+02  0.00000000000E+00 0.  1.
         21    1    1    2  504  502  0.25939788042E+02 -0.34847610017E+02 -0.26275905694E+02  0.50770579548E+02  0.00000000000E+00 0.  1.
         21    1    1    2  505  501 -0.12871923541E+03  0.45791646496E+02  0.15852415897E+03  0.20927356601E+03  0.00000000000E+00 0.  1.
         21    1    1    2  506  504  0.43890215801E+02 -0.17525315197E+02  0.39588354963E+02  0.61650024854E+02  0.00000000000E+00 0.  1.
<scales pt_clust_3="86.10588" pt_clust_4="43.44224" pt_clust_5="14000.00000" pt_clust_6="51.36370"></scales>
<clustering>
<clus scale="   43.442">  2  4  1 -1</clus>
<clus scale="   51.364">  1  6  2 -1</clus>
<clus scale="   86.106">  2  3  1 -1</clus>
<clus scale="   51.364">  1  3  2 -1</clus>
</clustering>
</event>
<event>
 6    0  0.1361919E+003  0.5378530E+02  0.7546771E-02  0.1425932E+00
         21   -1    0    0  506  501  0.00000000000E+00  0.00000000000E+00  0.14932695218E+04  0.14932695218E+04  0.00000000000E+00 0. -1.
         21   -1    0    0  504  502 -0.00000000000E+00 -0.00000000000E+00 -0.14873723708E+03  0.14873723708E+03  0.00000000000E+00 0. -1.
         21    1    1    2  503  501 -0.43466834751E+02  0.52913403606E+02  0.90267954964E+03  0.90527319818E+03  0.00000000000E+00 0. -1.
         21    1    1    2  504  503 -0.37938387828E+00 -0.10010128193E+03 -0.78049383411E+02  0.12693351341E+03  0.00000000000E+00 0. -1.
         21    1    1    2  505  502 -0.84939104909E+01  0.47971007253E+02 -0.30130718491E+02  0.57281971414E+02  0.00000000000E+00 0. -1.
         21    1    1    2  506  505  0.52340129121E+02 -0.78312892867E+00  0.55003283697E+03  0.55251807586E+03  0.00000000000E+00 0. -1.
<scales pt_clust_3="14000.00000" pt_clust_4="53.78530" pt_clust_5="48.71718" pt_clust_6="52.24008"></scales>
<clustering>
<clus scale="   48.717">  2  5  1 -1</clus>
<clus scale="   52.240">  1  6  2 -1</clus>
<clus scale="   53.785">  2  4  1 -1</clus>
<clus scale="   52.240">  1  3  2 -1</clus>
</clustering>
</event>
<event>
 6    0  0.1361919E+003  0.1206845E+03  0.7546771E-02  0.1241972E+00
         21   -1    0    0  504  501  0.00000000000E+00  0.00000000000E+00  0.88748946004E+03  0.88748946004E+03  0.00000000000E+00 0. -1.
         21   -1    0    0  506  502 -0.00000000000E+00 -0.00000000000E+00 -0.10406032091E+03  0.10406032091E+03  0.00000000000E+00 0. -1.
         21    1    1    2  503  501  0.93513478258E+02 -0.62214172198E+02  0.42234191252E+02  0.11999625306E+03  0.00000000000E+00 0. -1.
         21    1    1    2  504  505 -0.60212765964E+01  0.53097821697E+02  0.47653804332E+03  0.47952491194E+03  0.00000000000E+00 0. -1.
         21    1    1    2  505  502 -0.93395011343E+02  0.39324758927E+02  0.31617414968E+03  0.33201680339E+03  0.00000000000E+00 0. -1.
         21    1    1    2  506  503  0.59028096805E+01 -0.30208408426E+02 -0.51517245122E+02  0.60011812560E+02  0.00000000000E+00 0. -1.
<scales pt_clust_3="120.68453" pt_clust_4="52.48945" pt_clust_5="14000.00000" pt_clust_6="30.77972"></scales>
<clustering>
<clus scale="   30.780">  2  6  1 -1</clus>
<clus scale="   52.489">  1  4  2 -1</clus>
<clus scale="  120.685">  2  3  1 -1</clus>
<clus scale="   52.489">  1  3  2 -1</clus>
</clustering>
</event>
<event>
 6    0  0.1361919E+003  0.1052824E+03  0.7546771E-02  0.1269564E+00
         21   -1    0    0  505  501  0.00000000000E+00  0.00000000000E+00  0.18972526082E+04  0.18972526082E+04  0.00000000000E+00 0. -1.
         21   -1    0    0  503  502 -0.00000000000E+00 -0.00000000000E+00 -0.13240028430E+03  0.13240028430E+03  0.00000000000E+00 0. -1.
         21    1    1    2  503  506  0.93751872569E+02  0.88117239968E+01 -0.95656231720E+02  0.13422806993E+03  0.00000000000E+00 0. -1.
         21    1    1    2  504  501 -0.35020428985E+02 -0.40165263209E+02  0.12661286055E+04  0.12672495115E+04  0.00000000000E+00 0. -1.
         21    1    1    2  505  502 -0.30444418505E+02  0.67359708066E+02  0.70015055763E+02  0.10181503289E+03  0.00000000000E+00 0. -1.
         21    1    1    2  506  504 -0.28287025079E+02 -0.36006168854E+02  0.52436489430E+03  0.52636027810E+03  0.00000000000E+00 0. -1.
<scales pt_clust_3="98.61646" pt_clust_4="34.17438" pt_clust_5="73.92018" pt_clust_6="34.17438"></scales>
<clustering>
<clus scale="   34.174">  4  6 -1 -1</clus>
<clus scale="   73.920">  2  5  1 -1</clus>
<clus scale="   98.616">  2  3  1 -1</clus>
<clus scale="  105.282">  1  3  2 -1</clus>
</clustering>
</event>
<event>
 6    0  0.1361919E+003  0.2354402E+03  0.7546771E-02  0.1122868E+00
         21   -1    0    0  504  501  0.00000000000E+00  0.00000000000E+00  0.10879007697E+04  0.10879007697E+04  0.00000000000E+00 0.  1.
         21   -1    0    0  505  502 -0.00000000000E+00 -0.00000000000E+00 -0.43125084835E+03  0.43125084835E+03  0.00000000000E+00 0.  1.
         21    1    1    2  503  501  0.71527253542E+02  0.21535836530E+03  0.99890691253E+03  0.10243585278E+04  0.00000000000E+00 0.  1.
         21    1    1    2  504  506  0.94849539527E+01 -0.42761106699E+02  0.10167514718E+02  0.44965041456E+02  0.00000000000E+00 0.  1.
         21    1    1    2  505  503 -0.27986524927E+02 -0.32361740350E+02 -0.28013677780E+03  0.28338514798E+03  0.00000000000E+00 0.  1.
         21    1    1    2  506  502 -0.53025682568E+02 -0.14023551826E+03 -0.72287728137E+02  0.16644290081E+03  0.00000000000E+00 0. -1.
<scales pt_clust_3="223.56484" pt_clust_4="39.90549" pt_clust_5="42.78467" pt_clust_6="39.90549"></scales>
<clustering>
<clus scale="   39.905">  4  6 -1 -1</clus>
<clus scale="   42.785">  2  5  1 -1</clus>
<clus scale="  223.565">  1  3  2 -1</clus>
<clus scale="  223.565">  1  3  2 -1</clus>
</clustering>
</event>
<event>
 6    0  0.1361919E+003  0.2833374E+03  0.7546771E-02  0.1093880E+00
         21   -1    0    0  506  501  0.00000000000E+00  0.00000000000E+00  0.68996654251E+02  0.68996654251E+02  0.00000000000E+00 0.  1.
         21   -1    0    0  503  502 -0.00000000000E+00 -0.00000000000E+00 -0.24690370879E+04  0.24690370879E+04  0.00000000000E+00 0.  1.
         21    1    1    2  503  501  0.23892165005E+02  0.22180623304E+02 -0.82355613324E+03  0.82420114062E+03  0.00000000000E+00 0.  1.
         21    1    1    2  504  505 -0.17573460572E+02 -0.17058971606E+03 -0.15044702672E+03  0.22813150942E+03  0.00000000000E+00 0.  1.
         21    1    1    2  505  502 -0.23314502308E+02  0.25804021354E+03 -0.12575940023E+04  0.12840058382E+04  0.00000000000E+00 0.  1.
         21    1    1    2  506  504  0.16995797876E+02 -0.10963112078E+03 -0.16844327141E+03  0.20169525396E+03  0.00000000000E+00 0.  1.
<scales pt_clust_3="32.60085" pt_clust_4="54.12055" pt_clust_5="275.21650" pt_clust_6="54.12055"></scales>
<clustering>
<clus scale="   32.601">  2  3  1 -1</clus>
<clus scale="   54.121">  4  6 -1 -1</clus>
<clus scale="  275.216">  2  5  1 -1</clus>
<clus scale="  283.337">  1  3  2 -1</clus>
</clustering>
</event>
<event>
 6    0  0.1361919E+003  0.8615691E+02  0.7546771E-02  0.1312435E+00
         21   -1    0    0  503  501  0.00000000000E+00  0.00000000000E+00  0.12004975070E+04  0.12004975070E+04  0.00000000000E+00 0.  1.
         21   -1    0    0  505  502 -0.00000000000E+00 -0.00000000000E+00 -0.23621201061E+03  0.23621201061E+03  0.00000000000E+00 0. -1.
         21    1    1    2  503  504  0.28908861358E+02  0.36735399048E+02  0.17324527569E+03  0.17944118077E+03  0.00000000000E+00 0. -1.
         21    1    1    2  504  502 -0.22437178590E+02 -0.13837753091E+03 -0.16903738981E+03  0.21960283968E+03  0.00000000000E+00 0. -1.
         21    1    1    2  505  506  0.17390543400E+02  0.52141148001E+02 -0.18158887283E+02  0.57886747205E+02  0.00000000000E+00 0. -1.
         21    1    1    2  506  501 -0.23862226168E+02  0.49500983859E+02  0.97823649782E+03  0.97977874998E+03  0.00000000000E+00 0.  1.
<scales pt_clust_3="46.74625" pt_clust_4="14000.00000" pt_clust_5="55.81895" pt_clust_6="86.15691"></scales>
<clustering>
<clus scale="   46.746">  1  3  2 -1</clus>
<clus scale="   55.819">  2  5  1 -1</clus>
<clus scale="   86.157">  1  6  2 -1</clus>
<clus scale="   46.746">  1  3  2 -1</clus>
</clustering>
</event>
<event>
 6    0  0.1361919E+003  0.9149022E+02  0.7546771E-02  0.1299283E+00
         21   -1    0    0  506  501  0.00000000000E+00  0.00000000000E+00  0.40538087099E+03  0.40538087099E+03  0.00000000000E+00 0. -1.
         21   -1    0    0  503  502 -0.00000000000E+00 -0.00000000000E+00 -0.25236543385E+03  0.25236543385E+03  0.00000000000E+00 0. -1.
         21    1    1    2  503  501 -0.62441304557E+01  0.34389393148E+02 -0.13250467455E+03  0.13703688665E+03  0.00000000000E+00 0. -1.
         21    1    1    2  504  502 -0.39325649640E+02 -0.57975886545E+01 -0.70451886467E+02  0.80892441307E+02  0.00000000000E+00 0.  1.
         21    1    1    2  505  504  0.24095674817E+02 -0.11450315158E+03  0.61237724444E+02  0.13206677160E+03  0.00000000000E+00 0. -1.
         21    1    1    2  506  505  0.21474105279E+02  0.85911347084E+02  0.29473427370E+03  0.30775020528E+03  0.00000000000E+00 0. -1.
<scales pt_clust_3="34.95167" pt_clust_4="46.31862" pt_clust_5="14000.00000" pt_clust_6="91.49022"></scales>
<clustering>
<clus scale="   34.952">  2  3  1 -1</clus>
<clus scale="   46.319">  2  4  1 -1</clus>
<clus scale="   91.490">  1  6  2 -1</clus>
<clus scale="   91.490">  1  3  2 -1</clus>
</clustering>
</event>
<event>
 6    0  0.1361919E+003  0.1021736E+03  0.7546771E-02  0.1275790E+00
         21   -1    0    0  504  501  0.00000000000E+00  0.00000000000E+00  0.52601430152E+03  0.52601430152E+03  0.00000000000E+00 0. -1.
         21   -1    0    0  503  502 -0.00000000000E+00 -0.00000000000E+00 -0.33920369421E+03  0.33920369421E+03  0.00000000000E+00 0.  1.
         21    1    1    2  503  505  0.48090140365E+02  0.18902831469E+02 -0.29762999701E+03  0.30208209771E+03  0.00000000000E+00 0.  1.
         21    1    1    2  504  502  0.49718480304E+02 -0.14270453260E+01  0.41678697279E+02  0.64892815850E+02  0.00000000000E+00 0. -1.
         21    1    1    2  505  506  0.26117153665E+01 -0.99048933745E+02  0.18800461116E+03  0.21251646089E+03  0.00000000000E+00 0. -1.
         21    1    1    2  506  501 -0.10042033604E+03  0.81573147602E+02  0.25475729589E+03  0.28572662128E+03  0.00000000000E+00 0. -1.
<scales pt_clust_3="51.88735" pt_clust_4="49.73896" pt_clust_5="14000.00000" pt_clust_6="102.17364"></scales>
<clustering>
<clus scale="   49.739">  1  4  2 -1</clus>
<clus scale="   51.887">  2  3  1 -1</clus>
<clus scale="  102.174">  1  6  2 -1</clus>
<clus scale="   49.739">  1  3  2 -1</clus>
</clustering>
</event>
<event>
 6    0  0.1361919E+003  0.1354649E+03  0.7546771E-02  0.1219565E+00
         21   -1    0    0  506  501  0.00000000000E+00  0.00000000000E+00  0.68913521162E+02  0.68913521162E+02  0.00000000000E+00 0. -1.
         21   -1    0    0  503  502 -0.00000000000E+00 -0.00000000000E+00 -0.10086859454E+04  0.10086859454E+04  0.00000000000E+00 0. -1.
         21    1    1    2  503  505 -0.49677033606E+02 -0.86444577503E+01 -0.17350686848E+02  0.53325234663E+02  0.00000000000E+00 0. -1.
         21    1    1    2  504  502  0.26392857245E+02 -0.29098910099E+02 -0.30707587481E+03  0.30957862066E+03  0.00000000000E+00 0. -1.
         21    1    1    2  505  501 -0.71095525069E+02  0.21405991311E+02  0.16143930575E+02  0.75983002331E+02  0.00000000000E+00 0. -1.
         21    1    1    2  506  504  0.94379701431E+02  0.16337376538E+02 -0.63148979320E+03  0.63871260895E+03  0.00000000000E+00 0. -1.
<scales pt_clust_3="36.57965" pt_clust_4="38.43564" pt_clust_5="129.30261" pt_clust_6="38.43564"></scales>
<clustering>
<clus scale="   36.580">  3  5 -1 -1</clus>
<clus scale="   38.436">  4  6 -1 -1</clus>
<clus scale="  129.303">  1  3  2 -1</clus>
<clus scale="  129.303">  1  3  2 -1</clus>
</clustering>
</event>
<event>
 6    0  0.1361919E+003  0.1029000E+03  0.7546771E-02  0.1274313E+00
         21   -1    0    0  505  501  0.00000000000E+00  0.00000000000E+00  0.60778386464E+03  0.60778386464E+03  0.00000000000E+00 0.  1.
         21   -1    0    0  503  502 -0.00000000000E+00 -0.00000000000E+00 -0.27925378779E+03  0.27925378779E+03  0.00000000000E+00 0. -1.
         21    1    1    2  503  506  0.39848594168E+02 -0.95588907381E+02 -0.24690088196E+03  0.26774091055E+03  0.00000000000E+00 0. -1.
         21    1    1    2  504  501  0.28390666102E+02 -0.26133223928E+02  0.30640012971E+03  0.30882036008E+03  0.00000000000E+00 0.  1.
         21    1    1    2  505  502 -0.44028090382E+02  0.76746146003E+02  0.22925862782E+03  0.24573962257E+03  0.00000000000E+00 0.  1.
         21    1    1    2  506  504 -0.24211169888E+02  0.44975985306E+02  0.39772201272E+02  0.64736759230E+02  0.00000000000E+00 0.  1.
<scales pt_clust_3="102.89996" pt_clust_4="38.58724" pt_clust_5="14000.00000" pt_clust_6="44.78401"></scales>
<clustering>
<clus scale="   38.587">  1  4  2 -1</clus>
<clus scale="   44.784">  1  6  2 -1</clus>
<clus scale="  102.900">  2  3  1 -1</clus>
<clus scale="   38.587">  1  3  2 -1</clus>
</clustering>
</event>
<event>
 6    0  0.1361919E+003  0.1042831E+03  0.7546771E-02  0.1271539E+00
         21   -1    0    0  506  501  0.00000000000E+00  0.00000000000E+00  0.84226113778E+03  0.84226113778E+03  0.00000000000E+00 0.  1.
         21   -1    0    0  503  502 -0.00000000000E+00 -0.00000000000E+00 -0.60867368161E+02  0.60867368161E+02  0.00000000000E+00 0.  1.
         21    1    1    2  503  504  0.68095491908E+02  0.34452884617E+02  0.74385266887E+02  0.10657000144E+03  0.00000000000E+00 0.  1.
         21    1    1    2  504  505  0.14823828892E+01 -0.13530488230E+03  0.10637885963E+03  0.17212225426E+03  0.00000000000E+00 0.  1.
         21    1    1    2  505  501 -0.28706741942E+02  0.26929018845E+02  0.45016822577E+03  0.45188569416E+03  0.00000000000E+00 0.  1.
         21    1    1    2  506  502 -0.40871132855E+02  0.73922978843E+02  0.15046141734E+03  0.17255055610E+03  0.00000000000E+00 0.  1.
<scales pt_clust_3="73.70098" pt_clust_4="14000.00000" pt_clust_5="39.36050" pt_clust_6="104.28309"></scales>
<clustering>
<clus scale="   39.361">  1  5  2 -1</clus>
<clus scale="   73.701">  2  3  1 -1</clus>
<clus scale="  104.283">  1  6  2 -1</clus>
<clus scale="   39.361">  1  3  2 -1</clus>
</clustering>
</event>
<event>
 6    0  0.1361919E+003  0.1856753E+03  0.7546771E-02  0.1162421E+00
         21   -1    0    0  506  501  0.00000000000E+00  0.00000000000E+00  0.29194442700E+04  0.29194442700E+04  0.00000000000E+00 0.  1.
         21   -1    0    0  503  502 -0.00000000000E+00 -0.00000000000E+00 -0.65937879497E+02  0.65937879497E+02  0.00000000000E+00 0.  1.
         21    1    1    2  503  501 -0.32285033034E+02 -0.18591318594E+03  0.21293111133E+03  0.28450956791E+03  0.00000000000E+00 0.  1.
         21    1    1    2  504  502  0.39802930431E+02  0.83852876272E+02  0.62142585684E+02  0.11170174164E+03  0.00000000000E+00 0.  1.
         21    1    1    2  505  504  0.14394451625E+02  0.53506796475E+02  0.14608966571E+03  0.15624457730E+03  0.00000000000E+00 0.  1.
         21    1    1    2  506  505 -0.21912349022E+02  0.48553513189E+02  0.24323430278E+04  0.24329262627E+04  0.00000000000E+00 0.  1.
<scales pt_clust_3="166.87055" pt_clust_4="67.89401" pt_clust_5="67.89401" pt_clust_6="53.26908"></scales>
<clustering>
<clus scale="   53.269">  1  6  2 -1</clus>
<clus scale="   67.894">  4  5 -1 -1</clus>
<clus scale="  166.871">  1  3  2 -1</clus>
<clus scale="   53.269">  1  3  2 -1</clus>
</clustering>
</event>
<event>
 6    0  0.1361919E+003  0.1931534E+03  0.7546771E-02  0.1155648E+00
         21   -1    0    0  505  501  0.00000000000E+00  0.00000000000E+00  0.99430052215E+03  0.99430052215E+03  0.00000000000E+00 0.  1.
         21   -1    0    0  504  502 -0.00000000000E+00 -0.00000000000E+00 -0.67966011445E+03  0.67966011445E+03  0.00000000000E+00 0.  1.
         21    1    1    2  503  502 -0.20229219864E+02 -0.22657655526E+02 -0.41242562951E+03  0.41354261034E+03  0.00000000000E+00 0.  1.
         21    1    1    2  504  506  0.51070216006E+02 -0.17219108189E+03 -0.24503792651E+02  0.18126878247E+03  0.00000000000E+00 0.  1.
         21    1    1    2  505  503 -0.76497526686E+02  0.19353180684E+03 -0.96825871808E+02  0.22952490344E+03  0.00000000000E+00 0.  1.
         21    1    1    2  506  501  0.45656530544E+02  0.13169305715E+01  0.84839570167E+03  0.84962434034E+03  0.00000000000E+00 0.  1.
<scales pt_clust_3="30.37418" pt_clust_4="14000.00000" pt_clust_5="193.15337" pt_clust_6="45.62746"></scales>
<clustering>
<clus scale="   30.374">  2  3  1 -1</clus>
<clus scale="   45.627">  1  6  2 -1</clus>
<clus scale="  193.153">  2  5  1 -1</clus>
<clus scale="   45.627">  1  3  2 -1</clus>
</clustering>
</event>
<event>
 6    0  0.1361919E+003  0.1574296E+03  0.7546771E-02  0.1191630E+00
         21   -1    0    0  505  501  0.00000000000E+00  0.00000000000E+00  0.16576738798E+04  0.16576738798E+04  0.00000000000E+00 0.  1.
         21   -1    0    0  503  502 -0.00000000000E+00 -0.00000000000E+00 -0.15444878839E+03  0.15444878839E+03  0.00000000000E+00 0. -1.
         21    1    1    2  503  501 -0.11531251412E+03 -0.17064898690E+03  0.47933816682E+03  0.52171173153E+03  0.00000000000E+00 0.  1.
         21    1    1    2  504  506  0.46643475246E+02  0.42963391705E+02 -0.65293663315E+02  0.91020488237E+02  0.00000000000E+00 0. -1.
         21    1    1    2  505  504  0.22958324698E+02  0.59264178020E+02  0.11121455465E+04  0.11139600730E+04  0.00000000000E+00 0.  1.
         21    1    1    2  506  502  0.45710714178E+02  0.68421417179E+02 -0.22964958662E+02  0.85430375428E+02  0.00000000000E+00 0. -1.
<scales pt_clust_3="149.58155" pt_clust_4="43.09160" pt_clust_5="63.55570" pt_clust_6="43.09160"></scales>
<clustering>
<clus scale="   43.092">  4  6 -1 -1</clus>
<clus scale="   63.556">  1  5  2 -1</clus>
<clus scale="  149.582">  1  3  2 -1</clus>
<clus scale="   63.556">  1  3  2 -1</clus>
</clustering>
</event>
<event>
 6    0  0.1361919E+003  0.1594169E+03  0.7546771E-02  0.1189357E+00
         21   -1    0    0  503  501  0.00000000000E+00  0.00000000000E+00  0.23041827100E+03  0.23041827100E+03  0.00000000000E+00 0.  1.
         21   -1    0    0  501  502 -0.00000000000E+00 -0.00000000000E+00 -0.28853217763E+03  0.28853217763E+03  0.00000000000E+00 0. -1.
         21    1    1    2  503  506 -0.57262390078E+02  0.12390631121E+02  0.23421604142E+02  0.63095804913E+02  0.00000000000E+00 0. -1.
         21    1    1    2  504  502 -0.46239899956E+02 -0.65418504697E+02 -0.74542366091E+02  0.10942702339E+03  0.00000000000E+00 0. -1.
         21    1    1    2  505  504 -0.60642455095E+02 -0.38005503657E+02 -0.11082483863E+03  0.13192448797E+03  0.00000000000E+00 0.  1.
         21    1    1    2  506  505  0.16414474513E+03  0.91033377233E+02  0.10383169395E+03  0.21450313236E+03  0.00000000000E+00 0.  1.
<scales pt_clust_3="58.58762" pt_clust_4="39.75578" pt_clust_5="39.75578" pt_clust_6="153.76792"></scales>
<clustering>
<clus scale="   39.756">  4  5 -1 -1</clus>
<clus scale="   58.588">  1  3  2 -1</clus>
<clus scale="  153.768">  1  6  2 -1</clus>
<clus scale="   58.588">  1  3  2 -1</clus>
</clustering>
</event>
<event>
 6    0  0.1361919E+003  0.1196744E+03  0.7546771E-02  0.1243635E+00
         21   -1    0    0  505  501  0.00000000000E+00  0.00000000000E+00  0.81625402174E+02  0.81625402174E+02  0.00000000000E+00 0. -1.
         21   -1    0    0  503  502 -0.00000000000E+00 -0.00000000000E+00 -0.39583216890E+03  0.39583216890E+03  0.00000000000E+00 0. -1.
         21    1    1    2  503  506 -0.94888332495E+02  0.50777728655E+02 -0.25373902158E+03  0.27561869393E+03  0.00000000000E+00 0. -1.
         21    1    1    2  504  502  0.20954095768E+02 -0.84561305936E+02 -0.23386383690E+02  0.90203168088E+02  0.00000000000E+00 0. -1.
         21    1    1    2  505  504  0.35951602324E+02 -0.16791189274E+02 -0.25956980722E+02  0.47415467889E+02  0.00000000000E+00 0. -1.
         21    1    1    2  506  501  0.37982634403E+02  0.50574766555E+02 -0.11124380729E+02  0.64220241162E+02  0.00000000000E+00 0. -1.
<scales pt_clust_3="106.43512" pt_clust_4="36.92489" pt_clust_5="36.92489" pt_clust_6="63.24941"></scales>
<clustering>
<clus scale="   36.925">  4  5 -1 -1</clus>
<clus scale="   63.249">  1  6  2 -1</clus>
<clus scale="  106.435">  2  3  1 -1</clus>
<clus scale="   63.249">  1  3  2 -1</clus>
</clustering>
</event>
<event>
 6    0  0.1361919E+003  0.9897882E+02  0.7546771E-02  0.1282458E+00
         21   -1    0    0  506  501  0.00000000000E+00  0.00000000000E+00  0.80847363195E+03  0.80847363195E+03  0.00000000000E+00 0. -1.
         21   -1    0    0  504  502 -0.00000000000E+00 -0.00000000000E+00 -0.12082226369E+03  0.12082226369E+03  0.00000000000E+00 0.  1.
         21    1    1    2  503  501 -0.24926513365E+02 -0.25114001613E+02  0.65575862429E+03  0.65671258362E+03  0.00000000000E+00 0. -1.
         21    1    1    2  504  505  0.27584318034E+02  0.43424187114E+02 -0.13876126183E+02  0.53283219740E+02  0.00000000000E+00 0. -1.
         21    1    1    2  505  503 -0.50937549876E+02  0.68465864020E+02 -0.34066763087E+02  0.91884453911E+02  0.00000000000E+00 0.  1.
         21    1    1    2  506  502  0.48279745206E+02 -0.86776049521E+02  0.79835633238E+02  0.12741563837E+03  0.00000000000E+00 0.  1.
<scales pt_clust_3="35.38424" pt_clust_4="46.98142" pt_clust_5="98.97882" pt_clust_6="14000.00000"></scales>
<clustering>
<clus scale="   35.384">  1  3  2 -1</clus>
<clus scale="   46.981">  2  4  1 -1</clus>
<clus scale="   98.979">  2  5  1 -1</clus>
<clus scale="   35.384">  1  3  2 -1</clus>
</clustering>
</event>
<event>
 6    0  0.1361919E+003  0.1214288E+03  0.7546771E-02  0.1240758E+00
         21   -1    0    0  506  501  0.00000000000E+00  0.00000000000E+00  0.36558421282E+03  0.36558421282E+03  0.00000000000E+00 0.  1.
         21   -1    0    0  505  502 -0.00000000000E+00 -0.00000000000E+00 -0.55595172481E+03  0.55595172481E+03  0.00000000000E+00 0. -1.
         21    1    1    2  503  504  0.42788087678E+02 -0.41877161840E+02  0.10653978740E+03  0.12220983361E+03  0.00000000000E+00 0. -1.
         21    1    1    2  504  502 -0.87164620421E+02 -0.52916914100E+02 -0.49026712170E+02  0.11314366689E+03  0.00000000000E+00 0. -1.
         21    1    1    2  505  501 -0.10214591822E+02  0.10536556297E+03 -0.45735865286E+03  0.46944986643E+03  0.00000000000E+00 0. -1.
         21    1    1    2  506  503  0.54591124565E+02 -0.10571487026E+02  0.20947806564E+03  0.21673257070E+03  0.00000000000E+00 0.  1.
<scales pt_clust_3="50.82279" pt_clust_4="101.96995" pt_clust_5="109.37938" pt_clust_6="50.82279"></scales>
<clustering>
<clus scale="   50.823">  3  6 -1 -1</clus>
<clus scale="  101.970">  2  4  1 -1</clus>
<clus scale="  109.379">  2  5  1 -1</clus>
<clus scale="  121.429">  1  3  2 -1</clus>
</clustering>
</event>
<event>
 6    0  0.1361919E+003  0.1357267E+03  0.7546771E-02  0.1219198E+00
         21   -1    0    0  504  501  0.00000000000E+00  0.00000000000E+00  0.30917808838E+03  0.30917808838E+03  0.00000000000E+00 0.  1.
         21   -1    0    0  506  502 -0.00000000000E+00 -0.00000000000E+00 -0.32330637875E+03  0.32330637875E+03  0.00000000000E+00 0.  1.
         21    1    1    2  503  501  0.32211998108E+02  0.12983331054E+02  0.17591065597E+02  0.38931032560E+02  0.00000000000E+00 0.  1.
         21    1    1    2  504  502 -0.12594573090E+03  0.68722190166E+02  0.16651278907E+03  0.21979894330E+03  0.00000000000E+00 0.  1.
         21    1    1    2  505  503  0.17295519521E+02  0.31168061385E+02  0.66801904439E+02  0.75717088446E+02  0.00000000000E+00 0.  1.
         21    1    1    2  506  505  0.76438213267E+02 -0.11287358260E+03 -0.26503404948E+03  0.29803740282E+03  0.00000000000E+00 0.  1.
<scales pt_clust_3="34.73010" pt_clust_4="135.72665" pt_clust_5="42.85027" pt_clust_6="14000.00000"></scales>
<clustering>
<clus scale="   34.730">  1  3  2 -1</clus>
<clus scale="   42.850">  1  5  2 -1</clus>
<clus scale="  135.727">  1  4  2 -1</clus>
<clus scale="   34.730">  1  3  2 -1</clus>
</clustering>
</event>
<event>
 6    0  0.1361919E+003  0.8886547E+02  0.7546771E-02  0.1305623E+00
         21   -1    0    0  505  501  0.00000000000E+00  0.00000000000E+00  0.16297955329E+03  0.16297955329E+03  0.00000000000E+00 0.  1.
         21   -1    0    0  503  502 -0.00000000000E+00 -0.00000000000E+00 -0.12433970036E+04  0.12433970036E+04  0.00000000000E+00 0.  1.
         21    1    1    2  503  504  0.47830359901E+02  0.37918162484E+02 -0.10101498957E+04  0.10119922639E+04  0.00000000000E+00 0.  1.
         21    1    1    2  504  501 -0.13988689087E+03  0.76761443270E+01 -0.65849826330E+02  0.15480137292E+03  0.00000000000E+00 0.  1.
         21    1    1    2  505  506  0.55522882736E+02 -0.27429896077E+02  0.10550215575E+03  0.12233517309E+03  0.00000000000E+00 0.  1.
         21    1    1    2  506  502  0.36533648238E+02 -0.18164410734E+02 -0.10991988410E+03  0.11724774706E+03  0.00000000000E+00 0.  1.
<scales pt_clust_3="14000.00000" pt_clust_4="88.86547" pt_clust_5="62.23285" pt_clust_6="40.80016"></scales>
<clustering>
<clus scale="   40.800">  2  6  1 -1</clus>
<clus scale="   62.233">  1  5  2 -1</clus>
<clus scale="   88.865">  1  4  2 -1</clus>
<clus scale="   62.233">  1  3  2 -1</clus>
</clustering>
</event>
<event>
 6    0  0.1361919E+003  0.1028323E+03  0.7546771E-02  0.1274450E+00
         21   -1    0    0  504  501  0.00000000000E+00  0.00000000000E+00  0.73604765670E+03  0.73604765670E+03  0.00000000000E+00 0.  1.
         21   -1    0    0  506  502 -0.00000000000E+00 -0.00000000000E+00 -0.35824545722E+03  0.35824545722E+03  0.00000000000E+00 0.  1.
         21    1    1    2  503  501 -0.72527194890E+02  0.41638656315E+02  0.11006820610E+03  0.13823524042E+03  0.00000000000E+00 0. -1.
         21    1    1    2  504  505  0.57319144133E+02 -0.99450144966E+02  0.54095985636E+03  0.55300396184E+03  0.00000000000E+00 0.  1.
         21    1    1    2  505  502  0.19463632678E+02  0.26605925015E+02  0.59937760541E+02  0.68404995297E+02  0.00000000000E+00 0. -1.
         21    1    1    2  506  503 -0.42555819209E+01  0.31205563636E+02 -0.33316362353E+03  0.33464891636E+03  0.00000000000E+00 0.  1.
<scales pt_clust_3="14000.00000" pt_clust_4="102.83229" pt_clust_5="37.10440" pt_clust_6="31.49440"></scales>
<clustering>
<clus scale="   31.494">  2  6  1 -1</clus>
<clus scale="   37.104">  2  5  1 -1</clus>
<clus scale="  102.832">  1  4  2 -1</clus>
<clus scale="  102.832">  1  3  2 -1</clus>
</clustering>
</event>
<event>
 6    0  0.1361919E+003  0.2133883E+03  0.7546771E-02  0.1138911E+00
         21   -1    0    0  505  501  0.00000000000E+00  0.00000000000E+00  0.10672862279E+03  0.10672862279E+03  0.00000000000E+00 0.  1.
         21   -1    0    0  504  502 -0.00000000000E+00 -0.00000000000E+00 -0.12334816973E+04  0.12334816973E+04  0.00000000000E+00 0.  1.
         21    1    1    2  503  501 -0.11979654844E+03 -0.10087818552E+03 -0.31611399440E+02  0.15977140516E+03  0.00000000000E+00 0.  1.
         21    1    1    2  504  503 -0.41295390526E+02 -0.31613713211E+02 -0.61027476485E+02  0.80181600307E+02  0.00000000000E+00 0.  1.
         21    1    1    2  505  506  0.11261304564E+03  0.15256805163E+03 -0.24700139386E+03  0.31139749035E+03  0.00000000000E+00 0.  1.
         21    1    1    2  506  502  0.48478893322E+02 -0.20076152891E+02 -0.78711280470E+03  0.78885982426E+03  0.00000000000E+00 0.  1.
<scales pt_clust_3="42.70059" pt_clust_4="42.70059" pt_clust_5="200.10950" pt_clust_6="52.47147"></scales>
<clustering>
<clus scale="   42.701">  3  4 -1 -1</clus>
<clus scale="   52.471">  2  6  1 -1</clus>
<clus scale="  200.110">  2  5  1 -1</clus>
<clus scale="  213.388">  1  3  2 -1</clus>
</clustering>
</event>
<event>
 6    0  0.1361919E+003  0.1337207E+03  0.7546771E-02  0.1222037E+00
         21   -1    0    0  503  501  0.00000000000E+00  0.00000000000E+00  0.21377523503E+04  0.21377523503E+04  0.00000000000E+00 0. -1.
         21   -1    0    0  506  502 -0.00000000000E+00 -0.00000000000E+00 -0.13375253778E+03  0.13375253778E+03  0.00000000000E+00 0. -1.
         21    1    1    2  503  504 -0.16114995484E+03  0.71819033227E+02  0.35153403876E+02  0.17989731316E+03  0.00000000000E+00 0. -1.
         21    1    1    2  504  502  0.35736168110E+02  0.25074766599E+02  0.78315122813E+02  0.89660895001E+02  0.00000000000E+00 0.  1.
         21    1    1    2  505  501  0.89676707383E+02  0.20755515597E+02  0.18758602029E+04  0.18781171966E+04  0.00000000000E+00 0. -1.
         21    1    1    2  506  505  0.35737079343E+02 -0.11764931542E+03  0.14671082880E+02  0.12382948329E+03  0.00000000000E+00 0. -1.
<scales pt_clust_3="14000.00000" pt_clust_4="43.65567" pt_clust_5="92.40398" pt_clust_6="133.72067"></scales>
<clustering>
<clus scale="   43.656">  2  4  1 -1</clus>
<clus scale="   92.404">  1  5  2 -1</clus>
<clus scale="  133.721">  2  6  1 -1</clus>
<clus scale="   92.404">  1  3  2 -1</clus>
</clustering>
</event>
<event>
 6    0  0.1361919E+003  0.1033753E+03  0.7546771E-02  0.1273354E+00
         21   -1    0    0  504  501  0.00000000000E+00  0.00000000000E+00  0.17347955855E+03  0.17347955855E+03  0.00000000000E+00 0. -1.
         21   -1    0    0  501  502 -0.00000000000E+00 -0.00000000000E+00 -0.25788106582E+03  0.25788106582E+03  0.00000000000E+00 0.  1.
         21    1    1    2  503  502 -0.46444106052E+02  0.12483105408E+02 -0.92691203505E+02  0.10442481561E+03  0.00000000000E+00 0.  1.
         21    1    1    2  504  505 -0.25488616233E+02 -0.62356447317E+02  0.66264473886E+02  0.94493262082E+02  0.00000000000E+00 0.  1.
         21    1    1    2  505  506  0.11669735244E+03  0.72729276965E+02  0.20728272740E+02  0.13905927184E+03  0.00000000000E+00 0. -1.
         21    1    1    2  506  503 -0.44764630154E+02 -0.22855935056E+02 -0.78703050384E+02  0.93383274840E+02  0.00000000000E+00 0.  1.
<scales pt_clust_3="35.61194" pt_clust_4="67.36465" pt_clust_5="96.75240" pt_clust_6="35.61194"></scales>
<clustering>
<clus scale="   35.612">  3  6 -1 -1</clus>
<clus scale="   67.365">  1  4  2 -1</clus>
<clus scale="   96.752">  1  5  2 -1</clus>
<clus scale="   67.365">  1  3  2 -1</clus>
</clustering>
</event>
<event>
 6    0  0.1361919E+003  0.1301737E+03  0.7546771E-02  0.1227198E+00
         21   -1    0    0  505  501  0.00000000000E+00  0.00000000000E+00  0.35010496741E+03  0.35010496741E+03  0.00000000000E+00 0. -1.
         21   -1    0    0  503  502 -0.00000000000E+00 -0.00000000000E+00 -0.21732844258E+03  0.21732844258E+03  0.00000000000E+00 0. -1.
         21    1    1    2  503  506 -0.70675299625E+02 -0.48142072636E+02 -0.14507915776E+03  0.16840611376E+03  0.00000000000E+00 0. -1.
         21    1    1    2  504  501  0.22937571006E+02  0.28335745614E+02  0.23079966887E+03  0.23366115166E+03  0.00000000000E+00 0. -1.
         21    1    1    2  505  502  0.84627450257E+02  0.40810114097E+02  0.69952282424E+02  0.11713493316E+03  0.00000000000E+00 0.  1.
         21    1    1    2  506  504 -0.36889721638E+02 -0.21003787075E+02 -0.22896268706E+02  0.48231211416E+02  0.00000000000E+00 0. -1.
<scales pt_clust_3="34.26097" pt_clust_4="36.45609" pt_clust_5="120.75013" pt_clust_6="34.26097"></scales>
<clustering>
<clus scale="   34.261">  3  6 -1 -1</clus>
<clus scale="   36.456">  1  4  2 -1</clus>
<clus scale="  120.750">  1  5  2 -1</clus>
<clus scale="   36.456">  1  3  2 -1</clus>
</clustering>
</event>
<event>
 6    0  0.1361919E+003  0.1194030E+03  0.7546771E-02  0.1244085E+00
         21   -1    0    0  506  501  0.00000000000E+00  0.00000000000E+00  0.11594764692E+03  0.11594764692E+03  0.00000000000E+00 0. -1.
         21   -1    0    0  504  502 -0.00000000000E+00 -0.00000000000E+00 -0.16288883969E+03  0.16288883969E+03  0.00000000000E+00 0. -1.
         21    1    1    2  503  502  0.12957827924E+02 -0.33081560283E+02 -0.26128041391E+02  0.44101808151E+02  0.00000000000E+00 0. -1.
         21    1    1    2  504  505 -0.79799331808E+02  0.16662849815E+02 -0.15896776136E+02  0.83055953504E+02  0.00000000000E+00 0. -1.
         21    1    1    2  505  501 -0.36040457566E+02 -0.21471701705E+02 -0.58967807524E+00  0.41955884879E+02  0.00000000000E+00 0. -1.
         21    1    1    2  506  503  0.10288196145E+03  0.37890412174E+02 -0.43266971695E+01  0.10972284008E+03  0.00000000000E+00 0. -1.
<scales pt_clust_3="35.52879" pt_clust_4="31.38575" pt_clust_5="31.38575" pt_clust_6="111.09861"></scales>
<clustering>
<clus scale="   31.386">  4  5 -1 -1</clus>
<clus scale="   35.529">  2  3  1 -1</clus>
<clus scale="  111.099">  1  6  2 -1</clus>
<clus scale="  111.099">  1  3  2 -1</clus>
</clustering>
</event>
<event>
 6    0  0.1361919E+003  0.7556388E+02  0.7546771E-02  0.1342134E+00
         21   -1    0    0  504  501  0.00000000000E+00  0.00000000000E+00  0.15907051873E+02  0.15907051873E+02  0.00000000000E+00 0. -1.
         21   -1    0    0  506  502 -0.00000000000E+00 -0.00000000000E+00 -0.23071010221E+04  0.23071010221E+04  0.00000000000E+00 0. -1.
         21    1    1    2  503  501 -0.17102871458E+02  0.38079933907E+02 -0.50775870773E+02  0.65732629882E+02  0.00000000000E+00 0. -1.
         21    1    1    2  504  502 -0.33218822267E+02 -0.12330945046E+03 -0.11434733832E+04  0.11505824998E+04  0.00000000000E+00 0. -1.
         21    1    1    2  505  503  0.48186923508E+02  0.24119273151E+02 -0.18467229998E+03  0.19237353590E+03  0.00000000000E+00 0. -1.
         21    1    1    2  506  505  0.21347702177E+01  0.61110243404E+02 -0.91227241629E+03  0.91431940842E+03  0.00000000000E+00 0. -1.
<scales pt_clust_3="41.74434" pt_clust_4="14000.00000" pt_clust_5="57.91027" pt_clust_6="75.56388"></scales>
<clustering>
<clus scale="   41.744">  1  3  2 -1</clus>
<clus scale="   57.910">  1  5  2 -1</clus>
<clus scale="   75.564">  2  6  1 -1</clus>
<clus scale="   41.744">  1  3  2 -1</clus>
</clustering>
</event>
<event>
 6    0  0.1361919E+003  0.1160756E+03  0.7546771E-02  0.1249715E+00
         21   -1    0    0  506  501  0.00000000000E+00  0.00000000000E+00  0.31896347540E+03  0.31896347540E+03  0.00000000000E+00 0. -1.
         21   -1    0    0  503  502 -0.00000000000E+00 -0.00000000000E+00 -0.22138646855E+03  0.22138646855E+03  0.00000000000E+00 0.  1.
         21    1    1    2  503  501  0.62910445976E+02  0.10034429517E+03  0.77401983071E+02  0.14148416438E+03  0.00000000000E+00 0. -1.
         21    1    1    2  504  505  0.32158220977E+02 -0.32594344764E+02  0.32981371640E+02  0.56429720558E+02  0.00000000000E+00 0. -1.
         21    1    1    2  505  502 -0.72864418986E+02 -0.89992270535E+02 -0.15687397745E+03  0.19498019671E+03  0.00000000000E+00 0.  1.
         21    1    1    2  506  504 -0.22204247968E+02  0.22242320131E+02  0.14406762959E+03  0.14745586230E+03  0.00000000000E+00 0. -1.
<scales pt_clust_3="14000.00000" pt_clust_4="37.67610" pt_clust_5="116.07562" pt_clust_6="31.42848"></scales>
<clustering>
<clus scale="   31.428">  1  6  2 -1</clus>
<clus scale="   37.676">  1  4  2 -1</clus>
<clus scale="  116.076">  2  5  1 -1</clus>
<clus scale="   31.428">  1  3  2 -1</clus>
</clustering>
</event>
<event>
 6    0  0.1361919E+003  0.8555544E+02  0.7546771E-02  0.1313986E+00
         21   -1    0    0  503  501  0.00000000000E+00  0.00000000000E+00  0.14936090569E+03  0.14936090569E+03  0.00000000000E+00 0.  1.
         21   -1    0    0  505  502 -0.00000000000E+00 -0.00000000000E+00 -0.18980587662E+03  0.18980587662E+03  0.00000000000E+00 0.  1.
         21    1    1    2  503  502 -0.54141459748E+02  0.87654715992E+01 -0.52497548033E+01  0.55097105927E+02  0.00000000000E+00 0.  1.
         21    1    1    2  504  501  0.11704811509E+03 -0.26693605176E+02  0.72740550253E+02  0.14037092809E+03  0.00000000000E+00 0.  1.
         21    1    1    2  505  506 -0.18127256108E+02  0.40567685392E+02 -0.45469523892E+02  0.63575247660E+02  0.00000000000E+00 0. -1.
         21    1    1    2  506  504 -0.44779399230E+02 -0.22639551815E+02 -0.62466242496E+02  0.80123500630E+02  0.00000000000E+00 0.  1.
<scales pt_clust_3="14000.00000" pt_clust_4="85.55544" pt_clust_5="44.43348" pt_clust_6="54.34714"></scales>
<clustering>
<clus scale="   44.433">  2  5  1 -1</clus>
<clus scale="   54.347">  2  6  1 -1</clus>
<clus scale="   85.555">  2  4  1 -1</clus>
<clus scale="   85.555">  1  3  2 -1</clus>
</clustering>
</event>
<event>
 6    0  0.1361919E+003  0.1520387E+03  0.7546771E-02  0.1197990E+00
         21   -1    0    0  504  501  0.00000000000E+00  0.00000000000E+00  0.68498797647E+03  0.68498797647E+03  0.00000000000E+00 0. -1.
         21   -1    0    0  505  502 -0.00000000000E+00 -0.00000000000E+00 -0.21394240694E+03  0.21394240694E+03  0.00000000000E+00 0. -1.
         21    1    1    2  503  501  0.35713448548E+02 -0.11197765970E+03  0.18122242198E+03  0.21600002988E+03  0.00000000000E+00 0. -1.
         21    1    1    2  504  502 -0.25727619230E+02 -0.53649435861E+02  0.32980208735E+03  0.33512622873E+03  0.00000000000E+00 0. -1.
         21    1    1    2  505  506  0.28034569663E+02 -0.16669046422E+02 -0.13490127075E+03  0.13878813730E+03  0.00000000000E+00 0. -1.
         21    1    1    2  506  503 -0.38020398981E+02  0.18229614198E+03  0.94922330948E+02  0.20901598751E+03  0.00000000000E+00 0. -1.
<scales pt_clust_3="152.03875" pt_clust_4="59.61031" pt_clust_5="32.61586" pt_clust_6="14000.00000"></scales>
<clustering>
<clus scale="   32.616">  2  5  1 -1</clus>
<clus scale="   59.610">  1  4  2 -1</clus>
<clus scale="  152.039">  1  3  2 -1</clus>
<clus scale="   59.610">  1  3  2 -1</clus>
</clustering>
</event>
<event>
 6    0  0.1361919E+003  0.7586784E+02  0.7546771E-02  0.1341204E+00
         21   -1    0    0  504  501  0.00000000000E+00  0.00000000000E+00  0.50258774191E+03  0.50258774191E+03  0.00000000000E+00 0.  1.
         21   -1    0    0  503  502 -0.00000000000E+00 -0.00000000000E+00 -0.16261614213E+03  0.16261614213E+03  0.00000000000E+00 0.  1.
         21    1    1    2  503  505  0.60520683199E+02  0.40632498398E+02 -0.11251489197E+03  0.13406473786E+03  0.00000000000E+00 0.  1.
         21    1    1    2  504  502  0.46514108274E+02 -0.25235117476E+02  0.36491287048E+03  0.36872995059E+03  0.00000000000E+00 0.  1.
         21    1    1    2  505  506 -0.87204872444E+02 -0.44823931796E+02  0.47715427673E+02  0.10904419598E+03  0.00000000000E+00 0.  1.
         21    1    1    2  506  501 -0.19829919028E+02  0.29426550874E+02  0.39858193608E+02  0.53364999604E+02  0.00000000000E+00 0.  1.
<scales pt_clust_3="14000.00000" pt_clust_4="30.60133" pt_clust_5="75.86784" pt_clust_6="35.48447"></scales>
<clustering>
<clus scale="   35.484">  1  6  2 -1</clus>
<clus scale="   30.601">  1  4  2 -1</clus>
<clus scale="   75.868">  1  5  2 -1</clus>
<clus scale="   35.484">  1  3  2 -1</clus>
</clustering>
</event>
<event>
 6    0  0.1361919E+003  0.7834426E+02  0.7546771E-02  0.1333817E+00
         21   -1    0    0  503  501  0.00000000000E+00  0.00000000000E+00  0.76008984169E+03  0.76008984169E+03  0.00000000000E+00 0.  1.
         21   -1    0    0  505  502 -0.00000000000E+00 -0.00000000000E+00 -0.12997664876E+03  0.12997664876E+03  0.00000000000E+00 0. -1.
         21    1    1    2  503  504  0.91389561798E+02  0.15620080497E+02  0.12585011626E+03  0.15631471678E+03  0.00000000000E+00 0.  1.
         21    1    1    2  504  502  0.12707967856E+02 -0.77160613464E+02 -0.79303672164E+02  0.11137470600E+03  0.00000000000E+00 0. -1.
         21    1    1    2  505  506 -0.65145794381E+02  0.67552604778E+02  0.99749981634E+02  0.13695761306E+03  0.00000000000E+00 0.  1.
         21    1    1    2  506  501 -0.38951735273E+02 -0.60120718113E+01  0.48381676720E+03  0.48541945461E+03  0.00000000000E+00 0.  1.
<scales pt_clust_3="72.53289" pt_clust_4="14000.00000" pt_clust_5="78.34426" pt_clust_6="39.41298"></scales>
<clustering>
<clus scale="   39.413">  1  6  2 -1</clus>
<clus scale="   72.533">  1  3  2 -1</clus>
<clus scale="   78.344">  1  5  2 -1</clus>
<clus scale="   39.413">  1  3  2 -1</clus>
</clustering>
</event>
<event>
 6    0  0.1361919E+003  0.1240926E+03  0.7546771E-02  0.1236494E+00
         21   -1    0    0  503  501  0.00000000000E+00  0.00000000000E+00  0.46247258713E+03  0.46247258713E+03  0.00000000000E+00 0. -1.
         21   -1    0    0  504  502 -0.00000000000E+00 -0.00000000000E+00 -0.11121403752E+04  0.11121403752E+04  0.00000000000E+00 0. -1.
         21    1    1    2  503  502 -0.31769591420E+02 -0.13808723588E+02 -0.60401190240E+02  0.69629674482E+02  0.00000000000E+00 0.  1.
         21    1    1    2  504  505  0.10497310319E+03 -0.61054235997E+02 -0.63955850101E+03  0.65098544403E+03  0.00000000000E+00 0. -1.
         21    1    1    2  505  506 -0.11942826400E+03  0.81367886796E+02 -0.38757992571E+03  0.41364482598E+03  0.00000000000E+00 0. -1.
         21    1    1    2  506  501  0.46224752229E+02 -0.65049272109E+01  0.43787182889E+03  0.44035301785E+03  0.00000000000E+00 0. -1.
<scales pt_clust_3="34.64084" pt_clust_4="14000.00000" pt_clust_5="124.09262" pt_clust_6="46.64522"></scales>
<clustering>
<clus scale="   34.641">  2  3  1 -1</clus>
<clus scale="   46.645">  1  6  2 -1</clus>
<clus scale="  124.093">  1  5  2 -1</clus>
<clus scale="   46.645">  1  3  2 -1</clus>
</clustering>
</event>
<event>
 6    0  0.1361919E+003  0.9176189E+02  0.7546771E-02  0.1298640E+00
         21   -1    0    0  506  501  0.00000000000E+00  0.00000000000E+00  0.54725100126E+02  0.54725100126E+02  0.00000000000E+00 0. -1.
         21   -1    0    0  505  502 -0.00000000000E+00 -0.00000000000E+00 -0.81625754026E+03  0.81625754026E+03  0.00000000000E+00 0. -1.
         21    1    1    2  503  504 -0.27140864971E+02  0.17369713223E+02 -0.30275326027E+02  0.44214577402E+02  0.00000000000E+00 0. -1.
         21    1    1    2  504  501 -0.29845553127E+02  0.11085728344E+02  0.24153567939E+02  0.39963048665E+02  0.00000000000E+00 0.  1.
         21    1    1    2  505  503 -0.51518592896E+02  0.56471453766E+02 -0.36140835668E+03  0.36940383157E+03  0.00000000000E+00 0. -1.
         21    1    1    2  506  502  0.10850501099E+03 -0.84926895333E+02 -0.39400232537E+03  0.41740118275E+03  0.00000000000E+00 0. -1.
<scales pt_clust_3="41.84167" pt_clust_4="31.83788" pt_clust_5="14000.00000" pt_clust_6="91.76189"></scales>
<clustering>
<clus scale="   31.838">  1  4  2 -1</clus>
<clus scale="   41.842">  1  3  2 -1</clus>
<clus scale="   91.762">  1  6  2 -1</clus>
<clus scale="   31.838">  1  3  2 -1</clus>
</clustering>
</event>
<event>
 6    0  0.1361919E+003  0.1526090E+03  0.7546771E-02  0.1197303E+00
         21   -1    0    0  506  501  0.00000000000E+00  0.00000000000E+00  0.18991940997E+04  0.18991940997E+04  0.00000000000E+00 0.  1.
         21   -1    0    0  505  502 -0.00000000000E+00 -0.00000000000E+00 -0.28282700524E+03  0.28282700524E+03  0.00000000000E+00 0.  1.
         21    1    1    2  503  504 -0.20866209680E+02  0.16770403232E+03  0.31178915428E+02  0.17184925351E+03  0.00000000000E+00 0.  1.
         21    1    1    2  504  502  0.42273515510E+02 -0.25320760135E+02 -0.16542210869E+03  0.17260551860E+03  0.00000000000E+00 0.  1.
         21    1    1    2  505  501 -0.69604695756E+02 -0.13916155696E+03  0.97225993983E+02  0.18347655576E+03  0.00000000000E+00 0.  1.
         21    1    1    2  506  503  0.48197389926E+02 -0.32217152331E+01  0.16533842937E+04  0.16540897770E+04  0.00000000000E+00 0.  1.
<scales pt_clust_3="152.60904" pt_clust_4="49.90697" pt_clust_5="14000.00000" pt_clust_6="48.30495"></scales>
<clustering>
<clus scale="   48.305">  1  6  2 -1</clus>
<clus scale="   49.907">  2  4  1 -1</clus>
<clus scale="  152.609">  2  3  1 -1</clus>
<clus scale="   48.305">  1  3  2 -1</clus>
</clustering>
</event>
<event>
 6    0  0.1361919E+003  0.1584766E+03  0.7546771E-02  0.1190428E+00
         21   -1    0    0  506  501  0.00000000000E+00  0.00000000000E+00  0.30450295224E+03  0.30450295224E+03  0.00000000000E+00 0.  1.
         21   -1    0    0  505  502 -0.00000000000E+00 -0.00000000000E+00 -0.50052062104E+03  0.50052062104E+03  0.00000000000E+00 0.  1.
         21    1    1    2  503  501  0.61373508152E+02 -0.20406146423E+02  0.20052757120E+03  0.21069984605E+03  0.00000000000E+00 0.  1.
         21    1    1    2  504  502  0.18070673429E+02 -0.39527601478E+02 -0.18538572236E+03  0.19041230677E+03  0.00000000000E+00 0.  1.
         21    1    1    2  505  503 -0.19659415085E+03  0.91878768915E+02 -0.98658966842E+02  0.23837902605E+03  0.00000000000E+00 0.  1.
         21    1    1    2  506  504  0.11714996926E+03 -0.31945021014E+02 -0.11250055080E+03  0.16553239441E+03  0.00000000000E+00 0.  1.
<scales pt_clust_3="65.16097" pt_clust_4="43.46240" pt_clust_5="158.47657" pt_clust_6="14000.00000"></scales>
<clustering>
<clus scale="   43.462">  2  4  1 -1</clus>
<clus scale="   65.161">  1  3  2 -1</clus>
<clus scale="  158.477">  1  5  2 -1</clus>
<clus scale="   65.161">  1  3  2 -1</clus>
</clustering>
</event>
<event>
 6    0  0.1361919E+003  0.1387635E+03  0.7546771E-02  0.1215003E+00
         21   -1    0    0  505  501  0.00000000000E+00  0.00000000000E+00  0.31950614492E+03  0.31950614492E+03  0.00000000000E+00 0.  1.
         21   -1    0    0  506  502 -0.00000000000E+00 -0.00000000000E+00 -0.19647230891E+03  0.19647230891E+03  0.00000000000E+00 0. -1.
         21    1    1    2  503  501  0.15976204782E+02  0.29512834553E+02  0.62176444240E+02  0.70655196136E+02  0.00000000000E+00 0.  1.
         21    1    1    2  504  502  0.24056201151E+02  0.21544640587E+02 -0.52223229380E+02  0.61401449809E+02  0.00000000000E+00 0. -1.
         21    1    1    2  505  504 -0.72934822237E+02  0.99674195477E+02  0.17790557340E+03  0.21657522154E+03  0.00000000000E+00 0.  1.
         21    1    1    2  506  503  0.32902416304E+02 -0.15073167062E+03 -0.64824952260E+02  0.16734658634E+03  0.00000000000E+00 0. -1.
<scales pt_clust_3="34.48394" pt_clust_4="32.29353" pt_clust_5="138.76350" pt_clust_6="14000.00000"></scales>
<clustering>
<clus scale="   32.294">  2  4  1 -1</clus>
<clus scale="   34.484">  1  3  2 -1</clus>
<clus scale="  138.763">  1  5  2 -1</clus>
<clus scale="   34.484">  1  3  2 -1</clus>
</clustering>
</event>
<event>
 6    0  0.1361919E+003  0.6485787E+02  0.7546771E-02  0.1378507E+00
         21   -1    0    0  504  501  0.00000000000E+00  0.00000000000E+00  0.13794594666E+04  0.13794594666E+04  0.00000000000E+00 0.  1.
         21   -1    0    0  505  502 -0.00000000000E+00 -0.00000000000E+00 -0.16344575161E+03  0.16344575161E+03  0.00000000000E+00 0. -1.
         21    1    1    2  503  502  0.28658071027E+02 -0.18542986338E+02 -0.53034242019E+02  0.63069471251E+02  0.00000000000E+00 0. -1.
         21    1    1    2  504  503 -0.14437612978E+02  0.61165365026E+02 -0.34516532979E+02  0.71701029255E+02  0.00000000000E+00 0. -1.
         21    1    1    2  505  506 -0.78846661486E+02 -0.40538584361E+02 -0.13329700184E+02  0.89654078304E+02  0.00000000000E+00 0. -1.
         21    1    1    2  506  501  0.64626203437E+02 -0.20837943275E+01  0.13168941901E+04  0.13184806394E+04  0.00000000000E+00 0.  1.
<scales pt_clust_3="34.13396" pt_clust_4="51.82141" pt_clust_5="14000.00000" pt_clust_6="64.85787"></scales>
<clustering>
<clus scale="   34.134">  2  3  1 -1</clus>
<clus scale="   51.821">  2  4  1 -1</clus>
<clus scale="   64.858">  1  6  2 -1</clus>
<clus scale="   64.858">  1  3  2 -1</clus>
</clustering>
</event>
<event>
 6    0  0.1361919E+003  0.9218098E+02  0.7546771E-02  0.1297654E+00
         21   -1    0    0  503  501  0.00000000000E+00  0.00000000000E+00  0.71631805276E+03  0.71631805276E+03  0.00000000000E+00 0.  1.
         21   -1    0    0  504  502 -0.00000000000E+00 -0.00000000000E+00 -0.26843662862E+03  0.26843662862E+03  0.00000000000E+00 0.  1.
         21    1    1    2  503  505 -0.96417110884E+02  0.52665684284E+02  0.53932457714E+03  0.55040070229E+03  0.00000000000E+00 0.  1.
         21    1    1    2  504  506 -0.29294494203E+02 -0.56173989110E+02  0.52639921998E+02  0.82368961575E+02  0.00000000000E+00 0.  1.
         21    1    1    2  505  502  0.86146332717E+02  0.33752635602E+02 -0.23265231408E+03  0.25037477967E+03  0.00000000000E+00 0.  1.
         21    1    1    2  506  501  0.39565272370E+02 -0.30244330777E+02  0.88569239080E+02  0.10161023784E+03  0.00000000000E+00 0. -1.
<scales pt_clust_3="92.18098" pt_clust_4="64.50041" pt_clust_5="14000.00000" pt_clust_6="49.80091"></scales>
<clustering>
<clus scale="   49.801">  1  6  2 -1</clus>
<clus scale="   64.500">  1  4  2 -1</clus>
<clus scale="   92.181">  1  3  2 -1</clus>
<clus scale="   49.801">  1  3  2 -1</clus>
</clustering>
</event>
<event>
 6    0  0.1361919E+003  0.1323197E+03  0.7546771E-02  0.1224054E+00
         21   -1    0    0  503  501  0.00000000000E+00  0.00000000000E+00  0.14506839051E+03  0.14506839051E+03  0.00000000000E+00 0.  1.
         21   -1    0    0  505  502 -0.00000000000E+00 -0.00000000000E+00 -0.40035894876E+03  0.40035894876E+03  0.00000000000E+00 0. -1.
         21    1    1    2  503  502 -0.31879871335E+01 -0.50849517973E+02 -0.20002947304E+01  0.50988605776E+02  0.00000000000E+00 0. -1.
         21    1    1    2  504  506 -0.67117298515E+02  0.11686296167E+03 -0.15039439194E+03  0.20194097330E+03  0.00000000000E+00 0. -1.
         21    1    1    2  505  504 -0.35688597166E+02 -0.15315742828E+02 -0.15801454421E+03  0.16271706772E+03  0.00000000000E+00 0. -1.
         21    1    1    2  506  501  0.10599388281E+03 -0.50697700867E+02  0.55118672633E+02  0.12978069248E+03  0.00000000000E+00 0.  1.
<scales pt_clust_3="53.02162" pt_clust_4="132.31972" pt_clust_5="38.83617" pt_clust_6="14000.00000"></scales>
<clustering>
<clus scale="   38.836">  2  5  1 -1</clus>
<clus scale="   53.022">  1  3  2 -1</clus>
<clus scale="  132.320">  2  4  1 -1</clus>
<clus scale="   53.022">  1  3  2 -1</clus>
</clustering>
</event>
<event>
 6    0  0.1361919E+003  0.1144531E+03  0.7546771E-02  0.1252539E+00
         21   -1    0    0  504  501  0.00000000000E+00  0.00000000000E+00  0.10858460031E+04  0.10858460031E+04  0.00000000000E+00 0.  1.
         21   -1    0    0  503  502 -0.00000000000E+00 -0.00000000000E+00 -0.35113536164E+02  0.35113536164E+02  0.00000000000E+00 0. -1.
         21    1    1    2  503  505 -0.14138363048E+03  0.62620211194E+02  0.22513832776E+03  0.27312614017E+03  0.00000000000E+00 0. -1.
         21    1    1    2  504  506  0.51499323247E+02  0.89845628618E+01  0.38759401883E+03  0.39110360021E+03  0.00000000000E+00 0.  1.
         21    1    1    2  505  501  0.54329267965E+02 -0.68876548807E+02  0.36621589582E+03  0.37657632783E+03  0.00000000000E+00 0.  1.
         21    1    1    2  506  502  0.35555039272E+02 -0.27282252487E+01  0.71784224561E+02  0.80153471082E+02  0.00000000000E+00 0.  1.
<scales pt_clust_3="114.45312" pt_clust_4="54.24011" pt_clust_5="14000.00000" pt_clust_6="35.65956"></scales>
<clustering>
<clus scale="   35.660">  2  6  1 -1</clus>
<clus scale="   54.240">  1  4  2 -1</clus>
<clus scale="  114.453">  2  3  1 -1</clus>
<clus scale="   54.240">  1  3  2 -1</clus>
</clustering>
</event>
<event>
 6    0  0.1361919E+003  0.1472867E+03  0.7546771E-02  0.1203847E+00
         21   -1    0    0  504  501  0.00000000000E+00  0.00000000000E+00  0.24643344627E+03  0.24643344627E+03  0.00000000000E+00 0. -1.
         21   -1    0    0  505  502 -0.00000000000E+00 -0.00000000000E+00 -0.87583116079E+03  0.87583116079E+03  0.00000000000E+00 0. -1.
         21    1    1    2  503  502 -0.12536987151E+03  0.53509093226E+02 -0.41205927877E+02  0.14240349796E+03  0.00000000000E+00 0. -1.
         21    1    1    2  504  503 -0.56605303744E+02  0.10578558024E+02  0.15167558353E+03  0.16223917203E+03  0.00000000000E+00 0. -1.
         21    1    1    2  505  506  0.14794517719E+03 -0.21385730557E+02 -0.74766772312E+03  0.76246452319E+03  0.00000000000E+00 0. -1.
         21    1    1    2  506  501  0.34029998060E+02 -0.42701920693E+02  0.78003529580E+01  0.55157413872E+02  0.00000000000E+00 0.  1.
<scales pt_clust_3="14000.00000" pt_clust_4="37.85425" pt_clust_5="147.28669" pt_clust_6="54.60307"></scales>
<clustering>
<clus scale="   54.603">  1  6  2 -1</clus>
<clus scale="   37.854">  1  4  2 -1</clus>
<clus scale="  147.287">  2  5  1 -1</clus>
<clus scale="   54.603">  1  3  2 -1</clus>
</clustering>
</event>
<event>
 6    0  0.1361919E+003  0.9309690E+02  0.7546771E-02  0.1295521E+00
         21   -1    0    0  503  501  0.00000000000E+00  0.00000000000E+00  0.38992206426E+03  0.38992206426E+03  0.00000000000E+00 0.  1.
         21   -1    0    0  504  502 -0.00000000000E+00 -0.00000000000E+00 -0.12588349585E+03  0.12588349585E+03  0.00000000000E+00 0.  1.
         21    1    1    2  503  502 -0.87727420412E+02 -0.49663919869E+02 -0.32476165491E+02  0.10591178666E+03  0.00000000000E+00 0.  1.
         21    1    1    2  504  506  0.76669129303E+01  0.11144248018E+03  0.33290155272E+02  0.11656089559E+03  0.00000000000E+00 0.  1.
         21    1    1    2  505  501  0.58412813528E+02  0.50646069013E+01  0.13335986480E+03  0.14567965049E+03  0.00000000000E+00 0.  1.
         21    1    1    2  506  505  0.21647693953E+02 -0.66843167214E+02  0.12986471383E+03  0.14765322737E+03  0.00000000000E+00 0.  1.
<scales pt_clust_3="14000.00000" pt_clust_4="93.09690" pt_clust_5="58.63196" pt_clust_6="83.77654"></scales>
<clustering>
<clus scale="   58.632">  1  5  2 -1</clus>
<clus scale="   83.777">  1  6  2 -1</clus>
<clus scale="   93.097">  1  4  2 -1</clus>
<clus scale="   58.632">  1  3  2 -1</clus>
</clustering>
</event>
<event>
 6    0  0.1361919E+003  0.8135669E+02  0.7546771E-02  0.1325245E+00
         21   -1    0    0  506  501  0.00000000000E+00  0.00000000000E+00  0.23130099564E+04  0.23130099564E+04  0.00000000000E+00 0. -1.
         21   -1    0    0  503  502 -0.00000000000E+00 -0.00000000000E+00 -0.14480470472E+04  0.14480470472E+04  0.00000000000E+00 0. -1.
         21    1    1    2  503  505 -0.23158588226E+02 -0.77971259761E+02 -0.14236981258E+04  0.14260197022E+04  0.00000000000E+00 0. -1.
         21    1    1    2  504  501 -0.42269882170E+02  0.40246412165E+02  0.18090204938E+04  0.18099617851E+04  0.00000000000E+00 0. -1.
         21    1    1    2  505  504  0.53180536018E+02  0.70500699292E+02  0.66732416770E+02  0.11068754880E+03  0.00000000000E+00 0.  1.
         21    1    1    2  506  502  0.12247934378E+02 -0.32775851697E+02  0.41290812443E+03  0.41438796746E+03  0.00000000000E+00 0. -1.
<scales pt_clust_3="81.35669" pt_clust_4="31.90354" pt_clust_5="14000.00000" pt_clust_6="34.98955"></scales>
<clustering>
<clus scale="   34.990">  1  6  2 -1</clus>
<clus scale="   31.904">  1  4  2 -1</clus>
<clus scale="   81.357">  2  3  1 -1</clus>
<clus scale="   34.990">  1  3  2 -1</clus>
</clustering>
</event>
<event>
 6    0  0.1361919E+003  0.1044629E+03  0.7546771E-02  0.1271182E+00
         21   -1    0    0  505  501  0.00000000000E+00  0.00000000000E+00  0.64379210625E+02  0.64379210625E+02  0.00000000000E+00 0. -1.
         21   -1    0    0  506  502 -0.00000000000E+00 -0.00000000000E+00 -0.94238071338E+03  0.94238071338E+03  0.00000000000E+00 0.  1.
         21    1    1    2  503  504  0.84784913111E+02 -0.36701640444E+02 -0.37290564242E+03  0.38417978871E+03  0.00000000000E+00 0.  1.
         21    1    1    2  504  501 -0.36400083915E+02  0.62190091294E+02  0.10777011486E+02  0.72860946609E+02  0.00000000000E+00 0. -1.
         21    1    1    2  505  502 -0.66361229045E+02  0.70776741500E+00 -0.50835035274E+02  0.83597335283E+02  0.00000000000E+00 0. -1.
         21    1    1    2  506  503  0.17976399849E+02 -0.26196218265E+02 -0.46503783654E+03  0.46612185340E+03  0.00000000000E+00 0.  1.
<scales pt_clust_3="104.46288" pt_clust_4="14000.00000" pt_clust_5="63.89681" pt_clust_6="31.77094"></scales>
<clustering>
<clus scale="   31.771">  2  6  1 -1</clus>
<clus scale="   63.897">  1  5  2 -1</clus>
<clus scale="  104.463">  2  3  1 -1</clus>
<clus scale="   63.897">  1  3  2 -1</clus>
</clustering>
</event>
<event>
 6    0  0.1361919E+003  0.8180965E+02  0.7546771E-02  0.1323993E+00
         21   -1    0    0  504  501  0.00000000000E+00  0.00000000000E+00  0.99901865853E+02  0.99901865853E+02  0.00000000000E+00 0. -1.
         21   -1    0    0  503  502 -0.00000000000E+00 -0.00000000000E+00 -0.28127325640E+03  0.28127325640E+03  0.00000000000E+00 0. -1.
         21    1    1    2  503  501  0.68063617418E+02  0.48072655509E+02 -0.68852541519E+01  0.83612456897E+02  0.00000000000E+00 0. -1.
         21    1    1    2  504  506  0.13398531103E+02 -0.55946163258E+02 -0.17332959291E+02  0.60082653876E+02  0.00000000000E+00 0. -1.
         21    1    1    2  505  502 -0.17658971315E+02  0.66701928897E+02 -0.12891027652E+03  0.14621506755E+03  0.00000000000E+00 0. -1.
         21    1    1    2  506  505 -0.63803177206E+02 -0.58828421148E+02 -0.28242900580E+02  0.91264943924E+02  0.00000000000E+00 0. -1.
<scales pt_clust_3="81.80965" pt_clust_4="57.52820" pt_clust_5="62.66320" pt_clust_6="14000.00000"></scales>
<clustering>
<clus scale="   57.528">  1  4  2 -1</clus>
<clus scale="   62.663">  2  5  1 -1</clus>
<clus scale="   81.810">  1  3  2 -1</clus>
<clus scale="   57.528">  1  3  2 -1</clus>
</clustering>
</event>
<event>
 6    0  0.1361919E+003  0.1240525E+03  0.7546771E-02  0.1236558E+00
         21   -1    0    0  504  501  0.00000000000E+00  0.00000000000E+00  0.19328400118E+03  0.19328400118E+03  0.00000000000E+00 0.  1.
         21   -1    0    0  503  502 -0.00000000000E+00 -0.00000000000E+00 -0.48137512835E+03  0.48137512835E+03  0.00000000000E+00 0.  1.
         21    1    1    2  503  506 -0.31329723810E+01 -0.38975084940E+02 -0.20552965438E+03  0.20921594488E+03  0.00000000000E+00 0.  1.
         21    1    1    2  504  505  0.63558264404E+02  0.40388614270E+01  0.10032257954E+03  0.11883006918E+03  0.00000000000E+00 0.  1.
         21    1    1    2  505  502  0.69548866419E+02  0.47957963970E+02  0.35906835063E+02  0.91794945027E+02  0.00000000000E+00 0.  1.
         21    1    1    2  506  501 -0.12997415844E+03 -0.13021740457E+02 -0.21879088739E+03  0.25481817045E+03  0.00000000000E+00 0.  1.
<scales pt_clust_3="39.10080" pt_clust_4="63.51084" pt_clust_5="124.05246" pt_clust_6="14000.00000"></scales>
<clustering>
<clus scale="   39.101">  2  3  1 -1</clus>
<clus scale="   63.511">  1  4  2 -1</clus>
<clus scale="  124.052">  1  5  2 -1</clus>
<clus scale="   63.511">  1  3  2 -1</clus>
</clustering>
</event>
<event>
 6    0  0.1361919E+003  0.1018961E+03  0.7546771E-02  0.1276358E+00
         21   -1    0    0  504  501  0.00000000000E+00  0.00000000000E+00  0.59302343434E+03  0.59302343434E+03  0.00000000000E+00 0. -1.
         21   -1    0    0  505  502 -0.00000000000E+00 -0.00000000000E+00 -0.43901630065E+02  0.43901630065E+02  0.00000000000E+00 0.  1.
         21    1    1    2  503  506  0.57491010099E+02 -0.46689362041E+02  0.26125896405E+03  0.27155360257E+03  0.00000000000E+00 0. -1.
         21    1    1    2  504  502  0.61963239036E+02  0.42606768326E+01  0.10098435406E+03  0.11855562460E+03  0.00000000000E+00 0. -1.
         21    1    1    2  505  503 -0.96340037187E+02  0.61720157594E+02  0.90607342471E+02  0.14594680924E+03  0.00000000000E+00 0.  1.
         21    1    1    2  506  501 -0.23114211949E+02 -0.19291472386E+02  0.96271143688E+02  0.10086902799E+03  0.00000000000E+00 0.  1.
<scales pt_clust_3="14000.00000" pt_clust_4="56.83183" pt_clust_5="101.89615" pt_clust_6="30.10694"></scales>
<clustering>
<clus scale="   30.107">  1  6  2 -1</clus>
<clus scale="   56.832">  1  4  2 -1</clus>
<clus scale="  101.896">  2  5  1 -1</clus>
<clus scale="   30.107">  1  3  2 -1</clus>
</clustering>
</event>
<event>
 6    0  0.1361919E+003  0.1024618E+03  0.7546771E-02  0.1275203E+00
         21   -1    0    0  504  501  0.00000000000E+00  0.00000000000E+00  0.10348987138E+03  0.10348987138E+03  0.00000000000E+00 0.  1.
         21   -1    0    0  505  502 -0.00000000000E+00 -0.00000000000E+00 -0.50272970408E+03  0.50272970408E+03  0.00000000000E+00 0.  1.
         21    1    1    2  503  506 -0.36452542218E+02 -0.32113905607E+02  0.39505201265E+02  0.62615906082E+02  0.00000000000E+00 0.  1.
         21    1    1    2  504  503 -0.65946986109E+01  0.30359005620E+02  0.16962835661E+02  0.35396286043E+02  0.00000000000E+00 0.  1.
         21    1    1    2  505  501  0.13776365500E+02 -0.10191063590E+03 -0.31265655342E+03  0.32913475410E+03  0.00000000000E+00 0.  1.
         21    1    1    2  506  502  0.29270875330E+02  0.10366553589E+03 -0.14305131620E+03  0.17907262924E+03  0.00000000000E+00 0.  1.
<scales pt_clust_3="42.55367" pt_clust_4="31.06701" pt_clust_5="102.46179" pt_clust_6="14000.00000"></scales>
<clustering>
<clus scale="   31.067">  1  4  2 -1</clus>
<clus scale="   42.554">  1  3  2 -1</clus>
<clus scale="  102.462">  2  5  1 -1</clus>
<clus scale="   31.067">  1  3  2 -1</clus>
</clustering>
</event>
<event>
 6    0  0.1361919E+003  0.8046393E+02  0.7546771E-02  0.1327740E+00
         21   -1    0    0  505  501  0.00000000000E+00  0.00000000000E+00  0.24722748812E+02  0.24722748812E+02  0.00000000000E+00 0. -1.
         21   -1    0    0  503  502 -0.00000000000E+00 -0.00000000000E+00 -0.12308752713E+04  0.12308752713E+04  0.00000000000E+00 0. -1.
         21    1    1    2  503  501 -0.29089416632E+02  0.74299593451E+02 -0.19181135660E+03  0.20774556618E+03  0.00000000000E+00 0. -1.
         21    1    1    2  504  502 -0.46602950221E+02 -0.13026224784E+02 -0.48049673284E+03  0.48292714540E+03  0.00000000000E+00 0. -1.
         21    1    1    2  505  506  0.91348136719E+02  0.14653622412E+02 -0.17659896419E+03  0.19936500416E+03  0.00000000000E+00 0. -1.
         21    1    1    2  506  504 -0.15655769866E+02 -0.75926991079E+02 -0.35724546884E+03  0.36556030434E+03  0.00000000000E+00 0. -1.
<scales pt_clust_3="14000.00000" pt_clust_4="48.38923" pt_clust_5="80.46393" pt_clust_6="77.59358"></scales>
<clustering>
<clus scale="   48.389">  2  4  1 -1</clus>
<clus scale="   80.464">  1  5  2 -1</clus>
<clus scale="   77.594">  2  6  1 -1</clus>
<clus scale="   80.464">  1  3  2 -1</clus>
</clustering>
</event>
<event>
 6    0  0.1361919E+003  0.1980021E+03  0.7546771E-02  0.1151436E+00
         21   -1    0    0  503  501  0.00000000000E+00  0.00000000000E+00  0.59868198869E+03  0.59868198869E+03  0.00000000000E+00 0.  1.
         21   -1    0    0  505  502 -0.00000000000E+00 -0.00000000000E+00 -0.34982447972E+03  0.34982447972E+03  0.00000000000E+00 0.  1.
         21    1    1    2  503  504 -0.72386669787E+01  0.49358468673E+02  0.42586458282E+03  0.42877651478E+03  0.00000000000E+00 0.  1.
         21    1    1    2  504  502  0.15458293612E+03 -0.12019950237E+03 -0.87641330884E+02  0.21453393063E+03  0.00000000000E+00 0.  1.
         21    1    1    2  505  506 -0.17665862936E+03  0.95947999897E+02 -0.13745560051E+03  0.24353302060E+03  0.00000000000E+00 0.  1.
         21    1    1    2  506  501  0.29314360214E+02 -0.25106966200E+02  0.48089857542E+02  0.61663002400E+02  0.00000000000E+00 0.  1.
<scales pt_clust_3="33.57730" pt_clust_4="198.00207" pt_clust_5="14000.00000" pt_clust_6="38.59652"></scales>
<clustering>
<clus scale="   38.597">  1  6  2 -1</clus>
<clus scale="   33.577">  1  3  2 -1</clus>
<clus scale="  198.002">  1  4  2 -1</clus>
<clus scale="   38.597">  1  3  2 -1</clus>
</clustering>
</event>
<event>
 6    0  0.1361919E+003  0.1624341E+03  0.7546771E-02  0.1185976E+00
         21   -1    0    0  506  501  0.00000000000E+00  0.00000000000E+00  0.34515025450E+03  0.34515025450E+03  0.00000000000E+00 0. -1.
         21   -1    0    0  504  502 -0.00000000000E+00 -0.00000000000E+00 -0.29481165126E+03  0.29481165126E+03  0.00000000000E+00 0. -1.
         21    1    1    2  503  502 -0.13183228469E+03 -0.30271532108E+02  0.56511300156E+02  0.14659346502E+03  0.00000000000E+00 0. -1.
         21    1    1    2  504  505 -0.29350602530E+02 -0.11831651294E+02 -0.11877675935E+03  0.12292015458E+03  0.00000000000E+00 0. -1.
         21    1    1    2  505  501  0.17423903764E+03  0.92882698639E+02 -0.46564767711E+02  0.20286625036E+03  0.00000000000E+00 0. -1.
         21    1    1    2  506  503 -0.13056150420E+02 -0.50779515237E+02  0.15916883014E+03  0.16758203579E+03  0.00000000000E+00 0. -1.
<scales pt_clust_3="162.43405" pt_clust_4="31.64563" pt_clust_5="14000.00000" pt_clust_6="52.88853"></scales>
<clustering>
<clus scale="   31.646">  2  4  1 -1</clus>
<clus scale="   52.889">  1  6  2 -1</clus>
<clus scale="  162.434">  1  3  2 -1</clus>
<clus scale="   52.889">  1  3  2 -1</clus>
</clustering>
</event>
<event>
 6    0  0.1361919E+003  0.6667969E+02  0.7546771E-02  0.1371762E+00
         21   -1    0    0  506  501  0.00000000000E+00  0.00000000000E+00  0.20696470511E+03  0.20696470511E+03  0.00000000000E+00 0. -1.
         21   -1    0    0  505  502 -0.00000000000E+00 -0.00000000000E+00 -0.23946723627E+04  0.23946723627E+04  0.00000000000E+00 0. -1.
         21    1    1    2  503  501 -0.71582796119E+01 -0.42524488284E+02  0.17339728452E+03  0.17867901765E+03  0.00000000000E+00 0. -1.
         21    1    1    2  504  502 -0.40435070685E+00  0.46771390366E+02 -0.21791957837E+04  0.21796976832E+04  0.00000000000E+00 0. -1.
         21    1    1    2  505  503  0.76075078682E+01  0.78045121082E+02 -0.76691213116E+02  0.10968344118E+03  0.00000000000E+00 0.  1.
         21    1    1    2  506  504 -0.44877549483E-01 -0.82292023164E+02 -0.10521794530E+03  0.13357692579E+03  0.00000000000E+00 0. -1.
<scales pt_clust_3="43.12277" pt_clust_4="46.42863" pt_clust_5="14000.00000" pt_clust_6="66.67969"></scales>
<clustering>
<clus scale="   43.123">  1  3  2 -1</clus>
<clus scale="   46.429">  2  4  1 -1</clus>
<clus scale="   66.680">  2  6  1 -1</clus>
<clus scale="   43.123">  1  3  2 -1</clus>
</clustering>
</event>
<event>
 6    0  0.1361919E+003  0.8882866E+02  0.7546771E-02  0.1305713E+00
         21   -1    0    0  503  501  0.00000000000E+00  0.00000000000E+00  0.47741280049E+02  0.47741280049E+02  0.00000000000E+00 0.  1.
         21   -1    0    0  506  502 -0.00000000000E+00 -0.00000000000E+00 -0.12507829358E+04  0.12507829358E+04  0.00000000000E+00 0.  1.
         21    1    1    2  503  505 -0.72722093511E+01  0.10554200876E+03 -0.34913163152E+03  0.36480802728E+03  0.00000000000E+00 0.  1.
         21    1    1    2  504  501  0.60045205948E+02 -0.13025552989E+02  0.85391032264E+01  0.62032314740E+02  0.00000000000E+00 0.  1.
         21    1    1    2  505  502 -0.35388951149E+02 -0.30193029189E+02 -0.17101568682E+03  0.17722968717E+03  0.00000000000E+00 0.  1.
         21    1    1    2  506  504 -0.17384045449E+02 -0.62323426584E+02 -0.69143344067E+03  0.69445418669E+03  0.00000000000E+00 0.  1.
<scales pt_clust_3="88.82866" pt_clust_4="60.74859" pt_clust_5="46.51878" pt_clust_6="14000.00000"></scales>
<clustering>
<clus scale="   46.519">  2  5  1 -1</clus>
<clus scale="   60.749">  1  4  2 -1</clus>
<clus scale="   88.829">  1  3  2 -1</clus>
<clus scale="   60.749">  1  3  2 -1</clus>
</clustering>
</event>
<event>
 6    0  0.1361919E+003  0.1043541E+03  0.7546771E-02  0.1271398E+00
         21   -1    0    0  504  501  0.00000000000E+00  0.00000000000E+00  0.67489509065E+03  0.67489509065E+03  0.00000000000E+00 0.  1.
         21   -1    0    0  506  502 -0.00000000000E+00 -0.00000000000E+00 -0.39874299497E+03  0.39874299497E+03  0.00000000000E+00 0.  1.
         21    1    1    2  503  501  0.39555948006E+02  0.85266791386E+01  0.54211179727E+03  0.54361988376E+03  0.00000000000E+00 0.  1.
         21    1    1    2  504  502  0.27879183448E+01  0.17131010418E+03 -0.61646681165E+02  0.18208579731E+03  0.00000000000E+00 0.  1.
         21    1    1    2  505  503 -0.73041275281E+01 -0.91223099350E+02  0.28926917918E+02  0.95977969942E+02  0.00000000000E+00 0.  1.
         21    1    1    2  506  505 -0.35039738823E+02 -0.88613683966E+02 -0.23323993834E+03  0.25195443461E+03  0.00000000000E+00 0.  1.
<scales pt_clust_3="40.46452" pt_clust_4="104.35407" pt_clust_5="87.93278" pt_clust_6="14000.00000"></scales>
<clustering>
<clus scale="   40.465">  1  3  2 -1</clus>
<clus scale="   87.933">  1  5  2 -1</clus>
<clus scale="  104.354">  1  4  2 -1</clus>
<clus scale="   40.465">  1  3  2 -1</clus>
</clustering>
</event>
<event>
 6    0  0.1361919E+003  0.1194536E+03  0.7546771E-02  0.1244001E+00
         21   -1    0    0  502  501  0.00000000000E+00  0.00000000000E+00  0.10574243392E+04  0.10574243392E+04  0.00000000000E+00 0.  1.
         21   -1    0    0  506  502 -0.00000000000E+00 -0.00000000000E+00 -0.85712530649E+02  0.85712530649E+02  0.00000000000E+00 0. -1.
         21    1    1    2  503  504  0.14030728829E+02  0.45992980842E+02 -0.11614219069E+02  0.49468229428E+02  0.00000000000E+00 0. -1.
         21    1    1    2  504  501  0.75067627262E+02 -0.76532315840E+02  0.86899879345E+03  0.87558623051E+03  0.00000000000E+00 0.  1.
         21    1    1    2  505  503 -0.33655595495E+02  0.85806927440E+02  0.17925195380E+02  0.93898032643E+02  0.00000000000E+00 0. -1.
         21    1    1    2  506  505 -0.55442760596E+02 -0.55267592441E+02  0.96402038805E+02  0.12418437729E+03  0.00000000000E+00 0. -1.
<scales pt_clust_3="37.93005" pt_clust_4="107.29143" pt_clust_5="37.93005" pt_clust_6="78.28414"></scales>
<clustering>
<clus scale="   37.930">  3  5 -1 -1</clus>
<clus scale="   78.284">  2  6  1 -1</clus>
<clus scale="  107.291">  1  4  2 -1</clus>
<clus scale="  107.291">  1  3  2 -1</clus>
</clustering>
</event>
<event>
 6    0  0.1361919E+003  0.9147724E+02  0.7546771E-02  0.1299313E+00
         21   -1    0    0  506  501  0.00000000000E+00  0.00000000000E+00  0.14562857880E+04  0.14562857880E+04  0.00000000000E+00 0.  1.
         21   -1    0    0  504  502 -0.00000000000E+00 -0.00000000000E+00 -0.21064374952E+03  0.21064374952E+03  0.00000000000E+00 0. -1.
         21    1    1    2  503  501  0.28414968045E+02  0.19410375002E+02  0.10303030471E+04  0.10308775592E+04  0.00000000000E+00 0.  1.
         21    1    1    2  504  503 -0.58978574750E+02 -0.93152088067E+02  0.30138506949E+03  0.32091859389E+03  0.00000000000E+00 0. -1.
         21    1    1    2  505  502 -0.32415017728E+02 -0.32764843037E+01 -0.17721766029E+03  0.18018759070E+03  0.00000000000E+00 0. -1.
         21    1    1    2  506  505  0.62978624433E+02  0.77018197369E+02  0.91171582112E+02  0.13494579373E+03  0.00000000000E+00 0. -1.
<scales pt_clust_3="34.15477" pt_clust_4="91.47724" pt_clust_5="32.58019" pt_clust_6="14000.00000"></scales>
<clustering>
<clus scale="   32.580">  2  5  1 -1</clus>
<clus scale="   34.155">  1  3  2 -1</clus>
<clus scale="   91.477">  1  4  2 -1</clus>
<clus scale="   34.155">  1  3  2 -1</clus>
</clustering>
</event>
<event>
 6    0  0.1361919E+003  0.1123371E+03  0.7546771E-02  0.1256302E+00
         21   -1    0    0  503  501  0.00000000000E+00  0.00000000000E+00  0.15654260217E+03  0.15654260217E+03  0.00000000000E+00 0.  1.
         21   -1    0    0  504  502 -0.00000000000E+00 -0.00000000000E+00 -0.75080768080E+03  0.75080768080E+03  0.00000000000E+00 0.  1.
         21    1    1    2  503  506 -0.16268531345E+02  0.38137259047E+02  0.11643038324E+03  0.12359267689E+03  0.00000000000E+00 0.  1.
         21    1    1    2  504  505 -0.85542100110E+01  0.10272340011E+03 -0.12991107357E+03  0.16583774743E+03  0.00000000000E+00 0. -1.
         21    1    1    2  505  501 -0.95604592176E+01 -0.12347325422E+03 -0.20032619920E+03  0.23551567458E+03  0.00000000000E+00 0.  1.
         21    1    1    2  506  502  0.34383200573E+02 -0.17387404932E+02 -0.38045818911E+03  0.38240418407E+03  0.00000000000E+00 0.  1.
<scales pt_clust_3="41.17707" pt_clust_4="14000.00000" pt_clust_5="112.33711" pt_clust_6="38.52955"></scales>
<clustering>
<clus scale="   38.530">  2  6  1 -1</clus>
<clus scale="   41.177">  1  3  2 -1</clus>
<clus scale="  112.337">  1  5  2 -1</clus>
<clus scale="   41.177">  1  3  2 -1</clus>
</clustering>
</event>
<event>
 6    0  0.1361919E+003  0.2992624E+03  0.7546771E-02  0.1085610E+00
         21   -1    0    0  506  501  0.00000000000E+00  0.00000000000E+00  0.11074208528E+04  0.11074208528E+04  0.00000000000E+00 0. -1.
         21   -1    0    0  505  502 -0.00000000000E+00 -0.00000000000E+00 -0.22071751101E+03  0.22071751101E+03  0.00000000000E+00 0. -1.
         21    1    1    2  503  502  0.54646869182E+02 -0.24499505547E+03  0.31498857363E+03  0.40277370698E+03  0.00000000000E+00 0. -1.
         21    1    1    2  504  501 -0.89041649703E+02  0.20822462964E+03 -0.43302654549E+02  0.23056676183E+03  0.00000000000E+00 0. -1.
         21    1    1    2  505  504  0.27385638302E+02  0.77016225100E+02  0.33929489670E+01  0.81810660776E+02  0.00000000000E+00 0. -1.
         21    1    1    2  506  503  0.70091422180E+01 -0.40245799272E+02  0.61162447377E+03  0.61298723425E+03  0.00000000000E+00 0. -1.
<scales pt_clust_3="280.59739" pt_clust_4="62.37117" pt_clust_5="62.37117" pt_clust_6="40.85159"></scales>
<clustering>
<clus scale="   40.852">  1  6  2 -1</clus>
<clus scale="   62.371">  4  5 -1 -1</clus>
<clus scale="  280.597">  1  3  2 -1</clus>
<clus scale="   40.852">  1  3  2 -1</clus>
</clustering>
</event>
<event>
 6    0  0.1361919E+003  0.2475934E+03  0.7546771E-02  0.1114835E+00
         21   -1    0    0  505  501  0.00000000000E+00  0.00000000000E+00  0.13521111482E+04  0.13521111482E+04  0.00000000000E+00 0. -1.
         21   -1    0    0  506  502 -0.00000000000E+00 -0.00000000000E+00 -0.46033065592E+03  0.46033065592E+03  0.00000000000E+00 0. -1.
         21    1    1    2  503  502 -0.16074822871E+02  0.15394488200E+03 -0.35661829563E+03  0.38875961133E+03  0.00000000000E+00 0. -1.
         21    1    1    2  504  503 -0.84962672662E+02 -0.29533018087E+03  0.78512748412E+03  0.84312735562E+03  0.00000000000E+00 0. -1.
         21    1    1    2  505  504  0.82752825971E+02  0.18812100848E+03  0.48433004096E+03  0.52613033805E+03  0.00000000000E+00 0. -1.
         21    1    1    2  506  501  0.18284669562E+02 -0.46735709608E+02 -0.21058737163E+02  0.54424499120E+02  0.00000000000E+00 0.  1.
<scales pt_clust_3="112.72782" pt_clust_4="247.59339" pt_clust_5="14000.00000" pt_clust_6="50.18521"></scales>
<clustering>
<clus scale="   50.185">  2  6  1 -1</clus>
<clus scale="  112.728">  2  3  1 -1</clus>
<clus scale="  247.593">  2  4  1 -1</clus>
<clus scale="  247.593">  1  3  2 -1</clus>
</clustering>
</event>
<event>
 6    0  0.1361919E+003  0.2471020E+03  0.7546771E-02  0.1115150E+00
         21   -1    0    0  505  501  0.00000000000E+00  0.00000000000E+00  0.89392669357E+03  0.89392669357E+03  0.00000000000E+00 0. -1.
         21   -1    0    0  506  502 -0.00000000000E+00 -0.00000000000E+00 -0.24032708052E+03  0.24032708052E+03  0.00000000000E+00 0. -1.
         21    1    1    2  503  501  0.26676517822E+02  0.22249309523E+03  0.21571388530E+02  0.22512249739E+03  0.00000000000E+00 0. -1.
         21    1    1    2  504  502 -0.82265764005E+02  0.24836275988E+02 -0.69587353943E+02  0.11057529725E+03  0.00000000000E+00 0.  1.
         21    1    1    2  505  504  0.16180197122E+02 -0.25216705047E+03  0.71365250764E+03  0.75706665610E+03  0.00000000000E+00 0. -1.
         21    1    1    2  506  503  0.39409049061E+02  0.48376792592E+01 -0.12036929175E+02  0.41489323355E+02  0.00000000000E+00 0. -1.
<scales pt_clust_3="14000.00000" pt_clust_4="70.93214" pt_clust_5="247.10197" pt_clust_6="39.70486"></scales>
<clustering>
<clus scale="   39.705">  2  6  1 -1</clus>
<clus scale="   70.932">  2  4  1 -1</clus>
<clus scale="  247.102">  1  5  2 -1</clus>
<clus scale="  247.102">  1  3  2 -1</clus>
</clustering>
</event>
<event>
 6    0  0.1361919E+003  0.1494852E+03  0.7546771E-02  0.1201107E+00
         21   -1    0    0  504  501  0.00000000000E+00  0.00000000000E+00  0.49197003654E+03  0.49197003654E+03  0.00000000000E+00 0.  1.
         21   -1    0    0  505  502 -0.00000000000E+00 -0.00000000000E+00 -0.23907951632E+03  0.23907951632E+03  0.00000000000E+00 0.  1.
         21    1    1    2  503  502  0.57088501540E+02  0.14039347902E+03 -0.18247152626E+03  0.23720304352E+03  0.00000000000E+00 0.  1.
         21    1    1    2  504  503  0.13933443016E+02 -0.14083196128E+03  0.28842170524E+03  0.32127069927E+03  0.00000000000E+00 0.  1.
         21    1    1    2  505  506 -0.37713036961E+02 -0.20137947378E+02  0.39434494135E+02  0.58162611780E+02  0.00000000000E+00 0.  1.
         21    1    1    2  506  501 -0.33308907596E+02  0.20576429641E+02  0.10750584710E+03  0.11441319829E+03  0.00000000000E+00 0.  1.
<scales pt_clust_3="149.48517" pt_clust_4="14000.00000" pt_clust_5="45.48173" pt_clust_6="39.15192"></scales>
<clustering>
<clus scale="   39.152">  1  6  2 -1</clus>
<clus scale="   45.482">  1  5  2 -1</clus>
<clus scale="  149.485">  2  3  1 -1</clus>
<clus scale="   39.152">  1  3  2 -1</clus>
</clustering>
</event>
<event>
 6    0  0.1361919E+003  0.1004221E+03  0.7546771E-02  0.1279411E+00
         21   -1    0    0  506  501  0.00000000000E+00  0.00000000000E+00  0.19018621677E+04  0.19018621677E+04  0.00000000000E+00 0.  1.
         21   -1    0    0  505  502 -0.00000000000E+00 -0.00000000000E+00 -0.19179395786E+03  0.19179395786E+03  0.00000000000E+00 0.  1.
         21    1    1    2  503  502 -0.30777907581E+02  0.22631710076E+02 -0.14941107345E+03  0.15421784192E+03  0.00000000000E+00 0.  1.
         21    1    1    2  504  501  0.48529869880E+02  0.24863539405E+01  0.16138300559E+04  0.16145614822E+04  0.00000000000E+00 0.  1.
         21    1    1    2  505  504 -0.66718106718E+02  0.51113065919E+02  0.27126468954E+02  0.88315890923E+02  0.00000000000E+00 0.  1.
         21    1    1    2  506  503  0.48966144418E+02 -0.76231129936E+02  0.21852275844E+03  0.23656091061E+03  0.00000000000E+00 0.  1.
<scales pt_clust_3="38.20306" pt_clust_4="48.32345" pt_clust_5="14000.00000" pt_clust_6="100.42212"></scales>
<clustering>
<clus scale="   38.203">  2  3  1 -1</clus>
<clus scale="   48.323">  1  4  2 -1</clus>
<clus scale="  100.422">  1  6  2 -1</clus>
<clus scale="   48.323">  1  3  2 -1</clus>
</clustering>
</event>
<event>
 6    0  0.1361919E+003  0.1218553E+03  0.7546771E-02  0.1240067E+00
         21   -1    0    0  505  501  0.00000000000E+00  0.00000000000E+00  0.75696030002E+03  0.75696030002E+03  0.00000000000E+00 0.  1.
         21   -1    0    0  506  502 -0.00000000000E+00 -0.00000000000E+00 -0.37043927128E+03  0.37043927128E+03  0.00000000000E+00 0.  1.
         21    1    1    2  503  502 -0.43822116984E+02  0.12917659273E+01  0.36183022304E+02  0.56844152727E+02  0.00000000000E+00 0. -1.
         21    1    1    2  504  501  0.12883937609E+03 -0.12058516557E+03  0.14344814723E+03  0.22741534233E+03  0.00000000000E+00 0. -1.
         21    1    1    2  505  503 -0.78731184020E+02  0.82228158901E+02  0.51769763334E+03  0.53006689108E+03  0.00000000000E+00 0.  1.
         21    1    1    2  506  504 -0.62860750870E+01  0.37065240738E+02 -0.31080777413E+03  0.31307318517E+03  0.00000000000E+00 0.  1.
<scales pt_clust_3="45.61059" pt_clust_4="14000.00000" pt_clust_5="121.85531" pt_clust_6="37.59451"></scales>
<clustering>
<clus scale="   37.595">  2  6  1 -1</clus>
<clus scale="   45.611">  2  3  1 -1</clus>
<clus scale="  121.855">  1  5  2 -1</clus>
<clus scale="  121.855">  1  3  2 -1</clus>
</clustering>
</event>
<event>
 6    0  0.1361919E+003  0.5430222E+02  0.7546771E-02  0.1423428E+00
         21   -1    0    0  506  501  0.00000000000E+00  0.00000000000E+00  0.12517289813E+03  0.12517289813E+03  0.00000000000E+00 0.  1.
         21   -1    0    0  504  502 -0.00000000000E+00 -0.00000000000E+00 -0.57459937804E+03  0.57459937804E+03  0.00000000000E+00 0.  1.
         21    1    1    2  503  502 -0.52635342724E+02  0.15294947790E+02 -0.26477752128E+03  0.27039147639E+03  0.00000000000E+00 0.  1.
         21    1    1    2  504  501  0.36150420282E+02  0.76476523178E+02 -0.35271027065E+01  0.84663758111E+02  0.00000000000E+00 0.  1.
         21    1    1    2  505  503  0.38728075984E+02 -0.44032122705E+02 -0.25069247288E+03  0.25745952625E+03  0.00000000000E+00 0.  1.
         21    1    1    2  506  505 -0.22243153542E+02 -0.47739348263E+02  0.69570616955E+02  0.87257515410E+02  0.00000000000E+00 0.  1.
<scales pt_clust_3="54.30222" pt_clust_4="38.89756" pt_clust_5="14000.00000" pt_clust_6="52.66691"></scales>
<clustering>
<clus scale="   52.667">  1  6  2 -1</clus>
<clus scale="   38.898">  1  4  2 -1</clus>
<clus scale="   54.302">  2  3  1 -1</clus>
<clus scale="   52.667">  1  3  2 -1</clus>
</clustering>
</event>
<event>
 6    0  0.1361919E+003  0.6851475E+02  0.7546771E-02  0.1365218E+00
         21   -1    0    0  504  501  0.00000000000E+00  0.00000000000E+00  0.89203221780E+02  0.89203221780E+02  0.00000000000E+00 0.  1.
         21   -1    0    0  505  502 -0.00000000000E+00 -0.00000000000E+00 -0.15759563425E+04  0.15759563425E+04  0.00000000000E+00 0.  1.
         21    1    1    2  503  501  0.74807974100E+02  0.14591254585E+02 -0.33583619289E+02  0.83288637784E+02  0.00000000000E+00 0.  1.
         21    1    1    2  504  506 -0.28794964336E+02  0.10779268049E+02  0.43425372491E+02  0.53208134404E+02  0.00000000000E+00 0.  1.
         21    1    1    2  505  503 -0.63138537174E+02 -0.72800390788E+02 -0.13356093717E+03  0.16469637432E+03  0.00000000000E+00 0.  1.
         21    1    1    2  506  502  0.17125527410E+02  0.47429868154E+02 -0.13630339368E+04  0.13639664178E+04  0.00000000000E+00 0.  1.
<scales pt_clust_3="14000.00000" pt_clust_4="30.74642" pt_clust_5="68.51475" pt_clust_6="50.43226"></scales>
<clustering>
<clus scale="   30.746">  1  4  2 -1</clus>
<clus scale="   50.432">  2  6  1 -1</clus>
<clus scale="   68.515">  2  5  1 -1</clus>
<clus scale="   30.746">  1  3  2 -1</clus>
</clustering>
</event>
<event>
 6    0  0.1361919E+003  0.1206619E+03  0.7546771E-02  0.1242009E+00
         21   -1    0    0  506  501  0.00000000000E+00  0.00000000000E+00  0.49406775609E+03  0.49406775609E+03  0.00000000000E+00 0.  1.
         21   -1    0    0  503  502 -0.00000000000E+00 -0.00000000000E+00 -0.15616791139E+03  0.15616791139E+03  0.00000000000E+00 0. -1.
         21    1    1    2  503  504 -0.59503788432E+02  0.43981461911E+02  0.20565346430E+03  0.21855987099E+03  0.00000000000E+00 0.  1.
         21    1    1    2  504  501 -0.11324548931E+02 -0.30484706235E+02  0.20151055457E+03  0.20411777563E+03  0.00000000000E+00 0.  1.
         21    1    1    2  505  502  0.12515983072E+03 -0.28589097696E+02 -0.10054927283E+03  0.16307199636E+03  0.00000000000E+00 0. -1.
         21    1    1    2  506  505 -0.54331493353E+02  0.15092342020E+02  0.31285098659E+02  0.64486024499E+02  0.00000000000E+00 0. -1.
<scales pt_clust_3="14000.00000" pt_clust_4="32.52019" pt_clust_5="120.66186" pt_clust_6="57.09036"></scales>
<clustering>
<clus scale="   32.520">  1  4  2 -1</clus>
<clus scale="   57.090">  1  6  2 -1</clus>
<clus scale="  120.662">  2  5  1 -1</clus>
<clus scale="   32.520">  1  3  2 -1</clus>
</clustering>
</event>
<event>
 6    0  0.1361919E+003  0.1429557E+03  0.7546771E-02  0.1209406E+00
         21   -1    0    0  505  501  0.00000000000E+00  0.00000000000E+00  0.79515393604E+03  0.79515393604E+03  0.00000000000E+00 0.  1.
         21   -1    0    0  501  502 -0.00000000000E+00 -0.00000000000E+00 -0.20830244934E+03  0.20830244934E+03  0.00000000000E+00 0. -1.
         21    1    1    2  503  506 -0.40728203904E+02  0.57623896415E+02  0.18967865366E+03  0.20237907917E+03  0.00000000000E+00 0.  1.
         21    1    1    2  504  502  0.85945129714E+01 -0.13583537399E+03 -0.17337149680E+03  0.22041504119E+03  0.00000000000E+00 0. -1.
         21    1    1    2  505  503  0.38276528160E+02  0.15196346671E+02  0.29968788843E+03  0.30250430085E+03  0.00000000000E+00 0.  1.
         21    1    1    2  506  504 -0.61428372272E+01  0.63015130908E+02  0.27085644141E+03  0.27815796416E+03  0.00000000000E+00 0.  1.
<scales pt_clust_3="44.11567" pt_clust_4="135.51285" pt_clust_5="41.18278" pt_clust_6="44.11567"></scales>
<clustering>
<clus scale="   41.183">  1  5  2 -1</clus>
<clus scale="   44.116">  3  6 -1 -1</clus>
<clus scale="  135.513">  2  4  1 -1</clus>
<clus scale="   41.183">  1  3  2 -1</clus>
</clustering>
</event>
<event>
 6    0  0.1361919E+003  0.9795692E+02  0.7546771E-02  0.1284652E+00
         21   -1    0    0  505  501  0.00000000000E+00  0.00000000000E+00  0.60440247711E+03  0.60440247711E+03  0.00000000000E+00 0. -1.
         21   -1    0    0  503  502 -0.00000000000E+00 -0.00000000000E+00 -0.56052192943E+03  0.56052192943E+03  0.00000000000E+00 0.  1.
         21    1    1    2  503  501 -0.33979788073E+02 -0.10529280157E+02 -0.33873866732E+03  0.34060149218E+03  0.00000000000E+00 0.  1.
         21    1    1    2  504  502  0.49530260683E+02  0.11188735241E+03 -0.18484506438E+03  0.22167481629E+03  0.00000000000E+00 0.  1.
         21    1    1    2  505  506 -0.11856678515E+02 -0.32255968148E+02  0.51413543559E+03  0.51528271312E+03  0.00000000000E+00 0. -1.
         21    1    1    2  506  504 -0.36937940941E+01 -0.69102104102E+02  0.53328843792E+02  0.87365384944E+02  0.00000000000E+00 0.  1.
<scales pt_clust_3="35.79162" pt_clust_4="14000.00000" pt_clust_5="34.36609" pt_clust_6="97.95692"></scales>
<clustering>
<clus scale="   34.366">  1  5  2 -1</clus>
<clus scale="   35.792">  2  3  1 -1</clus>
<clus scale="   97.957">  1  6  2 -1</clus>
<clus scale="   34.366">  1  3  2 -1</clus>
</clustering>
</event>
<event>
 6    0  0.1361919E+003  0.6917284E+02  0.7546771E-02  0.1362929E+00
         21   -1    0    0  506  501  0.00000000000E+00  0.00000000000E+00  0.97926201069E+03  0.97926201069E+03  0.00000000000E+00 0. -1.
         21   -1    0    0  504  502 -0.00000000000E+00 -0.00000000000E+00 -0.53698865897E+02  0.53698865897E+02  0.00000000000E+00 0. -1.
         21    1    1    2  503  501 -0.44614696443E+02 -0.10224389034E+02  0.67841175312E+03  0.67995405436E+03  0.00000000000E+00 0. -1.
         21    1    1    2  504  505 -0.40491859444E+02 -0.18710571264E+02 -0.11442289346E+02  0.46049996132E+02  0.00000000000E+00 0. -1.
         21    1    1    2  505  503  0.45476261106E+02 -0.55068407176E+02  0.95240409368E+02  0.11904350201E+03  0.00000000000E+00 0. -1.
         21    1    1    2  506  502  0.39630294780E+02  0.84003367474E+02  0.16335327165E+03  0.18791332409E+03  0.00000000000E+00 0. -1.
<scales pt_clust_3="47.12105" pt_clust_4="44.60579" pt_clust_5="14000.00000" pt_clust_6="69.17284"></scales>
<clustering>
<clus scale="   44.606">  2  4  1 -1</clus>
<clus scale="   47.121">  1  3  2 -1</clus>
<clus scale="   69.173">  1  6  2 -1</clus>
<clus scale="   47.121">  1  3  2 -1</clus>
</clustering>
</event>
<event>
 6    0  0.1361919E+003  0.1316442E+03  0.7546771E-02  0.1225036E+00
         21   -1    0    0  504  501  0.00000000000E+00  0.00000000000E+00  0.17501990777E+03  0.17501990777E+03  0.00000000000E+00 0.  1.
         21   -1    0    0  506  502 -0.00000000000E+00 -0.00000000000E+00 -0.29099921895E+03  0.29099921895E+03  0.00000000000E+00 0. -1.
         21    1    1    2  503  502 -0.27638057466E+02  0.18913920857E+02 -0.22338183003E+02  0.40256590052E+02  0.00000000000E+00 0.  1.
         21    1    1    2  504  503 -0.10443474516E+03 -0.11424094398E+03  0.64910621369E+02  0.16784218196E+03  0.00000000000E+00 0.  1.
         21    1    1    2  505  501  0.10682127563E+03  0.26114969104E+02 -0.37451240337E+02  0.11616958269E+03  0.00000000000E+00 0. -1.
         21    1    1    2  506  505  0.25251526994E+02  0.69212054015E+02 -0.12110050921E+03  0.14175077202E+03  0.00000000000E+00 0. -1.
<scales pt_clust_3="33.49028" pt_clust_4="131.64418" pt_clust_5="14000.00000" pt_clust_6="79.58498"></scales>
<clustering>
<clus scale="   33.490">  2  3  1 -1</clus>
<clus scale="   79.585">  2  6  1 -1</clus>
<clus scale="  131.644">  1  4  2 -1</clus>
<clus scale="  131.644">  1  3  2 -1</clus>
</clustering>
</event>
<event>
 6    0  0.1361919E+003  0.7910397E+02  0.7546771E-02  0.1331614E+00
         21   -1    0    0  505  501  0.00000000000E+00  0.00000000000E+00  0.72030658314E+02  0.72030658314E+02  0.00000000000E+00 0. -1.
         21   -1    0    0  503  502 -0.00000000000E+00 -0.00000000000E+00 -0.65036435054E+03  0.65036435054E+03  0.00000000000E+00 0. -1.
         21    1    1    2  503  504 -0.42624091796E+02 -0.11710256165E+02 -0.41985667209E+03  0.42217717655E+03  0.00000000000E+00 0.  1.
         21    1    1    2  504  506  0.73178931764E+02  0.61062688963E+02 -0.12458176007E+03  0.15685797073E+03  0.00000000000E+00 0. -1.
         21    1    1    2  505  502 -0.57014113611E+02 -0.65948050626E+02 -0.57307561202E+02  0.10432598479E+03  0.00000000000E+00 0. -1.
         21    1    1    2  506  501  0.26459273642E+02  0.16595617829E+02  0.23412301133E+02  0.39033876789E+02  0.00000000000E+00 0. -1.
<scales pt_clust_3="43.35376" pt_clust_4="14000.00000" pt_clust_5="79.10397" pt_clust_6="31.23312"></scales>
<clustering>
<clus scale="   31.233">  1  6  2 -1</clus>
<clus scale="   43.354">  2  3  1 -1</clus>
<clus scale="   79.104">  1  5  2 -1</clus>
<clus scale="   31.233">  1  3  2 -1</clus>
</clustering>
</event>
<event>
 6    0  0.1361919E+003  0.1266006E+03  0.7546771E-02  0.1232589E+00
         21   -1    0    0  506  501  0.00000000000E+00  0.00000000000E+00  0.37009116301E+03  0.37009116301E+03  0.00000000000E+00 0.  1.
         21   -1    0    0  504  502 -0.00000000000E+00 -0.00000000000E+00 -0.11413439293E+03  0.11413439293E+03  0.00000000000E+00 0.  1.
         21    1    1    2  503  501  0.24452381869E+02 -0.20312515698E+02  0.71897358183E+02  0.78611369323E+02  0.00000000000E+00 0.  1.
         21    1    1    2  504  503 -0.56069109803E+02 -0.11071880185E+03  0.29846728068E+02  0.12764491895E+03  0.00000000000E+00 0.  1.
         21    1    1    2  505  502  0.39232721247E+02 -0.11619288106E+02 -0.25639681066E+02  0.48286721960E+02  0.00000000000E+00 0.  1.
         21    1    1    2  506  505 -0.76159933132E+01  0.14265060565E+03  0.17985236489E+03  0.22968254571E+03  0.00000000000E+00 0.  1.
<scales pt_clust_3="31.78863" pt_clust_4="126.60058" pt_clust_5="42.04191" pt_clust_6="14000.00000"></scales>
<clustering>
<clus scale="   31.789">  1  3  2 -1</clus>
<clus scale="   42.042">  2  5  1 -1</clus>
<clus scale="  126.601">  2  4  1 -1</clus>
<clus scale="   31.789">  1  3  2 -1</clus>
</clustering>
</event>
<event>
 6    0  0.1361919E+003  0.8193979E+02  0.7546771E-02  0.1323635E+00
         21   -1    0    0  504  501  0.00000000000E+00  0.00000000000E+00  0.14352635996E+04  0.14352635996E+04  0.00000000000E+00 0. -1.
         21   -1    0    0  503  502 -0.00000000000E+00 -0.00000000000E+00 -0.92805962834E+02  0.92805962834E+02  0.00000000000E+00 0. -1.
         21    1    1    2  503  505  0.11338073923E+03 -0.23996520214E+01  0.57522195208E+01  0.11355191934E+03  0.00000000000E+00 0. -1.
         21    1    1    2  504  506  0.38015933365E+02  0.83111248480E+01  0.15894541999E+03  0.16363964227E+03  0.00000000000E+00 0. -1.
         21    1    1    2  505  501 -0.11362735282E+03  0.10029748879E+02  0.11992010012E+04  0.12046139682E+04  0.00000000000E+00 0. -1.
         21    1    1    2  506  502 -0.37769319775E+02 -0.15941221706E+02 -0.21441003915E+02  0.46264032624E+02  0.00000000000E+00 0. -1.
<scales pt_clust_3="81.93979" pt_clust_4="38.91383" pt_clust_5="14000.00000" pt_clust_6="40.62301"></scales>
<clustering>
<clus scale="   38.914">  1  4  2 -1</clus>
<clus scale="   40.623">  2  6  1 -1</clus>
<clus scale="   81.940">  2  3  1 -1</clus>
<clus scale="   38.914">  1  3  2 -1</clus>
</clustering>
</event>
<event>
 6    0  0.1361919E+003  0.7893284E+02  0.7546771E-02  0.1332107E+00
         21   -1    0    0  504  501  0.00000000000E+00  0.00000000000E+00  0.21969284145E+03  0.21969284145E+03  0.00000000000E+00 0. -1.
         21   -1    0    0  503  502 -0.00000000000E+00 -0.00000000000E+00 -0.86557654704E+03  0.86557654704E+03  0.00000000000E+00 0. -1.
         21    1    1    2  503  505 -0.24411112045E+02 -0.18198374133E+02 -0.30440646823E+02  0.43054804509E+02  0.00000000000E+00 0. -1.
         21    1    1    2  504  506 -0.10233461317E+03 -0.26011071809E+02  0.34699985808E+02  0.11114422128E+03  0.00000000000E+00 0. -1.
         21    1    1    2  505  501  0.44246204849E+02  0.62693885746E+02  0.12751874586E+03  0.14882634343E+03  0.00000000000E+00 0. -1.
         21    1    1    2  506  502  0.82499520363E+02 -0.18484439803E+02 -0.77766179044E+03  0.78224401927E+03  0.00000000000E+00 0. -1.
<scales pt_clust_3="30.44804" pt_clust_4="14000.00000" pt_clust_5="78.93284" pt_clust_6="69.36586"></scales>
<clustering>
<clus scale="   30.448">  2  3  1 -1</clus>
<clus scale="   69.366">  2  6  1 -1</clus>
<clus scale="   78.933">  1  5  2 -1</clus>
<clus scale="   78.933">  1  3  2 -1</clus>
</clustering>
</event>
<event>
 6    0  0.1361919E+003  0.8590235E+02  0.7546771E-02  0.1313090E+00
         21   -1    0    0  505  501  0.00000000000E+00  0.00000000000E+00  0.14060014078E+03  0.14060014078E+03  0.00000000000E+00 0.  1.
         21   -1    0    0  506  502 -0.00000000000E+00 -0.00000000000E+00 -0.16840395585E+04  0.16840395585E+04  0.00000000000E+00 0.  1.
         21    1    1    2  503  502  0.10830248550E+03  0.80002419924E+01 -0.15317441621E+04  0.15355890109E+04  0.00000000000E+00 0.  1.
         21    1    1    2  504  501 -0.83319803434E+02  0.34511514431E+02  0.92933900468E+02  0.12949881903E+03  0.00000000000E+00 0.  1.
         21    1    1    2  505  503  0.46871328084E+01 -0.70448905966E+02 -0.34833765422E+02  0.78729973829E+02  0.00000000000E+00 0.  1.
         21    1    1    2  506  504 -0.29669814870E+02  0.27937149542E+02 -0.69795390665E+02  0.80821895529E+02  0.00000000000E+00 0.  1.
<scales pt_clust_3="85.90235" pt_clust_4="14000.00000" pt_clust_5="69.55814" pt_clust_6="40.75270"></scales>
<clustering>
<clus scale="   40.753">  2  6  1 -1</clus>
<clus scale="   69.558">  1  5  2 -1</clus>
<clus scale="   85.902">  2  3  1 -1</clus>
<clus scale="   69.558">  1  3  2 -1</clus>
</clustering>
</event>
<event>
 6    0  0.1361919E+003  0.7949534E+02  0.7546771E-02  0.1330490E+00
         21   -1    0    0  506  501  0.00000000000E+00  0.00000000000E+00  0.20400712069E+02  0.20400712069E+02  0.00000000000E+00 0.  1.
         21   -1    0    0  504  502 -0.00000000000E+00 -0.00000000000E+00 -0.16503187496E+04  0.16503187496E+04  0.00000000000E+00 0.  1.
         21    1    1    2  503  505  0.59622247635E+02 -0.61605635468E+02 -0.10027301677E+04  0.10063885214E+04  0.00000000000E+00 0.  1.
         21    1    1    2  504  503  0.96911554758E+01  0.35178750959E+02 -0.34947680179E+03  0.35137657578E+03  0.00000000000E+00 0. -1.
         21    1    1    2  505  501  0.17157132936E+02 -0.32231499188E+02 -0.10417833989E+03  0.11039186226E+03  0.00000000000E+00 0.  1.
         21    1    1    2  506  502 -0.86470536047E+02  0.58658383696E+02 -0.17353272812E+03  0.20256250223E+03  0.00000000000E+00 0.  1.
<scales pt_clust_3="14000.00000" pt_clust_4="36.48922" pt_clust_5="34.38878" pt_clust_6="79.49534"></scales>
<clustering>
<clus scale="   36.489">  2  4  1 -1</clus>
<clus scale="   34.389">  1  5  2 -1</clus>
<clus scale="   79.495">  1  6  2 -1</clus>
<clus scale="   34.389">  1  3  2 -1</clus>
</clustering>
</event>
<event>
 6    0  0.1361919E+003  0.1089953E+03  0.7546771E-02  0.1262442E+00
         21   -1    0    0  505  501  0.00000000000E+00  0.00000000000E+00  0.11810215191E+03  0.11810215191E+03  0.00000000000E+00 0.  1.
         21   -1    0    0  506  502 -0.00000000000E+00 -0.00000000000E+00 -0.61071137507E+03  0.61071137507E+03  0.00000000000E+00 0.  1.
         21    1    1    2  503  502 -0.82776240848E+02 -0.69097067184E+02 -0.31402351552E+03  0.33201969677E+03  0.00000000000E+00 0.  1.
         21    1    1    2  504  501  0.72195014973E+02 -0.59630240275E+01 -0.16336842169E+03  0.17870903460E+03  0.00000000000E+00 0.  1.
         21    1    1    2  505  503  0.56997694163E+01  0.11217941915E+03  0.64847311861E+02  0.12969920319E+03  0.00000000000E+00 0.  1.
         21    1    1    2  506  504  0.48814564590E+01 -0.37119327939E+02 -0.80064597813E+02  0.88385592416E+02  0.00000000000E+00 0.  1.
<scales pt_clust_3="14000.00000" pt_clust_4="75.95000" pt_clust_5="108.99528" pt_clust_6="37.43893"></scales>
<clustering>
<clus scale="   37.439">  2  6  1 -1</clus>
<clus scale="   75.950">  2  4  1 -1</clus>
<clus scale="  108.995">  1  5  2 -1</clus>
<clus scale="  108.995">  1  3  2 -1</clus>
</clustering>
</event>
<event>
 6    0  0.1361919E+003  0.7846883E+02  0.7546771E-02  0.1333454E+00
         21   -1    0    0  503  501  0.00000000000E+00  0.00000000000E+00  0.31238307817E+02  0.31238307817E+02  0.00000000000E+00 0.  1.
         21   -1    0    0  506  502 -0.00000000000E+00 -0.00000000000E+00 -0.14418383679E+04  0.14418383679E+04  0.00000000000E+00 0.  1.
         21    1    1    2  503  504  0.28859113663E+02 -0.12653505287E+02 -0.65438183745E+01  0.32183554750E+02  0.00000000000E+00 0.  1.
         21    1    1    2  504  502  0.47721495125E+02 -0.81586405238E+02 -0.15975358537E+03  0.18562028621E+03  0.00000000000E+00 0.  1.
         21    1    1    2  505  501 -0.15360188542E+02  0.46846234067E+02 -0.14314518273E+03  0.15139698933E+03  0.00000000000E+00 0.  1.
         21    1    1    2  506  505 -0.61220420246E+02  0.47393676459E+02 -0.11011574736E+04  0.11038758454E+04  0.00000000000E+00 0.  1.
<scales pt_clust_3="31.51126" pt_clust_4="78.46883" pt_clust_5="44.90169" pt_clust_6="14000.00000"></scales>
<clustering>
<clus scale="   31.511">  1  3  2 -1</clus>
<clus scale="   44.902">  1  5  2 -1</clus>
<clus scale="   78.469">  1  4  2 -1</clus>
<clus scale="   31.511">  1  3  2 -1</clus>
</clustering>
</event>
<event>
 6    0  0.1361919E+003  0.1252809E+03  0.7546771E-02  0.1234631E+00
         21   -1    0    0  503  501  0.00000000000E+00  0.00000000000E+00  0.42548746932E+03  0.42548746932E+03  0.00000000000E+00 0.  1.
         21   -1    0    0  505  502 -0.00000000000E+00 -0.00000000000E+00 -0.76320780056E+03  0.76320780056E+03  0.00000000000E+00 0. -1.
         21    1    1    2  503  504  0.19339270715E+02 -0.12412137219E+03  0.39153238223E+03  0.41119062339E+03  0.00000000000E+00 0.  1.
         21    1    1    2  504  502 -0.23357803119E+02  0.58355199603E+02 -0.59304573060E+02  0.86417293831E+02  0.00000000000E+00 0. -1.
         21    1    1    2  505  506 -0.21755076081E+02 -0.48024531433E+02 -0.19235329590E+03  0.19944781121E+03  0.00000000000E+00 0.  1.
         21    1    1    2  506  501  0.25773608485E+02  0.11379070402E+03 -0.47759484451E+03  0.49163954145E+03  0.00000000000E+00 0. -1.
<scales pt_clust_3="14000.00000" pt_clust_4="58.37321" pt_clust_5="52.72228" pt_clust_6="125.28089"></scales>
<clustering>
<clus scale="   52.722">  2  5  1 -1</clus>
<clus scale="   58.373">  2  4  1 -1</clus>
<clus scale="  125.281">  2  6  1 -1</clus>
<clus scale="  125.281">  1  3  2 -1</clus>
</clustering>
</event>
<event>
 6    0  0.1617171E+003  0.1004916E+03  0.7546771E-02  0.1279266E+00
         21   -1    0    0  503  501  0.00000000000E+00  0.00000000000E+00  0.76151508981E+03  0.76151508981E+03  0.00000000000E+00 0. -1.
         21   -1    0    0  504  502 -0.00000000000E+00 -0.00000000000E+00 -0.30762034022E+03  0.30762034022E+03  0.00000000000E+00 0.  1.
         21    1    1    2  503  505  0.21224755019E+02  0.27797308267E+02  0.54300006329E+02  0.64588476215E+02  0.00000000000E+00 0.  1.
         21    1    1    2  504  506 -0.29964567915E+02 -0.55184460889E+02  0.47021872062E+02  0.78449069505E+02  0.00000000000E+00 0. -1.
         21    1    1    2  505  502  0.23272232983E+02  0.10431573507E+03 -0.27428334684E+03  0.29437174417E+03  0.00000000000E+00 0.  1.
         21    1    1    2  506  501 -0.14532420086E+02 -0.76928582451E+02  0.62685621804E+03  0.63172614013E+03  0.00000000000E+00 0. -1.
<scales pt_clust_3="34.97400" pt_clust_4="100.49157" pt_clust_5="14000.00000" pt_clust_6="52.20648"></scales>
<clustering>
<clus scale="   34.974">  1  3  2 -1</clus>
<clus scale="   52.206">  1  6  2 -1</clus>
<clus scale="  100.492">  1  4  2 -1</clus>
<clus scale="   34.974">  1  3  2 -1</clus>
</clustering>
</event>
<event>
 6    0  0.6054370E+003  0.1518464E+03  0.7546771E-02  0.1198222E+00
         21   -1    0    0  505  501  0.00000000000E+00  0.00000000000E+00  0.14406994452E+04  0.14406994452E+04  0.00000000000E+00 0.  1.
         21   -1    0    0  504  502 -0.00000000000E+00 -0.00000000000E+00 -0.46541595079E+03  0.46541595079E+03  0.00000000000E+00 0. -1.
         21    1    1    2  503  502  0.46598117151E+02  0.14425070968E+03 -0.43744250620E+03  0.46296392731E+03  0.00000000000E+00 0. -1.
         21    1    1    2  504  506 -0.81136062626E+02 -0.15351540224E+03  0.94996770311E+03  0.96570630957E+03  0.00000000000E+00 0.  1.
         21    1    1    2  505  503  0.31522559747E+01  0.30718230522E+02  0.30109308760E+02  0.43129072307E+02  0.00000000000E+00 0.  1.
         21    1    1    2  506  501  0.31385689501E+02 -0.21453537958E+02  0.43264898872E+03  0.43431608678E+03  0.00000000000E+00 0. -1.
<scales pt_clust_3="14000.00000" pt_clust_4="151.84641" pt_clust_5="30.87955" pt_clust_6="34.50182"></scales>
<clustering>
<clus scale="   30.880">  1  5  2 -1</clus>
<clus scale="   34.502">  1  6  2 -1</clus>
<clus scale="  151.846">  1  4  2 -1</clus>
<clus scale="   30.880">  1  3  2 -1</clus>
</clustering>
</event>
<event>
 6    0  0.1361919E+003  0.1382369E+03  0.7546771E-02  0.1215721E+00
         21   -1    0    0  506  501  0.00000000000E+00  0.00000000000E+00  0.27602939914E+03  0.27602939914E+03  0.00000000000E+00 0.  1.
         21   -1    0    0  503  502 -0.00000000000E+00 -0.00000000000E+00 -0.20878898102E+03  0.20878898102E+03  0.00000000000E+00 0.  1.
         21    1    1    2  503  501 -0.13349433331E+03  0.63671894619E+02  0.17731284789E+03  0.23089974712E+03  0.00000000000E+00 0.  1.
         21    1    1    2  504  502  0.24397102800E+02 -0.91284029402E+02 -0.93976734511E+02  0.13326522156E+03  0.00000000000E+00 0.  1.
         21    1    1    2  505  504  0.57307585639E+02  0.22338637212E+02  0.10173967020E+02  0.62343273007E+02  0.00000000000E+00 0.  1.
         21    1    1    2  506  505  0.51789644870E+02  0.52734975699E+01 -0.26269662278E+02  0.58310138472E+02  0.00000000000E+00 0.  1.
<scales pt_clust_3="132.19649" pt_clust_4="94.48806" pt_clust_5="37.18279" pt_clust_6="37.18279"></scales>
<clustering>
<clus scale="   37.183">  5  6 -1 -1</clus>
<clus scale="   94.488">  2  4  1 -1</clus>
<clus scale="  132.196">  1  3  2 -1</clus>
<clus scale="  132.196">  1  3  2 -1</clus>
</clustering>
</event>
<event>
 6    0  0.1361919E+003  0.8347299E+02  0.7546771E-02  0.1319475E+00
         21   -1    0    0  503  501  0.00000000000E+00  0.00000000000E+00  0.12212861488E+04  0.12212861488E+04  0.00000000000E+00 0. -1.
         21   -1    0    0  506  502 -0.00000000000E+00 -0.00000000000E+00 -0.16349637165E+02  0.16349637165E+02  0.00000000000E+00 0. -1.
         21    1    1    2  503  504  0.37219726241E+01  0.41750642794E+02  0.27646922947E+03  0.27962868969E+03  0.00000000000E+00 0. -1.
         21    1    1    2  504  502  0.64058085904E+02  0.54417096321E+02  0.22879111266E+03  0.24374173212E+03  0.00000000000E+00 0. -1.
         21    1    1    2  505  501  0.61581347337E+01 -0.57095861388E+02  0.22101522161E+03  0.22835408513E+03  0.00000000000E+00 0. -1.
         21    1    1    2  506  505 -0.73938193262E+02 -0.39071877727E+02  0.47866094787E+03  0.48591127901E+03  0.00000000000E+00 0. -1.
<scales pt_clust_3="41.91622" pt_clust_4="14000.00000" pt_clust_5="47.67398" pt_clust_6="83.47299"></scales>
<clustering>
<clus scale="   41.916">  1  3  2 -1</clus>
<clus scale="   47.674">  1  5  2 -1</clus>
<clus scale="   83.473">  1  6  2 -1</clus>
<clus scale="   41.916">  1  3  2 -1</clus>
</clustering>
</event>
<event>
 6    0  0.1361919E+003  0.1042154E+03  0.7546771E-02  0.1271673E+00
         21   -1    0    0  506  501  0.00000000000E+00  0.00000000000E+00  0.21464492313E+03  0.21464492313E+03  0.00000000000E+00 0.  1.
         21   -1    0    0  505  502 -0.00000000000E+00 -0.00000000000E+00 -0.11879294780E+04  0.11879294780E+04  0.00000000000E+00 0.  1.
         21    1    1    2  503  502  0.36345238940E+02 -0.22106892456E+02 -0.55682894275E+03  0.55845157585E+03  0.00000000000E+00 0.  1.
         21    1    1    2  504  501  0.10943177358E+03 -0.93710477243E+01  0.15732350688E+03  0.19186926649E+03  0.00000000000E+00 0.  1.
         21    1    1    2  505  504 -0.58041972302E+02  0.45978217041E+02 -0.55682475740E+03  0.56172651481E+03  0.00000000000E+00 0.  1.
         21    1    1    2  506  503 -0.87735040219E+02 -0.14500276861E+02 -0.16954361577E+02  0.90527043958E+02  0.00000000000E+00 0.  1.
<scales pt_clust_3="42.54046" pt_clust_4="14000.00000" pt_clust_5="36.88048" pt_clust_6="104.21539"></scales>
<clustering>
<clus scale="   42.540">  2  3  1 -1</clus>
<clus scale="   36.880">  2  5  1 -1</clus>
<clus scale="  104.215">  2  6  1 -1</clus>
<clus scale="  104.215">  1  3  2 -1</clus>
</clustering>
</event>
<event>
 6    0  0.1361919E+003  0.6577589E+02  0.7546771E-02  0.1375076E+00
         21   -1    0    0  503  501  0.00000000000E+00  0.00000000000E+00  0.81174204733E+03  0.81174204733E+03  0.00000000000E+00 0.  1.
         21   -1    0    0  504  502 -0.00000000000E+00 -0.00000000000E+00 -0.93381846374E+02  0.93381846374E+02  0.00000000000E+00 0.  1.
         21    1    1    2  503  506 -0.34271066191E+02 -0.10495471393E+02  0.26782000670E+03  0.27020772914E+03  0.00000000000E+00 0.  1.
         21    1    1    2  504  501 -0.22404983729E+02  0.46173623622E+02  0.45054616158E+03  0.45345984445E+03  0.00000000000E+00 0. -1.
         21    1    1    2  505  502 -0.56405833287E+02  0.20613219254E+01  0.21348068669E+02  0.60345729864E+02  0.00000000000E+00 0.  1.
         21    1    1    2  506  505  0.11308188321E+03 -0.37739474154E+02 -0.21354035989E+02  0.12111059025E+03  0.00000000000E+00 0.  1.
<scales pt_clust_3="35.84217" pt_clust_4="65.77589" pt_clust_5="58.99885" pt_clust_6="14000.00000"></scales>
<clustering>
<clus scale="   35.842">  1  3  2 -1</clus>
<clus scale="   58.999">  2  5  1 -1</clus>
<clus scale="   65.776">  1  4  2 -1</clus>
<clus scale="   35.842">  1  3  2 -1</clus>
</clustering>
</event>
<event>
 6    0  0.1361919E+003  0.7185977E+02  0.7546771E-02  0.1353881E+00
         21   -1    0    0  504  501  0.00000000000E+00  0.00000000000E+00  0.45201519340E+03  0.45201519340E+03  0.00000000000E+00 0.  1.
         21   -1    0    0  506  502 -0.00000000000E+00 -0.00000000000E+00 -0.18639342038E+03  0.18639342038E+03  0.00000000000E+00 0. -1.
         21    1    1    2  503  505 -0.51706292090E+02 -0.28473653208E+02  0.64382774288E+02  0.87346615239E+02  0.00000000000E+00 0. -1.
         21    1    1    2  504  503 -0.54790347327E+02  0.35838396404E+02  0.20489707434E+03  0.21510272869E+03  0.00000000000E+00 0.  1.
         21    1    1    2  505  502  0.27753090609E+02  0.29299864875E+02 -0.15570516321E+03  0.16085028433E+03  0.00000000000E+00 0. -1.
         21    1    1    2  506  501  0.78743548808E+02 -0.36664608070E+02  0.15204708760E+03  0.17510898552E+03  0.00000000000E+00 0. -1.
<scales pt_clust_3="43.61713" pt_clust_4="71.85977" pt_clust_5="40.35736" pt_clust_6="14000.00000"></scales>
<clustering>
<clus scale="   40.357">  2  5  1 -1</clus>
<clus scale="   43.617">  2  3  1 -1</clus>
<clus scale="   71.860">  1  4  2 -1</clus>
<clus scale="   71.860">  1  3  2 -1</clus>
</clustering>
</event>
<event>
 6    0  0.1361919E+003  0.7850592E+02  0.7546771E-02  0.1333346E+00
         21   -1    0    0  503  501  0.00000000000E+00  0.00000000000E+00  0.22987399605E+04  0.22987399605E+04  0.00000000000E+00 0.  1.
         21   -1    0    0  506  502 -0.00000000000E+00 -0.00000000000E+00 -0.17797349991E+02  0.17797349991E+02  0.00000000000E+00 0.  1.
         21    1    1    2  503  502 -0.88309896426E+02 -0.41488479283E+02  0.72396554942E+03  0.73051081338E+03  0.00000000000E+00 0. -1.
         21    1    1    2  504  505  0.65969751187E+02  0.46843648077E+02  0.52767608320E+03  0.53384303332E+03  0.00000000000E+00 0.  1.
         21    1    1    2  505  501  0.56970720887E+02  0.90517690900E+01  0.10067853405E+04  0.10084365718E+04  0.00000000000E+00 0.  1.
         21    1    1    2  506  504 -0.34630575649E+02 -0.14406937884E+02  0.22515637378E+02  0.43746891952E+02  0.00000000000E+00 0.  1.
<scales pt_clust_3="78.50592" pt_clust_4="14000.00000" pt_clust_5="53.50316" pt_clust_6="37.50782"></scales>
<clustering>
<clus scale="   37.508">  2  6  1 -1</clus>
<clus scale="   53.503">  1  5  2 -1</clus>
<clus scale="   78.506">  1  3  2 -1</clus>
<clus scale="   53.503">  1  3  2 -1</clus>
</clustering>
</event>
<event>
 6    0  0.1361919E+003  0.8237048E+02  0.7546771E-02  0.1322456E+00
         21   -1    0    0  506  501  0.00000000000E+00  0.00000000000E+00  0.28549132213E+03  0.28549132213E+03  0.00000000000E+00 0. -1.
         21   -1    0    0  505  502 -0.00000000000E+00 -0.00000000000E+00 -0.23343901329E+03  0.23343901329E+03  0.00000000000E+00 0.  1.
         21    1    1    2  503  502  0.91080818825E+02  0.68283178817E+02 -0.17511419588E+03  0.20886189137E+03  0.00000000000E+00 0.  1.
         21    1    1    2  504  501 -0.20834645649E+02  0.34116036902E+02  0.57360131195E+02  0.69915456688E+02  0.00000000000E+00 0.  1.
         21    1    1    2  505  504 -0.39676244961E+02 -0.96987255566E+01 -0.37649285307E+01  0.41017610590E+02  0.00000000000E+00 0. -1.
         21    1    1    2  506  503 -0.30569928215E+02 -0.92700490162E+02  0.17357130206E+03  0.19913537678E+03  0.00000000000E+00 0. -1.
<scales pt_clust_3="82.37048" pt_clust_4="39.97482" pt_clust_5="41.98547" pt_clust_6="14000.00000"></scales>
<clustering>
<clus scale="   39.975">  1  4  2 -1</clus>
<clus scale="   41.985">  2  5  1 -1</clus>
<clus scale="   82.370">  2  3  1 -1</clus>
<clus scale="   39.975">  1  3  2 -1</clus>
</clustering>
</event>
<event>
 6    0  0.1361919E+003  0.1195914E+03  0.7546771E-02  0.1243773E+00
         21   -1    0    0  506  501  0.00000000000E+00  0.00000000000E+00  0.31149565299E+03  0.31149565299E+03  0.00000000000E+00 0.  1.
         21   -1    0    0  504  502 -0.00000000000E+00 -0.00000000000E+00 -0.10520667791E+04  0.10520667791E+04  0.00000000000E+00 0.  1.
         21    1    1    2  503  502  0.58109891292E+02 -0.31418204395E+02 -0.83139302119E+03  0.83401332047E+03  0.00000000000E+00 0.  1.
         21    1    1    2  504  505  0.70460343233E+02 -0.34129405249E+01 -0.16722964929E+03  0.18149948687E+03  0.00000000000E+00 0.  1.
         21    1    1    2  505  501 -0.12515917445E+03 -0.14870464509E+02  0.26898067100E+03  0.29704637860E+03  0.00000000000E+00 0.  1.
         21    1    1    2  506  503 -0.34110600722E+01  0.49701609429E+02 -0.10929126636E+02  0.51003246168E+02  0.00000000000E+00 0. -1.
<scales pt_clust_3="65.94007" pt_clust_4="14000.00000" pt_clust_5="119.59137" pt_clust_6="49.81852"></scales>
<clustering>
<clus scale="   49.819">  1  6  2 -1</clus>
<clus scale="   65.940">  2  3  1 -1</clus>
<clus scale="  119.591">  1  5  2 -1</clus>
<clus scale="   49.819">  1  3  2 -1</clus>
</clustering>
</event>
<event>
 6    0  0.1361919E+003  0.1644088E+03  0.7546771E-02  0.1183807E+00
         21   -1    0    0  503  501  0.00000000000E+00  0.00000000000E+00  0.11684090823E+03  0.11684090823E+03  0.00000000000E+00 0. -1.
         21   -1    0    0  505  502 -0.00000000000E+00 -0.00000000000E+00 -0.50537932103E+03  0.50537932103E+03  0.00000000000E+00 0. -1.
         21    1    1    2  503  502 -0.15114428527E+03  0.28334427797E+02 -0.39328903331E+02  0.15872680116E+03  0.00000000000E+00 0. -1.
         21    1    1    2  504  506  0.41550115164E+02 -0.64919560125E+01 -0.50263338133E+02  0.65535949854E+02  0.00000000000E+00 0. -1.
         21    1    1    2  505  504  0.16455419808E+01 -0.41251684736E+02 -0.28432606353E+03  0.28730770910E+03  0.00000000000E+00 0. -1.
         21    1    1    2  506  501  0.10794862812E+03  0.19409212951E+02 -0.14620107808E+02  0.11064976915E+03  0.00000000000E+00 0. -1.
<scales pt_clust_3="150.71644" pt_clust_4="40.67457" pt_clust_5="41.28449" pt_clust_6="40.67457"></scales>
<clustering>
<clus scale="   40.675">  4  6 -1 -1</clus>
<clus scale="   41.284">  2  5  1 -1</clus>
<clus scale="  150.716">  1  3  2 -1</clus>
<clus scale="  150.716">  1  3  2 -1</clus>
</clustering>
</event>
<event>
 6    0  0.1361919E+003  0.1641302E+03  0.7546771E-02  0.1184111E+00
         21   -1    0    0  504  501  0.00000000000E+00  0.00000000000E+00  0.93669452251E+03  0.93669452251E+03  0.00000000000E+00 0. -1.
         21   -1    0    0  505  502 -0.00000000000E+00 -0.00000000000E+00 -0.91128885278E+02  0.91128885278E+02  0.00000000000E+00 0. -1.
         21    1    1    2  503  501  0.69342015334E+02 -0.37283233003E+02  0.35954851796E+03  0.36806723750E+03  0.00000000000E+00 0. -1.
         21    1    1    2  504  502 -0.37103389972E+02 -0.16526322390E+01  0.12808822377E+03  0.13336410990E+03  0.00000000000E+00 0. -1.
         21    1    1    2  505  506 -0.16414356785E+03 -0.40602807115E+02  0.40962359865E+02  0.17398164771E+03  0.00000000000E+00 0. -1.
         21    1    1    2  506  503  0.13190494249E+03  0.79538672357E+02  0.31696653564E+03  0.35241041268E+03  0.00000000000E+00 0. -1.
<scales pt_clust_3="64.90249" pt_clust_4="37.14018" pt_clust_5="14000.00000" pt_clust_6="164.13024"></scales>
<clustering>
<clus scale="   37.140">  1  4  2 -1</clus>
<clus scale="   64.902">  1  3  2 -1</clus>
<clus scale="  164.130">  1  6  2 -1</clus>
<clus scale="   37.140">  1  3  2 -1</clus>
</clustering>
</event>
<event>
 6    0  0.1361919E+003  0.9944135E+02  0.7546771E-02  0.1281475E+00
         21   -1    0    0  506  501  0.00000000000E+00  0.00000000000E+00  0.90512044230E+02  0.90512044230E+02  0.00000000000E+00 0.  1.
         21   -1    0    0  505  502 -0.00000000000E+00 -0.00000000000E+00 -0.32658397296E+04  0.32658397296E+04  0.00000000000E+00 0.  1.
         21    1    1    2  503  502  0.56696201402E+02 -0.16458260921E+02 -0.13644397159E+04  0.13657163219E+04  0.00000000000E+00 0. -1.
         21    1    1    2  504  503  0.45070401267E+02  0.75444212346E+02 -0.14906264182E+04  0.14932147498E+04  0.00000000000E+00 0.  1.
         21    1    1    2  505  501 -0.10631705689E+03  0.13365978288E+02 -0.38536409527E+03  0.39998431455E+03  0.00000000000E+00 0.  1.
         21    1    1    2  506  504  0.45504542173E+01 -0.72351929713E+02  0.65102544093E+02  0.97436387526E+02  0.00000000000E+00 0.  1.
<scales pt_clust_3="59.03671" pt_clust_4="99.44135" pt_clust_5="14000.00000" pt_clust_6="72.66640"></scales>
<clustering>
<clus scale="   59.037">  2  3  1 -1</clus>
<clus scale="   72.666">  1  6  2 -1</clus>
<clus scale="   99.441">  2  4  1 -1</clus>
<clus scale="   72.666">  1  3  2 -1</clus>
</clustering>
</event>
<event>
 6    0  0.1361919E+003  0.1454299E+03  0.7546771E-02  0.1206204E+00
         21   -1    0    0  506  501  0.00000000000E+00  0.00000000000E+00  0.44755404958E+03  0.44755404958E+03  0.00000000000E+00 0. -1.
         21   -1    0    0  505  502 -0.00000000000E+00 -0.00000000000E+00 -0.96713425725E+03  0.96713425725E+03  0.00000000000E+00 0. -1.
         21    1    1    2  503  502  0.10147582840E+03 -0.29644202847E+02 -0.83877312134E+03  0.84540905578E+03  0.00000000000E+00 0. -1.
         21    1    1    2  504  503 -0.58230020538E+02 -0.10636752908E+03  0.60805811160E+02  0.13565446254E+03  0.00000000000E+00 0. -1.
         21    1    1    2  505  501 -0.17530246594E+02 -0.31201919612E+02 -0.61842939923E+02  0.71452211662E+02  0.00000000000E+00 0.  1.
         21    1    1    2  506  504 -0.25715561268E+02  0.16721365154E+03  0.32023004243E+03  0.36217257686E+03  0.00000000000E+00 0. -1.
<scales pt_clust_3="103.43658" pt_clust_4="145.42987" pt_clust_5="35.78923" pt_clust_6="14000.00000"></scales>
<clustering>
<clus scale="   35.789">  2  5  1 -1</clus>
<clus scale="  103.437">  2  3  1 -1</clus>
<clus scale="  145.430">  2  4  1 -1</clus>
<clus scale="  145.430">  1  3  2 -1</clus>
</clustering>
</event>
<event>
 6    0  0.1361919E+003  0.9161049E+02  0.7546771E-02  0.1298998E+00
         21   -1    0    0  505  501  0.00000000000E+00  0.00000000000E+00  0.36541067814E+03  0.36541067814E+03  0.00000000000E+00 0.  1.
         21   -1    0    0  503  502 -0.00000000000E+00 -0.00000000000E+00 -0.15026259811E+03  0.15026259811E+03  0.00000000000E+00 0.  1.
         21    1    1    2  503  506  0.18031274697E+02  0.35883881348E+02  0.44158647988E+01  0.40401481033E+02  0.00000000000E+00 0.  1.
         21    1    1    2  504  502 -0.29920977049E+02 -0.11405932109E+02 -0.22072852015E+02  0.38891785134E+02  0.00000000000E+00 0.  1.
         21    1    1    2  505  504  0.34243454023E+01 -0.11414228416E+03 -0.60730686177E+02  0.12933832927E+03  0.00000000000E+00 0.  1.
         21    1    1    2  506  501  0.84653569503E+01  0.89664334916E+02  0.29353575342E+03  0.30704168082E+03  0.00000000000E+00 0.  1.
<scales pt_clust_3="36.75415" pt_clust_4="32.02125" pt_clust_5="14000.00000" pt_clust_6="91.61049"></scales>
<clustering>
<clus scale="   32.021">  2  4  1 -1</clus>
<clus scale="   36.754">  2  3  1 -1</clus>
<clus scale="   91.610">  1  6  2 -1</clus>
<clus scale="   91.610">  1  3  2 -1</clus>
</clustering>
</event>
<event>
 6    0  0.1361919E+003  0.2446761E+03  0.7546771E-02  0.1116716E+00
         21   -1    0    0  502  501  0.00000000000E+00  0.00000000000E+00  0.72898138418E+03  0.72898138418E+03  0.00000000000E+00 0. -1.
         21   -1    0    0  504  502 -0.00000000000E+00 -0.00000000000E+00 -0.10260378054E+03  0.10260378054E+03  0.00000000000E+00 0. -1.
         21    1    1    2  503  506 -0.19666248456E+03  0.23234240273E+02  0.26278567362E+03  0.32904752394E+03  0.00000000000E+00 0. -1.
         21    1    1    2  504  505  0.14342090504E+02  0.48337818970E+02  0.99984903522E+01  0.51402432939E+02  0.00000000000E+00 0. -1.
         21    1    1    2  505  503 -0.25497918628E+02  0.36407498910E+02  0.40422906742E+02  0.60080456229E+02  0.00000000000E+00 0. -1.
         21    1    1    2  506  501  0.20781831268E+03 -0.10797955815E+03  0.31317053293E+03  0.39105475162E+03  0.00000000000E+00 0. -1.
<scales pt_clust_3="38.40924" pt_clust_4="50.42063" pt_clust_5="38.40924" pt_clust_6="230.85418"></scales>
<clustering>
<clus scale="   38.409">  3  5 -1 -1</clus>
<clus scale="   50.421">  2  4  1 -1</clus>
<clus scale="  230.854">  1  6  2 -1</clus>
<clus scale="  230.854">  1  3  2 -1</clus>
</clustering>
</event>
<event>
 6    0  0.1361919E+003  0.9794833E+02  0.7546771E-02  0.1284670E+00
         21   -1    0    0  506  501  0.00000000000E+00  0.00000000000E+00  0.15680405855E+03  0.15680405855E+03  0.00000000000E+00 0.  1.
         21   -1    0    0  501  502 -0.00000000000E+00 -0.00000000000E+00 -0.21500473689E+03  0.21500473689E+03  0.00000000000E+00 0.  1.
         21    1    1    2  503  504  0.92333135897E+02 -0.28824904718E+02 -0.17722079561E+02  0.98337964290E+02  0.00000000000E+00 0.  1.
         21    1    1    2  504  502 -0.66916858849E+02  0.78755859848E+02 -0.12793351391E+03  0.16446074134E+03  0.00000000000E+00 0.  1.
         21    1    1    2  505  503  0.99281167715E+00 -0.32791809651E+02  0.53048124711E+02  0.62373006906E+02  0.00000000000E+00 0. -1.
         21    1    1    2  506  505 -0.26409088725E+02 -0.17139145479E+02  0.34406790423E+02  0.46637082909E+02  0.00000000000E+00 0.  1.
<scales pt_clust_3="97.94833" pt_clust_4="14000.00000" pt_clust_5="43.03797" pt_clust_6="31.48317"></scales>
<clustering>
<clus scale="   31.483">  1  6  2 -1</clus>
<clus scale="   43.038">  1  5  2 -1</clus>
<clus scale="   97.948">  1  3  2 -1</clus>
<clus scale="   31.483">  1  3  2 -1</clus>
</clustering>
</event>
<event>
 6    0  0.1361919E+003  0.9975461E+02  0.7546771E-02  0.1280813E+00
         21   -1    0    0  506  501  0.00000000000E+00  0.00000000000E+00  0.88416351960E+02  0.88416351960E+02  0.00000000000E+00 0.  1.
         21   -1    0    0  503  502 -0.00000000000E+00 -0.00000000000E+00 -0.48849923093E+03  0.48849923093E+03  0.00000000000E+00 0. -1.
         21    1    1    2  503  505  0.25878109804E+02  0.25304875349E+02 -0.10322067457E+03  0.10938245262E+03  0.00000000000E+00 0. -1.
         21    1    1    2  504  502 -0.51418845066E+02  0.27259547254E+02 -0.22178411116E+03  0.22929276593E+03  0.00000000000E+00 0. -1.
         21    1    1    2  505  501  0.10142060205E+03  0.18231474208E+02  0.10701311809E+02  0.10360040177E+03  0.00000000000E+00 0.  1.
         21    1    1    2  506  504 -0.75879866789E+02 -0.70795896811E+02 -0.85779405047E+02  0.13463996256E+03  0.00000000000E+00 0. -1.
<scales pt_clust_3="36.19411" pt_clust_4="55.55946" pt_clust_5="99.75461" pt_clust_6="14000.00000"></scales>
<clustering>
<clus scale="   36.194">  2  3  1 -1</clus>
<clus scale="   55.559">  2  4  1 -1</clus>
<clus scale="   99.755">  1  5  2 -1</clus>
<clus scale="   99.755">  1  3  2 -1</clus>
</clustering>
</event>
<event>
 6    0  0.1361919E+003  0.1079303E+03  0.7546771E-02  0.1264451E+00
         21   -1    0    0  505  501  0.00000000000E+00  0.00000000000E+00  0.34169988090E+03  0.34169988090E+03  0.00000000000E+00 0.  1.
         21   -1    0    0  504  502 -0.00000000000E+00 -0.00000000000E+00 -0.39779769493E+03  0.39779769493E+03  0.00000000000E+00 0.  1.
         21    1    1    2  503  501 -0.88660843248E+01 -0.73766302396E+02  0.27671340805E+03  0.28651419689E+03  0.00000000000E+00 0.  1.
         21    1    1    2  504  503  0.65035098004E+02  0.50131650693E+02 -0.32412133741E+03  0.33436116362E+03  0.00000000000E+00 0.  1.
         21    1    1    2  505  506 -0.68287477696E+02 -0.97664417674E+01  0.21225697042E+02  0.72174048035E+02  0.00000000000E+00 0.  1.
         21    1    1    2  506  502  0.12118464016E+02  0.33401093471E+02 -0.29915581718E+02  0.46448167291E+02  0.00000000000E+00 0.  1.
<scales pt_clust_3="107.93029" pt_clust_4="14000.00000" pt_clust_5="67.83392" pt_clust_6="35.53154"></scales>
<clustering>
<clus scale="   35.532">  2  6  1 -1</clus>
<clus scale="   67.834">  1  5  2 -1</clus>
<clus scale="  107.930">  1  3  2 -1</clus>
<clus scale="   67.834">  1  3  2 -1</clus>
</clustering>
</event>
<event>
 6    0  0.1361919E+003  0.1011886E+03  0.7546771E-02  0.1277816E+00
         21   -1    0    0  504  501  0.00000000000E+00  0.00000000000E+00  0.80693441473E+03  0.80693441473E+03  0.00000000000E+00 0. -1.
         21   -1    0    0  505  502 -0.00000000000E+00 -0.00000000000E+00 -0.13287135975E+03  0.13287135975E+03  0.00000000000E+00 0. -1.
         21    1    1    2  503  501 -0.72288359056E+01  0.10465062098E+03  0.56587514715E+03  0.57551602124E+03  0.00000000000E+00 0. -1.
         21    1    1    2  504  506 -0.46919513564E+02 -0.20008631934E+02  0.16187399455E+03  0.16972028817E+03  0.00000000000E+00 0. -1.
         21    1    1    2  505  503 -0.31937452714E+02 -0.79294185925E+01 -0.70729822179E+02  0.78010155176E+02  0.00000000000E+00 0. -1.
         21    1    1    2  506  502  0.86085802183E+02 -0.76712570455E+02  0.17043735457E+02  0.11655930989E+03  0.00000000000E+00 0. -1.
<scales pt_clust_3="101.18859" pt_clust_4="53.18755" pt_clust_5="32.90709" pt_clust_6="14000.00000"></scales>
<clustering>
<clus scale="   32.907">  2  5  1 -1</clus>
<clus scale="   53.188">  1  4  2 -1</clus>
<clus scale="  101.189">  1  3  2 -1</clus>
<clus scale="   53.188">  1  3  2 -1</clus>
</clustering>
</event>
<event>
 6    0  0.1361919E+003  0.1025540E+03  0.7546771E-02  0.1275015E+00
         21   -1    0    0  504  501  0.00000000000E+00  0.00000000000E+00  0.24623994577E+02  0.24623994577E+02  0.00000000000E+00 0. -1.
         21   -1    0    0  503  502 -0.00000000000E+00 -0.00000000000E+00 -0.18024002258E+04  0.18024002258E+04  0.00000000000E+00 0. -1.
         21    1    1    2  503  505  0.50190278409E+02  0.15668996059E+02 -0.57442932958E+03  0.57683068240E+03  0.00000000000E+00 0.  1.
         21    1    1    2  504  506 -0.31282676744E+02 -0.46178125771E+01 -0.41801576260E+02  0.52414710102E+02  0.00000000000E+00 0. -1.
         21    1    1    2  505  501 -0.41137307722E+01  0.84985274761E+02 -0.10337096974E+04  0.10372054561E+04  0.00000000000E+00 0. -1.
         21    1    1    2  506  502 -0.14793870893E+02 -0.96036458243E+02 -0.12783562791E+03  0.16057337168E+03  0.00000000000E+00 0. -1.
<scales pt_clust_3="50.63864" pt_clust_4="31.62167" pt_clust_5="102.55398" pt_clust_6="14000.00000"></scales>
<clustering>
<clus scale="   31.622">  1  4  2 -1</clus>
<clus scale="   50.639">  2  3  1 -1</clus>
<clus scale="  102.554">  2  5  1 -1</clus>
<clus scale="   31.622">  1  3  2 -1</clus>
</clustering>
</event>
<event>
 6    0  0.1361919E+003  0.3212227E+03  0.7546771E-02  0.1075088E+00
         21   -1    0    0  503  501  0.00000000000E+00  0.00000000000E+00  0.20469838548E+03  0.20469838548E+03  0.00000000000E+00 0.  1.
         21   -1    0    0  504  502 -0.00000000000E+00 -0.00000000000E+00 -0.26495814810E+04  0.26495814810E+04  0.00000000000E+00 0.  1.
         21    1    1    2  503  506 -0.15282701714E+03  0.16038622949E+03 -0.86326638593E+01  0.22170783176E+03  0.00000000000E+00 0.  1.
         21    1    1    2  504  501  0.63874381213E+02  0.61125329471E+02 -0.13168319156E+04  0.13197963996E+04  0.00000000000E+00 0.  1.
         21    1    1    2  505  502  0.34967876943E+03 -0.14503637197E+03 -0.84830244502E+03  0.92893908800E+03  0.00000000000E+00 0.  1.
         21    1    1    2  506  505 -0.26072613350E+03 -0.76475186988E+02 -0.27111607102E+03  0.38383654708E+03  0.00000000000E+00 0.  1.
<scales pt_clust_3="221.68805" pt_clust_4="88.40952" pt_clust_5="321.22272" pt_clust_6="14000.00000"></scales>
<clustering>
<clus scale="   88.410">  2  4  1 -1</clus>
<clus scale="  221.688">  1  3  2 -1</clus>
<clus scale="  321.223">  2  5  1 -1</clus>
<clus scale="  221.688">  1  3  2 -1</clus>
</clustering>
</event>
<event>
 6    0  0.1361919E+003  0.1028222E+03  0.7546771E-02  0.1274471E+00
         21   -1    0    0  504  501  0.00000000000E+00  0.00000000000E+00  0.76513064415E+03  0.76513064415E+03  0.00000000000E+00 0. -1.
         21   -1    0    0  505  502 -0.00000000000E+00 -0.00000000000E+00 -0.14037654267E+04  0.14037654267E+04  0.00000000000E+00 0.  1.
         21    1    1    2  503  502 -0.50971718866E+02  0.78698498967E+01 -0.10143475532E+04  0.10156579194E+04  0.00000000000E+00 0.  1.
         21    1    1    2  504  506  0.40585885634E+02 -0.30263102112E+01  0.73648189561E+03  0.73760555531E+03  0.00000000000E+00 0. -1.
         21    1    1    2  505  501 -0.90714424681E+02  0.12082265376E+02 -0.24210468387E+03  0.25882381253E+03  0.00000000000E+00 0.  1.
         21    1    1    2  506  503  0.10110025791E+03 -0.16925805062E+02 -0.11866444117E+03  0.15680878364E+03  0.00000000000E+00 0.  1.
<scales pt_clust_3="50.62930" pt_clust_4="40.69856" pt_clust_5="14000.00000" pt_clust_6="102.82222"></scales>
<clustering>
<clus scale="   40.699">  1  4  2 -1</clus>
<clus scale="   50.629">  2  3  1 -1</clus>
<clus scale="  102.822">  2  6  1 -1</clus>
<clus scale="   40.699">  1  3  2 -1</clus>
</clustering>
</event>
<event>
 6    0  0.1361919E+003  0.9367074E+02  0.7546771E-02  0.1294198E+00
         21   -1    0    0  505  501  0.00000000000E+00  0.00000000000E+00  0.97832861015E+02  0.97832861015E+02  0.00000000000E+00 0.  1.
         21   -1    0    0  503  502 -0.00000000000E+00 -0.00000000000E+00 -0.15972545824E+04  0.15972545824E+04  0.00000000000E+00 0. -1.
         21    1    1    2  503  506 -0.36272454244E+02 -0.11422141610E+02 -0.69785009200E+03  0.69888547499E+03  0.00000000000E+00 0.  1.
         21    1    1    2  504  502  0.38396002449E+02 -0.81077065920E+02 -0.81427906685E+03  0.81920579975E+03  0.00000000000E+00 0. -1.
         21    1    1    2  505  504 -0.26018451231E+01 -0.32476990012E+02  0.37401915999E+02  0.49602699510E+02  0.00000000000E+00 0.  1.
         21    1    1    2  506  501  0.47829691807E+00  0.12497619754E+03 -0.24694478552E+02  0.12739346918E+03  0.00000000000E+00 0.  1.
<scales pt_clust_3="38.14604" pt_clust_4="93.67074" pt_clust_5="32.58104" pt_clust_6="14000.00000"></scales>
<clustering>
<clus scale="   32.581">  1  5  2 -1</clus>
<clus scale="   38.146">  2  3  1 -1</clus>
<clus scale="   93.671">  2  4  1 -1</clus>
<clus scale="   32.581">  1  3  2 -1</clus>
</clustering>
</event>
<event>
 6    0  0.1361919E+003  0.1794836E+03  0.7546771E-02  0.1168304E+00
         21   -1    0    0  506  501  0.00000000000E+00  0.00000000000E+00  0.65570737617E+03  0.65570737617E+03  0.00000000000E+00 0.  1.
         21   -1    0    0  505  502 -0.00000000000E+00 -0.00000000000E+00 -0.27396541021E+03  0.27396541021E+03  0.00000000000E+00 0.  1.
         21    1    1    2  503  502  0.35720966085E+02 -0.63845998285E+02 -0.59778942891E+02  0.94476562852E+02  0.00000000000E+00 0.  1.
         21    1    1    2  504  501  0.13815141288E+03  0.66365500567E+02  0.29205473998E+03  0.32982747564E+03  0.00000000000E+00 0.  1.
         21    1    1    2  505  504  0.12312962691E+03  0.30580670554E+02 -0.60084922219E+02  0.14037905938E+03  0.00000000000E+00 0.  1.
         21    1    1    2  506  503 -0.29700200587E+03 -0.33100172837E+02  0.20955109110E+03  0.36498968851E+03  0.00000000000E+00 0.  1.
<scales pt_clust_3="73.15941" pt_clust_4="179.48360" pt_clust_5="141.33234" pt_clust_6="14000.00000"></scales>
<clustering>
<clus scale="   73.159">  2  3  1 -1</clus>
<clus scale="  141.332">  2  5  1 -1</clus>
<clus scale="  179.484">  1  4  2 -1</clus>
<clus scale="  179.484">  1  3  2 -1</clus>
</clustering>
</event>
<event>
 6    0  0.1361919E+003  0.1672948E+03  0.7546771E-02  0.1180699E+00
         21   -1    0    0  506  501  0.00000000000E+00  0.00000000000E+00  0.60382523635E+03  0.60382523635E+03  0.00000000000E+00 0.  1.
         21   -1    0    0  505  502 -0.00000000000E+00 -0.00000000000E+00 -0.19829037208E+03  0.19829037208E+03  0.00000000000E+00 0. -1.
         21    1    1    2  503  501  0.21403063604E+02  0.22723170732E+02  0.26056832998E+02  0.40661925257E+02  0.00000000000E+00 0.  1.
         21    1    1    2  504  502  0.67037094914E+02 -0.60032974248E+02 -0.49169383665E+02  0.10254539669E+03  0.00000000000E+00 0.  1.
         21    1    1    2  505  503 -0.12330035808E+03  0.19886034048E+03  0.41064282925E+02  0.23755986330E+03  0.00000000000E+00 0. -1.
         21    1    1    2  506  504  0.34860199561E+02 -0.16155053696E+03  0.38758313201E+03  0.42134842319E+03  0.00000000000E+00 0.  1.
<scales pt_clust_3="31.21592" pt_clust_4="90.03707" pt_clust_5="167.29485" pt_clust_6="14000.00000"></scales>
<clustering>
<clus scale="   31.216">  1  3  2 -1</clus>
<clus scale="   90.037">  2  4  1 -1</clus>
<clus scale="  167.295">  2  5  1 -1</clus>
<clus scale="   31.216">  1  3  2 -1</clus>
</clustering>
</event>
<event>
 6    0  0.1361919E+003  0.8750587E+02  0.7546771E-02  0.1309006E+00
         21   -1    0    0  503  501  0.00000000000E+00  0.00000000000E+00  0.60699412698E+03  0.60699412698E+03  0.00000000000E+00 0. -1.
         21   -1    0    0  505  502 -0.00000000000E+00 -0.00000000000E+00 -0.73111055396E+03  0.73111055396E+03  0.00000000000E+00 0.  1.
         21    1    1    2  503  506  0.18984787301E+02 -0.69940864919E+02  0.58338514630E+03  0.58786935255E+03  0.00000000000E+00 0. -1.
         21    1    1    2  504  502  0.35569296103E+02 -0.22509994671E+02 -0.15269542387E+03  0.15839118396E+03  0.00000000000E+00 0.  1.
         21    1    1    2  505  501 -0.98265156147E+02 -0.39910551670E+00 -0.20569714963E+03  0.22796385144E+03  0.00000000000E+00 0.  1.
         21    1    1    2  506  504  0.43711072744E+02  0.92849965106E+02 -0.34910899977E+03  0.36388029299E+03  0.00000000000E+00 0.  1.
<scales pt_clust_3="72.59270" pt_clust_4="42.09364" pt_clust_5="87.50587" pt_clust_6="14000.00000"></scales>
<clustering>
<clus scale="   42.094">  2  4  1 -1</clus>
<clus scale="   72.593">  1  3  2 -1</clus>
<clus scale="   87.506">  1  5  2 -1</clus>
<clus scale="   72.593">  1  3  2 -1</clus>
</clustering>
</event>
<event>
 6    0  0.1361919E+003  0.8805751E+02  0.7546771E-02  0.1307625E+00
         21   -1    0    0  504  501  0.00000000000E+00  0.00000000000E+00  0.10655519151E+03  0.10655519151E+03  0.00000000000E+00 0. -1.
         21   -1    0    0  503  502 -0.00000000000E+00 -0.00000000000E+00 -0.14605618682E+04  0.14605618682E+04  0.00000000000E+00 0. -1.
         21    1    1    2  503  501  0.74967289452E+01  0.50205289556E+02  0.23546241149E+02  0.55957104254E+02  0.00000000000E+00 0. -1.
         21    1    1    2  504  506 -0.97265073049E+02 -0.55181505243E+02  0.11258596702E+02  0.11239327807E+03  0.00000000000E+00 0. -1.
         21    1    1    2  505  502  0.21649794812E+02  0.59466276999E+02 -0.90079750783E+03  0.90301777493E+03  0.00000000000E+00 0. -1.
         21    1    1    2  506  505  0.68118549291E+02 -0.54490061312E+02 -0.48801400673E+03  0.49574890247E+03  0.00000000000E+00 0. -1.
<scales pt_clust_3="50.76192" pt_clust_4="88.05751" pt_clust_5="64.11149" pt_clust_6="14000.00000"></scales>
<clustering>
<clus scale="   50.762">  1  3  2 -1</clus>
<clus scale="   64.111">  2  5  1 -1</clus>
<clus scale="   88.058">  1  4  2 -1</clus>
<clus scale="   50.762">  1  3  2 -1</clus>
</clustering>
</event>
<event>
 6    0  0.1361919E+003  0.1083609E+03  0.7546771E-02  0.1263636E+00
         21   -1    0    0  506  501  0.00000000000E+00  0.00000000000E+00  0.61325989648E+03  0.61325989648E+03  0.00000000000E+00 0. -1.
         21   -1    0    0  505  502 -0.00000000000E+00 -0.00000000000E+00 -0.20879769015E+03  0.20879769015E+03  0.00000000000E+00 0. -1.
         21    1    1    2  503  504 -0.20038411391E+01 -0.10421859262E+03  0.10972670220E+02  0.10481378688E+03  0.00000000000E+00 0. -1.
         21    1    1    2  504  501  0.51363115677E+02  0.19953126254E+02  0.37206404177E+03  0.37612225151E+03  0.00000000000E+00 0. -1.
         21    1    1    2  505  503  0.43719387411E+02 -0.21824884476E+01 -0.13366328072E+03  0.14064857164E+03  0.00000000000E+00 0. -1.
         21    1    1    2  506  502 -0.93078661949E+02  0.86447954817E+02  0.15508877506E+03  0.20047297661E+03  0.00000000000E+00 0. -1.
<scales pt_clust_3="108.36087" pt_clust_4="56.23672" pt_clust_5="43.77383" pt_clust_6="14000.00000"></scales>
<clustering>
<clus scale="   43.774">  2  5  1 -1</clus>
<clus scale="   56.237">  1  4  2 -1</clus>
<clus scale="  108.361">  2  3  1 -1</clus>
<clus scale="   56.237">  1  3  2 -1</clus>
</clustering>
</event>
<event>
 6    0  0.1361919E+003  0.9837601E+02  0.7546771E-02  0.1283749E+00
         21   -1    0    0  506  501  0.00000000000E+00  0.00000000000E+00  0.27743870229E+03  0.27743870229E+03  0.00000000000E+00 0. -1.
         21   -1    0    0  504  502 -0.00000000000E+00 -0.00000000000E+00 -0.16006249081E+03  0.16006249081E+03  0.00000000000E+00 0.  1.
         21    1    1    2  503  501  0.34494717783E+02  0.40903090965E+02  0.14460016547E+03  0.15418221772E+03  0.00000000000E+00 0. -1.
         21    1    1    2  504  505 -0.10143704763E+03 -0.44741739910E+02 -0.10042255112E+03  0.14958605114E+03  0.00000000000E+00 0.  1.
         21    1    1    2  505  503  0.48402584550E+02  0.44391723122E+02  0.54643751854E+02  0.85436379193E+02  0.00000000000E+00 0.  1.
         21    1    1    2  506  502  0.18539745294E+02 -0.40553074177E+02  0.18554845279E+02  0.48296545053E+02  0.00000000000E+00 0.  1.
<scales pt_clust_3="48.58194" pt_clust_4="14000.00000" pt_clust_5="98.37601" pt_clust_6="44.59007"></scales>
<clustering>
<clus scale="   44.590">  1  6  2 -1</clus>
<clus scale="   48.582">  1  3  2 -1</clus>
<clus scale="   98.376">  1  5  2 -1</clus>
<clus scale="   44.590">  1  3  2 -1</clus>
</clustering>
</event>
<event>
 6    0  0.1361919E+003  0.1144807E+03  0.7546771E-02  0.1252490E+00
         21   -1    0    0  503  501  0.00000000000E+00  0.00000000000E+00  0.65770290657E+03  0.65770290657E+03  0.00000000000E+00 0.  1.
         21   -1    0    0  505  502 -0.00000000000E+00 -0.00000000000E+00 -0.20752576612E+03  0.20752576612E+03  0.00000000000E+00 0.  1.
         21    1    1    2  503  506 -0.10103387055E+03  0.12500750070E+03  0.69000126305E+02  0.17491636762E+03  0.00000000000E+00 0.  1.
         21    1    1    2  504  501  0.82097831719E+02 -0.12878055901E+02  0.48443900109E+03  0.49151504969E+03  0.00000000000E+00 0.  1.
         21    1    1    2  505  504 -0.24438244225E+02 -0.44069871847E+02  0.17676641607E+02  0.53402668884E+02  0.00000000000E+00 0.  1.
         21    1    1    2  506  502  0.43374283058E+02 -0.68059572956E+02 -0.12093862855E+03  0.14539458648E+03  0.00000000000E+00 0.  1.
<scales pt_clust_3="114.48073" pt_clust_4="82.78347" pt_clust_5="50.39228" pt_clust_6="14000.00000"></scales>
<clustering>
<clus scale="   50.392">  2  5  1 -1</clus>
<clus scale="   82.783">  1  4  2 -1</clus>
<clus scale="  114.481">  1  3  2 -1</clus>
<clus scale="   82.783">  1  3  2 -1</clus>
</clustering>
</event>
<event>
 6    0  0.1361919E+003  0.8510586E+02  0.7546771E-02  0.1315156E+00
         21   -1    0    0  505  501  0.00000000000E+00  0.00000000000E+00  0.13302400389E+04  0.13302400389E+04  0.00000000000E+00 0. -1.
         21   -1    0    0  506  502 -0.00000000000E+00 -0.00000000000E+00 -0.25507961138E+02  0.25507961138E+02  0.00000000000E+00 0. -1.
         21    1    1    2  503  504  0.49473710093E+01 -0.10288775777E+03  0.16886517053E+03  0.19780245953E+03  0.00000000000E+00 0. -1.
         21    1    1    2  504  502  0.68215581102E+01  0.69793766416E+02  0.15788319226E+03  0.17275649303E+03  0.00000000000E+00 0. -1.
         21    1    1    2  505  503  0.16914776084E+02  0.48389222637E+02  0.88860883272E+03  0.89008611050E+03  0.00000000000E+00 0. -1.
         21    1    1    2  506  501 -0.28683705203E+02 -0.15295231285E+02  0.89374882228E+02  0.95102936955E+02  0.00000000000E+00 0. -1.
<scales pt_clust_3="85.10586" pt_clust_4="14000.00000" pt_clust_5="50.48577" pt_clust_6="32.50691"></scales>
<clustering>
<clus scale="   32.507">  2  6  1 -1</clus>
<clus scale="   50.486">  1  5  2 -1</clus>
<clus scale="   85.106">  1  3  2 -1</clus>
<clus scale="   50.486">  1  3  2 -1</clus>
</clustering>
</event>
<event>
 6    0  0.1361919E+003  0.1495570E+03  0.7546771E-02  0.1201018E+00
         21   -1    0    0  506  501  0.00000000000E+00  0.00000000000E+00  0.84462998430E+03  0.84462998430E+03  0.00000000000E+00 0. -1.
         21   -1    0    0  505  502 -0.00000000000E+00 -0.00000000000E+00 -0.85699618427E+03  0.85699618427E+03  0.00000000000E+00 0.  1.
         21    1    1    2  503  502 -0.64132571067E+02  0.27675080509E+01 -0.66967333910E+03  0.67274291291E+03  0.00000000000E+00 0.  1.
         21    1    1    2  504  501  0.19033673789E+02 -0.46089427228E+02  0.29095816871E+01  0.49949791849E+02  0.00000000000E+00 0. -1.
         21    1    1    2  505  504 -0.80956236757E+02  0.65119216511E+02 -0.13997854699E+03  0.17432274162E+03  0.00000000000E+00 0.  1.
         21    1    1    2  506  503  0.12605513403E+03 -0.21797297334E+02  0.79437610442E+03  0.80461072219E+03  0.00000000000E+00 0. -1.
<scales pt_clust_3="64.15291" pt_clust_4="49.86498" pt_clust_5="14000.00000" pt_clust_6="149.55696"></scales>
<clustering>
<clus scale="   49.865">  1  4  2 -1</clus>
<clus scale="   64.153">  2  3  1 -1</clus>
<clus scale="  149.557">  1  6  2 -1</clus>
<clus scale="   49.865">  1  3  2 -1</clus>
</clustering>
</event>
<event>
 6    0  0.1361919E+003  0.5487687E+02  0.7546771E-02  0.1420682E+00
         21   -1    0    0  506  501  0.00000000000E+00  0.00000000000E+00  0.12272435035E+03  0.12272435035E+03  0.00000000000E+00 0. -1.
         21   -1    0    0  504  502 -0.00000000000E+00 -0.00000000000E+00 -0.62091405997E+03  0.62091405997E+03  0.00000000000E+00 0. -1.
         21    1    1    2  503  501 -0.14324899155E+02  0.11022228540E+03 -0.33555063328E+03  0.35348038479E+03  0.00000000000E+00 0. -1.
         21    1    1    2  504  503  0.36858908874E+02 -0.16602074969E+02 -0.21265811908E+03  0.21646635690E+03  0.00000000000E+00 0.  1.
         21    1    1    2  505  502 -0.29897037125E+02 -0.40424663578E+02 -0.43082210392E+02  0.66212257978E+02  0.00000000000E+00 0. -1.
         21    1    1    2  506  505  0.73630274069E+01 -0.53195546852E+02  0.93101253138E+02  0.10747941065E+03  0.00000000000E+00 0. -1.
<scales pt_clust_3="14000.00000" pt_clust_4="40.42534" pt_clust_5="49.41317" pt_clust_6="54.87687"></scales>
<clustering>
<clus scale="   40.425">  2  4  1 -1</clus>
<clus scale="   49.413">  2  5  1 -1</clus>
<clus scale="   54.877">  1  6  2 -1</clus>
<clus scale="   54.877">  1  3  2 -1</clus>
</clustering>
</event>
<event>
 6    0  0.1361919E+003  0.1777854E+03  0.7546771E-02  0.1169964E+00
         21   -1    0    0  503  501  0.00000000000E+00  0.00000000000E+00  0.44929261047E+03  0.44929261047E+03  0.00000000000E+00 0.  1.
         21   -1    0    0  505  502 -0.00000000000E+00 -0.00000000000E+00 -0.64320119077E+03  0.64320119077E+03  0.00000000000E+00 0.  1.
         21    1    1    2  503  506 -0.15479707578E+03  0.16890863952E+02 -0.56987325105E+03  0.59076472323E+03  0.00000000000E+00 0.  1.
         21    1    1    2  504  501  0.10228710415E+02 -0.38535026346E+02  0.24057115089E+03  0.24385252390E+03  0.00000000000E+00 0.  1.
         21    1    1    2  505  504  0.17058413628E+03  0.39896613284E+02  0.14188842526E+03  0.22543959840E+03  0.00000000000E+00 0.  1.
         21    1    1    2  506  502 -0.26015770916E+02 -0.18252450889E+02 -0.64949053993E+01  0.32436955713E+02  0.00000000000E+00 0.  1.
<scales pt_clust_3="177.78545" pt_clust_4="39.89840" pt_clust_5="14000.00000" pt_clust_6="31.78006"></scales>
<clustering>
<clus scale="   31.780">  2  6  1 -1</clus>
<clus scale="   39.898">  1  4  2 -1</clus>
<clus scale="  177.785">  2  3  1 -1</clus>
<clus scale="   39.898">  1  3  2 -1</clus>
</clustering>
</event>
<event>
 6    0  0.1361919E+003  0.1196144E+03  0.7546771E-02  0.1243734E+00
         21   -1    0    0  503  501  0.00000000000E+00  0.00000000000E+00  0.15382114190E+04  0.15382114190E+04  0.00000000000E+00 0. -1.
         21   -1    0    0  506  502 -0.00000000000E+00 -0.00000000000E+00 -0.94169303380E+03  0.94169303380E+03  0.00000000000E+00 0.  1.
         21    1    1    2  503  504 -0.92835636995E+02  0.70740956904E+02  0.10270169904E+04  0.10336279006E+04  0.00000000000E+00 0. -1.
         21    1    1    2  504  502 -0.40305137680E+02 -0.30152517547E+02 -0.87638009619E+03  0.87782444226E+03  0.00000000000E+00 0.  1.
         21    1    1    2  505  501  0.14486372837E+03 -0.12366321327E+02  0.49205284712E+03  0.51308325841E+03  0.00000000000E+00 0. -1.
         21    1    1    2  506  505 -0.11722953694E+02 -0.28222118030E+02 -0.46171356112E+02  0.55368851484E+02  0.00000000000E+00 0.  1.
<scales pt_clust_3="14000.00000" pt_clust_4="77.74773" pt_clust_5="119.61442" pt_clust_6="30.56003"></scales>
<clustering>
<clus scale="   30.560">  2  6  1 -1</clus>
<clus scale="   77.748">  2  4  1 -1</clus>
<clus scale="  119.614">  2  5  1 -1</clus>
<clus scale="  119.614">  1  3  2 -1</clus>
</clustering>
</event>
<event>
 6    0  0.1361919E+003  0.8661386E+02  0.7546771E-02  0.1311265E+00
         21   -1    0    0  506  501  0.00000000000E+00  0.00000000000E+00  0.12973858585E+03  0.12973858585E+03  0.00000000000E+00 0.  1.
         21   -1    0    0  505  502 -0.00000000000E+00 -0.00000000000E+00 -0.25794812469E+03  0.25794812469E+03  0.00000000000E+00 0.  1.
         21    1    1    2  503  502 -0.15895905372E+02 -0.13151658224E+03 -0.15522813414E+03  0.20407122492E+03  0.00000000000E+00 0.  1.
         21    1    1    2  504  501  0.23518200366E+02  0.43223781555E+02  0.58808607019E+02  0.76680201486E+02  0.00000000000E+00 0.  1.
         21    1    1    2  505  504 -0.26930101784E+02  0.35841171731E+02 -0.22897048208E+02  0.50339793303E+02  0.00000000000E+00 0.  1.
         21    1    1    2  506  503  0.19307806790E+02  0.52451628950E+02 -0.88929635075E+01  0.56595490832E+02  0.00000000000E+00 0.  1.
<scales pt_clust_3="14000.00000" pt_clust_4="49.98628" pt_clust_5="44.83102" pt_clust_6="86.61386"></scales>
<clustering>
<clus scale="   44.831">  2  5  1 -1</clus>
<clus scale="   49.986">  1  4  2 -1</clus>
<clus scale="   86.614">  1  6  2 -1</clus>
<clus scale="   49.986">  1  3  2 -1</clus>
</clustering>
</event>
<event>
 6    0  0.1361919E+003  0.7417892E+02  0.7546771E-02  0.1346433E+00
         21   -1    0    0  504  501  0.00000000000E+00  0.00000000000E+00  0.85666773023E+03  0.85666773023E+03  0.00000000000E+00 0. -1.
         21   -1    0    0  506  502 -0.00000000000E+00 -0.00000000000E+00 -0.11762210362E+03  0.11762210362E+03  0.00000000000E+00 0. -1.
         21    1    1    2  503  501 -0.61556693437E+02  0.41139493729E+02  0.68765431705E+03  0.69162861726E+03  0.00000000000E+00 0. -1.
         21    1    1    2  504  502 -0.51315151047E+02  0.11695369019E+02  0.51810906555E+02  0.73853885622E+02  0.00000000000E+00 0. -1.
         21    1    1    2  505  503  0.47000822593E+02 -0.64449821877E+02  0.73957828348E+02  0.10877783432E+03  0.00000000000E+00 0. -1.
         21    1    1    2  506  505  0.65871021892E+02  0.11614959129E+02 -0.74377425346E+02  0.10002949666E+03  0.00000000000E+00 0. -1.
<scales pt_clust_3="14000.00000" pt_clust_4="52.63104" pt_clust_5="74.17892" pt_clust_6="31.93075"></scales>
<clustering>
<clus scale="   52.631">  2  4  1 -1</clus>
<clus scale="   31.931">  2  6  1 -1</clus>
<clus scale="   74.179">  2  5  1 -1</clus>
<clus scale="   74.179">  1  3  2 -1</clus>
</clustering>
</event>
<event>
 6    0  0.1361919E+003  0.7551072E+02  0.7546771E-02  0.1342297E+00
         21   -1    0    0  503  501  0.00000000000E+00  0.00000000000E+00  0.37386076081E+03  0.37386076081E+03  0.00000000000E+00 0. -1.
         21   -1    0    0  504  502 -0.00000000000E+00 -0.00000000000E+00 -0.85312073809E+02  0.85312073809E+02  0.00000000000E+00 0. -1.
         21    1    1    2  503  502  0.31976779316E+02  0.63361041285E+02  0.36458428660E+02  0.79789429052E+02  0.00000000000E+00 0. -1.
         21    1    1    2  504  505 -0.38988103082E+02  0.78573130524E+01 -0.17472680675E+02  0.43440811691E+02  0.00000000000E+00 0. -1.
         21    1    1    2  505  506  0.68771911074E+02 -0.23093909679E+02  0.21273721224E+02  0.75600764756E+02  0.00000000000E+00 0. -1.
         21    1    1    2  506  501 -0.61760587308E+02 -0.48124444658E+02  0.24828921780E+03  0.26034182912E+03  0.00000000000E+00 0. -1.
<scales pt_clust_3="75.51072" pt_clust_4="39.77197" pt_clust_5="53.06226" pt_clust_6="14000.00000"></scales>
<clustering>
<clus scale="   39.772">  2  4  1 -1</clus>
<clus scale="   53.062">  2  5  1 -1</clus>
<clus scale="   75.511">  2  3  1 -1</clus>
<clus scale="   75.511">  1  3  2 -1</clus>
</clustering>
</event>
<event>
 6    0  0.1361919E+003  0.1000165E+03  0.7546771E-02  0.1280261E+00
         21   -1    0    0  502  501  0.00000000000E+00  0.00000000000E+00  0.92081567410E+03  0.92081567410E+03  0.00000000000E+00 0.  1.
         21   -1    0    0  506  502 -0.00000000000E+00 -0.00000000000E+00 -0.20263020713E+03  0.20263020713E+03  0.00000000000E+00 0.  1.
         21    1    1    2  503  504 -0.69187652794E+02  0.56656406113E+02  0.48232223779E+02  0.10160328274E+03  0.00000000000E+00 0.  1.
         21    1    1    2  504  501  0.77236876591E+02 -0.65516069330E+02  0.80246617850E+03  0.80883240420E+03  0.00000000000E+00 0.  1.
         21    1    1    2  505  503 -0.74700676219E+02  0.37351761459E+02 -0.32786128692E+02  0.89723326656E+02  0.00000000000E+00 0. -1.
         21    1    1    2  506  505  0.66651452421E+02 -0.28492098242E+02 -0.99726806620E+02  0.12328686763E+03  0.00000000000E+00 0.  1.
<scales pt_clust_3="100.01645" pt_clust_4="14000.00000" pt_clust_5="34.99991" pt_clust_6="72.48597"></scales>
<clustering>
<clus scale="   72.486">  2  6  1 -1</clus>
<clus scale="   35.000">  2  5  1 -1</clus>
<clus scale="  100.016">  2  3  1 -1</clus>
<clus scale="  100.016">  1  3  2 -1</clus>
</clustering>
</event>
<event>
 6    0  0.1361919E+003  0.8710395E+02  0.7546771E-02  0.1310020E+00
         21   -1    0    0  503  501  0.00000000000E+00  0.00000000000E+00  0.68456074705E+03  0.68456074705E+03  0.00000000000E+00 0.  1.
         21   -1    0    0  506  502 -0.00000000000E+00 -0.00000000000E+00 -0.23891998857E+03  0.23891998857E+03  0.00000000000E+00 0.  1.
         21    1    1    2  503  505 -0.41919434347E+02  0.29568015221E+02  0.93570961298E+02  0.10671003373E+03  0.00000000000E+00 0.  1.
         21    1    1    2  504  502  0.37076093774E+02  0.25543241549E+01 -0.69479669963E+02  0.78794580014E+02  0.00000000000E+00 0.  1.
         21    1    1    2  505  504 -0.63410263089E+02 -0.85174191517E+02 -0.13668679689E+03  0.17308606185E+03  0.00000000000E+00 0.  1.
         21    1    1    2  506  501  0.68253603662E+02  0.53051852141E+02  0.55823626403E+03  0.56489006002E+03  0.00000000000E+00 0.  1.
<scales pt_clust_3="50.15773" pt_clust_4="37.16398" pt_clust_5="87.10395" pt_clust_6="14000.00000"></scales>
<clustering>
<clus scale="   37.164">  2  4  1 -1</clus>
<clus scale="   50.158">  1  3  2 -1</clus>
<clus scale="   87.104">  2  5  1 -1</clus>
<clus scale="   50.158">  1  3  2 -1</clus>
</clustering>
</event>
<event>
 6    0  0.1361919E+003  0.1038245E+03  0.7546771E-02  0.1272453E+00
         21   -1    0    0  505  501  0.00000000000E+00  0.00000000000E+00  0.16619207479E+03  0.16619207479E+03  0.00000000000E+00 0.  1.
         21   -1    0    0  503  502 -0.00000000000E+00 -0.00000000000E+00 -0.57172172076E+03  0.57172172076E+03  0.00000000000E+00 0.  1.
         21    1    1    2  503  504  0.99237971182E+01  0.46744968557E+02 -0.22107432804E+03  0.22618008832E+03  0.00000000000E+00 0.  1.
         21    1    1    2  504  501 -0.33858957720E+02  0.74158588268E+02 -0.14086006946E+03  0.16274976006E+03  0.00000000000E+00 0.  1.
         21    1    1    2  505  506 -0.20159280765E+02 -0.10660137888E+03  0.12999021443E+03  0.16931540517E+03  0.00000000000E+00 0.  1.
         21    1    1    2  506  502  0.44094441366E+02 -0.14302177947E+02 -0.17358546291E+03  0.17966854200E+03  0.00000000000E+00 0.  1.
<scales pt_clust_3="52.06282" pt_clust_4="103.82454" pt_clust_5="14000.00000" pt_clust_6="46.35593"></scales>
<clustering>
<clus scale="   46.356">  2  6  1 -1</clus>
<clus scale="   52.063">  2  3  1 -1</clus>
<clus scale="  103.825">  2  4  1 -1</clus>
<clus scale="  103.825">  1  3  2 -1</clus>
</clustering>
</event>
<event>
 6    0  0.1361919E+003  0.8329116E+02  0.7546771E-02  0.1319963E+00
         21   -1    0    0  506  501  0.00000000000E+00  0.00000000000E+00  0.21675922720E+03  0.21675922720E+03  0.00000000000E+00 0.  1.
         21   -1    0    0  503  502 -0.00000000000E+00 -0.00000000000E+00 -0.55758312998E+03  0.55758312998E+03  0.00000000000E+00 0.  1.
         21    1    1    2  503  504 -0.35373691125E+02 -0.25269519673E+02  0.13487386532E+02  0.45516549119E+02  0.00000000000E+00 0. -1.
         21    1    1    2  504  501  0.14607255737E+01  0.33765061696E+02  0.17142647656E+02  0.37895692093E+02  0.00000000000E+00 0. -1.
         21    1    1    2  505  502 -0.50412660836E+02  0.65577853750E+02 -0.50770697838E+03  0.51440088178E+03  0.00000000000E+00 0.  1.
         21    1    1    2  506  505  0.84325626387E+02 -0.74073395774E+02  0.13625304142E+03  0.17652923419E+03  0.00000000000E+00 0.  1.
<scales pt_clust_3="40.44088" pt_clust_4="33.79664" pt_clust_5="83.29116" pt_clust_6="14000.00000"></scales>
<clustering>
<clus scale="   33.797">  1  4  2 -1</clus>
<clus scale="   40.441">  1  3  2 -1</clus>
<clus scale="   83.291">  2  5  1 -1</clus>
<clus scale="   33.797">  1  3  2 -1</clus>
</clustering>
</event>
<event>
 6    0  0.1361919E+003  0.1711320E+03  0.7546771E-02  0.1176673E+00
         21   -1    0    0  506  501  0.00000000000E+00  0.00000000000E+00  0.30595956546E+03  0.30595956546E+03  0.00000000000E+00 0. -1.
         21   -1    0    0  504  502 -0.00000000000E+00 -0.00000000000E+00 -0.16491370743E+03  0.16491370743E+03  0.00000000000E+00 0. -1.
         21    1    1    2  503  502 -0.23889299905E+02  0.15202260487E+03  0.14227295770E+01  0.15389475365E+03  0.00000000000E+00 0. -1.
         21    1    1    2  504  505  0.26809127048E+02  0.23599046511E+02 -0.19706264400E+02  0.40791925009E+02  0.00000000000E+00 0. -1.
         21    1    1    2  505  501 -0.34670132281E+02  0.10936592002E+02  0.25821050253E+02  0.44590960442E+02  0.00000000000E+00 0.  1.
         21    1    1    2  506  503  0.31750305139E+02 -0.18655824338E+03  0.13350834260E+03  0.23159563379E+03  0.00000000000E+00 0. -1.
<scales pt_clust_3="14000.00000" pt_clust_4="35.71616" pt_clust_5="35.13180" pt_clust_6="171.13195"></scales>
<clustering>
<clus scale="   35.716">  2  4  1 -1</clus>
<clus scale="   35.132">  1  5  2 -1</clus>
<clus scale="  171.132">  1  6  2 -1</clus>
<clus scale="   35.132">  1  3  2 -1</clus>
</clustering>
</event>
<event>
 6    0  0.1361919E+003  0.1764861E+03  0.7546771E-02  0.1171248E+00
         21   -1    0    0  504  501  0.00000000000E+00  0.00000000000E+00  0.16093389447E+04  0.16093389447E+04  0.00000000000E+00 0.  1.
         21   -1    0    0  506  502 -0.00000000000E+00 -0.00000000000E+00 -0.54778855227E+03  0.54778855227E+03  0.00000000000E+00 0. -1.
         21    1    1    2  503  502  0.66212927777E+02 -0.13881759167E+03 -0.17281348718E+03  0.23134168867E+03  0.00000000000E+00 0. -1.
         21    1    1    2  504  503 -0.28191606457E+02 -0.21387833786E+02  0.53759562984E+03  0.53875900673E+03  0.00000000000E+00 0.  1.
         21    1    1    2  505  501  0.66647332626E+02 -0.94913837400E+01  0.10118900736E+04  0.10141269518E+04  0.00000000000E+00 0.  1.
         21    1    1    2  506  505 -0.10466865395E+03  0.16969680920E+03 -0.31512182378E+03  0.37289984982E+03  0.00000000000E+00 0. -1.
<scales pt_clust_3="176.48613" pt_clust_4="35.38652" pt_clust_5="49.82031" pt_clust_6="14000.00000"></scales>
<clustering>
<clus scale="   35.387">  1  4  2 -1</clus>
<clus scale="   49.820">  1  5  2 -1</clus>
<clus scale="  176.486">  1  3  2 -1</clus>
<clus scale="   35.387">  1  3  2 -1</clus>
</clustering>
</event>
<event>
 6    0  0.1361919E+003  0.1065123E+03  0.7546771E-02  0.1267168E+00
         21   -1    0    0  504  501  0.00000000000E+00  0.00000000000E+00  0.14321805564E+03  0.14321805564E+03  0.00000000000E+00 0. -1.
         21   -1    0    0  505  502 -0.00000000000E+00 -0.00000000000E+00 -0.67182914357E+03  0.67182914357E+03  0.00000000000E+00 0. -1.
         21    1    1    2  503  501  0.24001583526E+02  0.29075013618E+02  0.93637485086E+02  0.10094261262E+03  0.00000000000E+00 0. -1.
         21    1    1    2  504  506 -0.64939603278E+02 -0.78828436894E+02 -0.19937700433E+03  0.22401398259E+03  0.00000000000E+00 0. -1.
         21    1    1    2  505  503  0.12818975905E+02  0.96880490128E+02 -0.43841834465E+02  0.10710864559E+03  0.00000000000E+00 0. -1.
         21    1    1    2  506  502  0.28119043847E+02 -0.47127066852E+02 -0.37902973422E+03  0.38298195842E+03  0.00000000000E+00 0. -1.
<scales pt_clust_3="37.70189" pt_clust_4="106.51230" pt_clust_5="14000.00000" pt_clust_6="54.35475"></scales>
<clustering>
<clus scale="   37.702">  1  3  2 -1</clus>
<clus scale="   54.355">  2  6  1 -1</clus>
<clus scale="  106.512">  2  4  1 -1</clus>
<clus scale="   37.702">  1  3  2 -1</clus>
</clustering>
</event>
<event>
 6    0  0.1361919E+003  0.1043747E+03  0.7546771E-02  0.1271357E+00
         21   -1    0    0  505  501  0.00000000000E+00  0.00000000000E+00  0.34092511859E+03  0.34092511859E+03  0.00000000000E+00 0. -1.
         21   -1    0    0  504  502 -0.00000000000E+00 -0.00000000000E+00 -0.25754227931E+03  0.25754227931E+03  0.00000000000E+00 0. -1.
         21    1    1    2  503  506 -0.35624659930E+02  0.12390926681E+03  0.55317773504E+02  0.14029497090E+03  0.00000000000E+00 0. -1.
         21    1    1    2  504  501  0.71600180700E+02 -0.10537583423E+03 -0.48676178888E+02  0.13638190022E+03  0.00000000000E+00 0. -1.
         21    1    1    2  505  503 -0.30838139769E+02 -0.75257181817E+02  0.18354058309E+03  0.20075303216E+03  0.00000000000E+00 0. -1.
         21    1    1    2  506  502 -0.51373810006E+01  0.56723749243E+02 -0.10679933843E+03  0.12103749461E+03  0.00000000000E+00 0. -1.
<scales pt_clust_3="104.37467" pt_clust_4="14000.00000" pt_clust_5="78.31775" pt_clust_6="56.95592"></scales>
<clustering>
<clus scale="   56.956">  2  6  1 -1</clus>
<clus scale="   78.318">  1  5  2 -1</clus>
<clus scale="  104.375">  1  3  2 -1</clus>
<clus scale="   78.318">  1  3  2 -1</clus>
</clustering>
</event>
<event>
 6    0  0.1361919E+003  0.1229565E+03  0.7546771E-02  0.1238298E+00
         21   -1    0    0  504  501  0.00000000000E+00  0.00000000000E+00  0.27184888565E+03  0.27184888565E+03  0.00000000000E+00 0. -1.
         21   -1    0    0  503  502 -0.00000000000E+00 -0.00000000000E+00 -0.14969654333E+03  0.14969654333E+03  0.00000000000E+00 0. -1.
         21    1    1    2  503  501 -0.16797538163E+02  0.11160372474E+03  0.93708269737E+02  0.14669283718E+03  0.00000000000E+00 0. -1.
         21    1    1    2  504  505 -0.27794395879E+01 -0.13744807220E+03  0.98126611019E+02  0.16890390648E+03  0.00000000000E+00 0. -1.
         21    1    1    2  505  506  0.37407982074E+02 -0.68046240812E+01 -0.17480762845E+02  0.41847784903E+02  0.00000000000E+00 0.  1.
         21    1    1    2  506  502 -0.17831004323E+02  0.32648971542E+02 -0.52201775591E+02  0.64100900405E+02  0.00000000000E+00 0. -1.
<scales pt_clust_3="122.95651" pt_clust_4="14000.00000" pt_clust_5="31.85450" pt_clust_6="37.20081"></scales>
<clustering>
<clus scale="   37.201">  2  6  1 -1</clus>
<clus scale="   31.854">  2  5  1 -1</clus>
<clus scale="  122.957">  1  3  2 -1</clus>
<clus scale="  122.957">  1  3  2 -1</clus>
</clustering>
</event>
<event>
 6    0  0.1361919E+003  0.1263776E+03  0.7546771E-02  0.1232932E+00
         21   -1    0    0  503  501  0.00000000000E+00  0.00000000000E+00  0.24619768109E+04  0.24619768109E+04  0.00000000000E+00 0.  1.
         21   -1    0    0  504  502 -0.00000000000E+00 -0.00000000000E+00 -0.36860874235E+03  0.36860874235E+03  0.00000000000E+00 0. -1.
         21    1    1    2  503  506  0.13245368685E+03  0.82599432376E+02  0.19132747588E+04  0.19196319825E+04  0.00000000000E+00 0.  1.
         21    1    1    2  504  505 -0.27837856687E+02  0.14322072804E+02 -0.19876913886E+03  0.20121937928E+03  0.00000000000E+00 0. -1.
         21    1    1    2  505  501 -0.41191899143E+02 -0.30505179011E+02 -0.15746679172E+03  0.16559930252E+03  0.00000000000E+00 0. -1.
         21    1    1    2  506  502 -0.63423931019E+02 -0.66416326169E+02  0.53632924025E+03  0.54413488893E+03  0.00000000000E+00 0. -1.
<scales pt_clust_3="14000.00000" pt_clust_4="31.30604" pt_clust_5="69.90556" pt_clust_6="126.37762"></scales>
<clustering>
<clus scale="   31.306">  2  4  1 -1</clus>
<clus scale="   69.906">  2  5  1 -1</clus>
<clus scale="  126.378">  2  6  1 -1</clus>
<clus scale="  126.378">  1  3  2 -1</clus>
</clustering>
</event>
<event>
 6    0  0.1361919E+003  0.8626742E+02  0.7546771E-02  0.1312151E+00
         21   -1    0    0  506  501  0.00000000000E+00  0.00000000000E+00  0.15854198635E+03  0.15854198635E+03  0.00000000000E+00 0. -1.
         21   -1    0    0  505  502 -0.00000000000E+00 -0.00000000000E+00 -0.11563973754E+04  0.11563973754E+04  0.00000000000E+00 0.  1.
         21    1    1    2  503  504  0.47601432314E+02 -0.26494987048E+02  0.24626704045E+02  0.59785911795E+02  0.00000000000E+00 0. -1.
         21    1    1    2  504  502 -0.17518013989E+02  0.72492242388E+02 -0.20491824201E+03  0.21806763155E+03  0.00000000000E+00 0. -1.
         21    1    1    2  505  501 -0.78399925994E+02 -0.69650417152E+02 -0.91756222623E+03  0.92353568854E+03  0.00000000000E+00 0.  1.
         21    1    1    2  506  503  0.48316507669E+02  0.23653161812E+02  0.99998375112E+02  0.11355012991E+03  0.00000000000E+00 0. -1.
<scales pt_clust_3="86.26742" pt_clust_4="76.34940" pt_clust_5="14000.00000" pt_clust_6="53.79551"></scales>
<clustering>
<clus scale="   53.796">  1  6  2 -1</clus>
<clus scale="   76.349">  2  4  1 -1</clus>
<clus scale="   86.267">  1  3  2 -1</clus>
<clus scale="   53.796">  1  3  2 -1</clus>
</clustering>
</event>
<event>
 6    0  0.1361919E+003  0.5953300E+02  0.7546771E-02  0.1399802E+00
         21   -1    0    0  505  501  0.00000000000E+00  0.00000000000E+00  0.11658799557E+04  0.11658799557E+04  0.00000000000E+00 0.  1.
         21   -1    0    0  503  502 -0.00000000000E+00 -0.00000000000E+00 -0.99545257372E+02  0.99545257372E+02  0.00000000000E+00 0. -1.
         21    1    1    2  503  504  0.56585622256E+02  0.54602366556E+01 -0.65637954676E+02  0.86833679667E+02  0.00000000000E+00 0. -1.
         21    1    1    2  504  501 -0.85859822607E+01  0.34766008096E+02  0.75246425530E+03  0.75331590313E+03  0.00000000000E+00 0.  1.
         21    1    1    2  505  506  0.39734543483E+02 -0.56410988528E+02  0.29296758497E+03  0.30098345372E+03  0.00000000000E+00 0.  1.
         21    1    1    2  506  502 -0.87734183479E+02  0.16184743776E+02  0.86540812725E+02  0.12429217654E+03  0.00000000000E+00 0. -1.
<scales pt_clust_3="59.53300" pt_clust_4="35.81053" pt_clust_5="45.96705" pt_clust_6="14000.00000"></scales>
<clustering>
<clus scale="   35.811">  1  4  2 -1</clus>
<clus scale="   45.967">  1  5  2 -1</clus>
<clus scale="   59.533">  2  3  1 -1</clus>
<clus scale="   35.811">  1  3  2 -1</clus>
</clustering>
</event>
<event>
 6    0  0.1361919E+003  0.1138664E+03  0.7546771E-02  0.1253573E+00
         21   -1    0    0  506  501  0.00000000000E+00  0.00000000000E+00  0.45563444777E+02  0.45563444777E+02  0.00000000000E+00 0. -1.
         21   -1    0    0  504  502 -0.00000000000E+00 -0.00000000000E+00 -0.89537800866E+03  0.89537800866E+03  0.00000000000E+00 0. -1.
         21    1    1    2  503  501  0.14444719268E+01 -0.36093426287E+02  0.74173439984E+01  0.36875993712E+02  0.00000000000E+00 0. -1.
         21    1    1    2  504  503  0.90661793790E+02 -0.78088053048E+02 -0.28471587101E+03  0.30883722588E+03  0.00000000000E+00 0. -1.
         21    1    1    2  505  502 -0.31516694386E+01  0.54165151686E+02 -0.22911781959E+03  0.23545439459E+03  0.00000000000E+00 0. -1.
         21    1    1    2  506  505 -0.88954596279E+02  0.60016327648E+02 -0.34339821728E+03  0.35977383926E+03  0.00000000000E+00 0. -1.
<scales pt_clust_3="36.12232" pt_clust_4="14000.00000" pt_clust_5="49.37030" pt_clust_6="113.86642"></scales>
<clustering>
<clus scale="   36.122">  1  3  2 -1</clus>
<clus scale="   49.370">  2  5  1 -1</clus>
<clus scale="  113.866">  1  6  2 -1</clus>
<clus scale="   36.122">  1  3  2 -1</clus>
</clustering>
</event>
<event>
 6    0  0.1361919E+003  0.1166679E+03  0.7546771E-02  0.1248697E+00
         21   -1    0    0  504  501  0.00000000000E+00  0.00000000000E+00  0.15370866948E+04  0.15370866948E+04  0.00000000000E+00 0. -1.
         21   -1    0    0  505  502 -0.00000000000E+00 -0.00000000000E+00 -0.93030277510E+02  0.93030277510E+02  0.00000000000E+00 0. -1.
         21    1    1    2  503  501 -0.11774552613E+03  0.82132472720E+01  0.11959581101E+04  0.12017683917E+04  0.00000000000E+00 0. -1.
         21    1    1    2  504  506  0.45014075117E+01 -0.30697365091E+02  0.25061681914E+03  0.25252996046E+03  0.00000000000E+00 0. -1.
         21    1    1    2  505  503 -0.29339541084E+02  0.66556415167E+01  0.10271431192E+02  0.31790069735E+02  0.00000000000E+00 0. -1.
         21    1    1    2  506  502  0.14258365970E+03  0.15828476303E+02 -0.12789943115E+02  0.14402855037E+03  0.00000000000E+00 0. -1.
<scales pt_clust_3="14000.00000" pt_clust_4="30.90131" pt_clust_5="30.08498" pt_clust_6="116.66787"></scales>
<clustering>
<clus scale="   30.085">  2  5  1 -1</clus>
<clus scale="   30.901">  1  4  2 -1</clus>
<clus scale="  116.668">  2  6  1 -1</clus>
<clus scale="   30.901">  1  3  2 -1</clus>
</clustering>
</event>
<event>
 6    0  0.1361919E+003  0.1914905E+03  0.7546771E-02  0.1157124E+00
         21   -1    0    0  505  501  0.00000000000E+00  0.00000000000E+00  0.66200097053E+03  0.66200097053E+03  0.00000000000E+00 0. -1.
         21   -1    0    0  506  502 -0.00000000000E+00 -0.00000000000E+00 -0.27516233808E+03  0.27516233808E+03  0.00000000000E+00 0.  1.
         21    1    1    2  503  502 -0.46087254124E+02  0.19761849467E+02 -0.74608665606E+02  0.89894486319E+02  0.00000000000E+00 0.  1.
         21    1    1    2  504  501 -0.54950995664E+02 -0.62291346576E+02  0.19829526929E+03  0.21499031979E+03  0.00000000000E+00 0. -1.
         21    1    1    2  505  503  0.19676806761E+03  0.78958812601E+02 -0.11451480979E+03  0.24096847964E+03  0.00000000000E+00 0.  1.
         21    1    1    2  506  504 -0.95729817827E+02 -0.36429315493E+02  0.37766683856E+03  0.39131002286E+03  0.00000000000E+00 0. -1.
<scales pt_clust_3="50.14545" pt_clust_4="52.53789" pt_clust_5="182.34950" pt_clust_6="52.53789"></scales>
<clustering>
<clus scale="   50.145">  2  3  1 -1</clus>
<clus scale="   52.538">  4  6 -1 -1</clus>
<clus scale="  182.350">  2  5  1 -1</clus>
<clus scale="  191.491">  1  3  2 -1</clus>
</clustering>
</event>
<event>
 6    0  0.1361919E+003  0.8155818E+02  0.7546771E-02  0.1324687E+00
         21   -1    0    0  504  501  0.00000000000E+00  0.00000000000E+00  0.36717251949E+02  0.36717251949E+02  0.00000000000E+00 0. -1.
         21   -1    0    0  503  502 -0.00000000000E+00 -0.00000000000E+00 -0.12157648425E+04  0.12157648425E+04  0.00000000000E+00 0.  1.
         21    1    1    2  503  506  0.33697264507E+02 -0.65593452999E+01 -0.96080572943E+02  0.10202944253E+03  0.00000000000E+00 0.  1.
         21    1    1    2  504  505 -0.58329676027E+02 -0.53551709565E+02 -0.30136241113E+02  0.84725024232E+02  0.00000000000E+00 0. -1.
         21    1    1    2  505  502 -0.52811042348E+02 -0.17244733304E+02 -0.38439978656E+03  0.38839359280E+03  0.00000000000E+00 0.  1.
         21    1    1    2  506  501  0.77443453868E+02  0.77355788169E+02 -0.66843098992E+03  0.67733403488E+03  0.00000000000E+00 0.  1.
<scales pt_clust_3="34.32973" pt_clust_4="81.55818" pt_clust_5="45.54385" pt_clust_6="14000.00000"></scales>
<clustering>
<clus scale="   34.330">  2  3  1 -1</clus>
<clus scale="   45.544">  2  5  1 -1</clus>
<clus scale="   81.558">  1  4  2 -1</clus>
<clus scale="   81.558">  1  3  2 -1</clus>
</clustering>
</event>
<event>
 6    0  0.1361919E+003  0.1599071E+03  0.7546771E-02  0.1188802E+00
         21   -1    0    0  504  501  0.00000000000E+00  0.00000000000E+00  0.42561598769E+03  0.42561598769E+03  0.00000000000E+00 0.  1.
         21   -1    0    0  505  502 -0.00000000000E+00 -0.00000000000E+00 -0.69406463522E+03  0.69406463522E+03  0.00000000000E+00 0. -1.
         21    1    1    2  503  506 -0.96205467257E+02 -0.20551091912E+03 -0.37847705475E+03  0.44128801341E+03  0.00000000000E+00 0. -1.
         21    1    1    2  504  502 -0.13488745933E+02  0.30191104450E+02  0.21614525406E+03  0.21866005559E+03  0.00000000000E+00 0.  1.
         21    1    1    2  505  503 -0.17624649260E+02  0.96941745015E+02 -0.23974900944E+03  0.25920632267E+03  0.00000000000E+00 0. -1.
         21    1    1    2  506  501  0.12731886245E+03  0.78378069655E+02  0.13363216259E+03  0.20052623124E+03  0.00000000000E+00 0.  1.
<scales pt_clust_3="14000.00000" pt_clust_4="33.06734" pt_clust_5="100.03218" pt_clust_6="159.90713"></scales>
<clustering>
<clus scale="   33.067">  1  4  2 -1</clus>
<clus scale="  100.032">  2  5  1 -1</clus>
<clus scale="  159.907">  1  6  2 -1</clus>
<clus scale="   33.067">  1  3  2 -1</clus>
</clustering>
</event>
<event>
 6    0  0.1361919E+003  0.7470699E+02  0.7546771E-02  0.1344781E+00
         21   -1    0    0  506  501  0.00000000000E+00  0.00000000000E+00  0.53062043251E+03  0.53062043251E+03  0.00000000000E+00 0. -1.
         21   -1    0    0  504  502 -0.00000000000E+00 -0.00000000000E+00 -0.14883523975E+03  0.14883523975E+03  0.00000000000E+00 0. -1.
         21    1    1    2  503  505 -0.54480314958E+02  0.26854442593E+02  0.25526479891E+02  0.65885256170E+02  0.00000000000E+00 0. -1.
         21    1    1    2  504  503 -0.63272818155E+02 -0.35688293849E+02 -0.10000438523E+03  0.12360412979E+03  0.00000000000E+00 0. -1.
         21    1    1    2  505  501  0.12117457187E+02 -0.48772168141E+02  0.20933903789E+03  0.21528676211E+03  0.00000000000E+00 0. -1.
         21    1    1    2  506  502  0.10563567593E+03  0.57606019398E+02  0.24692406022E+03  0.27467952420E+03  0.00000000000E+00 0. -1.
<scales pt_clust_3="56.35262" pt_clust_4="14000.00000" pt_clust_5="50.25492" pt_clust_6="74.70699"></scales>
<clustering>
<clus scale="   50.255">  1  5  2 -1</clus>
<clus scale="   56.353">  1  3  2 -1</clus>
<clus scale="   74.707">  1  6  2 -1</clus>
<clus scale="   50.255">  1  3  2 -1</clus>
</clustering>
</event>
<event>
 6    0  0.1361919E+003  0.1396548E+03  0.7546771E-02  0.1213794E+00
         21   -1    0    0  504  501  0.00000000000E+00  0.00000000000E+00  0.38427709772E+03  0.38427709772E+03  0.00000000000E+00 0.  1.
         21   -1    0    0  503  502 -0.00000000000E+00 -0.00000000000E+00 -0.85876858601E+03  0.85876858601E+03  0.00000000000E+00 0. -1.
         21    1    1    2  503  505 -0.14644026199E+02  0.56946406866E+02 -0.47502953034E+03  0.47865477690E+03  0.00000000000E+00 0. -1.
         21    1    1    2  504  506  0.36829995265E+02 -0.39892977291E+01 -0.36272207893E+02  0.51846273858E+02  0.00000000000E+00 0.  1.
         21    1    1    2  505  501 -0.12376506684E+03 -0.10498186111E+02  0.35486440719E+03  0.37597440228E+03  0.00000000000E+00 0.  1.
         21    1    1    2  506  502  0.10157909778E+03 -0.42458923026E+02 -0.31805415724E+03  0.33657023069E+03  0.00000000000E+00 0. -1.
<scales pt_clust_3="58.79916" pt_clust_4="36.71308" pt_clust_5="124.49007" pt_clust_6="36.71308"></scales>
<clustering>
<clus scale="   36.713">  4  6 -1 -1</clus>
<clus scale="   58.799">  2  3  1 -1</clus>
<clus scale="  124.490">  1  5  2 -1</clus>
<clus scale="  124.490">  1  3  2 -1</clus>
</clustering>
</event>
<event>
 6    0  0.1361919E+003  0.8885721E+02  0.7546771E-02  0.1305643E+00
         21   -1    0    0  504  501  0.00000000000E+00  0.00000000000E+00  0.10193847010E+03  0.10193847010E+03  0.00000000000E+00 0.  1.
         21   -1    0    0  506  502 -0.00000000000E+00 -0.00000000000E+00 -0.34610794371E+03  0.34610794371E+03  0.00000000000E+00 0.  1.
         21    1    1    2  503  502  0.51213207091E+02 -0.11150957758E+02 -0.12153960573E+03  0.13235940541E+03  0.00000000000E+00 0.  1.
         21    1    1    2  504  503 -0.11372582720E+03 -0.25247094641E+02 -0.12488122778E+03  0.17078144107E+03  0.00000000000E+00 0.  1.
         21    1    1    2  505  501  0.83228199179E+02 -0.12829107477E+02  0.23495130564E+02  0.87427342962E+02  0.00000000000E+00 0.  1.
         21    1    1    2  506  505 -0.20715579066E+02  0.49227159876E+02 -0.21243770660E+02  0.57478224375E+02  0.00000000000E+00 0.  1.
<scales pt_clust_3="52.41313" pt_clust_4="88.85721" pt_clust_5="14000.00000" pt_clust_6="48.60868"></scales>
<clustering>
<clus scale="   52.413">  2  3  1 -1</clus>
<clus scale="   48.609">  2  6  1 -1</clus>
<clus scale="   88.857">  2  4  1 -1</clus>
<clus scale="   88.857">  1  3  2 -1</clus>
</clustering>
</event>
<event>
 6    0  0.1361919E+003  0.1063849E+03  0.7546771E-02  0.1267415E+00
         21   -1    0    0  504  501  0.00000000000E+00  0.00000000000E+00  0.44843413568E+03  0.44843413568E+03  0.00000000000E+00 0.  1.
         21   -1    0    0  506  502 -0.00000000000E+00 -0.00000000000E+00 -0.13469764919E+03  0.13469764919E+03  0.00000000000E+00 0.  1.
         21    1    1    2  503  501  0.15652543917E+02 -0.32391116940E+02  0.21361916968E+03  0.21662718261E+03  0.00000000000E+00 0.  1.
         21    1    1    2  504  502  0.20156206297E+02 -0.37329560027E+02 -0.68181707621E+02  0.80302639796E+02  0.00000000000E+00 0.  1.
         21    1    1    2  505  503  0.36234339168E+02  0.12831455833E+03  0.12848387533E+03  0.18516387184E+03  0.00000000000E+00 0.  1.
         21    1    1    2  506  505 -0.72043089382E+02 -0.58593881366E+02  0.39815149095E+02  0.10103809063E+03  0.00000000000E+00 0.  1.
<scales pt_clust_3="35.97480" pt_clust_4="43.35724" pt_clust_5="14000.00000" pt_clust_6="106.38492"></scales>
<clustering>
<clus scale="   35.975">  1  3  2 -1</clus>
<clus scale="   43.357">  2  4  1 -1</clus>
<clus scale="  106.385">  2  6  1 -1</clus>
<clus scale="   35.975">  1  3  2 -1</clus>
</clustering>
</event>
<event>
 6    0  0.1361919E+003  0.1501950E+03  0.7546771E-02  0.1200234E+00
         21   -1    0    0  505  501  0.00000000000E+00  0.00000000000E+00  0.51521469516E+02  0.51521469516E+02  0.00000000000E+00 0.  1.
         21   -1    0    0  503  502 -0.00000000000E+00 -0.00000000000E+00 -0.27162481870E+04  0.27162481870E+04  0.00000000000E+00 0.  1.
         21    1    1    2  503  506 -0.23503501819E+02  0.32875041961E+02 -0.14897750640E+04  0.14903230940E+04  0.00000000000E+00 0.  1.
         21    1    1    2  504  502  0.42610706715E+02  0.66189787423E+02 -0.71254605399E+03  0.71688118914E+03  0.00000000000E+00 0. -1.
         21    1    1    2  505  504 -0.35637929099E+02 -0.19765424678E+03 -0.21751623000E+03  0.29605839555E+03  0.00000000000E+00 0.  1.
         21    1    1    2  506  501  0.16530724203E+02  0.98589417396E+02 -0.24488936944E+03  0.26450697784E+03  0.00000000000E+00 0. -1.
<scales pt_clust_3="40.41266" pt_clust_4="90.11527" pt_clust_5="150.19501" pt_clust_6="14000.00000"></scales>
<clustering>
<clus scale="   40.413">  2  3  1 -1</clus>
<clus scale="   90.115">  2  4  1 -1</clus>
<clus scale="  150.195">  2  5  1 -1</clus>
<clus scale="  150.195">  1  3  2 -1</clus>
</clustering>
</event>
<event>
 6    0  0.1361919E+003  0.1131617E+03  0.7546771E-02  0.1254824E+00
         21   -1    0    0  503  501  0.00000000000E+00  0.00000000000E+00  0.10252875823E+04  0.10252875823E+04  0.00000000000E+00 0.  1.
         21   -1    0    0  505  502 -0.00000000000E+00 -0.00000000000E+00 -0.54954993186E+02  0.54954993186E+02  0.00000000000E+00 0. -1.
         21    1    1    2  503  506 -0.45763391248E+02 -0.86111580234E+01  0.12715815719E+03  0.13541653134E+03  0.00000000000E+00 0. -1.
         21    1    1    2  504  501  0.36083299956E+02 -0.93057892586E+01  0.38701359523E+03  0.38880345310E+03  0.00000000000E+00 0.  1.
         21    1    1    2  505  504  0.10702230654E+03 -0.39954297094E+02  0.42280603528E+03  0.43796696613E+03  0.00000000000E+00 0.  1.
         21    1    1    2  506  502 -0.97342215253E+02  0.57871244376E+02  0.33354801418E+02  0.11805562491E+03  0.00000000000E+00 0. -1.
<scales pt_clust_3="39.75047" pt_clust_4="37.26395" pt_clust_5="113.16169" pt_clust_6="14000.00000"></scales>
<clustering>
<clus scale="   37.264">  1  4  2 -1</clus>
<clus scale="   39.750">  1  3  2 -1</clus>
<clus scale="  113.162">  1  5  2 -1</clus>
<clus scale="   37.264">  1  3  2 -1</clus>
</clustering>
</event>
<event>
 6    0  0.1361919E+003  0.1486086E+03  0.7546771E-02  0.1202193E+00
         21   -1    0    0  504  501  0.00000000000E+00  0.00000000000E+00  0.35754587442E+03  0.35754587442E+03  0.00000000000E+00 0.  1.
         21   -1    0    0  503  502 -0.00000000000E+00 -0.00000000000E+00 -0.68994429441E+03  0.68994429441E+03  0.00000000000E+00 0. -1.
         21    1    1    2  503  501  0.96621966375E+02 -0.68089400336E+02 -0.85709167371E+02  0.14600695941E+03  0.00000000000E+00 0.  1.
         21    1    1    2  504  506  0.61132255564E+02 -0.50338894875E+02  0.30013396745E+03  0.31040546939E+03  0.00000000000E+00 0.  1.
         21    1    1    2  505  502 -0.14295731995E+02  0.37131715374E+02 -0.23496522586E+03  0.23831028010E+03  0.00000000000E+00 0. -1.
         21    1    1    2  506  505 -0.14345848994E+03  0.81296579837E+02 -0.31185799421E+03  0.35276745993E+03  0.00000000000E+00 0. -1.
<scales pt_clust_3="148.60858" pt_clust_4="78.79850" pt_clust_5="39.78859" pt_clust_6="14000.00000"></scales>
<clustering>
<clus scale="   39.789">  2  5  1 -1</clus>
<clus scale="   78.799">  1  4  2 -1</clus>
<clus scale="  148.609">  1  3  2 -1</clus>
<clus scale="   78.799">  1  3  2 -1</clus>
</clustering>
</event>
<event>
 6    0  0.1361919E+003  0.1052126E+03  0.7546771E-02  0.1269701E+00
         21   -1    0    0  503  501  0.00000000000E+00  0.00000000000E+00  0.44089791164E+03  0.44089791164E+03  0.00000000000E+00 0.  1.
         21   -1    0    0  505  502 -0.00000000000E+00 -0.00000000000E+00 -0.12116212484E+04  0.12116212484E+04  0.00000000000E+00 0.  1.
         21    1    1    2  503  504  0.37117458814E+02  0.86582425950E+01  0.22538224764E+02  0.44279142823E+02  0.00000000000E+00 0. -1.
         21    1    1    2  504  506 -0.94946654697E+02  0.79416353393E+02  0.39349397897E+03  0.41250374048E+03  0.00000000000E+00 0.  1.
         21    1    1    2  505  501  0.82455844992E+02 -0.52877801654E+02 -0.95695401074E+03  0.96195426448E+03  0.00000000000E+00 0.  1.
         21    1    1    2  506  502 -0.24626649109E+02 -0.35196794334E+02 -0.22980152976E+03  0.23378201226E+03  0.00000000000E+00 0.  1.
<scales pt_clust_3="38.11392" pt_clust_4="14000.00000" pt_clust_5="105.21261" pt_clust_6="42.81840"></scales>
<clustering>
<clus scale="   38.114">  1  3  2 -1</clus>
<clus scale="   42.818">  2  6  1 -1</clus>
<clus scale="  105.213">  2  5  1 -1</clus>
<clus scale="   38.114">  1  3  2 -1</clus>
</clustering>
</event>
<event>
 6    0  0.1361919E+003  0.1044312E+03  0.7546771E-02  0.1271244E+00
         21   -1    0    0  505  501  0.00000000000E+00  0.00000000000E+00  0.11141219707E+03  0.11141219707E+03  0.00000000000E+00 0.  1.
         21   -1    0    0  504  502 -0.00000000000E+00 -0.00000000000E+00 -0.10235309251E+04  0.10235309251E+04  0.00000000000E+00 0. -1.
         21    1    1    2  503  506 -0.29739607099E+02  0.83438805208E+02 -0.43843479706E+03  0.44729358337E+03  0.00000000000E+00 0. -1.
         21    1    1    2  504  503 -0.35745807063E+02 -0.11999712534E+01 -0.50838275093E+03  0.50963930784E+03  0.00000000000E+00 0. -1.
         21    1    1    2  505  502 -0.35829819929E+01  0.34248547316E+02 -0.92092949397E+01  0.35645643023E+02  0.00000000000E+00 0.  1.
         21    1    1    2  506  501  0.69068396155E+02 -0.11648738127E+03  0.43908114908E+02  0.14236458793E+03  0.00000000000E+00 0.  1.
<scales pt_clust_3="104.43118" pt_clust_4="35.78218" pt_clust_5="34.43546" pt_clust_6="14000.00000"></scales>
<clustering>
<clus scale="   34.435">  1  5  2 -1</clus>
<clus scale="   35.782">  2  4  1 -1</clus>
<clus scale="  104.431">  2  3  1 -1</clus>
<clus scale="   34.435">  1  3  2 -1</clus>
</clustering>
</event>
<event>
 6    0  0.1361919E+003  0.6981450E+02  0.7546771E-02  0.1360725E+00
         21   -1    0    0  504  501  0.00000000000E+00  0.00000000000E+00  0.31443348551E+02  0.31443348551E+02  0.00000000000E+00 0.  1.
         21   -1    0    0  505  502 -0.00000000000E+00 -0.00000000000E+00 -0.84866150361E+03  0.84866150361E+03  0.00000000000E+00 0.  1.
         21    1    1    2  503  501 -0.52203826598E+02 -0.51917353068E+02 -0.11314497708E+03  0.13499050670E+03  0.00000000000E+00 0.  1.
         21    1    1    2  504  506  0.38380369694E+00  0.32046902103E+02 -0.13466782162E+02  0.34763565144E+02  0.00000000000E+00 0. -1.
         21    1    1    2  505  503  0.49344221240E+02 -0.54863863764E+02 -0.50313213499E+03  0.50851434687E+03  0.00000000000E+00 0.  1.
         21    1    1    2  506  502  0.24758016610E+01  0.74734314729E+02 -0.18747426083E+03  0.20183643344E+03  0.00000000000E+00 0.  1.
<scales pt_clust_3="62.73074" pt_clust_4="32.04920" pt_clust_5="14000.00000" pt_clust_6="69.81450"></scales>
<clustering>
<clus scale="   32.049">  1  4  2 -1</clus>
<clus scale="   62.731">  1  3  2 -1</clus>
<clus scale="   69.815">  1  6  2 -1</clus>
<clus scale="   32.049">  1  3  2 -1</clus>
</clustering>
</event>
<event>
 6    0  0.1361919E+003  0.1061515E+03  0.7546771E-02  0.1267867E+00
         21   -1    0    0  505  501  0.00000000000E+00  0.00000000000E+00  0.10635236227E+03  0.10635236227E+03  0.00000000000E+00 0. -1.
         21   -1    0    0  501  502 -0.00000000000E+00 -0.00000000000E+00 -0.19944618264E+04  0.19944618264E+04  0.00000000000E+00 0.  1.
         21    1    1    2  503  506 -0.95402089435E+02  0.39076633381E+02 -0.13199900186E+04  0.13240098908E+04  0.00000000000E+00 0.  1.
         21    1    1    2  504  503  0.95098593766E+02 -0.47308860798E+02 -0.23665417484E+03  0.25939751216E+03  0.00000000000E+00 0.  1.
         21    1    1    2  505  504  0.16073599108E+02  0.49604397956E+02  0.84390650034E+02  0.99200497469E+02  0.00000000000E+00 0. -1.
         21    1    1    2  506  502 -0.15770103439E+02 -0.41372170540E+02 -0.41585592076E+03  0.41820628820E+03  0.00000000000E+00 0. -1.
<scales pt_clust_3="106.15153" pt_clust_4="14000.00000" pt_clust_5="51.93604" pt_clust_6="44.27587"></scales>
<clustering>
<clus scale="   44.276">  2  6  1 -1</clus>
<clus scale="   51.936">  1  5  2 -1</clus>
<clus scale="  106.152">  2  3  1 -1</clus>
<clus scale="   51.936">  1  3  2 -1</clus>
</clustering>
</event>
<event>
 6    0  0.1361919E+003  0.1106575E+03  0.7546771E-02  0.1259357E+00
         21   -1    0    0  503  501  0.00000000000E+00  0.00000000000E+00  0.12143350343E+03  0.12143350343E+03  0.00000000000E+00 0.  1.
         21   -1    0    0  504  502 -0.00000000000E+00 -0.00000000000E+00 -0.17295126187E+04  0.17295126187E+04  0.00000000000E+00 0.  1.
         21    1    1    2  503  506  0.35054944446E+02  0.14114372367E+02  0.47552908670E+02  0.60739968393E+02  0.00000000000E+00 0.  1.
         21    1    1    2  504  505  0.37651201053E+02  0.93946877990E+02 -0.12309876449E+04  0.12351413728E+04  0.00000000000E+00 0.  1.
         21    1    1    2  505  501 -0.11059380837E+03 -0.93823729743E+02 -0.17693301094E+02  0.14610590548E+03  0.00000000000E+00 0.  1.
         21    1    1    2  506  502  0.37887662874E+02 -0.14237520613E+02 -0.40695107791E+03  0.40895887544E+03  0.00000000000E+00 0.  1.
<scales pt_clust_3="37.78974" pt_clust_4="14000.00000" pt_clust_5="110.65752" pt_clust_6="40.89174"></scales>
<clustering>
<clus scale="   37.790">  1  3  2 -1</clus>
<clus scale="   40.892">  2  6  1 -1</clus>
<clus scale="  110.658">  1  5  2 -1</clus>
<clus scale="   37.790">  1  3  2 -1</clus>
</clustering>
</event>
<event>
 6    0  0.1361919E+003  0.8420281E+02  0.7546771E-02  0.1317531E+00
         21   -1    0    0  506  501  0.00000000000E+00  0.00000000000E+00  0.44162567278E+03  0.44162567278E+03  0.00000000000E+00 0.  1.
         21   -1    0    0  505  502 -0.00000000000E+00 -0.00000000000E+00 -0.49585248162E+03  0.49585248162E+03  0.00000000000E+00 0. -1.
         21    1    1    2  503  502  0.42767032858E+02  0.12956866567E+02 -0.29690493713E+03  0.30024896533E+03  0.00000000000E+00 0. -1.
         21    1    1    2  504  501 -0.81837866177E+02 -0.20317738988E+02  0.40691864872E+03  0.41556351323E+03  0.00000000000E+00 0.  1.
         21    1    1    2  505  504 -0.44565817636E+02  0.13872496264E+02 -0.12565110367E+02  0.48336738127E+02  0.00000000000E+00 0. -1.
         21    1    1    2  506  503  0.83636650956E+02 -0.65116238432E+01 -0.15167541006E+03  0.17332893770E+03  0.00000000000E+00 0. -1.
<scales pt_clust_3="44.68668" pt_clust_4="14000.00000" pt_clust_5="41.14890" pt_clust_6="84.20281"></scales>
<clustering>
<clus scale="   44.687">  2  3  1 -1</clus>
<clus scale="   41.149">  2  5  1 -1</clus>
<clus scale="   84.203">  2  6  1 -1</clus>
<clus scale="   84.203">  1  3  2 -1</clus>
</clustering>
</event>
<event>
 6    0  0.1361919E+003  0.1744573E+03  0.7546771E-02  0.1173278E+00
         21   -1    0    0  506  501  0.00000000000E+00  0.00000000000E+00  0.11201787583E+03  0.11201787583E+03  0.00000000000E+00 0. -1.
         21   -1    0    0  504  502 -0.00000000000E+00 -0.00000000000E+00 -0.10245681960E+04  0.10245681960E+04  0.00000000000E+00 0. -1.
         21    1    1    2  503  502 -0.60672769840E+02  0.14677674781E+03 -0.50187632729E+03  0.52640711108E+03  0.00000000000E+00 0. -1.
         21    1    1    2  504  505  0.14370500704E+03 -0.16360645179E+03 -0.39215754207E+03  0.44855962582E+03  0.00000000000E+00 0. -1.
         21    1    1    2  505  501  0.37648396892E+02 -0.29846539237E+01  0.97637370534E+00  0.37779137803E+02  0.00000000000E+00 0. -1.
         21    1    1    2  506  503 -0.12068063409E+03  0.19814357899E+02 -0.19492824543E+02  0.12384019716E+03  0.00000000000E+00 0. -1.
<scales pt_clust_3="14000.00000" pt_clust_4="174.45733" pt_clust_5="37.76652" pt_clust_6="101.11679"></scales>
<clustering>
<clus scale="   37.767">  1  5  2 -1</clus>
<clus scale="  101.117">  1  6  2 -1</clus>
<clus scale="  174.457">  1  4  2 -1</clus>
<clus scale="   37.767">  1  3  2 -1</clus>
</clustering>
</event>
<event>
 6    0  0.1361919E+003  0.6723281E+02  0.7546771E-02  0.1369764E+00
         21   -1    0    0  503  501  0.00000000000E+00  0.00000000000E+00  0.92058255317E+03  0.92058255317E+03  0.00000000000E+00 0.  1.
         21   -1    0    0  505  502 -0.00000000000E+00 -0.00000000000E+00 -0.33751481797E+02  0.33751481797E+02  0.00000000000E+00 0. -1.
         21    1    1    2  503  502 -0.81730256347E+01  0.41344132894E+02  0.14751804524E+02  0.44651443532E+02  0.00000000000E+00 0.  1.
         21    1    1    2  504  506  0.49401494589E+02 -0.51231051117E+02  0.31128718505E+03  0.31931933834E+03  0.00000000000E+00 0.  1.
         21    1    1    2  505  504 -0.32265248029E+02 -0.59847618196E+02  0.82387413092E+02  0.10681979905E+03  0.00000000000E+00 0. -1.
         21    1    1    2  506  501 -0.89632209255E+01  0.69734536419E+02  0.47840466871E+03  0.48354345403E+03  0.00000000000E+00 0.  1.
<scales pt_clust_3="42.14422" pt_clust_4="67.23281" pt_clust_5="49.99914" pt_clust_6="14000.00000"></scales>
<clustering>
<clus scale="   42.144">  2  3  1 -1</clus>
<clus scale="   49.999">  2  5  1 -1</clus>
<clus scale="   67.233">  2  4  1 -1</clus>
<clus scale="   67.233">  1  3  2 -1</clus>
</clustering>
</event>
<event>
 6    0  0.1361919E+003  0.1687428E+03  0.7546771E-02  0.1179165E+00
         21   -1    0    0  505  501  0.00000000000E+00  0.00000000000E+00  0.17363732321E+04  0.17363732321E+04  0.00000000000E+00 0. -1.
         21   -1    0    0  503  502 -0.00000000000E+00 -0.00000000000E+00 -0.33015344896E+03  0.33015344896E+03  0.00000000000E+00 0. -1.
         21    1    1    2  503  506  0.81751000329E+01 -0.13261855220E+03 -0.86078924800E+02  0.15831643611E+03  0.00000000000E+00 0. -1.
         21    1    1    2  504  502 -0.26023792742E+02  0.23510774323E+03 -0.13722198142E+03  0.27346436861E+03  0.00000000000E+00 0. -1.
         21    1    1    2  505  504 -0.17276721910E+02 -0.25503854354E+02  0.86648236738E+03  0.86702977151E+03  0.00000000000E+00 0. -1.
         21    1    1    2  506  501  0.35125414619E+02 -0.76985336668E+02  0.76303832196E+03  0.76771610482E+03  0.00000000000E+00 0. -1.
<scales pt_clust_3="14000.00000" pt_clust_4="168.74277" pt_clust_5="30.80474" pt_clust_6="101.40774"></scales>
<clustering>
<clus scale="   30.805">  1  5  2 -1</clus>
<clus scale="  101.408">  1  6  2 -1</clus>
<clus scale="  168.743">  1  4  2 -1</clus>
<clus scale="   30.805">  1  3  2 -1</clus>
</clustering>
</event>
<event>
 6    0  0.1361919E+003  0.8616689E+02  0.7546771E-02  0.1312409E+00
         21   -1    0    0  505  501  0.00000000000E+00  0.00000000000E+00  0.96877091255E+03  0.96877091255E+03  0.00000000000E+00 0.  1.
         21   -1    0    0  503  502 -0.00000000000E+00 -0.00000000000E+00 -0.18537854932E+03  0.18537854932E+03  0.00000000000E+00 0.  1.
         21    1    1    2  503  504 -0.45119256605E+02  0.47784488705E+02  0.80644090809E+02  0.10403160126E+03  0.00000000000E+00 0. -1.
         21    1    1    2  504  501  0.15654856289E+02  0.29884657969E+02  0.52835786143E+02  0.62688018031E+02  0.00000000000E+00 0.  1.
         21    1    1    2  505  506  0.82558275179E+02 -0.56949645768E+02  0.81067912965E+03  0.81685970778E+03  0.00000000000E+00 0.  1.
         21    1    1    2  506  502 -0.53093874862E+02 -0.20719500906E+02 -0.16076664336E+03  0.17057013480E+03  0.00000000000E+00 0.  1.
<scales pt_clust_3="86.16689" pt_clust_4="33.73674" pt_clust_5="14000.00000" pt_clust_6="56.85668"></scales>
<clustering>
<clus scale="   33.737">  1  4  2 -1</clus>
<clus scale="   56.857">  2  6  1 -1</clus>
<clus scale="   86.167">  2  3  1 -1</clus>
<clus scale="   33.737">  1  3  2 -1</clus>
</clustering>
</event>
<event>
 6    0  0.1361919E+003  0.1963373E+03  0.7546771E-02  0.1152866E+00
         21   -1    0    0  503  501  0.00000000000E+00  0.00000000000E+00  0.57832248046E+03  0.57832248046E+03  0.00000000000E+00 0.  1.
         21   -1    0    0  506  502 -0.00000000000E+00 -0.00000000000E+00 -0.23720277119E+03  0.23720277119E+03  0.00000000000E+00 0. -1.
         21    1    1    2  503  504  0.18002401867E+03  0.92953226124E+01  0.42251800426E+03  0.45936533854E+03  0.00000000000E+00 0.  1.
         21    1    1    2  504  502 -0.14046157201E+02  0.67546916161E+02  0.10304363459E+02  0.69757152474E+02  0.00000000000E+00 0. -1.
         21    1    1    2  505  501  0.21667386929E+02 -0.24088607395E+02  0.39763529976E+02  0.51292055708E+02  0.00000000000E+00 0. -1.
         21    1    1    2  506  505 -0.18764524840E+03 -0.52753631378E+02 -0.13146618844E+03  0.23511070493E+03  0.00000000000E+00 0. -1.
<scales pt_clust_3="196.33735" pt_clust_4="66.89972" pt_clust_5="32.39964" pt_clust_6="14000.00000"></scales>
<clustering>
<clus scale="   32.400">  1  5  2 -1</clus>
<clus scale="   66.900">  2  4  1 -1</clus>
<clus scale="  196.337">  1  3  2 -1</clus>
<clus scale="   32.400">  1  3  2 -1</clus>
</clustering>
</event>
<event>
 6    0  0.1361919E+003  0.8655158E+02  0.7546771E-02  0.1311424E+00
         21   -1    0    0  506  501  0.00000000000E+00  0.00000000000E+00  0.62980646807E+02  0.62980646807E+02  0.00000000000E+00 0. -1.
         21   -1    0    0  504  502 -0.00000000000E+00 -0.00000000000E+00 -0.92179844411E+03  0.92179844411E+03  0.00000000000E+00 0. -1.
         21    1    1    2  503  501 -0.33902464094E+02  0.21851104549E+02  0.22481874558E+02  0.46176644804E+02  0.00000000000E+00 0. -1.
         21    1    1    2  504  505 -0.44435752897E+02  0.64011564298E+02 -0.39191443658E+03  0.39958596334E+03  0.00000000000E+00 0. -1.
         21    1    1    2  505  503  0.69687248563E+02  0.24966044536E+02 -0.59449011728E+02  0.94941039532E+02  0.00000000000E+00 0. -1.
         21    1    1    2  506  502  0.86509684286E+01 -0.11082871338E+03 -0.42993622356E+03  0.44407544324E+03  0.00000000000E+00 0. -1.
<scales pt_clust_3="40.33420" pt_clust_4="14000.00000" pt_clust_5="62.07143" pt_clust_6="86.55158"></scales>
<clustering>
<clus scale="   40.334">  1  3  2 -1</clus>
<clus scale="   62.071">  1  5  2 -1</clus>
<clus scale="   86.552">  1  6  2 -1</clus>
<clus scale="   40.334">  1  3  2 -1</clus>
</clustering>
</event>
<event>
 6    0  0.1361919E+003  0.8356002E+02  0.7546771E-02  0.1319242E+00
         21   -1    0    0  504  501  0.00000000000E+00  0.00000000000E+00  0.22404569520E+03  0.22404569520E+03  0.00000000000E+00 0. -1.
         21   -1    0    0  506  502 -0.00000000000E+00 -0.00000000000E+00 -0.20249965809E+03  0.20249965809E+03  0.00000000000E+00 0. -1.
         21    1    1    2  503  501 -0.23260359129E+02 -0.22057608609E+02  0.23545719593E+02  0.39774153863E+02  0.00000000000E+00 0. -1.
         21    1    1    2  504  505  0.10623587720E+03  0.80775939190E+02  0.14022512707E+01  0.13346452811E+03  0.00000000000E+00 0. -1.
         21    1    1    2  505  502 -0.72077171204E+02 -0.24052474739E+02 -0.11393795876E+03  0.13695071594E+03  0.00000000000E+00 0. -1.
         21    1    1    2  506  503 -0.10898346866E+02 -0.34665855841E+02  0.11053602501E+03  0.11635595537E+03  0.00000000000E+00 0. -1.
<scales pt_clust_3="32.05593" pt_clust_4="83.56002" pt_clust_5="14000.00000" pt_clust_6="53.65229"></scales>
<clustering>
<clus scale="   32.056">  1  3  2 -1</clus>
<clus scale="   53.652">  1  6  2 -1</clus>
<clus scale="   83.560">  1  4  2 -1</clus>
<clus scale="   32.056">  1  3  2 -1</clus>
</clustering>
</event>
<event>
 6    0  0.1361919E+003  0.8063172E+02  0.7546771E-02  0.1327268E+00
         21   -1    0    0  506  501  0.00000000000E+00  0.00000000000E+00  0.27984144851E+03  0.27984144851E+03  0.00000000000E+00 0. -1.
         21   -1    0    0  504  502 -0.00000000000E+00 -0.00000000000E+00 -0.97540885769E+02  0.97540885769E+02  0.00000000000E+00 0. -1.
         21    1    1    2  503  501 -0.10105338923E+02 -0.43465235649E+02  0.91333753407E+02  0.10165234427E+03  0.00000000000E+00 0. -1.
         21    1    1    2  504  505 -0.76529736901E+02 -0.29145246246E+02  0.54407768779E+01  0.82072212484E+02  0.00000000000E+00 0. -1.
         21    1    1    2  505  503  0.38133653235E+02  0.84533698042E+02 -0.21409372552E+01  0.92761550365E+02  0.00000000000E+00 0. -1.
         21    1    1    2  506  502  0.48501422589E+02 -0.11923216147E+02  0.87666969714E+02  0.10089622716E+03  0.00000000000E+00 0. -1.
<scales pt_clust_3="44.62448" pt_clust_4="80.63172" pt_clust_5="14000.00000" pt_clust_6="55.22708"></scales>
<clustering>
<clus scale="   44.624">  1  3  2 -1</clus>
<clus scale="   55.227">  1  6  2 -1</clus>
<clus scale="   80.632">  2  4  1 -1</clus>
<clus scale="   44.624">  1  3  2 -1</clus>
</clustering>
</event>
<event>
 6    0  0.1361919E+003  0.1353123E+03  0.7546771E-02  0.1219780E+00
         21   -1    0    0  505  501  0.00000000000E+00  0.00000000000E+00  0.48032937949E+03  0.48032937949E+03  0.00000000000E+00 0.  1.
         21   -1    0    0  506  502 -0.00000000000E+00 -0.00000000000E+00 -0.15760727932E+03  0.15760727932E+03  0.00000000000E+00 0.  1.
         21    1    1    2  503  502 -0.10364809180E+03  0.61448980659E+02 -0.20491155336E+02  0.12222434948E+03  0.00000000000E+00 0.  1.
         21    1    1    2  504  501 -0.68647892688E+01 -0.12813347318E+03  0.31185476304E+03  0.33722204185E+03  0.00000000000E+00 0.  1.
         21    1    1    2  505  503  0.28976690111E+02 -0.31399733928E+02  0.27639340410E+02  0.50887375633E+02  0.00000000000E+00 0. -1.
         21    1    1    2  506  504  0.81536190963E+02  0.98084226447E+02  0.37191520567E+01  0.12760289184E+03  0.00000000000E+00 0.  1.
<scales pt_clust_3="115.78172" pt_clust_4="135.31227" pt_clust_5="42.72695" pt_clust_6="14000.00000"></scales>
<clustering>
<clus scale="   42.727">  1  5  2 -1</clus>
<clus scale="  115.782">  2  3  1 -1</clus>
<clus scale="  135.312">  1  4  2 -1</clus>
<clus scale="   42.727">  1  3  2 -1</clus>
</clustering>
</event>
<event>
 6    0  0.1361919E+003  0.2912073E+03  0.7546771E-02  0.1089720E+00
         21   -1    0    0  504  501  0.00000000000E+00  0.00000000000E+00  0.49673461864E+03  0.49673461864E+03  0.00000000000E+00 0.  1.
         21   -1    0    0  506  502 -0.00000000000E+00 -0.00000000000E+00 -0.33924171437E+03  0.33924171437E+03  0.00000000000E+00 0. -1.
         21    1    1    2  503  502  0.15953995398E+03 -0.94974744961E+02 -0.94540233257E+02  0.20835319725E+03  0.00000000000E+00 0. -1.
         21    1    1    2  504  503  0.59411759602E+02 -0.29785676601E+02  0.20653615086E+02  0.69595370002E+02  0.00000000000E+00 0. -1.
         21    1    1    2  505  501 -0.25431081364E+03  0.12617706426E+03  0.34049425252E+03  0.44331814476E+03  0.00000000000E+00 0.  1.
         21    1    1    2  506  505  0.35359100050E+02 -0.14166426957E+01 -0.10911473008E+03  0.11470962101E+03  0.00000000000E+00 0. -1.
<scales pt_clust_3="52.96973" pt_clust_4="52.96973" pt_clust_5="276.60542" pt_clust_6="35.38747"></scales>
<clustering>
<clus scale="   35.387">  2  6  1 -1</clus>
<clus scale="   52.970">  3  4 -1 -1</clus>
<clus scale="  276.605">  1  5  2 -1</clus>
<clus scale="  276.605">  1  3  2 -1</clus>
</clustering>
</event>
<event>
 6    0  0.1361919E+003  0.1110496E+03  0.7546771E-02  0.1258638E+00
         21   -1    0    0  504  501  0.00000000000E+00  0.00000000000E+00  0.47751389295E+03  0.47751389295E+03  0.00000000000E+00 0. -1.
         21   -1    0    0  505  502 -0.00000000000E+00 -0.00000000000E+00 -0.15262747810E+04  0.15262747810E+04  0.00000000000E+00 0.  1.
         21    1    1    2  503  502 -0.40697671036E+02 -0.10725289464E+03 -0.14450677939E+04  0.14496138840E+04  0.00000000000E+00 0.  1.
         21    1    1    2  504  503 -0.29634002670E+02  0.10987460263E+02  0.23675339778E+03  0.23885365762E+03  0.00000000000E+00 0. -1.
         21    1    1    2  505  506  0.47191778513E+02  0.64481002158E+02 -0.55122994893E+02  0.97074240478E+02  0.00000000000E+00 0. -1.
         21    1    1    2  506  501  0.23139895193E+02  0.31784432217E+02  0.21467650294E+03  0.21824689184E+03  0.00000000000E+00 0. -1.
<scales pt_clust_3="14000.00000" pt_clust_4="31.60535" pt_clust_5="111.04965" pt_clust_6="41.86307"></scales>
<clustering>
<clus scale="   31.605">  1  4  2 -1</clus>
<clus scale="   41.863">  1  6  2 -1</clus>
<clus scale="  111.050">  1  5  2 -1</clus>
<clus scale="   31.605">  1  3  2 -1</clus>
</clustering>
</event>
<event>
 6    0  0.1361919E+003  0.1308902E+03  0.7546771E-02  0.1226141E+00
         21   -1    0    0  505  501  0.00000000000E+00  0.00000000000E+00  0.16781301271E+03  0.16781301271E+03  0.00000000000E+00 0. -1.
         21   -1    0    0  504  502 -0.00000000000E+00 -0.00000000000E+00 -0.51514753408E+03  0.51514753408E+03  0.00000000000E+00 0.  1.
         21    1    1    2  503  501  0.96405774656E+02  0.44382814289E+02 -0.23378993089E+03  0.25675209712E+03  0.00000000000E+00 0.  1.
         21    1    1    2  504  503  0.49260880815E+02 -0.26211364236E+02 -0.12515198536E+03  0.13702806075E+03  0.00000000000E+00 0.  1.
         21    1    1    2  505  506 -0.10763345336E+03  0.23029983349E+02  0.12264128100E+03  0.16479145676E+03  0.00000000000E+00 0. -1.
         21    1    1    2  506  502 -0.38033202110E+02 -0.41201433402E+02 -0.11103388612E+03  0.12438893216E+03  0.00000000000E+00 0.  1.
<scales pt_clust_3="49.57528" pt_clust_4="49.57528" pt_clust_5="111.61407" pt_clust_6="56.07212"></scales>
<clustering>
<clus scale="   49.575">  3  4 -1 -1</clus>
<clus scale="   56.072">  2  6  1 -1</clus>
<clus scale="  111.614">  1  5  2 -1</clus>
<clus scale="  111.614">  1  3  2 -1</clus>
</clustering>
</event>
<event>
 6    0  0.1361919E+003  0.1641559E+03  0.7546771E-02  0.1184083E+00
         21   -1    0    0  505  501  0.00000000000E+00  0.00000000000E+00  0.18710734682E+04  0.18710734682E+04  0.00000000000E+00 0. -1.
         21   -1    0    0  503  502 -0.00000000000E+00 -0.00000000000E+00 -0.75582727760E+02  0.75582727760E+02  0.00000000000E+00 0.  1.
         21    1    1    2  503  506  0.24083025135E+02 -0.16496735445E+03  0.64824682950E+02  0.17887554236E+03  0.00000000000E+00 0.  1.
         21    1    1    2  504  501 -0.46267837231E+02  0.67266748315E+02  0.35857893212E+03  0.36775586841E+03  0.00000000000E+00 0.  1.
         21    1    1    2  505  502  0.91211902907E+02  0.15187749585E+03  0.10989467110E+04  0.11131353280E+04  0.00000000000E+00 0. -1.
         21    1    1    2  506  504 -0.69027090811E+02 -0.54176889710E+02  0.27314041438E+03  0.28688945713E+03  0.00000000000E+00 0. -1.
<scales pt_clust_3="164.15587" pt_clust_4="81.64269" pt_clust_5="14000.00000" pt_clust_6="88.10441"></scales>
<clustering>
<clus scale="   81.643">  1  4  2 -1</clus>
<clus scale="   88.104">  1  6  2 -1</clus>
<clus scale="  164.156">  2  3  1 -1</clus>
<clus scale="   81.643">  1  3  2 -1</clus>
</clustering>
</event>
<event>
 6    0  0.1361919E+003  0.1310875E+03  0.7546771E-02  0.1225851E+00
         21   -1    0    0  503  501  0.00000000000E+00  0.00000000000E+00  0.28149153367E+03  0.28149153367E+03  0.00000000000E+00 0.  1.
         21   -1    0    0  504  502 -0.00000000000E+00 -0.00000000000E+00 -0.13749494722E+03  0.13749494722E+03  0.00000000000E+00 0. -1.
         21    1    1    2  503  505 -0.52133494371E+02  0.15309847754E+03  0.46354626560E+02  0.16824326573E+03  0.00000000000E+00 0.  1.
         21    1    1    2  504  506 -0.83389676123E+00 -0.59217663469E+02  0.60289417721E+02  0.84511779887E+02  0.00000000000E+00 0. -1.
         21    1    1    2  505  502  0.24153965677E+02 -0.11251139542E+03 -0.58855749900E+00  0.11507638575E+03  0.00000000000E+00 0. -1.
         21    1    1    2  506  501  0.28813425455E+02  0.18630581343E+02  0.37941099665E+02  0.51155049520E+02  0.00000000000E+00 0.  1.
<scales pt_clust_3="14000.00000" pt_clust_4="54.11507" pt_clust_5="131.08750" pt_clust_6="34.31198"></scales>
<clustering>
<clus scale="   34.312">  1  6  2 -1</clus>
<clus scale="   54.115">  1  4  2 -1</clus>
<clus scale="  131.087">  2  5  1 -1</clus>
<clus scale="   34.312">  1  3  2 -1</clus>
</clustering>
</event>
<event>
 6    0  0.1361919E+003  0.1559296E+03  0.7546771E-02  0.1193370E+00
         21   -1    0    0  504  501  0.00000000000E+00  0.00000000000E+00  0.86919801323E+02  0.86919801323E+02  0.00000000000E+00 0. -1.
         21   -1    0    0  506  502 -0.00000000000E+00 -0.00000000000E+00 -0.12814606269E+04  0.12814606269E+04  0.00000000000E+00 0. -1.
         21    1    1    2  503  502  0.23334583688E+02  0.33770999469E+02 -0.28257074483E+03  0.28553670348E+03  0.00000000000E+00 0.  1.
         21    1    1    2  504  503 -0.50371382476E+02  0.12139937010E+03 -0.85731156193E+03  0.86732819478E+03  0.00000000000E+00 0. -1.
         21    1    1    2  505  501  0.23644357837E+02 -0.65041922857E+02  0.43870108545E+02  0.81939574140E+02  0.00000000000E+00 0. -1.
         21    1    1    2  506  505  0.33924409512E+01 -0.90128446717E+02 -0.98528627335E+02  0.13357595580E+03  0.00000000000E+00 0.  1.
<scales pt_clust_3="39.34612" pt_clust_4="39.34612" pt_clust_5="69.20627" pt_clust_6="139.12975"></scales>
<clustering>
<clus scale="   39.346">  3  4 -1 -1</clus>
<clus scale="   69.206">  1  5  2 -1</clus>
<clus scale="  139.130">  1  6  2 -1</clus>
<clus scale="   69.206">  1  3  2 -1</clus>
</clustering>
</event>
<event>
 6    0  0.1361919E+003  0.1841816E+03  0.7546771E-02  0.1163816E+00
         21   -1    0    0  505  501  0.00000000000E+00  0.00000000000E+00  0.22565014147E+03  0.22565014147E+03  0.00000000000E+00 0.  1.
         21   -1    0    0  504  502 -0.00000000000E+00 -0.00000000000E+00 -0.34156483343E+03  0.34156483343E+03  0.00000000000E+00 0.  1.
         21    1    1    2  503  502 -0.93155115484E+02  0.31654157238E+02 -0.79437447233E+02  0.12645224092E+03  0.00000000000E+00 0.  1.
         21    1    1    2  504  501  0.27029823140E+02 -0.32550072272E+02 -0.67437620484E+02  0.79611250464E+02  0.00000000000E+00 0.  1.
         21    1    1    2  505  506  0.17220443498E+03  0.18413794470E+02  0.12876176489E+03  0.21580784822E+03  0.00000000000E+00 0.  1.
         21    1    1    2  506  503 -0.10607914264E+03 -0.17517879436E+02 -0.97801389132E+02  0.14534363529E+03  0.00000000000E+00 0.  1.
<scales pt_clust_3="46.86851" pt_clust_4="42.30979" pt_clust_5="177.08073" pt_clust_6="46.86851"></scales>
<clustering>
<clus scale="   42.310">  2  4  1 -1</clus>
<clus scale="   46.869">  3  6 -1 -1</clus>
<clus scale="  177.081">  1  5  2 -1</clus>
<clus scale="  177.081">  1  3  2 -1</clus>
</clustering>
</event>
<event>
 6    0  0.1361919E+003  0.2875286E+03  0.7546771E-02  0.1091647E+00
         21   -1    0    0  503  501  0.00000000000E+00  0.00000000000E+00  0.97181767046E+03  0.97181767046E+03  0.00000000000E+00 0. -1.
         21   -1    0    0  504  502 -0.00000000000E+00 -0.00000000000E+00 -0.22178733344E+03  0.22178733344E+03  0.00000000000E+00 0.  1.
         21    1    1    2  503  506  0.53149961966E+02 -0.40154320694E+02  0.17047177429E+03  0.18302435290E+03  0.00000000000E+00 0. -1.
         21    1    1    2  504  501 -0.72140284329E+02  0.61877315643E+02  0.28502003422E+03  0.30044873560E+03  0.00000000000E+00 0. -1.
         21    1    1    2  505  502 -0.12997545155E+02  0.24683964855E+03 -0.69363432155E+02  0.25672949577E+03  0.00000000000E+00 0.  1.
         21    1    1    2  506  505  0.31987867518E+02 -0.26856264350E+03  0.36390196066E+03  0.45340241963E+03  0.00000000000E+00 0. -1.
<scales pt_clust_3="64.57204" pt_clust_4="95.04222" pt_clust_5="256.40507" pt_clust_6="64.57204"></scales>
<clustering>
<clus scale="   64.572">  3  6 -1 -1</clus>
<clus scale="   95.042">  1  4  2 -1</clus>
<clus scale="  256.405">  2  5  1 -1</clus>
<clus scale="   95.042">  1  3  2 -1</clus>
</clustering>
</event>
<event>
 6    0  0.1361919E+003  0.9853406E+02  0.7546771E-02  0.1283409E+00
         21   -1    0    0  503  501  0.00000000000E+00  0.00000000000E+00  0.48648893660E+03  0.48648893660E+03  0.00000000000E+00 0. -1.
         21   -1    0    0  504  502 -0.00000000000E+00 -0.00000000000E+00 -0.14819447486E+03  0.14819447486E+03  0.00000000000E+00 0. -1.
         21    1    1    2  503  505 -0.67266695392E+02 -0.58046569355E+02  0.19856346200E+03  0.21753542462E+03  0.00000000000E+00 0.  1.
         21    1    1    2  504  506 -0.89049889194E+01  0.44758321013E+02 -0.80155085812E+02  0.92235806003E+02  0.00000000000E+00 0. -1.
         21    1    1    2  505  502 -0.57346314036E+01 -0.62082616531E+02 -0.15753431957E+02  0.64306359647E+02  0.00000000000E+00 0.  1.
         21    1    1    2  506  501  0.81906315715E+02  0.75370864873E+02  0.23563951751E+03  0.26060582119E+03  0.00000000000E+00 0. -1.
<scales pt_clust_3="14000.00000" pt_clust_4="45.63558" pt_clust_5="35.11524" pt_clust_6="98.53406"></scales>
<clustering>
<clus scale="   45.636">  2  4  1 -1</clus>
<clus scale="   35.115">  2  5  1 -1</clus>
<clus scale="   98.534">  2  6  1 -1</clus>
<clus scale="   98.534">  1  3  2 -1</clus>
</clustering>
</event>
<event>
 6    0  0.1361919E+003  0.8740168E+02  0.7546771E-02  0.1309269E+00
         21   -1    0    0  503  501  0.00000000000E+00  0.00000000000E+00  0.38820814211E+03  0.38820814211E+03  0.00000000000E+00 0. -1.
         21   -1    0    0  505  502 -0.00000000000E+00 -0.00000000000E+00 -0.32586718974E+03  0.32586718974E+03  0.00000000000E+00 0.  1.
         21    1    1    2  503  506 -0.64729951152E+01 -0.39180151283E+02  0.22848515340E+03  0.23191043367E+03  0.00000000000E+00 0. -1.
         21    1    1    2  504  501  0.29375225396E+02 -0.49546238580E+02  0.12629933763E+03  0.13881374683E+03  0.00000000000E+00 0. -1.
         21    1    1    2  505  504 -0.70816037301E+02  0.97177117445E+02 -0.25510090620E+03  0.28201910509E+03  0.00000000000E+00 0.  1.
         21    1    1    2  506  502  0.47913807020E+02 -0.84507275826E+01 -0.37342632460E+02  0.61332046264E+02  0.00000000000E+00 0. -1.
<scales pt_clust_3="39.71126" pt_clust_4="14000.00000" pt_clust_5="87.40168" pt_clust_6="48.77926"></scales>
<clustering>
<clus scale="   39.711">  1  3  2 -1</clus>
<clus scale="   48.779">  2  6  1 -1</clus>
<clus scale="   87.402">  2  5  1 -1</clus>
<clus scale="   39.711">  1  3  2 -1</clus>
</clustering>
</event>
<event>
 6    0  0.1361919E+003  0.1371996E+03  0.7546771E-02  0.1217148E+00
         21   -1    0    0  503  501  0.00000000000E+00  0.00000000000E+00  0.37910987251E+03  0.37910987251E+03  0.00000000000E+00 0.  1.
         21   -1    0    0  501  502 -0.00000000000E+00 -0.00000000000E+00 -0.18334627878E+03  0.18334627878E+03  0.00000000000E+00 0.  1.
         21    1    1    2  503  505 -0.34701245150E+02  0.42526680571E+02  0.23307479763E+03  0.23945052990E+03  0.00000000000E+00 0.  1.
         21    1    1    2  504  506 -0.16200931057E+02 -0.39930975229E+02 -0.13240199349E+01  0.43112712495E+02  0.00000000000E+00 0.  1.
         21    1    1    2  505  504 -0.63233250801E+02 -0.58603176844E+02  0.72588966071E+02  0.11270285861E+03  0.00000000000E+00 0.  1.
         21    1    1    2  506  502  0.11413542701E+03  0.56007471502E+02 -0.10857615004E+03  0.16719005030E+03  0.00000000000E+00 0.  1.
<scales pt_clust_3="54.88802" pt_clust_4="39.87461" pt_clust_5="39.87461" pt_clust_6="125.07081"></scales>
<clustering>
<clus scale="   39.875">  4  5 -1 -1</clus>
<clus scale="   54.888">  1  3  2 -1</clus>
<clus scale="  125.071">  2  6  1 -1</clus>
<clus scale="   54.888">  1  3  2 -1</clus>
</clustering>
</event>
<event>
 6    0  0.1361919E+003  0.9760346E+02  0.7546771E-02  0.1285418E+00
         21   -1    0    0  505  501  0.00000000000E+00  0.00000000000E+00  0.12806198715E+04  0.12806198715E+04  0.00000000000E+00 0. -1.
         21   -1    0    0  503  502 -0.00000000000E+00 -0.00000000000E+00 -0.43826455474E+03  0.43826455474E+03  0.00000000000E+00 0.  1.
         21    1    1    2  503  504  0.37206790307E+02  0.83504514022E+02 -0.26854275136E+03  0.28367685562E+03  0.00000000000E+00 0.  1.
         21    1    1    2  504  501  0.73652252073E+02  0.30046087578E+02  0.10482958422E+04  0.10513094665E+04  0.00000000000E+00 0. -1.
         21    1    1    2  505  506 -0.27537268117E+02 -0.25328454119E+02  0.19833279284E+03  0.20183094024E+03  0.00000000000E+00 0.  1.
         21    1    1    2  506  502 -0.83321774264E+02 -0.88222147481E+02 -0.13573056691E+03  0.18206716389E+03  0.00000000000E+00 0. -1.
<scales pt_clust_3="97.60346" pt_clust_4="47.21250" pt_clust_5="37.41433" pt_clust_6="14000.00000"></scales>
<clustering>
<clus scale="   37.414">  1  5  2 -1</clus>
<clus scale="   47.213">  1  4  2 -1</clus>
<clus scale="   97.603">  2  3  1 -1</clus>
<clus scale="   37.414">  1  3  2 -1</clus>
</clustering>
</event>
<event>
 6    0  0.1361919E+003  0.9440536E+02  0.7546771E-02  0.1292521E+00
         21   -1    0    0  506  501  0.00000000000E+00  0.00000000000E+00  0.56284387395E+03  0.56284387395E+03  0.00000000000E+00 0. -1.
         21   -1    0    0  503  502 -0.00000000000E+00 -0.00000000000E+00 -0.44197849159E+03  0.44197849159E+03  0.00000000000E+00 0.  1.
         21    1    1    2  503  504 -0.16245314378E+02  0.39353783246E+02 -0.34827281982E+03  0.35086548351E+03  0.00000000000E+00 0.  1.
         21    1    1    2  504  505  0.94407651308E+02 -0.13042276291E+02 -0.23973446230E+02  0.98273250279E+02  0.00000000000E+00 0. -1.
         21    1    1    2  505  501 -0.21926791850E+02  0.89218425684E+02  0.35646957952E+03  0.36811855809E+03  0.00000000000E+00 0. -1.
         21    1    1    2  506  502 -0.56235545080E+02 -0.11552993264E+03  0.13664206889E+03  0.18756507366E+03  0.00000000000E+00 0. -1.
<scales pt_clust_3="42.57500" pt_clust_4="84.66447" pt_clust_5="94.40536" pt_clust_6="14000.00000"></scales>
<clustering>
<clus scale="   42.575">  2  3  1 -1</clus>
<clus scale="   84.664">  2  4  1 -1</clus>
<clus scale="   94.405">  1  5  2 -1</clus>
<clus scale="   94.405">  1  3  2 -1</clus>
</clustering>
</event>
<event>
 6    0  0.1361919E+003  0.6170468E+02  0.7546771E-02  0.1390814E+00
         21   -1    0    0  505  501  0.00000000000E+00  0.00000000000E+00  0.29443524730E+03  0.29443524730E+03  0.00000000000E+00 0. -1.
         21   -1    0    0  504  502 -0.00000000000E+00 -0.00000000000E+00 -0.14583568043E+03  0.14583568043E+03  0.00000000000E+00 0. -1.
         21    1    1    2  503  501  0.26635468000E+02  0.38635357453E+02  0.13994831074E+03  0.14760646558E+03  0.00000000000E+00 0. -1.
         21    1    1    2  504  506 -0.52021039418E+02  0.33997341249E+02 -0.85542662195E+02  0.10573341387E+03  0.00000000000E+00 0. -1.
         21    1    1    2  505  502  0.35228655497E+02  0.35027954574E+02  0.11956436815E+02  0.51097672658E+02  0.00000000000E+00 0. -1.
         21    1    1    2  506  503 -0.98430840793E+01 -0.10766065328E+03  0.82237481507E+02  0.13583337562E+03  0.00000000000E+00 0. -1.
<scales pt_clust_3="46.92695" pt_clust_4="14000.00000" pt_clust_5="59.35960" pt_clust_6="61.70468"></scales>
<clustering>
<clus scale="   46.927">  1  3  2 -1</clus>
<clus scale="   59.360">  1  5  2 -1</clus>
<clus scale="   61.705">  1  6  2 -1</clus>
<clus scale="   46.927">  1  3  2 -1</clus>
</clustering>
</event>
<event>
 6    0  0.1361919E+003  0.2470368E+03  0.7546771E-02  0.1115192E+00
         21   -1    0    0  505  501  0.00000000000E+00  0.00000000000E+00  0.34975954148E+03  0.34975954148E+03  0.00000000000E+00 0. -1.
         21   -1    0    0  503  502 -0.00000000000E+00 -0.00000000000E+00 -0.91048993473E+03  0.91048993473E+03  0.00000000000E+00 0. -1.
         21    1    1    2  503  501 -0.11140820679E+03  0.16722310852E+03 -0.36900734963E+02  0.20429640428E+03  0.00000000000E+00 0. -1.
         21    1    1    2  504  502 -0.75648739212E+02  0.58452764971E+02 -0.48528229813E+03  0.49460930679E+03  0.00000000000E+00 0. -1.
         21    1    1    2  505  506 -0.20648971940E+01  0.36031534389E+02  0.17208323461E+03  0.17582711652E+03  0.00000000000E+00 0. -1.
         21    1    1    2  506  504  0.18912184319E+03 -0.26170740788E+03 -0.21063059476E+03  0.38551664862E+03  0.00000000000E+00 0. -1.
<scales pt_clust_3="14000.00000" pt_clust_4="96.23097" pt_clust_5="36.09065" pt_clust_6="247.03677"></scales>
<clustering>
<clus scale="   36.091">  1  5  2 -1</clus>
<clus scale="   96.231">  2  4  1 -1</clus>
<clus scale="  247.037">  2  6  1 -1</clus>
<clus scale="   36.091">  1  3  2 -1</clus>
</clustering>
</event>
<event>
 6    0  0.1361919E+003  0.1339952E+03  0.7546771E-02  0.1221645E+00
         21   -1    0    0  506  501  0.00000000000E+00  0.00000000000E+00  0.16540835128E+03  0.16540835128E+03  0.00000000000E+00 0.  1.
         21   -1    0    0  503  502 -0.00000000000E+00 -0.00000000000E+00 -0.23234411171E+03  0.23234411171E+03  0.00000000000E+00 0.  1.
         21    1    1    2  503  501  0.45726683322E+02  0.69936084559E+02 -0.18341922014E+02  0.85547715307E+02  0.00000000000E+00 0.  1.
         21    1    1    2  504  505 -0.39623289076E+02 -0.49946092048E+02 -0.64492440806E+01  0.64079715178E+02  0.00000000000E+00 0.  1.
         21    1    1    2  505  502  0.59906455671E+02  0.31783411125E+02 -0.11729980483E+03  0.13549248270E+03  0.00000000000E+00 0.  1.
         21    1    1    2  506  504 -0.66009849917E+02 -0.51773403636E+02  0.75155210500E+02  0.11263254980E+03  0.00000000000E+00 0.  1.
<scales pt_clust_3="113.81219" pt_clust_4="61.65183" pt_clust_5="67.81570" pt_clust_6="61.65183"></scales>
<clustering>
<clus scale="   61.652">  4  6 -1 -1</clus>
<clus scale="   67.816">  2  5  1 -1</clus>
<clus scale="  113.812">  2  3  1 -1</clus>
<clus scale="  133.995">  1  3  2 -1</clus>
</clustering>
</event>
<event>
 6    0  0.1361919E+003  0.9791006E+02  0.7546771E-02  0.1284753E+00
         21   -1    0    0  503  501  0.00000000000E+00  0.00000000000E+00  0.27462797331E+03  0.27462797331E+03  0.00000000000E+00 0. -1.
         21   -1    0    0  504  502 -0.00000000000E+00 -0.00000000000E+00 -0.58115666672E+03  0.58115666672E+03  0.00000000000E+00 0.  1.
         21    1    1    2  503  506  0.35582270800E+02  0.29235853947E+02  0.36659230503E+01  0.46198183331E+02  0.00000000000E+00 0. -1.
         21    1    1    2  504  505 -0.13487632446E+03 -0.89442577336E+01 -0.29826016827E+03  0.32746106734E+03  0.00000000000E+00 0.  1.
         21    1    1    2  505  501  0.60958143860E+02 -0.26869048865E+02  0.22878361640E+03  0.23828509023E+03  0.00000000000E+00 0. -1.
         21    1    1    2  506  502  0.38335909797E+02  0.65774526520E+01 -0.24071806459E+03  0.24384029914E+03  0.00000000000E+00 0. -1.
<scales pt_clust_3="48.18849" pt_clust_4="97.91006" pt_clust_5="14000.00000" pt_clust_6="38.89608"></scales>
<clustering>
<clus scale="   38.896">  2  6  1 -1</clus>
<clus scale="   48.188">  1  3  2 -1</clus>
<clus scale="   97.910">  2  4  1 -1</clus>
<clus scale="   48.188">  1  3  2 -1</clus>
</clustering>
</event>
<event>
 6    0  0.1361919E+003  0.1008369E+03  0.7546771E-02  0.1278546E+00
         21   -1    0    0  503  501  0.00000000000E+00  0.00000000000E+00  0.15573804825E+03  0.15573804825E+03  0.00000000000E+00 0. -1.
         21   -1    0    0  505  502 -0.00000000000E+00 -0.00000000000E+00 -0.30828169919E+03  0.30828169919E+03  0.00000000000E+00 0. -1.
         21    1    1    2  503  502  0.10017635374E+01 -0.10229244859E+03 -0.17712212036E+03  0.20454093500E+03  0.00000000000E+00 0. -1.
         21    1    1    2  504  501  0.63541077510E+02  0.40438371401E+02  0.10653796162E+03  0.13047247863E+03  0.00000000000E+00 0. -1.
         21    1    1    2  505  506 -0.12042669476E+02  0.34036109373E+02 -0.49607469157E+02  0.61354572980E+02  0.00000000000E+00 0.  1.
         21    1    1    2  506  504 -0.52500171571E+02  0.27817967821E+02 -0.32352023040E+02  0.67651760831E+02  0.00000000000E+00 0.  1.
<scales pt_clust_3="90.74417" pt_clust_4="75.31753" pt_clust_5="34.27752" pt_clust_6="34.27752"></scales>
<clustering>
<clus scale="   34.278">  5  6 -1 -1</clus>
<clus scale="   75.318">  1  4  2 -1</clus>
<clus scale="   90.744">  2  3  1 -1</clus>
<clus scale="   75.318">  1  3  2 -1</clus>
</clustering>
</event>
<event>
 6    0  0.1361919E+003  0.2240935E+03  0.7546771E-02  0.1130867E+00
         21   -1    0    0  503  501  0.00000000000E+00  0.00000000000E+00  0.74223291204E+03  0.74223291204E+03  0.00000000000E+00 0.  1.
         21   -1    0    0  504  502 -0.00000000000E+00 -0.00000000000E+00 -0.21346239555E+03  0.21346239555E+03  0.00000000000E+00 0.  1.
         21    1    1    2  503  505  0.42065562636E+02 -0.15229314006E+02  0.89228031857E+02  0.99815255518E+02  0.00000000000E+00 0.  1.
         21    1    1    2  504  501 -0.20355983249E+03  0.49067339192E+02  0.18483067485E+02  0.21020426485E+03  0.00000000000E+00 0.  1.
         21    1    1    2  505  506  0.17398871541E+03  0.54286171461E+02  0.49656532197E+03  0.52895763582E+03  0.00000000000E+00 0.  1.
         21    1    1    2  506  502 -0.12494445558E+02 -0.88124196647E+02 -0.75505904822E+02  0.11671815141E+03  0.00000000000E+00 0.  1.
<scales pt_clust_3="31.32093" pt_clust_4="214.99137" pt_clust_5="31.32093" pt_clust_6="89.00553"></scales>
<clustering>
<clus scale="   31.321">  3  5 -1 -1</clus>
<clus scale="   89.006">  2  6  1 -1</clus>
<clus scale="  214.991">  2  4  1 -1</clus>
<clus scale="  224.093">  1  3  2 -1</clus>
</clustering>
</event>
<event>
 6    0  0.1361919E+003  0.1268761E+03  0.7546771E-02  0.1232166E+00
         21   -1    0    0  506  501  0.00000000000E+00  0.00000000000E+00  0.21806921913E+04  0.21806921913E+04  0.00000000000E+00 0.  1.
         21   -1    0    0  505  502 -0.00000000000E+00 -0.00000000000E+00 -0.20849089771E+03  0.20849089771E+03  0.00000000000E+00 0. -1.
         21    1    1    2  503  502  0.39210913537E+02 -0.13816930525E+02 -0.40071555927E+02  0.57741950988E+02  0.00000000000E+00 0.  1.
         21    1    1    2  504  503  0.37945769551E+02 -0.69039607137E+02 -0.93822111586E+02  0.12251096850E+03  0.00000000000E+00 0. -1.
         21    1    1    2  505  501  0.49317911937E+01 -0.49685164998E+02  0.20383215015E+04  0.20389329273E+04  0.00000000000E+00 0.  1.
         21    1    1    2  506  504 -0.82088474282E+02  0.13254170266E+03  0.67773459544E+02  0.16999724225E+03  0.00000000000E+00 0. -1.
<scales pt_clust_3="30.34799" pt_clust_4="30.34799" pt_clust_5="49.92933" pt_clust_6="119.80105"></scales>
<clustering>
<clus scale="   30.348">  3  4 -1 -1</clus>
<clus scale="   49.929">  1  5  2 -1</clus>
<clus scale="  119.801">  1  6  2 -1</clus>
<clus scale="   49.929">  1  3  2 -1</clus>
</clustering>
</event>
<event>
 6    0  0.1361919E+003  0.7612603E+02  0.7546771E-02  0.1340419E+00
         21   -1    0    0  503  501  0.00000000000E+00  0.00000000000E+00  0.15289403200E+04  0.15289403200E+04  0.00000000000E+00 0. -1.
         21   -1    0    0  506  502 -0.00000000000E+00 -0.00000000000E+00 -0.48212051780E+02  0.48212051780E+02  0.00000000000E+00 0.  1.
         21    1    1    2  503  505 -0.79638931063E+00  0.61701646585E+02  0.72790921537E+03  0.73052005671E+03  0.00000000000E+00 0. -1.
         21    1    1    2  504  501 -0.67296493413E+02 -0.72625250412E+02  0.63344367321E+03  0.64113503425E+03  0.00000000000E+00 0.  1.
         21    1    1    2  505  502  0.11278898149E+03  0.15959058514E+02  0.53798893121E+02  0.12597764403E+03  0.00000000000E+00 0.  1.
         21    1    1    2  506  504 -0.44696098770E+02 -0.50354546866E+01  0.65576486484E+02  0.79519636749E+02  0.00000000000E+00 0. -1.
<scales pt_clust_3="61.58197" pt_clust_4="76.12603" pt_clust_5="14000.00000" pt_clust_6="44.97885"></scales>
<clustering>
<clus scale="   44.979">  2  6  1 -1</clus>
<clus scale="   61.582">  1  3  2 -1</clus>
<clus scale="   76.126">  1  4  2 -1</clus>
<clus scale="   61.582">  1  3  2 -1</clus>
</clustering>
</event>
<event>
 6    0  0.1361919E+003  0.1218666E+03  0.7546771E-02  0.1240049E+00
         21   -1    0    0  506  501  0.00000000000E+00  0.00000000000E+00  0.90721011760E+03  0.90721011760E+03  0.00000000000E+00 0.  1.
         21   -1    0    0  503  502 -0.00000000000E+00 -0.00000000000E+00 -0.20139358953E+04  0.20139358953E+04  0.00000000000E+00 0.  1.
         21    1    1    2  503  505 -0.43448305685E+02 -0.48251333528E+02 -0.19661924883E+04  0.19672643054E+04  0.00000000000E+00 0.  1.
         21    1    1    2  504  501  0.10634604641E+02 -0.91657867555E+02  0.67702208322E+03  0.68328117248E+03  0.00000000000E+00 0.  1.
         21    1    1    2  505  504 -0.71265247809E+01  0.15644712609E+03  0.14195524841E+03  0.21137119758E+03  0.00000000000E+00 0.  1.
         21    1    1    2  506  502  0.39940225825E+02 -0.16537925009E+02  0.40489378953E+02  0.59229337415E+02  0.00000000000E+00 0.  1.
<scales pt_clust_3="64.92130" pt_clust_4="121.86663" pt_clust_5="14000.00000" pt_clust_6="43.22875"></scales>
<clustering>
<clus scale="   43.229">  1  6  2 -1</clus>
<clus scale="   64.921">  2  3  1 -1</clus>
<clus scale="  121.867">  1  4  2 -1</clus>
<clus scale="   43.229">  1  3  2 -1</clus>
</clustering>
</event>
<event>
 6    0  0.1361919E+003  0.1512021E+03  0.7546771E-02  0.1199004E+00
         21   -1    0    0  505  501  0.00000000000E+00  0.00000000000E+00  0.31417146757E+03  0.31417146757E+03  0.00000000000E+00 0.  1.
         21   -1    0    0  503  502 -0.00000000000E+00 -0.00000000000E+00 -0.57413673958E+03  0.57413673958E+03  0.00000000000E+00 0. -1.
         21    1    1    2  503  501  0.15959646312E+03  0.16658934901E+02 -0.27283731147E+03  0.31652606478E+03  0.00000000000E+00 0. -1.
         21    1    1    2  504  502  0.23688294527E+01  0.30689890500E+02 -0.13243895927E+03  0.13596896214E+03  0.00000000000E+00 0. -1.
         21    1    1    2  505  506 -0.29835216832E+02 -0.16262345014E+02  0.25748847009E+03  0.25972084294E+03  0.00000000000E+00 0.  1.
         21    1    1    2  506  504 -0.13213007574E+03 -0.31086480388E+02 -0.11217747135E+03  0.17609233730E+03  0.00000000000E+00 0. -1.
<scales pt_clust_3="151.20213" pt_clust_4="30.78117" pt_clust_5="33.93698" pt_clust_6="14000.00000"></scales>
<clustering>
<clus scale="   30.781">  2  4  1 -1</clus>
<clus scale="   33.937">  1  5  2 -1</clus>
<clus scale="  151.202">  2  3  1 -1</clus>
<clus scale="   33.937">  1  3  2 -1</clus>
</clustering>
</event>
<event>
 6    0  0.1361919E+003  0.1196597E+03  0.7546771E-02  0.1243659E+00
         21   -1    0    0  506  501  0.00000000000E+00  0.00000000000E+00  0.11270693521E+03  0.11270693521E+03  0.00000000000E+00 0. -1.
         21   -1    0    0  503  502 -0.00000000000E+00 -0.00000000000E+00 -0.10638936874E+04  0.10638936874E+04  0.00000000000E+00 0.  1.
         21    1    1    2  503  504  0.18352962474E+02 -0.28659014633E+02 -0.46848754358E+03  0.46972199101E+03  0.00000000000E+00 0.  1.
         21    1    1    2  504  501  0.86541795523E+02  0.11495207228E+03 -0.48969462301E+03  0.51039620404E+03  0.00000000000E+00 0.  1.
         21    1    1    2  505  502 -0.78921788669E+02 -0.33751959525E+02 -0.62049907036E+02  0.10591522299E+03  0.00000000000E+00 0. -1.
         21    1    1    2  506  505 -0.25972969327E+02 -0.52541098121E+02  0.69045321444E+02  0.90567204554E+02  0.00000000000E+00 0. -1.
<scales pt_clust_3="34.03190" pt_clust_4="14000.00000" pt_clust_5="119.65973" pt_clust_6="58.93028"></scales>
<clustering>
<clus scale="   34.032">  2  3  1 -1</clus>
<clus scale="   58.930">  1  6  2 -1</clus>
<clus scale="  119.660">  1  5  2 -1</clus>
<clus scale="   58.930">  1  3  2 -1</clus>
</clustering>
</event>
<event>
 6    0  0.1361919E+003  0.1504818E+03  0.7546771E-02  0.1199882E+00
         21   -1    0    0  506  501  0.00000000000E+00  0.00000000000E+00  0.22777668845E+04  0.22777668845E+04  0.00000000000E+00 0.  1.
         21   -1    0    0  504  502 -0.00000000000E+00 -0.00000000000E+00 -0.32867631651E+02  0.32867631651E+02  0.00000000000E+00 0.  1.
         21    1    1    2  503  502  0.15790600842E+02  0.26842498512E+02 -0.12657926483E+02  0.33616750351E+02  0.00000000000E+00 0.  1.
         21    1    1    2  504  505 -0.23396844938E+02 -0.10084851912E+03  0.61731566537E+03  0.62593647192E+03  0.00000000000E+00 0.  1.
         21    1    1    2  505  501 -0.26583797446E+02 -0.51016203637E+02  0.61347846860E+03  0.61616976780E+03  0.00000000000E+00 0.  1.
         21    1    1    2  506  503  0.34190041543E+02  0.12502222424E+03  0.10267630453E+04  0.10349115260E+04  0.00000000000E+00 0.  1.
<scales pt_clust_3="31.14262" pt_clust_4="37.67888" pt_clust_5="37.67888" pt_clust_6="142.23932"></scales>
<clustering>
<clus scale="   31.143">  2  3  1 -1</clus>
<clus scale="   37.679">  4  5 -1 -1</clus>
<clus scale="  142.239">  1  6  2 -1</clus>
<clus scale="  142.239">  1  3  2 -1</clus>
</clustering>
</event>
<event>
 6    0  0.1361919E+003  0.1071751E+03  0.7546771E-02  0.1265892E+00
         21   -1    0    0  505  501  0.00000000000E+00  0.00000000000E+00  0.23245418327E+04  0.23245418327E+04  0.00000000000E+00 0.  1.
         21   -1    0    0  504  502 -0.00000000000E+00 -0.00000000000E+00 -0.59144409533E+02  0.59144409533E+02  0.00000000000E+00 0.  1.
         21    1    1    2  503  502 -0.25671094849E+02  0.23444698481E+02 -0.25683624352E+02  0.43223923439E+02  0.00000000000E+00 0.  1.
         21    1    1    2  504  506  0.10838948723E+03 -0.46459052669E+02  0.51786427869E+03  0.53112158274E+03  0.00000000000E+00 0.  1.
         21    1    1    2  505  503 -0.55432005388E+02  0.64202276559E+02  0.83913685819E+02  0.11931532259E+03  0.00000000000E+00 0.  1.
         21    1    1    2  506  501 -0.27286386996E+02 -0.41187922371E+02  0.16893030830E+04  0.16900254135E+04  0.00000000000E+00 0.  1.
<scales pt_clust_3="34.76577" pt_clust_4="14000.00000" pt_clust_5="107.17506" pt_clust_6="49.33045"></scales>
<clustering>
<clus scale="   34.766">  2  3  1 -1</clus>
<clus scale="   49.330">  1  6  2 -1</clus>
<clus scale="  107.175">  2  5  1 -1</clus>
<clus scale="   49.330">  1  3  2 -1</clus>
</clustering>
</event>
<event>
 6    0  0.1361919E+003  0.7582755E+02  0.7546771E-02  0.1341327E+00
         21   -1    0    0  505  501  0.00000000000E+00  0.00000000000E+00  0.41375581716E+03  0.41375581716E+03  0.00000000000E+00 0.  1.
         21   -1    0    0  506  502 -0.00000000000E+00 -0.00000000000E+00 -0.11871731265E+04  0.11871731265E+04  0.00000000000E+00 0.  1.
         21    1    1    2  503  502 -0.18972412226E+01 -0.73874060252E+02 -0.76293777749E+03  0.76650833565E+03  0.00000000000E+00 0.  1.
         21    1    1    2  504  501  0.18993384580E+02 -0.46251185713E+02  0.38958127527E+03  0.39277664248E+03  0.00000000000E+00 0.  1.
         21    1    1    2  505  503 -0.74269791666E+02  0.39232584279E+02 -0.13882364112E+03  0.16225658987E+03  0.00000000000E+00 0.  1.
         21    1    1    2  506  504  0.57173648308E+02  0.80892661686E+02 -0.26123716595E+03  0.27938737561E+03  0.00000000000E+00 0. -1.
<scales pt_clust_3="14000.00000" pt_clust_4="49.99921" pt_clust_5="66.18904" pt_clust_6="75.82755"></scales>
<clustering>
<clus scale="   49.999">  1  4  2 -1</clus>
<clus scale="   66.189">  1  5  2 -1</clus>
<clus scale="   75.828">  1  6  2 -1</clus>
<clus scale="   49.999">  1  3  2 -1</clus>
</clustering>
</event>
<event>
 6    0  0.1361919E+003  0.7841856E+02  0.7546771E-02  0.1333600E+00
         21   -1    0    0  505  501  0.00000000000E+00  0.00000000000E+00  0.27149972246E+04  0.27149972246E+04  0.00000000000E+00 0. -1.
         21   -1    0    0  504  502 -0.00000000000E+00 -0.00000000000E+00 -0.15862583839E+02  0.15862583839E+02  0.00000000000E+00 0. -1.
         21    1    1    2  503  501  0.95344561730E+02 -0.35133945180E+02  0.12457452795E+04  0.12498825069E+04  0.00000000000E+00 0. -1.
         21    1    1    2  504  503 -0.62429912044E+02 -0.54875790333E+02  0.52324316192E+03  0.52980397580E+03  0.00000000000E+00 0. -1.
         21    1    1    2  505  506 -0.18948952112E+02  0.54919071084E+02  0.90250089091E+03  0.90436885464E+03  0.00000000000E+00 0. -1.
         21    1    1    2  506  502 -0.13965697574E+02  0.35090664429E+02  0.27645308406E+02  0.46804471107E+02  0.00000000000E+00 0. -1.
<scales pt_clust_3="78.41856" pt_clust_4="14000.00000" pt_clust_5="63.70489" pt_clust_6="37.76765"></scales>
<clustering>
<clus scale="   37.768">  2  6  1 -1</clus>
<clus scale="   63.705">  1  5  2 -1</clus>
<clus scale="   78.419">  1  3  2 -1</clus>
<clus scale="   63.705">  1  3  2 -1</clus>
</clustering>
</event>
<event>
 6    0  0.1361919E+003  0.1070147E+03  0.7546771E-02  0.1266200E+00
         21   -1    0    0  504  501  0.00000000000E+00  0.00000000000E+00  0.10232778312E+04  0.10232778312E+04  0.00000000000E+00 0. -1.
         21   -1    0    0  506  502 -0.00000000000E+00 -0.00000000000E+00 -0.22508959731E+03  0.22508959731E+03  0.00000000000E+00 0.  1.
         21    1    1    2  503  502 -0.11454986293E+03  0.10918949904E+03  0.42458204974E+03  0.45311580723E+03  0.00000000000E+00 0. -1.
         21    1    1    2  504  503  0.23981861629E+02 -0.18444445502E+02  0.51886162673E+03  0.51974293160E+03  0.00000000000E+00 0. -1.
         21    1    1    2  505  501  0.17877719700E+01 -0.33726685132E+02  0.46006723657E+02  0.57072795974E+02  0.00000000000E+00 0.  1.
         21    1    1    2  506  505  0.88780229332E+02 -0.57018368402E+02 -0.19126216620E+03  0.21843589374E+03  0.00000000000E+00 0.  1.
<scales pt_clust_3="107.01472" pt_clust_4="30.25438" pt_clust_5="35.86448" pt_clust_6="14000.00000"></scales>
<clustering>
<clus scale="   30.254">  1  4  2 -1</clus>
<clus scale="   35.864">  1  5  2 -1</clus>
<clus scale="  107.015">  1  3  2 -1</clus>
<clus scale="   30.254">  1  3  2 -1</clus>
</clustering>
</event>
<event>
 6    0  0.1361919E+003  0.8235269E+02  0.7546771E-02  0.1322504E+00
         21   -1    0    0  503  501  0.00000000000E+00  0.00000000000E+00  0.30926928474E+03  0.30926928474E+03  0.00000000000E+00 0. -1.
         21   -1    0    0  506  502 -0.00000000000E+00 -0.00000000000E+00 -0.27536028693E+03  0.27536028693E+03  0.00000000000E+00 0. -1.
         21    1    1    2  503  505  0.11160525153E+03 -0.49587263686E+02  0.22766889128E+03  0.25835586493E+03  0.00000000000E+00 0. -1.
         21    1    1    2  504  501 -0.32324173405E+02  0.40975609928E+02  0.31270825168E+02  0.60841739801E+02  0.00000000000E+00 0. -1.
         21    1    1    2  505  502 -0.82605353298E+02 -0.27144905524E+02 -0.20848976581E+03  0.22589482672E+03  0.00000000000E+00 0. -1.
         21    1    1    2  506  504  0.33242751756E+01  0.35756559282E+02 -0.16540952814E+02  0.39537140224E+02  0.00000000000E+00 0. -1.
<scales pt_clust_3="82.35269" pt_clust_4="53.76610" pt_clust_5="14000.00000" pt_clust_6="35.91076"></scales>
<clustering>
<clus scale="   35.911">  2  6  1 -1</clus>
<clus scale="   53.766">  1  4  2 -1</clus>
<clus scale="   82.353">  1  3  2 -1</clus>
<clus scale="   53.766">  1  3  2 -1</clus>
</clustering>
</event>
<event>
 6    0  0.1361919E+003  0.1589298E+03  0.7546771E-02  0.1189910E+00
         21   -1    0    0  506  501  0.00000000000E+00  0.00000000000E+00  0.13675324144E+03  0.13675324144E+03  0.00000000000E+00 0. -1.
         21   -1    0    0  505  502 -0.00000000000E+00 -0.00000000000E+00 -0.71874468962E+03  0.71874468962E+03  0.00000000000E+00 0. -1.
         21    1    1    2  503  504  0.90987876902E+02 -0.10154711260E+03 -0.15775809362E+03  0.20851433025E+03  0.00000000000E+00 0. -1.
         21    1    1    2  504  501  0.13496412629E+02  0.68108516902E+02  0.37021134285E+02  0.78686006457E+02  0.00000000000E+00 0.  1.
         21    1    1    2  505  503  0.49146462364E+02 -0.76740979961E+02 -0.31883056376E+03  0.33159837327E+03  0.00000000000E+00 0.  1.
         21    1    1    2  506  502 -0.15363075190E+03  0.11017957566E+03 -0.14242392508E+03  0.23669922107E+03  0.00000000000E+00 0. -1.
<scales pt_clust_3="158.92976" pt_clust_4="69.43287" pt_clust_5="87.16448" pt_clust_6="14000.00000"></scales>
<clustering>
<clus scale="   69.433">  1  4  2 -1</clus>
<clus scale="   87.164">  2  5  1 -1</clus>
<clus scale="  158.930">  1  3  2 -1</clus>
<clus scale="   69.433">  1  3  2 -1</clus>
</clustering>
</event>
<event>
 6    0  0.1361919E+003  0.9124088E+02  0.7546771E-02  0.1299874E+00
         21   -1    0    0  503  501  0.00000000000E+00  0.00000000000E+00  0.24314434251E+02  0.24314434251E+02  0.00000000000E+00 0. -1.
         21   -1    0    0  504  502 -0.00000000000E+00 -0.00000000000E+00 -0.20332040970E+04  0.20332040970E+04  0.00000000000E+00 0. -1.
         21    1    1    2  503  505 -0.20837462779E+02 -0.25439982667E+02 -0.52727209381E+02  0.62141380595E+02  0.00000000000E+00 0. -1.
         21    1    1    2  504  506  0.45149963415E+02  0.35400224965E+02 -0.13848084641E+04  0.13859964565E+04  0.00000000000E+00 0. -1.
         21    1    1    2  505  502 -0.37030356086E+02  0.89605588763E+02 -0.17038770827E+03  0.19604178111E+03  0.00000000000E+00 0. -1.
         21    1    1    2  506  501  0.12717855450E+02 -0.99565831062E+02 -0.40096628096E+03  0.41333891303E+03  0.00000000000E+00 0. -1.
<scales pt_clust_3="32.88453" pt_clust_4="56.40141" pt_clust_5="14000.00000" pt_clust_6="91.24088"></scales>
<clustering>
<clus scale="   32.885">  1  3  2 -1</clus>
<clus scale="   56.401">  2  4  1 -1</clus>
<clus scale="   91.241">  2  6  1 -1</clus>
<clus scale="   32.885">  1  3  2 -1</clus>
</clustering>
</event>
<event>
 6    0  0.1361919E+003  0.1871036E+03  0.7546771E-02  0.1161100E+00
         21   -1    0    0  506  501  0.00000000000E+00  0.00000000000E+00  0.17433593585E+04  0.17433593585E+04  0.00000000000E+00 0. -1.
         21   -1    0    0  504  502 -0.00000000000E+00 -0.00000000000E+00 -0.95853039966E+02  0.95853039966E+02  0.00000000000E+00 0. -1.
         21    1    1    2  503  501  0.39745848226E+02  0.34248189074E+02  0.25741384942E+03  0.26270622523E+03  0.00000000000E+00 0. -1.
         21    1    1    2  504  503  0.19234131162E+03 -0.15570782958E+02  0.33480999396E+02  0.19585353394E+03  0.00000000000E+00 0. -1.
         21    1    1    2  505  502 -0.15538693437E+03 -0.44232916606E+02  0.66555676998E+03  0.68488500082E+03  0.00000000000E+00 0.  1.
         21    1    1    2  506  505 -0.76700225468E+02  0.25555510490E+02  0.69105469973E+03  0.69576763845E+03  0.00000000000E+00 0. -1.
<scales pt_clust_3="52.46590" pt_clust_4="14000.00000" pt_clust_5="187.10355" pt_clust_6="71.45374"></scales>
<clustering>
<clus scale="   52.466">  1  3  2 -1</clus>
<clus scale="   71.454">  1  6  2 -1</clus>
<clus scale="  187.104">  1  5  2 -1</clus>
<clus scale="   52.466">  1  3  2 -1</clus>
</clustering>
</event>
<event>
 6    0  0.1790425E+003  0.2007194E+03  0.7546771E-02  0.1149133E+00
         21   -1    0    0  503  501  0.00000000000E+00  0.00000000000E+00  0.10959625255E+04  0.10959625255E+04  0.00000000000E+00 0.  1.
         21   -1    0    0  504  502 -0.00000000000E+00 -0.00000000000E+00 -0.89746514579E+03  0.89746514579E+03  0.00000000000E+00 0. -1.
         21    1    1    2  503  506 -0.53518729834E+00  0.61372778026E+02  0.56220448687E+02  0.83232464571E+02  0.00000000000E+00 0.  1.
         21    1    1    2  504  505 -0.21697372068E+03  0.79587864037E+00 -0.82503008286E+03  0.85308432556E+03  0.00000000000E+00 0. -1.
         21    1    1    2  505  501  0.10611984322E+03 -0.71508207541E+02  0.93074925976E+03  0.93950467238E+03  0.00000000000E+00 0.  1.
         21    1    1    2  506  502  0.11138906476E+03  0.93395508752E+01  0.36557754130E+02  0.11760620879E+03  0.00000000000E+00 0. -1.
<scales pt_clust_3="61.37511" pt_clust_4="14000.00000" pt_clust_5="106.77556" pt_clust_6="200.71941"></scales>
<clustering>
<clus scale="   61.375">  1  3  2 -1</clus>
<clus scale="  106.776">  1  5  2 -1</clus>
<clus scale="  200.719">  1  6  2 -1</clus>
<clus scale="   61.375">  1  3  2 -1</clus>
</clustering>
</event>
<event>
 6    0  0.1361919E+003  0.1114270E+03  0.7546771E-02  0.1257950E+00
         21   -1    0    0  505  501  0.00000000000E+00  0.00000000000E+00  0.11131771195E+03  0.11131771195E+03  0.00000000000E+00 0.  1.
         21   -1    0    0  504  502 -0.00000000000E+00 -0.00000000000E+00 -0.45076349773E+03  0.45076349773E+03  0.00000000000E+00 0.  1.
         21    1    1    2  503  502  0.47283243065E+02  0.10320224869E+03 -0.17113688819E+03  0.20536368644E+03  0.00000000000E+00 0.  1.
         21    1    1    2  504  501  0.35700731578E+02 -0.17663167683E+02 -0.20689414945E+03  0.21069342373E+03  0.00000000000E+00 0.  1.
         21    1    1    2  505  506 -0.81095718154E+01 -0.29381416054E+02 -0.19205142722E+02  0.36025966626E+02  0.00000000000E+00 0.  1.
         21    1    1    2  506  503 -0.74874402827E+02 -0.56157664953E+02  0.57790394586E+02  0.10999813289E+03  0.00000000000E+00 0.  1.
<scales pt_clust_3="14000.00000" pt_clust_4="39.94143" pt_clust_5="30.48004" pt_clust_6="111.42695"></scales>
<clustering>
<clus scale="   30.480">  1  5  2 -1</clus>
<clus scale="   39.941">  2  4  1 -1</clus>
<clus scale="  111.427">  1  6  2 -1</clus>
<clus scale="   30.480">  1  3  2 -1</clus>
</clustering>
</event>
<event>
 6    0  0.1975550E+003  0.1310026E+03  0.7546771E-02  0.1225976E+00
         21   -1    0    0  506  501  0.00000000000E+00  0.00000000000E+00  0.38539105542E+03  0.38539105542E+03  0.00000000000E+00 0. -1.
         21   -1    0    0  504  502 -0.00000000000E+00 -0.00000000000E+00 -0.22869584220E+04  0.22869584220E+04  0.00000000000E+00 0. -1.
         21    1    1    2  503  501  0.10838231623E+02  0.96353882247E+02  0.36432224614E+03  0.37700429298E+03  0.00000000000E+00 0. -1.
         21    1    1    2  504  503 -0.26294268162E+02 -0.69135622617E+02 -0.19704561711E+04  0.19718439708E+04  0.00000000000E+00 0. -1.
         21    1    1    2  505  502  0.20501217388E+02 -0.63615644584E+02 -0.27160054911E+03  0.27970360817E+03  0.00000000000E+00 0. -1.
         21    1    1    2  506  505 -0.50451808495E+01  0.36397384954E+02 -0.23832892530E+02  0.43797605501E+02  0.00000000000E+00 0.  1.
<scales pt_clust_3="131.00259" pt_clust_4="14000.00000" pt_clust_5="66.44695" pt_clust_6="36.74539"></scales>
<clustering>
<clus scale="   36.745">  1  6  2 -1</clus>
<clus scale="   66.447">  2  5  1 -1</clus>
<clus scale="  131.003">  1  3  2 -1</clus>
<clus scale="   36.745">  1  3  2 -1</clus>
</clustering>
</event>
<event>
 6    0  0.1361919E+003  0.1818293E+03  0.7546771E-02  0.1166044E+00
         21   -1    0    0  503  501  0.00000000000E+00  0.00000000000E+00  0.27347540165E+03  0.27347540165E+03  0.00000000000E+00 0. -1.
         21   -1    0    0  506  502 -0.00000000000E+00 -0.00000000000E+00 -0.18952051099E+03  0.18952051099E+03  0.00000000000E+00 0. -1.
         21    1    1    2  503  505  0.21463810535E+02  0.25761886592E+02  0.10086718515E+03  0.10629468003E+03  0.00000000000E+00 0.  1.
         21    1    1    2  504  502  0.27896276919E+02 -0.29050230142E+02 -0.20499993586E+02  0.45192564369E+02  0.00000000000E+00 0.  1.
         21    1    1    2  505  504  0.40738448473E+02 -0.13634622758E+03  0.23182300615E+02  0.14417813295E+03  0.00000000000E+00 0. -1.
         21    1    1    2  506  501 -0.90098535927E+02  0.13963457113E+03 -0.19594601518E+02  0.16733053528E+03  0.00000000000E+00 0. -1.
<scales pt_clust_3="33.53163" pt_clust_4="32.74030" pt_clust_5="32.74030" pt_clust_6="171.09808"></scales>
<clustering>
<clus scale="   32.740">  4  5 -1 -1</clus>
<clus scale="   33.532">  1  3  2 -1</clus>
<clus scale="  171.098">  2  6  1 -1</clus>
<clus scale="   33.532">  1  3  2 -1</clus>
</clustering>
</event>
<event>
 6    0  0.1361919E+003  0.9243290E+02  0.7546771E-02  0.1297065E+00
         21   -1    0    0  504  501  0.00000000000E+00  0.00000000000E+00  0.61263587850E+03  0.61263587850E+03  0.00000000000E+00 0. -1.
         21   -1    0    0  506  502 -0.00000000000E+00 -0.00000000000E+00 -0.87054071842E+03  0.87054071842E+03  0.00000000000E+00 0. -1.
         21    1    1    2  503  501  0.81338566668E+02  0.10958929356E+03  0.40615407440E+02  0.14239166764E+03  0.00000000000E+00 0. -1.
         21    1    1    2  504  505 -0.20149563753E+02 -0.87474992542E+02  0.49764554213E+03  0.50567673947E+03  0.00000000000E+00 0. -1.
         21    1    1    2  505  502  0.33202099758E+02  0.25416683491E+02 -0.66658688183E+03  0.66789704166E+03  0.00000000000E+00 0. -1.
         21    1    1    2  506  503 -0.94391102673E+02 -0.47530984513E+02 -0.12957890766E+03  0.16721114815E+03  0.00000000000E+00 0. -1.
<scales pt_clust_3="14000.00000" pt_clust_4="92.43290" pt_clust_5="41.81372" pt_clust_6="75.90502"></scales>
<clustering>
<clus scale="   41.814">  2  5  1 -1</clus>
<clus scale="   75.905">  2  6  1 -1</clus>
<clus scale="   92.433">  1  4  2 -1</clus>
<clus scale="   92.433">  1  3  2 -1</clus>
</clustering>
</event>
<event>
 6    0  0.1361919E+003  0.1112422E+03  0.7546771E-02  0.1258287E+00
         21   -1    0    0  505  501  0.00000000000E+00  0.00000000000E+00  0.44613984127E+03  0.44613984127E+03  0.00000000000E+00 0. -1.
         21   -1    0    0  504  502 -0.00000000000E+00 -0.00000000000E+00 -0.14610523517E+03  0.14610523517E+03  0.00000000000E+00 0. -1.
         21    1    1    2  503  501 -0.45140426417E+02  0.83170004969E+02  0.16891462030E+03  0.19361574516E+03  0.00000000000E+00 0. -1.
         21    1    1    2  504  506  0.21846412252E+02  0.20655683848E+02 -0.73098061552E+02  0.79039544572E+02  0.00000000000E+00 0. -1.
         21    1    1    2  505  502  0.36999924001E+02 -0.13317074946E+03  0.23645838567E+03  0.27389050922E+03  0.00000000000E+00 0. -1.
         21    1    1    2  506  503 -0.13705909836E+02  0.29345060639E+02 -0.32240338319E+02  0.45699277492E+02  0.00000000000E+00 0. -1.
<scales pt_clust_3="14000.00000" pt_clust_4="30.06531" pt_clust_5="111.24215" pt_clust_6="40.86774"></scales>
<clustering>
<clus scale="   30.065">  2  4  1 -1</clus>
<clus scale="   40.868">  2  6  1 -1</clus>
<clus scale="  111.242">  2  5  1 -1</clus>
<clus scale="  111.242">  1  3  2 -1</clus>
</clustering>
</event>
<event>
 6    0  0.1361919E+003  0.2982610E+03  0.7546771E-02  0.1086113E+00
         21   -1    0    0  505  501  0.00000000000E+00  0.00000000000E+00  0.38618194704E+03  0.38618194704E+03  0.00000000000E+00 0. -1.
         21   -1    0    0  503  502 -0.00000000000E+00 -0.00000000000E+00 -0.64211555331E+03  0.64211555331E+03  0.00000000000E+00 0. -1.
         21    1    1    2  503  504  0.21306086165E+02 -0.34016354303E+02 -0.24866497532E+03  0.25188356759E+03  0.00000000000E+00 0. -1.
         21    1    1    2  504  501 -0.60082308196E+02 -0.25061042267E+03 -0.27133513366E+03  0.37421681211E+03  0.00000000000E+00 0. -1.
         21    1    1    2  505  506  0.57695208817E+02  0.24717363259E+03  0.25392538305E+03  0.35902874805E+03  0.00000000000E+00 0. -1.
         21    1    1    2  506  502 -0.18918986786E+02  0.37453144384E+02  0.10141119661E+02  0.43168372603E+02  0.00000000000E+00 0. -1.
<scales pt_clust_3="40.13803" pt_clust_4="281.85853" pt_clust_5="39.66174" pt_clust_6="39.66174"></scales>
<clustering>
<clus scale="   39.662">  5  6 -1 -1</clus>
<clus scale="   40.138">  2  3  1 -1</clus>
<clus scale="  281.859">  2  4  1 -1</clus>
<clus scale="  298.261">  1  3  2 -1</clus>
</clustering>
</event>
<event>
 6    0  0.1361919E+003  0.6496329E+02  0.7546771E-02  0.1378110E+00
         21   -1    0    0  505  501  0.00000000000E+00  0.00000000000E+00  0.24689937925E+03  0.24689937925E+03  0.00000000000E+00 0.  1.
         21   -1    0    0  503  502 -0.00000000000E+00 -0.00000000000E+00 -0.25104077271E+03  0.25104077271E+03  0.00000000000E+00 0.  1.
         21    1    1    2  503  501 -0.11855145662E+01 -0.34464366215E+02 -0.17597317926E+01  0.34529619740E+02  0.00000000000E+00 0.  1.
         21    1    1    2  504  502  0.18139506904E+02 -0.41188157840E+02 -0.92800160893E+02  0.10313765519E+03  0.00000000000E+00 0.  1.
         21    1    1    2  505  506 -0.10458512929E+02 -0.61346990176E+02  0.18399731881E+03  0.19423657489E+03  0.00000000000E+00 0.  1.
         21    1    1    2  506  504 -0.64954794094E+01  0.13699951423E+03 -0.93578819585E+02  0.16603630214E+03  0.00000000000E+00 0.  1.
<scales pt_clust_3="34.48475" pt_clust_4="58.41321" pt_clust_5="14000.00000" pt_clust_6="64.96329"></scales>
<clustering>
<clus scale="   34.485">  2  3  1 -1</clus>
<clus scale="   58.413">  2  4  1 -1</clus>
<clus scale="   64.963">  2  6  1 -1</clus>
<clus scale="   64.963">  1  3  2 -1</clus>
</clustering>
</event>
<event>
 6    0  0.1361919E+003  0.1313137E+03  0.7546771E-02  0.1225519E+00
         21   -1    0    0  506  501  0.00000000000E+00  0.00000000000E+00  0.42552541792E+03  0.42552541792E+03  0.00000000000E+00 0. -1.
         21   -1    0    0  503  502 -0.00000000000E+00 -0.00000000000E+00 -0.59334016407E+03  0.59334016407E+03  0.00000000000E+00 0. -1.
         21    1    1    2  503  505 -0.74859795461E+02  0.27408402186E+02  0.16631223158E+03  0.18443147199E+03  0.00000000000E+00 0. -1.
         21    1    1    2  504  502  0.12419421482E+03 -0.49429543671E+02 -0.55020413432E+03  0.56620850595E+03  0.00000000000E+00 0. -1.
         21    1    1    2  505  501 -0.25982375628E+02 -0.63287066351E+02  0.73240631338E+02  0.10022238617E+03  0.00000000000E+00 0. -1.
         21    1    1    2  506  504 -0.23352043728E+02  0.85308207835E+02  0.14283652526E+03  0.16800321788E+03  0.00000000000E+00 0. -1.
<scales pt_clust_3="14000.00000" pt_clust_4="131.31370" pt_clust_5="68.41299" pt_clust_6="66.41544"></scales>
<clustering>
<clus scale="   68.413">  1  5  2 -1</clus>
<clus scale="   66.415">  1  6  2 -1</clus>
<clus scale="  131.314">  2  4  1 -1</clus>
<clus scale="   68.413">  1  3  2 -1</clus>
</clustering>
</event>
<event>
 6    0  0.1361919E+003  0.1379929E+03  0.7546771E-02  0.1216055E+00
         21   -1    0    0  504  501  0.00000000000E+00  0.00000000000E+00  0.82309941495E+03  0.82309941495E+03  0.00000000000E+00 0.  1.
         21   -1    0    0  503  502 -0.00000000000E+00 -0.00000000000E+00 -0.11197498689E+03  0.11197498689E+03  0.00000000000E+00 0.  1.
         21    1    1    2  503  506 -0.45826868636E+02  0.19041409295E+02 -0.13545531000E+02  0.51440825878E+02  0.00000000000E+00 0.  1.
         21    1    1    2  504  502 -0.42065753341E+02  0.25094878231E+02  0.11952087246E+03  0.12916856998E+03  0.00000000000E+00 0.  1.
         21    1    1    2  505  501  0.68598129112E+02 -0.16171264540E+03  0.61042716563E+03  0.63519918730E+03  0.00000000000E+00 0.  1.
         21    1    1    2  506  505  0.19294492865E+02  0.11757635788E+03 -0.52780790389E+01  0.11926581868E+03  0.00000000000E+00 0.  1.
<scales pt_clust_3="50.94018" pt_clust_4="48.98245" pt_clust_5="137.99291" pt_clust_6="14000.00000"></scales>
<clustering>
<clus scale="   48.982">  1  4  2 -1</clus>
<clus scale="   50.940">  2  3  1 -1</clus>
<clus scale="  137.993">  1  5  2 -1</clus>
<clus scale="   48.982">  1  3  2 -1</clus>
</clustering>
</event>
<event>
 6    0  0.1361919E+003  0.9273216E+02  0.7546771E-02  0.1296367E+00
         21   -1    0    0  504  501  0.00000000000E+00  0.00000000000E+00  0.21225147239E+04  0.21225147239E+04  0.00000000000E+00 0.  1.
         21   -1    0    0  506  502 -0.00000000000E+00 -0.00000000000E+00 -0.37406601653E+03  0.37406601653E+03  0.00000000000E+00 0. -1.
         21    1    1    2  503  502 -0.17018764833E+02 -0.39668519646E+02  0.16231949918E+02  0.46116222802E+02  0.00000000000E+00 0. -1.
         21    1    1    2  504  505  0.43177209180E+02  0.29398025046E+02  0.20659448549E+04  0.20666051047E+04  0.00000000000E+00 0.  1.
         21    1    1    2  505  503 -0.89895914198E+02 -0.41368306561E+02 -0.23823930001E+03  0.25797398366E+03  0.00000000000E+00 0. -1.
         21    1    1    2  506  501  0.63737469852E+02  0.51638801160E+02 -0.95488797476E+02  0.12588542923E+03  0.00000000000E+00 0.  1.
<scales pt_clust_3="43.16515" pt_clust_4="52.20174" pt_clust_5="14000.00000" pt_clust_6="92.73216"></scales>
<clustering>
<clus scale="   43.165">  2  3  1 -1</clus>
<clus scale="   52.202">  1  4  2 -1</clus>
<clus scale="   92.732">  1  6  2 -1</clus>
<clus scale="   52.202">  1  3  2 -1</clus>
</clustering>
</event>
<event>
 6    0  0.1361919E+003  0.7012537E+02  0.7546771E-02  0.1359667E+00
         21   -1    0    0  505  501  0.00000000000E+00  0.00000000000E+00  0.14457231338E+03  0.14457231338E+03  0.00000000000E+00 0. -1.
         21   -1    0    0  506  502 -0.00000000000E+00 -0.00000000000E+00 -0.15239008345E+03  0.15239008345E+03  0.00000000000E+00 0. -1.
         21    1    1    2  503  502  0.87463942149E+02  0.15723409605E+02 -0.24673196419E+02  0.92227617379E+02  0.00000000000E+00 0. -1.
         21    1    1    2  504  501 -0.51853426528E+02  0.38641220378E+02  0.53452634206E+02  0.83899379369E+02  0.00000000000E+00 0. -1.
         21    1    1    2  505  503  0.21927849891E+02 -0.29882921572E+02  0.14782339256E+02  0.39904099494E+02  0.00000000000E+00 0. -1.
         21    1    1    2  506  504 -0.57538365512E+02 -0.24481708412E+02 -0.51379547113E+02  0.80931300583E+02  0.00000000000E+00 0. -1.
<scales pt_clust_3="14000.00000" pt_clust_4="44.36521" pt_clust_5="37.06507" pt_clust_6="70.12537"></scales>
<clustering>
<clus scale="   37.065">  1  5  2 -1</clus>
<clus scale="   44.365">  1  4  2 -1</clus>
<clus scale="   70.125">  2  6  1 -1</clus>
<clus scale="   37.065">  1  3  2 -1</clus>
</clustering>
</event>
<event>
 6    0  0.1361919E+003  0.9017837E+02  0.7546771E-02  0.1302420E+00
         21   -1    0    0  505  501  0.00000000000E+00  0.00000000000E+00  0.54915597784E+03  0.54915597784E+03  0.00000000000E+00 0. -1.
         21   -1    0    0  506  502 -0.00000000000E+00 -0.00000000000E+00 -0.16015099043E+03  0.16015099043E+03  0.00000000000E+00 0. -1.
         21    1    1    2  503  502  0.42607136549E+02  0.30274404322E+02  0.13400809874E+01  0.52284830104E+02  0.00000000000E+00 0.  1.
         21    1    1    2  504  501  0.48146747096E+02  0.58804150073E+02  0.40994140681E+03  0.41692684531E+03  0.00000000000E+00 0. -1.
         21    1    1    2  505  503 -0.18800827304E+02  0.26039174237E+02  0.69272728098E+02  0.76355880981E+02  0.00000000000E+00 0.  1.
         21    1    1    2  506  504 -0.71953056341E+02 -0.11511772863E+03 -0.91549228490E+02  0.16373941187E+03  0.00000000000E+00 0. -1.
<scales pt_clust_3="52.28521" pt_clust_4="14000.00000" pt_clust_5="32.11712" pt_clust_6="90.17837"></scales>
<clustering>
<clus scale="   32.117">  1  5  2 -1</clus>
<clus scale="   52.285">  2  3  1 -1</clus>
<clus scale="   90.178">  2  6  1 -1</clus>
<clus scale="   32.117">  1  3  2 -1</clus>
</clustering>
</event>
<event>
 6    0  0.1361919E+003  0.9944890E+02  0.7546771E-02  0.1281459E+00
         21   -1    0    0  504  501  0.00000000000E+00  0.00000000000E+00  0.23432461049E+03  0.23432461049E+03  0.00000000000E+00 0. -1.
         21   -1    0    0  506  502 -0.00000000000E+00 -0.00000000000E+00 -0.13608933641E+03  0.13608933641E+03  0.00000000000E+00 0. -1.
         21    1    1    2  503  501  0.18944474986E+02  0.31328000136E+02  0.38878189209E+02  0.53402718294E+02  0.00000000000E+00 0. -1.
         21    1    1    2  504  505 -0.36934704541E+01 -0.62823590547E+02  0.92155823981E+02  0.11159364295E+03  0.00000000000E+00 0. -1.
         21    1    1    2  505  502 -0.32612127146E+02 -0.81771288135E+02 -0.10235742685E+02  0.88627675297E+02  0.00000000000E+00 0. -1.
         21    1    1    2  506  503  0.17361122614E+02  0.11326687855E+03 -0.22562996419E+02  0.11678991036E+03  0.00000000000E+00 0. -1.
<scales pt_clust_3="36.61061" pt_clust_4="46.33106" pt_clust_5="99.44890" pt_clust_6="14000.00000"></scales>
<clustering>
<clus scale="   36.611">  1  3  2 -1</clus>
<clus scale="   46.331">  1  4  2 -1</clus>
<clus scale="   99.449">  2  5  1 -1</clus>
<clus scale="   36.611">  1  3  2 -1</clus>
</clustering>
</event>
<event>
 6    0  0.1361919E+003  0.1263777E+03  0.7546771E-02  0.1232932E+00
         21   -1    0    0  504  501  0.00000000000E+00  0.00000000000E+00  0.54121102937E+03  0.54121102937E+03  0.00000000000E+00 0. -1.
         21   -1    0    0  505  502 -0.00000000000E+00 -0.00000000000E+00 -0.44663886929E+03  0.44663886929E+03  0.00000000000E+00 0.  1.
         21    1    1    2  503  501 -0.39801085511E+02  0.81955852198E+02  0.46978856773E+03  0.47854172909E+03  0.00000000000E+00 0. -1.
         21    1    1    2  504  502  0.31586923109E+02  0.28264318586E+02  0.50022041923E+02  0.65565311673E+02  0.00000000000E+00 0. -1.
         21    1    1    2  505  506  0.35047076471E+02 -0.55412232140E+02 -0.23320650514E+03  0.24224798674E+03  0.00000000000E+00 0.  1.
         21    1    1    2  506  503 -0.26832914069E+02 -0.54807938644E+02 -0.19203194444E+03  0.20149487115E+03  0.00000000000E+00 0.  1.
<scales pt_clust_3="110.03318" pt_clust_4="42.38638" pt_clust_5="59.81010" pt_clust_6="59.81010"></scales>
<clustering>
<clus scale="   42.386">  1  4  2 -1</clus>
<clus scale="   59.810">  5  6 -1 -1</clus>
<clus scale="  110.033">  1  3  2 -1</clus>
<clus scale="   42.386">  1  3  2 -1</clus>
</clustering>
</event>
<event>
 6    0  0.1361919E+003  0.1270521E+03  0.7546771E-02  0.1231897E+00
         21   -1    0    0  505  501  0.00000000000E+00  0.00000000000E+00  0.43586583819E+02  0.43586583819E+02  0.00000000000E+00 0.  1.
         21   -1    0    0  504  502 -0.00000000000E+00 -0.00000000000E+00 -0.14977439928E+04  0.14977439928E+04  0.00000000000E+00 0.  1.
         21    1    1    2  503  502 -0.85140333315E+02  0.11544374334E+03 -0.92299634074E+03  0.93407621704E+03  0.00000000000E+00 0.  1.
         21    1    1    2  504  506 -0.75713979974E+01 -0.49212430578E+02 -0.25946263664E+03  0.26419698939E+03  0.00000000000E+00 0.  1.
         21    1    1    2  505  503  0.14204851565E+03 -0.62688756706E+02 -0.23416955172E+03  0.28096804083E+03  0.00000000000E+00 0.  1.
         21    1    1    2  506  501 -0.49336784337E+02 -0.35425560574E+01 -0.37528879845E+02  0.62089329314E+02  0.00000000000E+00 0.  1.
<scales pt_clust_3="127.05214" pt_clust_4="50.75463" pt_clust_5="14000.00000" pt_clust_6="49.46380"></scales>
<clustering>
<clus scale="   49.464">  1  6  2 -1</clus>
<clus scale="   50.755">  2  4  1 -1</clus>
<clus scale="  127.052">  2  3  1 -1</clus>
<clus scale="   49.464">  1  3  2 -1</clus>
</clustering>
</event>
<event>
 6    0  0.1361919E+003  0.9077057E+02  0.7546771E-02  0.1300996E+00
         21   -1    0    0  504  501  0.00000000000E+00  0.00000000000E+00  0.13579354829E+03  0.13579354829E+03  0.00000000000E+00 0. -1.
         21   -1    0    0  505  502 -0.00000000000E+00 -0.00000000000E+00 -0.15889189528E+04  0.15889189528E+04  0.00000000000E+00 0. -1.
         21    1    1    2  503  506  0.17065204841E+02 -0.81994535483E+02 -0.19115726483E+03  0.20869936503E+03  0.00000000000E+00 0. -1.
         21    1    1    2  504  502 -0.60614076094E+02  0.10962138350E+03 -0.22809456577E+03  0.26022691036E+03  0.00000000000E+00 0. -1.
         21    1    1    2  505  503 -0.33049355713E+02  0.18387803204E+02 -0.11264704460E+04  0.11271051579E+04  0.00000000000E+00 0. -1.
         21    1    1    2  506  501  0.76598226966E+02 -0.46014651222E+02  0.92596872069E+02  0.12868106783E+03  0.00000000000E+00 0. -1.
<scales pt_clust_3="74.09126" pt_clust_4="90.77057" pt_clust_5="37.82025" pt_clust_6="14000.00000"></scales>
<clustering>
<clus scale="   37.820">  2  5  1 -1</clus>
<clus scale="   74.091">  2  3  1 -1</clus>
<clus scale="   90.771">  2  4  1 -1</clus>
<clus scale="   90.771">  1  3  2 -1</clus>
</clustering>
</event>
<event>
 6    0  0.1361919E+003  0.2204458E+03  0.7546771E-02  0.1133551E+00
         21   -1    0    0  505  501  0.00000000000E+00  0.00000000000E+00  0.38562014751E+03  0.38562014751E+03  0.00000000000E+00 0. -1.
         21   -1    0    0  501  502 -0.00000000000E+00 -0.00000000000E+00 -0.75367874253E+03  0.75367874253E+03  0.00000000000E+00 0. -1.
         21    1    1    2  503  504 -0.19896777152E+03  0.14042784770E+03  0.14193471562E+03  0.28187518162E+03  0.00000000000E+00 0. -1.
         21    1    1    2  504  506  0.14426921366E+03 -0.64888043671E+02 -0.44252378081E+03  0.46994825332E+03  0.00000000000E+00 0. -1.
         21    1    1    2  505  503  0.26871269813E+02 -0.25008777665E+02  0.15415550856E+03  0.15846584780E+03  0.00000000000E+00 0. -1.
         21    1    1    2  506  502  0.27827288047E+02 -0.50531026369E+02 -0.22162503840E+03  0.22900960729E+03  0.00000000000E+00 0.  1.
<scales pt_clust_3="209.96830" pt_clust_4="40.48438" pt_clust_5="36.70837" pt_clust_6="40.48438"></scales>
<clustering>
<clus scale="   36.708">  1  5  2 -1</clus>
<clus scale="   40.484">  4  6 -1 -1</clus>
<clus scale="  209.968">  1  3  2 -1</clus>
<clus scale="   36.708">  1  3  2 -1</clus>
</clustering>
</event>
<event>
 6    0  0.1361919E+003  0.9393306E+02  0.7546771E-02  0.1293597E+00
         21   -1    0    0  506  501  0.00000000000E+00  0.00000000000E+00  0.14521426297E+03  0.14521426297E+03  0.00000000000E+00 0.  1.
         21   -1    0    0  503  502 -0.00000000000E+00 -0.00000000000E+00 -0.35149092588E+03  0.35149092588E+03  0.00000000000E+00 0.  1.
         21    1    1    2  503  505 -0.28713651946E+02 -0.19029570152E+02 -0.19560163165E+03  0.19861167300E+03  0.00000000000E+00 0.  1.
         21    1    1    2  504  501 -0.56040495005E+02 -0.25951475582E+02 -0.81584041262E+01  0.62294267177E+02  0.00000000000E+00 0.  1.
         21    1    1    2  505  504 -0.16749107002E+02 -0.34479265533E+02 -0.77649332138E+02  0.86595445137E+02  0.00000000000E+00 0. -1.
         21    1    1    2  506  502  0.10150325395E+03  0.79460311267E+02  0.75132705002E+02  0.14920380354E+03  0.00000000000E+00 0.  1.
<scales pt_clust_3="34.44704" pt_clust_4="14000.00000" pt_clust_5="54.90704" pt_clust_6="93.93306"></scales>
<clustering>
<clus scale="   34.447">  2  3  1 -1</clus>
<clus scale="   54.907">  2  5  1 -1</clus>
<clus scale="   93.933">  2  6  1 -1</clus>
<clus scale="   93.933">  1  3  2 -1</clus>
</clustering>
</event>
<event>
 6    0  0.1361919E+003  0.1184637E+03  0.7546771E-02  0.1245653E+00
         21   -1    0    0  504  501  0.00000000000E+00  0.00000000000E+00  0.36114681274E+03  0.36114681274E+03  0.00000000000E+00 0.  1.
         21   -1    0    0  503  502 -0.00000000000E+00 -0.00000000000E+00 -0.15579288460E+03  0.15579288460E+03  0.00000000000E+00 0. -1.
         21    1    1    2  503  505  0.26090479217E+02 -0.34269531080E+02  0.70705761588E+01  0.43647530439E+02  0.00000000000E+00 0. -1.
         21    1    1    2  504  502 -0.84807325066E+02 -0.56903586233E+02 -0.10550589162E+03  0.14683934649E+03  0.00000000000E+00 0. -1.
         21    1    1    2  505  506  0.43055740563E+01  0.51646346025E+02  0.14616186613E+03  0.15507796147E+03  0.00000000000E+00 0.  1.
         21    1    1    2  506  501  0.54411271792E+02  0.39526771289E+02  0.15762737748E+03  0.17137485894E+03  0.00000000000E+00 0.  1.
<scales pt_clust_3="43.07103" pt_clust_4="107.28619" pt_clust_5="43.62994" pt_clust_6="43.62994"></scales>
<clustering>
<clus scale="   43.071">  2  3  1 -1</clus>
<clus scale="   43.630">  5  6 -1 -1</clus>
<clus scale="  107.286">  2  4  1 -1</clus>
<clus scale="  118.464">  1  3  2 -1</clus>
</clustering>
</event>
<event>
 6    0  0.1361919E+003  0.3400931E+03  0.7546771E-02  0.1066756E+00
         21   -1    0    0  505  501  0.00000000000E+00  0.00000000000E+00  0.20018400811E+04  0.20018400811E+04  0.00000000000E+00 0.  1.
         21   -1    0    0  503  502 -0.00000000000E+00 -0.00000000000E+00 -0.17814218237E+03  0.17814218237E+03  0.00000000000E+00 0.  1.
         21    1    1    2  503  506 -0.19168036233E+03  0.26000312590E+03  0.44059333642E+03  0.54631993821E+03  0.00000000000E+00 0.  1.
         21    1    1    2  504  502  0.12107873458E+03 -0.33271294917E+03  0.14794799893E+03  0.38372721679E+03  0.00000000000E+00 0.  1.
         21    1    1    2  505  504  0.11678783614E+03  0.46054135221E+02  0.62696975451E+03  0.63941493188E+03  0.00000000000E+00 0.  1.
         21    1    1    2  506  501 -0.46186208386E+02  0.26655688051E+02  0.60818680890E+03  0.61052017662E+03  0.00000000000E+00 0.  1.
<scales pt_clust_3="340.09310" pt_clust_4="14000.00000" pt_clust_5="112.06826" pt_clust_6="53.32627"></scales>
<clustering>
<clus scale="   53.326">  1  6  2 -1</clus>
<clus scale="  112.068">  1  5  2 -1</clus>
<clus scale="  340.093">  1  3  2 -1</clus>
<clus scale="   53.326">  1  3  2 -1</clus>
</clustering>
</event>
<event>
 6    0  0.1361919E+003  0.1972508E+03  0.7546771E-02  0.1152079E+00
         21   -1    0    0  506  501  0.00000000000E+00  0.00000000000E+00  0.21572458141E+03  0.21572458141E+03  0.00000000000E+00 0. -1.
         21   -1    0    0  505  502 -0.00000000000E+00 -0.00000000000E+00 -0.60029251573E+03  0.60029251573E+03  0.00000000000E+00 0.  1.
         21    1    1    2  503  502  0.12081814401E+03 -0.10502190321E+03 -0.99213630465E+02  0.18833472475E+03  0.00000000000E+00 0.  1.
         21    1    1    2  504  501 -0.60904698687E+02  0.10277467671E+03 -0.23737470145E+03  0.26574191500E+03  0.00000000000E+00 0.  1.
         21    1    1    2  505  504 -0.84118799517E+02  0.35412642623E+02 -0.19178158124E+03  0.21239162552E+03  0.00000000000E+00 0.  1.
         21    1    1    2  506  503  0.24205354189E+02 -0.33165416130E+02  0.14380197884E+03  0.14954883188E+03  0.00000000000E+00 0. -1.
<scales pt_clust_3="186.00774" pt_clust_4="57.78685" pt_clust_5="57.78685" pt_clust_6="41.05903"></scales>
<clustering>
<clus scale="   41.059">  1  6  2 -1</clus>
<clus scale="   57.787">  4  5 -1 -1</clus>
<clus scale="  186.008">  1  3  2 -1</clus>
<clus scale="   41.059">  1  3  2 -1</clus>
</clustering>
</event>
<event>
 6    0  0.1361919E+003  0.1012454E+03  0.7546771E-02  0.1277699E+00
         21   -1    0    0  504  501  0.00000000000E+00  0.00000000000E+00  0.12713254978E+03  0.12713254978E+03  0.00000000000E+00 0.  1.
         21   -1    0    0  503  502 -0.00000000000E+00 -0.00000000000E+00 -0.54853343235E+03  0.54853343235E+03  0.00000000000E+00 0.  1.
         21    1    1    2  503  506 -0.82635072080E+00 -0.37641573989E+02 -0.32989915904E+03  0.33204069944E+03  0.00000000000E+00 0.  1.
         21    1    1    2  504  505  0.36299085430E+02  0.44514421469E+02  0.56730180100E+02  0.80730853185E+02  0.00000000000E+00 0.  1.
         21    1    1    2  505  502 -0.17312511489E+02  0.80195609840E+02  0.87077486551E+01  0.82503840992E+02  0.00000000000E+00 0.  1.
         21    1    1    2  506  501 -0.18160223220E+02 -0.87068457320E+02 -0.15693965229E+03  0.18039058852E+03  0.00000000000E+00 0.  1.
<scales pt_clust_3="37.65064" pt_clust_4="55.81502" pt_clust_5="101.24536" pt_clust_6="14000.00000"></scales>
<clustering>
<clus scale="   37.651">  2  3  1 -1</clus>
<clus scale="   55.815">  1  4  2 -1</clus>
<clus scale="  101.245">  1  5  2 -1</clus>
<clus scale="   55.815">  1  3  2 -1</clus>
</clustering>
</event>
<event>
 6    0  0.1361919E+003  0.1764620E+03  0.7546771E-02  0.1171272E+00
         21   -1    0    0  506  501  0.00000000000E+00  0.00000000000E+00  0.20297635197E+04  0.20297635197E+04  0.00000000000E+00 0. -1.
         21   -1    0    0  503  502 -0.00000000000E+00 -0.00000000000E+00 -0.13495577248E+03  0.13495577248E+03  0.00000000000E+00 0. -1.
         21    1    1    2  503  501  0.64264045156E+02 -0.90103031921E+02 -0.44813171342E+02  0.11940119006E+03  0.00000000000E+00 0. -1.
         21    1    1    2  504  505  0.13059465853E+03 -0.12135848465E+03  0.57792471860E+03  0.60479734374E+03  0.00000000000E+00 0. -1.
         21    1    1    2  505  502 -0.92186673804E+02  0.22889309864E+03  0.37855119798E+03  0.45187547280E+03  0.00000000000E+00 0. -1.
         21    1    1    2  506  504 -0.10267202988E+03 -0.17431582066E+02  0.98314500195E+03  0.98864528555E+03  0.00000000000E+00 0. -1.
<scales pt_clust_3="109.10104" pt_clust_4="176.46202" pt_clust_5="14000.00000" pt_clust_6="104.14128"></scales>
<clustering>
<clus scale="  104.141">  1  6  2 -1</clus>
<clus scale="  109.101">  2  3  1 -1</clus>
<clus scale="  176.462">  1  4  2 -1</clus>
<clus scale="  104.141">  1  3  2 -1</clus>
</clustering>
</event>
<event>
 6    0  0.1361919E+003  0.7763988E+02  0.7546771E-02  0.1335886E+00
         21   -1    0    0  504  501  0.00000000000E+00  0.00000000000E+00  0.76637212451E+03  0.76637212451E+03  0.00000000000E+00 0.  1.
         21   -1    0    0  503  502 -0.00000000000E+00 -0.00000000000E+00 -0.47568530366E+02  0.47568530366E+02  0.00000000000E+00 0.  1.
         21    1    1    2  503  505 -0.31202923240E+02  0.39861919536E+02  0.12245341462E+00  0.50622228740E+02  0.00000000000E+00 0.  1.
         21    1    1    2  504  506  0.10528777400E+03  0.23899292998E+02  0.36663329441E+03  0.38219976992E+03  0.00000000000E+00 0.  1.
         21    1    1    2  505  501 -0.33284840923E+02 -0.49936388130E+01  0.27071106914E+03  0.27279534457E+03  0.00000000000E+00 0.  1.
         21    1    1    2  506  502 -0.40800009833E+02 -0.58767573721E+02  0.81336777177E+02  0.10832331164E+03  0.00000000000E+00 0.  1.
<scales pt_clust_3="51.49472" pt_clust_4="14000.00000" pt_clust_5="33.65735" pt_clust_6="77.63988"></scales>
<clustering>
<clus scale="   33.657">  1  5  2 -1</clus>
<clus scale="   51.495">  2  3  1 -1</clus>
<clus scale="   77.640">  2  6  1 -1</clus>
<clus scale="   33.657">  1  3  2 -1</clus>
</clustering>
</event>
<event>
 6    0  0.1361919E+003  0.1040378E+03  0.7546771E-02  0.1272027E+00
         21   -1    0    0  504  501  0.00000000000E+00  0.00000000000E+00  0.40539305132E+03  0.40539305132E+03  0.00000000000E+00 0.  1.
         21   -1    0    0  505  502 -0.00000000000E+00 -0.00000000000E+00 -0.10786587605E+04  0.10786587605E+04  0.00000000000E+00 0. -1.
         21    1    1    2  503  502  0.96058354721E+02  0.28873029726E+02 -0.23734909322E+03  0.25767314841E+03  0.00000000000E+00 0. -1.
         21    1    1    2  504  506 -0.32388190623E+02 -0.56786838389E+02  0.34280218392E+03  0.34898005274E+03  0.00000000000E+00 0.  1.
         21    1    1    2  505  501 -0.90926284450E+02 -0.54846072998E+02 -0.78299362646E+03  0.79016118609E+03  0.00000000000E+00 0. -1.
         21    1    1    2  506  503  0.27256120352E+02  0.82759881661E+02  0.42748265677E+01  0.87237424603E+02  0.00000000000E+00 0. -1.
<scales pt_clust_3="104.03775" pt_clust_4="65.37385" pt_clust_5="14000.00000" pt_clust_6="39.16220"></scales>
<clustering>
<clus scale="   65.374">  1  4  2 -1</clus>
<clus scale="   39.162">  1  6  2 -1</clus>
<clus scale="  104.038">  1  3  2 -1</clus>
<clus scale="   65.374">  1  3  2 -1</clus>
</clustering>
</event>
<event>
 6    0  0.1361919E+003  0.9980911E+02  0.7546771E-02  0.1280698E+00
         21   -1    0    0  506  501  0.00000000000E+00  0.00000000000E+00  0.38004376782E+03  0.38004376782E+03  0.00000000000E+00 0.  1.
         21   -1    0    0  503  502 -0.00000000000E+00 -0.00000000000E+00 -0.46741463592E+03  0.46741463592E+03  0.00000000000E+00 0.  1.
         21    1    1    2  503  505  0.98713946228E+02  0.59867533590E+02 -0.21790825828E+03  0.24660205551E+03  0.00000000000E+00 0.  1.
         21    1    1    2  504  501  0.64733386817E+02  0.71338784766E+02  0.29591029070E+03  0.31119533049E+03  0.00000000000E+00 0.  1.
         21    1    1    2  505  504 -0.11833787511E+03 -0.88474238854E+02 -0.45434405113E+02  0.15458275711E+03  0.00000000000E+00 0. -1.
         21    1    1    2  506  502 -0.45109457932E+02 -0.42732079502E+02 -0.11993849541E+03  0.13507826063E+03  0.00000000000E+00 0.  1.
<scales pt_clust_3="74.49686" pt_clust_4="99.80911" pt_clust_5="14000.00000" pt_clust_6="62.13609"></scales>
<clustering>
<clus scale="   62.136">  2  6  1 -1</clus>
<clus scale="   74.497">  2  3  1 -1</clus>
<clus scale="   99.809">  1  4  2 -1</clus>
<clus scale="   99.809">  1  3  2 -1</clus>
</clustering>
</event>
<event>
 6    0  0.1361919E+003  0.1094033E+03  0.7546771E-02  0.1261679E+00
         21   -1    0    0  504  501  0.00000000000E+00  0.00000000000E+00  0.25103937549E+03  0.25103937549E+03  0.00000000000E+00 0. -1.
         21   -1    0    0  506  502 -0.00000000000E+00 -0.00000000000E+00 -0.44662724462E+03  0.44662724462E+03  0.00000000000E+00 0. -1.
         21    1    1    2  503  501 -0.13138670911E+00  0.82529418126E+02  0.27355149085E+02  0.86944961327E+02  0.00000000000E+00 0. -1.
         21    1    1    2  504  505  0.29355360357E+02  0.50394322730E+02  0.15310897490E+03  0.16384041973E+03  0.00000000000E+00 0. -1.
         21    1    1    2  505  502 -0.10911172572E+03 -0.51662629473E+02 -0.14070455488E+03  0.18539732398E+03  0.00000000000E+00 0. -1.
         21    1    1    2  506  503  0.79887752077E+02 -0.81261111382E+02 -0.23534743824E+03  0.26148391507E+03  0.00000000000E+00 0. -1.
<scales pt_clust_3="105.28864" pt_clust_4="58.32088" pt_clust_5="109.40330" pt_clust_6="14000.00000"></scales>
<clustering>
<clus scale="   58.321">  1  4  2 -1</clus>
<clus scale="  109.403">  2  5  1 -1</clus>
<clus scale="  105.289">  1  3  2 -1</clus>
<clus scale="   58.321">  1  3  2 -1</clus>
</clustering>
</event>
<event>
 6    0  0.1361919E+003  0.1155908E+03  0.7546771E-02  0.1250553E+00
         21   -1    0    0  506  501  0.00000000000E+00  0.00000000000E+00  0.11325985483E+03  0.11325985483E+03  0.00000000000E+00 0.  1.
         21   -1    0    0  503  502 -0.00000000000E+00 -0.00000000000E+00 -0.72442720062E+03  0.72442720062E+03  0.00000000000E+00 0.  1.
         21    1    1    2  503  505 -0.64558422994E+02  0.22752734344E+02 -0.44518398511E+03  0.45041564970E+03  0.00000000000E+00 0.  1.
         21    1    1    2  504  501 -0.85384811207E+02  0.80367071261E+02 -0.13077099153E+03  0.17564305951E+03  0.00000000000E+00 0.  1.
         21    1    1    2  505  504  0.55568224164E+02 -0.93043256732E+02 -0.42563867208E+02  0.11643263268E+03  0.00000000000E+00 0. -1.
         21    1    1    2  506  502  0.94375010037E+02 -0.10076548872E+02  0.73514980555E+01  0.95195713561E+02  0.00000000000E+00 0.  1.
<scales pt_clust_3="68.45054" pt_clust_4="14000.00000" pt_clust_5="115.59081" pt_clust_6="84.37258"></scales>
<clustering>
<clus scale="   68.451">  2  3  1 -1</clus>
<clus scale="   84.373">  1  6  2 -1</clus>
<clus scale="  115.591">  2  5  1 -1</clus>
<clus scale="   84.373">  1  3  2 -1</clus>
</clustering>
</event>
<event>
 6    0  0.1361919E+003  0.1503031E+03  0.7546771E-02  0.1200101E+00
         21   -1    0    0  503  501  0.00000000000E+00  0.00000000000E+00  0.94193106616E+02  0.94193106616E+02  0.00000000000E+00 0.  1.
         21   -1    0    0  505  502 -0.00000000000E+00 -0.00000000000E+00 -0.38174864953E+03  0.38174864953E+03  0.00000000000E+00 0.  1.
         21    1    1    2  503  506 -0.21639122982E+02  0.12392955637E+03 -0.65632067460E+02  0.14189557733E+03  0.00000000000E+00 0.  1.
         21    1    1    2  504  502  0.37062299996E+02 -0.84224287444E+02 -0.11801325980E+03  0.14964783381E+03  0.00000000000E+00 0.  1.
         21    1    1    2  505  501 -0.17973185254E+02  0.29280300579E+02  0.22006236221E+02  0.40800071357E+02  0.00000000000E+00 0.  1.
         21    1    1    2  506  504  0.25500082399E+01 -0.68985569507E+02 -0.12591645187E+03  0.14359827365E+03  0.00000000000E+00 0.  1.
<scales pt_clust_3="145.40232" pt_clust_4="32.97249" pt_clust_5="34.35653" pt_clust_6="32.97249"></scales>
<clustering>
<clus scale="   32.972">  4  6 -1 -1</clus>
<clus scale="   34.357">  1  5  2 -1</clus>
<clus scale="  145.402">  1  3  2 -1</clus>
<clus scale="   34.357">  1  3  2 -1</clus>
</clustering>
</event>
<event>
 6    0  0.1361919E+003  0.8602065E+02  0.7546771E-02  0.1312785E+00
         21   -1    0    0  506  501  0.00000000000E+00  0.00000000000E+00  0.47138129050E+03  0.47138129050E+03  0.00000000000E+00 0.  1.
         21   -1    0    0  505  502 -0.00000000000E+00 -0.00000000000E+00 -0.94352338464E+03  0.94352338464E+03  0.00000000000E+00 0. -1.
         21    1    1    2  503  501 -0.18673213980E+02 -0.94287543441E+02  0.29853616032E+03  0.31362823340E+03  0.00000000000E+00 0.  1.
         21    1    1    2  504  503 -0.37792480717E+02  0.73928604384E+02  0.14932239392E+03  0.17085340931E+03  0.00000000000E+00 0. -1.
         21    1    1    2  505  504  0.22738919326E+01  0.32636186515E+02 -0.57663771421E+02  0.66297826429E+02  0.00000000000E+00 0. -1.
         21    1    1    2  506  502  0.54191802765E+02 -0.12277247457E+02 -0.86233687696E+03  0.86412520601E+03  0.00000000000E+00 0. -1.
<scales pt_clust_3="86.02065" pt_clust_4="14000.00000" pt_clust_5="32.71531" pt_clust_6="59.75270"></scales>
<clustering>
<clus scale="   32.715">  2  5  1 -1</clus>
<clus scale="   59.753">  2  6  1 -1</clus>
<clus scale="   86.021">  1  3  2 -1</clus>
<clus scale="   86.021">  1  3  2 -1</clus>
</clustering>
</event>
<event>
 6    0  0.1361919E+003  0.1153613E+03  0.7546771E-02  0.1250952E+00
         21   -1    0    0  505  501  0.00000000000E+00  0.00000000000E+00  0.73995234062E+03  0.73995234062E+03  0.00000000000E+00 0. -1.
         21   -1    0    0  504  502 -0.00000000000E+00 -0.00000000000E+00 -0.50912845162E+03  0.50912845162E+03  0.00000000000E+00 0. -1.
         21    1    1    2  503  502  0.83703621549E+02  0.10031785150E+03 -0.32222971936E+03  0.34770959093E+03  0.00000000000E+00 0. -1.
         21    1    1    2  504  506  0.23200382267E+02 -0.11684107106E+03 -0.13769583965E+03  0.18207206782E+03  0.00000000000E+00 0. -1.
         21    1    1    2  505  503 -0.30829201820E+02  0.44393215250E+02  0.57765946763E+03  0.58018243492E+03  0.00000000000E+00 0. -1.
         21    1    1    2  506  501 -0.76074801996E+02 -0.27869995693E+02  0.11308998037E+03  0.13911669857E+03  0.00000000000E+00 0.  1.
<scales pt_clust_3="14000.00000" pt_clust_4="115.36128" pt_clust_5="54.04810" pt_clust_6="100.45394"></scales>
<clustering>
<clus scale="   54.048">  1  5  2 -1</clus>
<clus scale="  100.454">  1  6  2 -1</clus>
<clus scale="  115.361">  1  4  2 -1</clus>
<clus scale="   54.048">  1  3  2 -1</clus>
</clustering>
</event>
<event>
 6    0  0.1361919E+003  0.1951285E+03  0.7546771E-02  0.1153915E+00
         21   -1    0    0  505  501  0.00000000000E+00  0.00000000000E+00  0.62090726402E+03  0.62090726402E+03  0.00000000000E+00 0.  1.
         21   -1    0    0  504  502 -0.00000000000E+00 -0.00000000000E+00 -0.10842661866E+04  0.10842661866E+04  0.00000000000E+00 0. -1.
         21    1    1    2  503  501  0.12254895582E+03 -0.19121608346E+03  0.37023974332E+03  0.43434928880E+03  0.00000000000E+00 0.  1.
         21    1    1    2  504  503  0.51969218767E+02 -0.25404630751E+02 -0.28717843325E+03  0.29294649253E+03  0.00000000000E+00 0.  1.
         21    1    1    2  505  506 -0.39443204853E+02  0.18276210502E+02  0.19437885254E+03  0.19918063308E+03  0.00000000000E+00 0.  1.
         21    1    1    2  506  502 -0.13507496973E+03  0.19834450371E+03 -0.74079908520E+03  0.77869703623E+03  0.00000000000E+00 0. -1.
<scales pt_clust_3="195.12846" pt_clust_4="57.55077" pt_clust_5="43.47167" pt_clust_6="14000.00000"></scales>
<clustering>
<clus scale="   43.472">  1  5  2 -1</clus>
<clus scale="   57.551">  2  4  1 -1</clus>
<clus scale="  195.128">  1  3  2 -1</clus>
<clus scale="   43.472">  1  3  2 -1</clus>
</clustering>
</event>
<event>
 6    0  0.1361919E+003  0.1053354E+03  0.7546771E-02  0.1269460E+00
         21   -1    0    0  505  501  0.00000000000E+00  0.00000000000E+00  0.42542252022E+03  0.42542252022E+03  0.00000000000E+00 0.  1.
         21   -1    0    0  504  502 -0.00000000000E+00 -0.00000000000E+00 -0.31475865444E+03  0.31475865444E+03  0.00000000000E+00 0.  1.
         21    1    1    2  503  501  0.49775231755E+02  0.38617900799E+02  0.31223666275E+02  0.70312397869E+02  0.00000000000E+00 0. -1.
         21    1    1    2  504  503  0.99002907929E+02 -0.24349222210E+02 -0.24431096443E+03  0.26473063242E+03  0.00000000000E+00 0.  1.
         21    1    1    2  505  506  0.34568263592E+02 -0.32370735145E+02  0.12724226314E+03  0.13576974211E+03  0.00000000000E+00 0.  1.
         21    1    1    2  506  502 -0.18334640328E+03  0.18102056556E+02  0.19650890080E+03  0.26936840226E+03  0.00000000000E+00 0.  1.
<scales pt_clust_3="64.79497" pt_clust_4="105.33543" pt_clust_5="47.35852" pt_clust_6="14000.00000"></scales>
<clustering>
<clus scale="   47.359">  1  5  2 -1</clus>
<clus scale="   64.795">  1  3  2 -1</clus>
<clus scale="  105.335">  2  4  1 -1</clus>
<clus scale="   47.359">  1  3  2 -1</clus>
</clustering>
</event>
<event>
 6    0  0.1361919E+003  0.2082703E+03  0.7546771E-02  0.1142943E+00
         21   -1    0    0  504  501  0.00000000000E+00  0.00000000000E+00  0.12604794063E+04  0.12604794063E+04  0.00000000000E+00 0. -1.
         21   -1    0    0  505  502 -0.00000000000E+00 -0.00000000000E+00 -0.27836028754E+03  0.27836028754E+03  0.00000000000E+00 0. -1.
         21    1    1    2  503  506  0.38215052621E+02 -0.52357681709E+02  0.26145788985E+03  0.26937324523E+03  0.00000000000E+00 0. -1.
         21    1    1    2  504  502 -0.20954150994E+03 -0.14421036793E+02  0.41606857291E+03  0.46607796349E+03  0.00000000000E+00 0. -1.
         21    1    1    2  505  503  0.16988245881E+03  0.12540742930E+03 -0.20270906364E+03  0.29270810993E+03  0.00000000000E+00 0. -1.
         21    1    1    2  506  501  0.14439985007E+01 -0.58628710800E+02  0.50730171968E+03  0.51068037524E+03  0.00000000000E+00 0. -1.
<scales pt_clust_3="132.25851" pt_clust_4="208.27025" pt_clust_5="14000.00000" pt_clust_6="57.08285"></scales>
<clustering>
<clus scale="   57.083">  3  6 -1 -1</clus>
<clus scale="  132.259">  1  3  2 -1</clus>
<clus scale="  208.270">  1  4  2 -1</clus>
<clus scale="  132.259">  1  3  2 -1</clus>
</clustering>
</event>
<event>
 6    0  0.1361919E+003  0.2798040E+03  0.7546771E-02  0.1095796E+00
         21   -1    0    0  502  501  0.00000000000E+00  0.00000000000E+00  0.15816420752E+04  0.15816420752E+04  0.00000000000E+00 0. -1.
         21   -1    0    0  506  502 -0.00000000000E+00 -0.00000000000E+00 -0.59800896904E+03  0.59800896904E+03  0.00000000000E+00 0.  1.
         21    1    1    2  503  504  0.26759576413E+03 -0.52515843189E+02  0.13543508631E+03  0.30447999830E+03  0.00000000000E+00 0.  1.
         21    1    1    2  504  501 -0.14616291339E+01 -0.67227183579E+02  0.13058879363E+04  0.13076180378E+04  0.00000000000E+00 0. -1.
         21    1    1    2  505  503 -0.24596084472E+03  0.89125231490E+02 -0.26862660251E+03  0.37496705936E+03  0.00000000000E+00 0.  1.
         21    1    1    2  506  505 -0.20173290269E+02  0.30617795278E+02 -0.18906331389E+03  0.19258594883E+03  0.00000000000E+00 0.  1.
<scales pt_clust_3="14000.00000" pt_clust_4="67.17899" pt_clust_5="279.80397" pt_clust_6="36.66621"></scales>
<clustering>
<clus scale="   36.666">  2  6  1 -1</clus>
<clus scale="   67.179">  1  4  2 -1</clus>
<clus scale="  279.804">  2  5  1 -1</clus>
<clus scale="   67.179">  1  3  2 -1</clus>
</clustering>
</event>
<event>
 6    0  0.1361919E+003  0.7489032E+02  0.7546771E-02  0.1344211E+00
         21   -1    0    0  503  501  0.00000000000E+00  0.00000000000E+00  0.12535016649E+04  0.12535016649E+04  0.00000000000E+00 0.  1.
         21   -1    0    0  506  502 -0.00000000000E+00 -0.00000000000E+00 -0.24665877916E+03  0.24665877916E+03  0.00000000000E+00 0. -1.
         21    1    1    2  503  505  0.61944266880E+02 -0.82574316838E+01  0.49048588913E+03  0.49445089222E+03  0.00000000000E+00 0.  1.
         21    1    1    2  504  501 -0.98680125220E+02 -0.19943259535E+02  0.69034555519E+03  0.69764782396E+03  0.00000000000E+00 0.  1.
         21    1    1    2  505  502 -0.35419381900E+02  0.69946299175E+01 -0.21796920747E+03  0.22093897996E+03  0.00000000000E+00 0. -1.
         21    1    1    2  506  504  0.72155240240E+02  0.21206061301E+02  0.43980648908E+02  0.87122747938E+02  0.00000000000E+00 0.  1.
<scales pt_clust_3="14000.00000" pt_clust_4="74.89032" pt_clust_5="36.10343" pt_clust_6="51.55483"></scales>
<clustering>
<clus scale="   36.103">  2  5  1 -1</clus>
<clus scale="   51.555">  2  6  1 -1</clus>
<clus scale="   74.890">  2  4  1 -1</clus>
<clus scale="   74.890">  1  3  2 -1</clus>
</clustering>
</event>
<event>
 6    0  0.1361919E+003  0.6735098E+02  0.7546771E-02  0.1369340E+00
         21   -1    0    0  506  501  0.00000000000E+00  0.00000000000E+00  0.95720209870E+02  0.95720209870E+02  0.00000000000E+00 0. -1.
         21   -1    0    0  504  502 -0.00000000000E+00 -0.00000000000E+00 -0.47366244182E+03  0.47366244182E+03  0.00000000000E+00 0. -1.
         21    1    1    2  503  502 -0.62234256244E+02  0.10717566533E+02 -0.27467249006E+03  0.28183850993E+03  0.00000000000E+00 0. -1.
         21    1    1    2  504  501  0.23427412061E+02 -0.63922646418E+02 -0.12025832018E+03  0.13819193874E+03  0.00000000000E+00 0. -1.
         21    1    1    2  505  503  0.17040737078E+02  0.94452037054E+02 -0.82365804368E+01  0.96329721691E+02  0.00000000000E+00 0. -1.
         21    1    1    2  506  505  0.21766107105E+02 -0.41246957169E+02  0.25225158723E+02  0.53022481333E+02  0.00000000000E+00 0.  1.
<scales pt_clust_3="61.39381" pt_clust_4="67.35098" pt_clust_5="14000.00000" pt_clust_6="46.63770"></scales>
<clustering>
<clus scale="   46.638">  1  6  2 -1</clus>
<clus scale="   61.394">  2  3  1 -1</clus>
<clus scale="   67.351">  2  4  1 -1</clus>
<clus scale="   46.638">  1  3  2 -1</clus>
</clustering>
</event>
<event>
 6    0  0.1361919E+003  0.1391805E+03  0.7546771E-02  0.1214436E+00
         21   -1    0    0  505  501  0.00000000000E+00  0.00000000000E+00  0.39874799439E+03  0.39874799439E+03  0.00000000000E+00 0.  1.
         21   -1    0    0  506  502 -0.00000000000E+00 -0.00000000000E+00 -0.17142365414E+04  0.17142365414E+04  0.00000000000E+00 0. -1.
         21    1    1    2  503  502 -0.15502661887E+03 -0.66722204511E+02 -0.10884621881E+04  0.11014694912E+04  0.00000000000E+00 0. -1.
         21    1    1    2  504  501  0.47715722018E+02  0.23132336881E+02  0.38162064933E+03  0.38528718527E+03  0.00000000000E+00 0.  1.
         21    1    1    2  505  503  0.11068168211E+03  0.10431845248E+02 -0.41003159786E+03  0.42483546155E+03  0.00000000000E+00 0. -1.
         21    1    1    2  506  504 -0.33707852531E+01  0.33158022382E+02 -0.19861541036E+03  0.20139239776E+03  0.00000000000E+00 0. -1.
<scales pt_clust_3="139.18055" pt_clust_4="53.04116" pt_clust_5="14000.00000" pt_clust_6="33.32892"></scales>
<clustering>
<clus scale="   33.329">  2  6  1 -1</clus>
<clus scale="   53.041">  1  4  2 -1</clus>
<clus scale="  139.181">  2  3  1 -1</clus>
<clus scale="   53.041">  1  3  2 -1</clus>
</clustering>
</event>
<event>
 6    0  0.1361919E+003  0.9066946E+02  0.7546771E-02  0.1301239E+00
         21   -1    0    0  504  501  0.00000000000E+00  0.00000000000E+00  0.13586901793E+03  0.13586901793E+03  0.00000000000E+00 0.  1.
         21   -1    0    0  506  502 -0.00000000000E+00 -0.00000000000E+00 -0.30233958857E+03  0.30233958857E+03  0.00000000000E+00 0.  1.
         21    1    1    2  503  501  0.38841606593E+02  0.13249670066E+02  0.36371675641E+02  0.54837240526E+02  0.00000000000E+00 0.  1.
         21    1    1    2  504  505 -0.47574322993E+01  0.74160516981E+02  0.21471372395E+02  0.77352668173E+02  0.00000000000E+00 0.  1.
         21    1    1    2  505  502  0.32483221783E+02  0.12604528239E+02 -0.17111290406E+03  0.17462433898E+03  0.00000000000E+00 0.  1.
         21    1    1    2  506  503 -0.66567396077E+02 -0.10001471529E+03 -0.53200714619E+02  0.13139435882E+03  0.00000000000E+00 0.  1.
<scales pt_clust_3="43.52200" pt_clust_4="90.66946" pt_clust_5="34.84299" pt_clust_6="14000.00000"></scales>
<clustering>
<clus scale="   34.843">  2  5  1 -1</clus>
<clus scale="   43.522">  1  3  2 -1</clus>
<clus scale="   90.669">  1  4  2 -1</clus>
<clus scale="   43.522">  1  3  2 -1</clus>
</clustering>
</event>
<event>
 6    0  0.1361919E+003  0.1322481E+03  0.7546771E-02  0.1224158E+00
         21   -1    0    0  502  501  0.00000000000E+00  0.00000000000E+00  0.18131948739E+03  0.18131948739E+03  0.00000000000E+00 0. -1.
         21   -1    0    0  503  502 -0.00000000000E+00 -0.00000000000E+00 -0.26875577536E+03  0.26875577536E+03  0.00000000000E+00 0. -1.
         21    1    1    2  503  506 -0.16351124461E+02  0.70882424620E+02 -0.69621188752E+02  0.10069154540E+03  0.00000000000E+00 0. -1.
         21    1    1    2  504  501  0.32272490406E+02 -0.10163799181E+02  0.75801985630E+02  0.83010586531E+02  0.00000000000E+00 0. -1.
         21    1    1    2  505  504 -0.50679004731E+01 -0.11026700207E+03  0.44668152909E+02  0.11907871029E+03  0.00000000000E+00 0. -1.
         21    1    1    2  506  505 -0.10853465471E+02  0.49548376626E+02 -0.13828523775E+03  0.14729442053E+03  0.00000000000E+00 0. -1.
<scales pt_clust_3="46.41769" pt_clust_4="33.83514" pt_clust_5="120.25506" pt_clust_6="46.41769"></scales>
<clustering>
<clus scale="   33.835">  1  4  2 -1</clus>
<clus scale="   46.418">  3  6 -1 -1</clus>
<clus scale="  120.255">  1  5  2 -1</clus>
<clus scale="   33.835">  1  3  2 -1</clus>
</clustering>
</event>
<event>
 6    0  0.1361919E+003  0.2441506E+03  0.7546771E-02  0.1117058E+00
         21   -1    0    0  503  501  0.00000000000E+00  0.00000000000E+00  0.43716468630E+03  0.43716468630E+03  0.00000000000E+00 0.  1.
         21   -1    0    0  506  502 -0.00000000000E+00 -0.00000000000E+00 -0.60373260425E+03  0.60373260425E+03  0.00000000000E+00 0.  1.
         21    1    1    2  503  505  0.29441676922E+02  0.18375027893E+02  0.12120917021E+03  0.12607980383E+03  0.00000000000E+00 0.  1.
         21    1    1    2  504  502  0.17978588378E+03  0.13217089812E+03 -0.35445714687E+03  0.41884600903E+03  0.00000000000E+00 0.  1.
         21    1    1    2  505  504 -0.26770129414E+03 -0.24687817791E+03 -0.16869104049E+01  0.36416433554E+03  0.00000000000E+00 0.  1.
         21    1    1    2  506  501  0.58473733435E+02  0.96332251889E+02  0.68366969121E+02  0.13180714215E+03  0.00000000000E+00 0.  1.
<scales pt_clust_3="34.70524" pt_clust_4="244.15056" pt_clust_5="14000.00000" pt_clust_6="122.68319"></scales>
<clustering>
<clus scale="   34.705">  1  3  2 -1</clus>
<clus scale="  122.683">  1  6  2 -1</clus>
<clus scale="  244.151">  2  4  1 -1</clus>
<clus scale="   34.705">  1  3  2 -1</clus>
</clustering>
</event>
<event>
 6    0  0.1361919E+003  0.1162117E+03  0.7546771E-02  0.1249481E+00
         21   -1    0    0  504  501  0.00000000000E+00  0.00000000000E+00  0.32221221062E+03  0.32221221062E+03  0.00000000000E+00 0. -1.
         21   -1    0    0  503  502 -0.00000000000E+00 -0.00000000000E+00 -0.80454496437E+03  0.80454496437E+03  0.00000000000E+00 0.  1.
         21    1    1    2  503  505 -0.10141875328E+02 -0.67781936657E+02 -0.71240598924E+03  0.71569514605E+03  0.00000000000E+00 0.  1.
         21    1    1    2  504  502  0.21560546269E+02  0.13110699078E+03  0.73235507649E+02  0.15171466563E+03  0.00000000000E+00 0. -1.
         21    1    1    2  505  506 -0.14567237859E+02 -0.93648673962E+02 -0.47645190896E+01  0.94894568842E+02  0.00000000000E+00 0. -1.
         21    1    1    2  506  501  0.31485669178E+01  0.30323619837E+02  0.16160224693E+03  0.16445279446E+03  0.00000000000E+00 0. -1.
<scales pt_clust_3="68.22183" pt_clust_4="116.21172" pt_clust_5="14000.00000" pt_clust_6="30.48664"></scales>
<clustering>
<clus scale="   30.487">  1  6  2 -1</clus>
<clus scale="   68.222">  2  3  1 -1</clus>
<clus scale="  116.212">  2  4  1 -1</clus>
<clus scale="   30.487">  1  3  2 -1</clus>
</clustering>
</event>
<event>
 6    0  0.1361919E+003  0.6590360E+02  0.7546771E-02  0.1374604E+00
         21   -1    0    0  505  501  0.00000000000E+00  0.00000000000E+00  0.34430596869E+03  0.34430596869E+03  0.00000000000E+00 0. -1.
         21   -1    0    0  504  502 -0.00000000000E+00 -0.00000000000E+00 -0.72946086383E+02  0.72946086383E+02  0.00000000000E+00 0. -1.
         21    1    1    2  503  506 -0.14549653007E+02 -0.74423295154E+02  0.74357607891E+02  0.10620533468E+03  0.00000000000E+00 0. -1.
         21    1    1    2  504  503  0.62435720223E+02  0.18513908624E+02 -0.12705297470E+02  0.66350648498E+02  0.00000000000E+00 0. -1.
         21    1    1    2  505  502 -0.79833759331E+02  0.36140975089E+02  0.13288682567E+03  0.15918073893E+03  0.00000000000E+00 0. -1.
         21    1    1    2  506  501  0.31947692115E+02  0.19768411441E+02  0.76820746214E+02  0.85515332960E+02  0.00000000000E+00 0. -1.
<scales pt_clust_3="67.73596" pt_clust_4="14000.00000" pt_clust_5="65.90360" pt_clust_6="37.56920"></scales>
<clustering>
<clus scale="   37.569">  1  6  2 -1</clus>
<clus scale="   67.736">  1  3  2 -1</clus>
<clus scale="   65.904">  1  5  2 -1</clus>
<clus scale="   37.569">  1  3  2 -1</clus>
</clustering>
</event>
<event>
 6    0  0.1361919E+003  0.1070739E+03  0.7546771E-02  0.1266087E+00
         21   -1    0    0  505  501  0.00000000000E+00  0.00000000000E+00  0.89757760715E+03  0.89757760715E+03  0.00000000000E+00 0. -1.
         21   -1    0    0  503  502 -0.00000000000E+00 -0.00000000000E+00 -0.38312489359E+03  0.38312489359E+03  0.00000000000E+00 0.  1.
         21    1    1    2  503  506  0.46919500833E+02 -0.85883068500E+02  0.30886969623E+02  0.10262234604E+03  0.00000000000E+00 0. -1.
         21    1    1    2  504  502 -0.22893633759E+02  0.34316257508E+02 -0.31333077923E+03  0.31603465191E+03  0.00000000000E+00 0.  1.
         21    1    1    2  505  504  0.10278100487E+03 -0.10128651993E+02  0.65098095110E+03  0.65912269210E+03  0.00000000000E+00 0. -1.
         21    1    1    2  506  501 -0.12680687195E+03  0.61695462985E+02  0.14591557207E+03  0.20292281069E+03  0.00000000000E+00 0. -1.
<scales pt_clust_3="76.35353" pt_clust_4="41.25196" pt_clust_5="107.07391" pt_clust_6="14000.00000"></scales>
<clustering>
<clus scale="   41.252">  2  4  1 -1</clus>
<clus scale="   76.354">  2  3  1 -1</clus>
<clus scale="  107.074">  1  5  2 -1</clus>
<clus scale="  107.074">  1  3  2 -1</clus>
</clustering>
</event>
<event>
 6    0  0.1361919E+003  0.1194131E+03  0.7546771E-02  0.1244068E+00
         21   -1    0    0  504  501  0.00000000000E+00  0.00000000000E+00  0.10938626171E+04  0.10938626171E+04  0.00000000000E+00 0.  1.
         21   -1    0    0  503  502 -0.00000000000E+00 -0.00000000000E+00 -0.21796740599E+03  0.21796740599E+03  0.00000000000E+00 0. -1.
         21    1    1    2  503  506 -0.72222863509E+02 -0.96027093870E+02 -0.17107007307E+03  0.20905098582E+03  0.00000000000E+00 0. -1.
         21    1    1    2  504  502  0.54052242309E+02  0.10106400349E+03  0.13242919026E+03  0.17513728367E+03  0.00000000000E+00 0.  1.
         21    1    1    2  505  501 -0.34964979299E+02  0.39100393767E+02  0.70635398337E+03  0.70829890611E+03  0.00000000000E+00 0.  1.
         21    1    1    2  506  505  0.53135600499E+02 -0.44137303385E+02  0.20818211057E+03  0.21934284751E+03  0.00000000000E+00 0.  1.
<scales pt_clust_3="119.41305" pt_clust_4="14000.00000" pt_clust_5="52.45370" pt_clust_6="40.61118"></scales>
<clustering>
<clus scale="   52.454">  1  5  2 -1</clus>
<clus scale="   40.611">  1  6  2 -1</clus>
<clus scale="  119.413">  2  3  1 -1</clus>
<clus scale="   52.454">  1  3  2 -1</clus>
</clustering>
</event>
<event>
 6    0  0.1361919E+003  0.7207197E+02  0.7546771E-02  0.1353186E+00
         21   -1    0    0  505  501  0.00000000000E+00  0.00000000000E+00  0.14711777685E+03  0.14711777685E+03  0.00000000000E+00 0.  1.
         21   -1    0    0  506  502 -0.00000000000E+00 -0.00000000000E+00 -0.14265557359E+03  0.14265557359E+03  0.00000000000E+00 0.  1.
         21    1    1    2  503  504 -0.65588268344E+02  0.22378757172E+02 -0.17020255903E+02  0.71360485059E+02  0.00000000000E+00 0.  1.
         21    1    1    2  504  502 -0.23136865831E+02 -0.34848744229E+02 -0.28758961518E+02  0.50762460563E+02  0.00000000000E+00 0.  1.
         21    1    1    2  505  503  0.41756753882E+02  0.71771478270E+02  0.36769383327E+02  0.90811668513E+02  0.00000000000E+00 0.  1.
         21    1    1    2  506  501  0.46968380292E+02 -0.59301491213E+02  0.13472037352E+02  0.76838736311E+02  0.00000000000E+00 0.  1.
<scales pt_clust_3="14000.00000" pt_clust_4="41.83001" pt_clust_5="72.07197" pt_clust_6="69.30246"></scales>
<clustering>
<clus scale="   41.830">  2  4  1 -1</clus>
<clus scale="   72.072">  1  5  2 -1</clus>
<clus scale="   69.302">  1  6  2 -1</clus>
<clus scale="   72.072">  1  3  2 -1</clus>
</clustering>
</event>
<event>
 6    0  0.1361919E+003  0.6995750E+02  0.7546771E-02  0.1360238E+00
         21   -1    0    0  505  501  0.00000000000E+00  0.00000000000E+00  0.10100886370E+04  0.10100886370E+04  0.00000000000E+00 0.  1.
         21   -1    0    0  503  502 -0.00000000000E+00 -0.00000000000E+00 -0.95523503265E+02  0.95523503265E+02  0.00000000000E+00 0. -1.
         21    1    1    2  503  506  0.97358426847E+02  0.49192583474E+02  0.22457384431E+02  0.11136834228E+03  0.00000000000E+00 0. -1.
         21    1    1    2  504  502 -0.36622915558E+02 -0.20875224919E+02 -0.36051998593E+02  0.55468545698E+02  0.00000000000E+00 0.  1.
         21    1    1    2  505  504  0.89672340894E+01 -0.54822606963E+02  0.58361216376E+03  0.58625002107E+03  0.00000000000E+00 0.  1.
         21    1    1    2  506  501 -0.69702745378E+02  0.26505248407E+02  0.34454758419E+03  0.35252523126E+03  0.00000000000E+00 0.  1.
<scales pt_clust_3="69.95750" pt_clust_4="42.15463" pt_clust_5="55.95028" pt_clust_6="14000.00000"></scales>
<clustering>
<clus scale="   42.155">  2  4  1 -1</clus>
<clus scale="   55.950">  1  5  2 -1</clus>
<clus scale="   69.957">  2  3  1 -1</clus>
<clus scale="   55.950">  1  3  2 -1</clus>
</clustering>
</event>
<event>
 6    0  0.1361919E+003  0.1264018E+03  0.7546771E-02  0.1232895E+00
         21   -1    0    0  503  501  0.00000000000E+00  0.00000000000E+00  0.17689939906E+04  0.17689939906E+04  0.00000000000E+00 0. -1.
         21   -1    0    0  506  502 -0.00000000000E+00 -0.00000000000E+00 -0.11393175662E+03  0.11393175662E+03  0.00000000000E+00 0. -1.
         21    1    1    2  503  504  0.46967996592E+02  0.44086043734E+02  0.21921778952E+03  0.22848634795E+03  0.00000000000E+00 0. -1.
         21    1    1    2  504  505  0.45163990436E+02  0.92447219730E+02  0.68821495617E+01  0.10311953477E+03  0.00000000000E+00 0. -1.
         21    1    1    2  505  502 -0.43960298383E+02  0.36619784445E+02 -0.41014271872E+02  0.70396640147E+02  0.00000000000E+00 0.  1.
         21    1    1    2  506  501 -0.48171688644E+02 -0.17315304791E+03  0.14699765668E+04  0.14809232244E+04  0.00000000000E+00 0. -1.
<scales pt_clust_3="64.02053" pt_clust_4="14000.00000" pt_clust_5="57.21465" pt_clust_6="126.40176"></scales>
<clustering>
<clus scale="   57.215">  2  5  1 -1</clus>
<clus scale="   64.021">  1  3  2 -1</clus>
<clus scale="  126.402">  1  6  2 -1</clus>
<clus scale="   64.021">  1  3  2 -1</clus>
</clustering>
</event>
<event>
 6    0  0.1361919E+003  0.8441356E+02  0.7546771E-02  0.1316973E+00
         21   -1    0    0  505  501  0.00000000000E+00  0.00000000000E+00  0.45859323093E+03  0.45859323093E+03  0.00000000000E+00 0.  1.
         21   -1    0    0  503  502 -0.00000000000E+00 -0.00000000000E+00 -0.16690111648E+03  0.16690111648E+03  0.00000000000E+00 0.  1.
         21    1    1    2  503  501  0.19780724062E+02 -0.73698365254E+02  0.12887723896E+03  0.14977339152E+03  0.00000000000E+00 0.  1.
         21    1    1    2  504  502  0.40864378204E+02 -0.16576824984E+02 -0.13301159123E+03  0.14013126679E+03  0.00000000000E+00 0.  1.
         21    1    1    2  505  506 -0.31800750090E+02 -0.50228334864E+01  0.17997005358E+03  0.18282706787E+03  0.00000000000E+00 0.  1.
         21    1    1    2  506  504 -0.28844352176E+02  0.95298023725E+02  0.11585641313E+03  0.15276262122E+03  0.00000000000E+00 0.  1.
<scales pt_clust_3="84.41356" pt_clust_4="43.74495" pt_clust_5="32.19498" pt_clust_6="14000.00000"></scales>
<clustering>
<clus scale="   32.195">  1  5  2 -1</clus>
<clus scale="   43.745">  2  4  1 -1</clus>
<clus scale="   84.414">  1  3  2 -1</clus>
<clus scale="   32.195">  1  3  2 -1</clus>
</clustering>
</event>
<event>
 6    0  0.1361919E+003  0.1590383E+03  0.7546771E-02  0.1189787E+00
         21   -1    0    0  506  501  0.00000000000E+00  0.00000000000E+00  0.15813809878E+04  0.15813809878E+04  0.00000000000E+00 0.  1.
         21   -1    0    0  505  502 -0.00000000000E+00 -0.00000000000E+00 -0.10860596445E+03  0.10860596445E+03  0.00000000000E+00 0. -1.
         21    1    1    2  503  504  0.48512576974E+02 -0.11033212481E+03  0.23711271646E+03  0.26598700757E+03  0.00000000000E+00 0. -1.
         21    1    1    2  504  501 -0.59407270256E+02 -0.78929171123E+02  0.11954218779E+04  0.11994967711E+04  0.00000000000E+00 0.  1.
         21    1    1    2  505  503 -0.32882934002E+02  0.16977123948E+03  0.32773972019E+02  0.17600481341E+03  0.00000000000E+00 0. -1.
         21    1    1    2  506  502  0.43777627284E+02  0.19490056459E+02  0.74664569258E+01  0.48498360080E+02  0.00000000000E+00 0. -1.
<scales pt_clust_3="159.03827" pt_clust_4="97.82025" pt_clust_5="14000.00000" pt_clust_6="47.92017"></scales>
<clustering>
<clus scale="   47.920">  2  6  1 -1</clus>
<clus scale="   97.820">  1  4  2 -1</clus>
<clus scale="  159.038">  1  3  2 -1</clus>
<clus scale="   97.820">  1  3  2 -1</clus>
</clustering>
</event>
<event>
 6    0  0.1361919E+003  0.1483670E+03  0.7546771E-02  0.1202494E+00
         21   -1    0    0  504  501  0.00000000000E+00  0.00000000000E+00  0.12383893330E+04  0.12383893330E+04  0.00000000000E+00 0. -1.
         21   -1    0    0  506  502 -0.00000000000E+00 -0.00000000000E+00 -0.10340871641E+03  0.10340871641E+03  0.00000000000E+00 0. -1.
         21    1    1    2  503  505  0.87609069777E+02  0.41739372961E+02  0.65422817517E+03  0.66138644493E+03  0.00000000000E+00 0. -1.
         21    1    1    2  504  502  0.41670436551E+02  0.98030347854E+02  0.56761681338E+02  0.12069905903E+03  0.00000000000E+00 0. -1.
         21    1    1    2  505  501  0.45630069018E+02 -0.98261156163E+01  0.31058244474E+03  0.31407023216E+03  0.00000000000E+00 0. -1.
         21    1    1    2  506  503 -0.17490957535E+03 -0.12994360520E+03  0.11340831531E+03  0.24564231325E+03  0.00000000000E+00 0. -1.
<scales pt_clust_3="30.11113" pt_clust_4="106.51936" pt_clust_5="30.11113" pt_clust_6="141.87215"></scales>
<clustering>
<clus scale="   30.111">  3  5 -1 -1</clus>
<clus scale="  106.519">  2  4  1 -1</clus>
<clus scale="  141.872">  2  6  1 -1</clus>
<clus scale="  148.367">  1  3  2 -1</clus>
</clustering>
</event>
<event>
 6    0  0.1361919E+003  0.9842980E+02  0.7546771E-02  0.1283633E+00
         21   -1    0    0  505  501  0.00000000000E+00  0.00000000000E+00  0.17573695355E+04  0.17573695355E+04  0.00000000000E+00 0.  1.
         21   -1    0    0  504  502 -0.00000000000E+00 -0.00000000000E+00 -0.12075138473E+03  0.12075138473E+03  0.00000000000E+00 0. -1.
         21    1    1    2  503  502  0.12403921552E+02  0.36880916432E+02 -0.25344749576E+02  0.46437222116E+02  0.00000000000E+00 0. -1.
         21    1    1    2  504  501 -0.36782396881E+02  0.69760544532E+02  0.16940471850E+03  0.18686208000E+03  0.00000000000E+00 0. -1.
         21    1    1    2  505  506  0.19983797914E+02  0.28501562088E+02  0.15082930806E+04  0.15086947035E+04  0.00000000000E+00 0.  1.
         21    1    1    2  506  503  0.43946774156E+01 -0.13514302305E+03 -0.15734898708E+02  0.13612691470E+03  0.00000000000E+00 0. -1.
<scales pt_clust_3="40.32778" pt_clust_4="98.42980" pt_clust_5="34.80936" pt_clust_6="14000.00000"></scales>
<clustering>
<clus scale="   34.809">  1  5  2 -1</clus>
<clus scale="   40.328">  2  3  1 -1</clus>
<clus scale="   98.430">  1  4  2 -1</clus>
<clus scale="   34.809">  1  3  2 -1</clus>
</clustering>
</event>
<event>
 6    0  0.1361919E+003  0.8815958E+02  0.7546771E-02  0.1307371E+00
         21   -1    0    0  506  501  0.00000000000E+00  0.00000000000E+00  0.27113118133E+03  0.27113118133E+03  0.00000000000E+00 0.  1.
         21   -1    0    0  504  502 -0.00000000000E+00 -0.00000000000E+00 -0.21948370999E+03  0.21948370999E+03  0.00000000000E+00 0.  1.
         21    1    1    2  503  501  0.43261379492E+02 -0.44019866961E+01  0.14320585217E+03  0.14966242193E+03  0.00000000000E+00 0.  1.
         21    1    1    2  504  505 -0.42176298439E+02 -0.10157400108E+03 -0.13808552000E+03  0.17653251451E+03  0.00000000000E+00 0.  1.
         21    1    1    2  505  503 -0.11404165254E+02  0.68826990878E+02 -0.32139925006E+02  0.76812658058E+02  0.00000000000E+00 0.  1.
         21    1    1    2  506  502  0.10319084201E+02  0.37148996902E+02  0.78667064181E+02  0.87607296822E+02  0.00000000000E+00 0.  1.
<scales pt_clust_3="56.86432" pt_clust_4="88.15958" pt_clust_5="14000.00000" pt_clust_6="38.55556"></scales>
<clustering>
<clus scale="   38.556">  1  6  2 -1</clus>
<clus scale="   56.864">  1  3  2 -1</clus>
<clus scale="   88.160">  2  4  1 -1</clus>
<clus scale="   38.556">  1  3  2 -1</clus>
</clustering>
</event>
<event>
 6    0  0.1361919E+003  0.1921694E+03  0.7546771E-02  0.1156519E+00
         21   -1    0    0  504  501  0.00000000000E+00  0.00000000000E+00  0.58944257502E+03  0.58944257502E+03  0.00000000000E+00 0.  1.
         21   -1    0    0  503  502 -0.00000000000E+00 -0.00000000000E+00 -0.27885171760E+03  0.27885171760E+03  0.00000000000E+00 0.  1.
         21    1    1    2  503  501  0.22321013308E+03 -0.63587908521E+01  0.85959415221E+02  0.23927435884E+03  0.00000000000E+00 0.  1.
         21    1    1    2  504  505 -0.42887161519E+02 -0.15989203408E+02  0.36476450176E+03  0.36762495154E+03  0.00000000000E+00 0.  1.
         21    1    1    2  505  506 -0.17556836139E+03  0.57547509658E+02 -0.12302015221E+03  0.22196829332E+03  0.00000000000E+00 0.  1.
         21    1    1    2  506  502 -0.47546101771E+01 -0.35199515397E+02 -0.17112907354E+02  0.39426688933E+02  0.00000000000E+00 0.  1.
<scales pt_clust_3="14000.00000" pt_clust_4="45.86673" pt_clust_5="192.16945" pt_clust_6="35.51918"></scales>
<clustering>
<clus scale="   35.519">  2  6  1 -1</clus>
<clus scale="   45.867">  1  4  2 -1</clus>
<clus scale="  192.169">  2  5  1 -1</clus>
<clus scale="   45.867">  1  3  2 -1</clus>
</clustering>
</event>
<event>
 6    0  0.1361919E+003  0.1130643E+03  0.7546771E-02  0.1254998E+00
         21   -1    0    0  503  501  0.00000000000E+00  0.00000000000E+00  0.10771900125E+04  0.10771900125E+04  0.00000000000E+00 0. -1.
         21   -1    0    0  506  502 -0.00000000000E+00 -0.00000000000E+00 -0.16963405141E+03  0.16963405141E+03  0.00000000000E+00 0. -1.
         21    1    1    2  503  502  0.53113022569E+02 -0.59669354500E+01  0.45246142230E+03  0.45560721697E+03  0.00000000000E+00 0. -1.
         21    1    1    2  504  501  0.23269962955E+01 -0.42942326930E+02  0.39059850019E+03  0.39295883589E+03  0.00000000000E+00 0. -1.
         21    1    1    2  505  504 -0.28811049350E+01  0.14696636173E+03  0.18365352112E+03  0.23523611131E+03  0.00000000000E+00 0. -1.
         21    1    1    2  506  505 -0.52558913929E+02 -0.98057099348E+02 -0.11915748249E+03  0.16302189976E+03  0.00000000000E+00 0. -1.
<scales pt_clust_3="64.58615" pt_clust_4="43.00533" pt_clust_5="14000.00000" pt_clust_6="113.06432"></scales>
<clustering>
<clus scale="   43.005">  1  4  2 -1</clus>
<clus scale="   64.586">  1  3  2 -1</clus>
<clus scale="  113.064">  2  6  1 -1</clus>
<clus scale="   43.005">  1  3  2 -1</clus>
</clustering>
</event>
<event>
 6    0  0.1361919E+003  0.1408000E+03  0.7546771E-02  0.1212256E+00
         21   -1    0    0  503  501  0.00000000000E+00  0.00000000000E+00  0.26439871130E+04  0.26439871130E+04  0.00000000000E+00 0. -1.
         21   -1    0    0  504  502 -0.00000000000E+00 -0.00000000000E+00 -0.48657045605E+03  0.48657045605E+03  0.00000000000E+00 0.  1.
         21    1    1    2  503  506 -0.28259226573E+02 -0.21394515630E+03  0.33612444890E+03  0.39943805395E+03  0.00000000000E+00 0.  1.
         21    1    1    2  504  505  0.62566760094E+02  0.15444298916E+03 -0.20475698387E+03  0.26399367192E+03  0.00000000000E+00 0.  1.
         21    1    1    2  505  501  0.95444306853E+01  0.83225384843E+02  0.22429777325E+04  0.22445415277E+04  0.00000000000E+00 0. -1.
         21    1    1    2  506  502 -0.43851964207E+02 -0.23723217704E+02 -0.21692854056E+03  0.22258431556E+03  0.00000000000E+00 0.  1.
<scales pt_clust_3="140.80004" pt_clust_4="14000.00000" pt_clust_5="83.68726" pt_clust_6="49.85766"></scales>
<clustering>
<clus scale="   49.858">  2  6  1 -1</clus>
<clus scale="   83.687">  1  5  2 -1</clus>
<clus scale="  140.800">  1  3  2 -1</clus>
<clus scale="   83.687">  1  3  2 -1</clus>
</clustering>
</event>
<event>
 6    0  0.1361919E+003  0.1787094E+03  0.7546771E-02  0.1169058E+00
         21   -1    0    0  505  501  0.00000000000E+00  0.00000000000E+00  0.15817406753E+03  0.15817406753E+03  0.00000000000E+00 0. -1.
         21   -1    0    0  503  502 -0.00000000000E+00 -0.00000000000E+00 -0.10438437611E+04  0.10438437611E+04  0.00000000000E+00 0. -1.
         21    1    1    2  503  504 -0.56878559469E+02  0.78965013298E+01 -0.26552488060E+03  0.27166337162E+03  0.00000000000E+00 0. -1.
         21    1    1    2  504  501  0.13197648169E+03 -0.13314673838E+03 -0.57783200837E+02  0.19617528886E+03  0.00000000000E+00 0. -1.
         21    1    1    2  505  506 -0.13571350982E+03  0.10745452221E+03 -0.49236969523E+01  0.17317295945E+03  0.00000000000E+00 0. -1.
         21    1    1    2  506  502  0.60615587601E+02  0.17795714838E+02 -0.55743791522E+03  0.56100620874E+03  0.00000000000E+00 0. -1.
<scales pt_clust_3="57.42408" pt_clust_4="14000.00000" pt_clust_5="178.70940" pt_clust_6="30.58592"></scales>
<clustering>
<clus scale="   57.424">  2  3  1 -1</clus>
<clus scale="   30.586">  2  6  1 -1</clus>
<clus scale="  178.709">  1  5  2 -1</clus>
<clus scale="  178.709">  1  3  2 -1</clus>
</clustering>
</event>
<event>
 6    0  0.1361919E+003  0.8117564E+02  0.7546771E-02  0.1325748E+00
         21   -1    0    0  504  501  0.00000000000E+00  0.00000000000E+00  0.86407399968E+02  0.86407399968E+02  0.00000000000E+00 0. -1.
         21   -1    0    0  503  502 -0.00000000000E+00 -0.00000000000E+00 -0.43036817605E+03  0.43036817605E+03  0.00000000000E+00 0. -1.
         21    1    1    2  503  505  0.77445162740E+02  0.35371322322E+02 -0.30320980779E+03  0.31493661460E+03  0.00000000000E+00 0. -1.
         21    1    1    2  504  502  0.22881472473E+02 -0.55328692362E+02 -0.59352935062E+02  0.84306564878E+02  0.00000000000E+00 0. -1.
         21    1    1    2  505  506 -0.63532535750E+02 -0.85467076987E+01 -0.68749265968E+01  0.64472427650E+02  0.00000000000E+00 0. -1.
         21    1    1    2  506  501 -0.36794099463E+02  0.28504077738E+02  0.25476893368E+02  0.53059968891E+02  0.00000000000E+00 0. -1.
<scales pt_clust_3="81.17564" pt_clust_4="49.55866" pt_clust_5="14000.00000" pt_clust_6="46.54340"></scales>
<clustering>
<clus scale="   46.543">  1  6  2 -1</clus>
<clus scale="   49.559">  1  4  2 -1</clus>
<clus scale="   81.176">  2  3  1 -1</clus>
<clus scale="   46.543">  1  3  2 -1</clus>
</clustering>
</event>
<event>
 6    0  0.1361919E+003  0.9086417E+02  0.7546771E-02  0.1300772E+00
         21   -1    0    0  505  501  0.00000000000E+00  0.00000000000E+00  0.76408270719E+02  0.76408270719E+02  0.00000000000E+00 0. -1.
         21   -1    0    0  506  502 -0.00000000000E+00 -0.00000000000E+00 -0.72851968114E+03  0.72851968114E+03  0.00000000000E+00 0. -1.
         21    1    1    2  503  502 -0.21513760433E+02  0.32436798874E+02 -0.19218581171E+03  0.19608766925E+03  0.00000000000E+00 0. -1.
         21    1    1    2  504  501 -0.16184597498E+02  0.54857725960E+02 -0.64182496592E+02  0.85969204733E+02  0.00000000000E+00 0. -1.
         21    1    1    2  505  503  0.95463465877E+01 -0.11489176715E+03  0.95338808274E+01  0.11568122482E+03  0.00000000000E+00 0. -1.
         21    1    1    2  506  504  0.28152011343E+02  0.27597242317E+02 -0.40527698295E+03  0.40718985306E+03  0.00000000000E+00 0. -1.
<scales pt_clust_3="38.92284" pt_clust_4="14000.00000" pt_clust_5="90.86417" pt_clust_6="53.57060"></scales>
<clustering>
<clus scale="   38.923">  2  3  1 -1</clus>
<clus scale="   53.571">  2  6  1 -1</clus>
<clus scale="   90.864">  1  5  2 -1</clus>
<clus scale="   90.864">  1  3  2 -1</clus>
</clustering>
</event>
<event>
 6    0  0.1361919E+003  0.8657167E+02  0.7546771E-02  0.1311373E+00
         21   -1    0    0  503  501  0.00000000000E+00  0.00000000000E+00  0.31631561789E+02  0.31631561789E+02  0.00000000000E+00 0. -1.
         21   -1    0    0  505  502 -0.00000000000E+00 -0.00000000000E+00 -0.88179110131E+03  0.88179110131E+03  0.00000000000E+00 0. -1.
         21    1    1    2  503  506  0.58885661752E+02 -0.53896735358E+02 -0.99200293860E+02  0.12733058369E+03  0.00000000000E+00 0. -1.
         21    1    1    2  504  501 -0.40728564464E+02 -0.23576865119E+02 -0.69640272339E+02  0.84050294845E+02  0.00000000000E+00 0.  1.
         21    1    1    2  505  504 -0.66554413594E+02  0.89454226886E+02 -0.35979036608E+03  0.37667048756E+03  0.00000000000E+00 0. -1.
         21    1    1    2  506  502  0.48397316305E+02 -0.11980626409E+02 -0.32152860724E+03  0.32537129700E+03  0.00000000000E+00 0. -1.
<scales pt_clust_3="86.57167" pt_clust_4="47.06043" pt_clust_5="14000.00000" pt_clust_6="47.26394"></scales>
<clustering>
<clus scale="   47.060">  1  4  2 -1</clus>
<clus scale="   47.264">  2  6  1 -1</clus>
<clus scale="   86.572">  1  3  2 -1</clus>
<clus scale="   47.060">  1  3  2 -1</clus>
</clustering>
</event>
<event>
 6    0  0.1361919E+003  0.1574036E+03  0.7546771E-02  0.1191660E+00
         21   -1    0    0  502  501  0.00000000000E+00  0.00000000000E+00  0.23393339252E+04  0.23393339252E+04  0.00000000000E+00 0.  1.
         21   -1    0    0  505  502 -0.00000000000E+00 -0.00000000000E+00 -0.61532622881E+02  0.61532622881E+02  0.00000000000E+00 0. -1.
         21    1    1    2  503  506  0.82989649131E+02  0.41075872379E+02  0.22427744639E+03  0.24264146825E+03  0.00000000000E+00 0.  1.
         21    1    1    2  504  501 -0.60548980368E+02 -0.22867977614E+02  0.48525593964E+03  0.48955331720E+03  0.00000000000E+00 0.  1.
         21    1    1    2  505  503  0.53649965186E+02  0.46767665962E+02 -0.22589068356E+02  0.74671275288E+02  0.00000000000E+00 0. -1.
         21    1    1    2  506  504 -0.76090633948E+02 -0.64975560728E+02  0.15908569846E+04  0.15940004873E+04  0.00000000000E+00 0.  1.
<scales pt_clust_3="142.16603" pt_clust_4="54.33898" pt_clust_5="71.17256" pt_clust_6="54.33898"></scales>
<clustering>
<clus scale="   54.339">  4  6 -1 -1</clus>
<clus scale="   71.173">  2  5  1 -1</clus>
<clus scale="  142.166">  2  3  1 -1</clus>
<clus scale="  157.404">  1  3  2 -1</clus>
</clustering>
</event>
<event>
 6    0  0.1361919E+003  0.8353439E+02  0.7546771E-02  0.1319310E+00
         21   -1    0    0  504  501  0.00000000000E+00  0.00000000000E+00  0.50313883221E+03  0.50313883221E+03  0.00000000000E+00 0. -1.
         21   -1    0    0  503  502 -0.00000000000E+00 -0.00000000000E+00 -0.10094591672E+03  0.10094591672E+03  0.00000000000E+00 0. -1.
         21    1    1    2  503  505 -0.65507557191E+02  0.16765340525E+02  0.40931669594E+02  0.79042509245E+02  0.00000000000E+00 0. -1.
         21    1    1    2  504  506  0.11538542635E+03 -0.25549845141E+00  0.23792390384E+03  0.26442701433E+03  0.00000000000E+00 0. -1.
         21    1    1    2  505  501 -0.50828142717E+02  0.56517508926E+02  0.16129397440E+03  0.17830724911E+03  0.00000000000E+00 0. -1.
         21    1    1    2  506  502  0.95027356270E+00 -0.73027350999E+02 -0.37956632342E+02  0.82307976239E+02  0.00000000000E+00 0. -1.
<scales pt_clust_3="67.61891" pt_clust_4="14000.00000" pt_clust_5="83.53439" pt_clust_6="76.87529"></scales>
<clustering>
<clus scale="   67.619">  2  3  1 -1</clus>
<clus scale="   76.875">  2  6  1 -1</clus>
<clus scale="   83.534">  1  5  2 -1</clus>
<clus scale="   83.534">  1  3  2 -1</clus>
</clustering>
</event>
<event>
 6    0  0.1361919E+003  0.9436035E+02  0.7546771E-02  0.1292623E+00
         21   -1    0    0  506  501  0.00000000000E+00  0.00000000000E+00  0.74932062664E+03  0.74932062664E+03  0.00000000000E+00 0.  1.
         21   -1    0    0  505  502 -0.00000000000E+00 -0.00000000000E+00 -0.45943140818E+02  0.45943140818E+02  0.00000000000E+00 0.  1.
         21    1    1    2  503  502  0.85007824273E+02  0.33058196140E+02  0.61093476019E+02  0.10977972186E+03  0.00000000000E+00 0.  1.
         21    1    1    2  504  503 -0.11136050148E+03  0.25075600683E+02  0.17433236938E+03  0.20837879463E+03  0.00000000000E+00 0.  1.
         21    1    1    2  505  501 -0.11991494626E+02 -0.33588657292E+02  0.32802964879E+03  0.32996279234E+03  0.00000000000E+00 0.  1.
         21    1    1    2  506  504  0.38344171832E+02 -0.24545139531E+02  0.13992199164E+03  0.14714245864E+03  0.00000000000E+00 0.  1.
<scales pt_clust_3="14000.00000" pt_clust_4="94.36035" pt_clust_5="35.66502" pt_clust_6="49.70005"></scales>
<clustering>
<clus scale="   35.665">  1  5  2 -1</clus>
<clus scale="   49.700">  1  6  2 -1</clus>
<clus scale="   94.360">  1  4  2 -1</clus>
<clus scale="   35.665">  1  3  2 -1</clus>
</clustering>
</event>
<event>
 6    0  0.1361919E+003  0.1189508E+03  0.7546771E-02  0.1244838E+00
         21   -1    0    0  506  501  0.00000000000E+00  0.00000000000E+00  0.14808662490E+04  0.14808662490E+04  0.00000000000E+00 0.  1.
         21   -1    0    0  503  502 -0.00000000000E+00 -0.00000000000E+00 -0.68061554497E+02  0.68061554497E+02  0.00000000000E+00 0.  1.
         21    1    1    2  503  504  0.29433437972E+02 -0.55821098871E+02 -0.14707864597E+02  0.64796941525E+02  0.00000000000E+00 0.  1.
         21    1    1    2  504  505 -0.11461613613E+03 -0.39765358417E+02  0.14726573592E+03  0.19080183271E+03  0.00000000000E+00 0.  1.
         21    1    1    2  505  501 -0.20392106068E+02  0.66882409367E+02  0.37179927198E+03  0.37831705396E+03  0.00000000000E+00 0.  1.
         21    1    1    2  506  502  0.10557480422E+03  0.28704047920E+02  0.90844755117E+03  0.91501197527E+03  0.00000000000E+00 0.  1.
<scales pt_clust_3="63.10564" pt_clust_4="14000.00000" pt_clust_5="62.80211" pt_clust_6="118.95082"></scales>
<clustering>
<clus scale="   63.106">  2  3  1 -1</clus>
<clus scale="   62.802">  1  5  2 -1</clus>
<clus scale="  118.951">  1  6  2 -1</clus>
<clus scale="   62.802">  1  3  2 -1</clus>
</clustering>
</event>
<event>
 6    0  0.1361919E+003  0.1152745E+03  0.7546771E-02  0.1251103E+00
         21   -1    0    0  505  501  0.00000000000E+00  0.00000000000E+00  0.11536833352E+03  0.11536833352E+03  0.00000000000E+00 0. -1.
         21   -1    0    0  504  502 -0.00000000000E+00 -0.00000000000E+00 -0.77263549686E+03  0.77263549686E+03  0.00000000000E+00 0.  1.
         21    1    1    2  503  501  0.60093075228E+01  0.44662031763E+02  0.58772245491E+02  0.74060689290E+02  0.00000000000E+00 0. -1.
         21    1    1    2  504  506  0.63610117939E+02  0.95399528551E+02 -0.31977728404E+03  0.33971286190E+03  0.00000000000E+00 0.  1.
         21    1    1    2  505  502  0.33115567798E+02 -0.45505448224E+02 -0.29855466683E+03  0.30381289593E+03  0.00000000000E+00 0.  1.
         21    1    1    2  506  503 -0.10273499326E+03 -0.94556112089E+02 -0.97707457966E+02  0.17041738326E+03  0.00000000000E+00 0. -1.
<scales pt_clust_3="45.06450" pt_clust_4="115.27454" pt_clust_5="54.55558" pt_clust_6="14000.00000"></scales>
<clustering>
<clus scale="   45.064">  1  3  2 -1</clus>
<clus scale="   54.556">  2  5  1 -1</clus>
<clus scale="  115.275">  2  4  1 -1</clus>
<clus scale="   45.064">  1  3  2 -1</clus>
</clustering>
</event>
<event>
 6    0  0.1361919E+003  0.8180792E+02  0.7546771E-02  0.1323998E+00
         21   -1    0    0  503  501  0.00000000000E+00  0.00000000000E+00  0.61379858559E+02  0.61379858559E+02  0.00000000000E+00 0. -1.
         21   -1    0    0  506  502 -0.00000000000E+00 -0.00000000000E+00 -0.11593568018E+04  0.11593568018E+04  0.00000000000E+00 0. -1.
         21    1    1    2  503  505  0.19842054499E+02  0.40626468806E+02 -0.68965068659E+02  0.82464524431E+02  0.00000000000E+00 0.  1.
         21    1    1    2  504  501 -0.86148976521E+02  0.25455928646E+02  0.62643306490E+00  0.89833417374E+02  0.00000000000E+00 0. -1.
         21    1    1    2  505  502  0.79316326807E+02  0.93644169640E+01 -0.20122903249E+03  0.21649918134E+03  0.00000000000E+00 0.  1.
         21    1    1    2  506  504 -0.13009404785E+02 -0.75446814415E+02 -0.82840927519E+03  0.83193953725E+03  0.00000000000E+00 0. -1.
<scales pt_clust_3="45.21302" pt_clust_4="81.80792" pt_clust_5="14000.00000" pt_clust_6="75.15881"></scales>
<clustering>
<clus scale="   45.213">  1  3  2 -1</clus>
<clus scale="   75.159">  2  6  1 -1</clus>
<clus scale="   81.808">  1  4  2 -1</clus>
<clus scale="   45.213">  1  3  2 -1</clus>
</clustering>
</event>
<event>
 6    0  0.1361919E+003  0.1230426E+03  0.7546771E-02  0.1238160E+00
         21   -1    0    0  503  501  0.00000000000E+00  0.00000000000E+00  0.13614325889E+03  0.13614325889E+03  0.00000000000E+00 0. -1.
         21   -1    0    0  504  502 -0.00000000000E+00 -0.00000000000E+00 -0.18433283784E+03  0.18433283784E+03  0.00000000000E+00 0.  1.
         21    1    1    2  503  502 -0.31154376283E+02  0.11483773122E+03 -0.57326622943E+02  0.13207816387E+03  0.00000000000E+00 0.  1.
         21    1    1    2  504  506  0.52387236733E+02 -0.25052603302E+02 -0.35251547413E+02  0.67931782692E+02  0.00000000000E+00 0.  1.
         21    1    1    2  505  501 -0.28303626544E+02 -0.36570572522E+02  0.48013279999E+02  0.66661661443E+02  0.00000000000E+00 0. -1.
         21    1    1    2  506  505  0.70707660942E+01 -0.53214555398E+02 -0.36246885965E+01  0.53804488723E+02  0.00000000000E+00 0.  1.
<scales pt_clust_3="107.20133" pt_clust_4="56.51705" pt_clust_5="46.24394" pt_clust_6="56.51705"></scales>
<clustering>
<clus scale="   46.244">  1  5  2 -1</clus>
<clus scale="   56.517">  4  6 -1 -1</clus>
<clus scale="  107.201">  1  3  2 -1</clus>
<clus scale="   46.244">  1  3  2 -1</clus>
</clustering>
</event>
<event>
 6    0  0.1361919E+003  0.1088473E+03  0.7546771E-02  0.1262720E+00
         21   -1    0    0  506  501  0.00000000000E+00  0.00000000000E+00  0.17903645315E+03  0.17903645315E+03  0.00000000000E+00 0.  1.
         21   -1    0    0  504  502 -0.00000000000E+00 -0.00000000000E+00 -0.25885313232E+03  0.25885313232E+03  0.00000000000E+00 0.  1.
         21    1    1    2  503  502 -0.98408735592E+02  0.15267614372E+02 -0.68304000604E+01  0.99820006284E+02  0.00000000000E+00 0.  1.
         21    1    1    2  504  505  0.44842903450E+02  0.20998671387E+02 -0.95147509394E+02  0.10726079775E+03  0.00000000000E+00 0.  1.
         21    1    1    2  505  501  0.12720762289E+03 -0.10807705283E+02 -0.37063688927E+02  0.13293721395E+03  0.00000000000E+00 0.  1.
         21    1    1    2  506  503 -0.73641790751E+02 -0.25458580476E+02  0.59224919212E+02  0.97871567478E+02  0.00000000000E+00 0.  1.
<scales pt_clust_3="14000.00000" pt_clust_4="49.51596" pt_clust_5="108.84725" pt_clust_6="71.88529"></scales>
<clustering>
<clus scale="   49.516">  2  4  1 -1</clus>
<clus scale="   71.885">  1  6  2 -1</clus>
<clus scale="  108.847">  1  5  2 -1</clus>
<clus scale="   71.885">  1  3  2 -1</clus>
</clustering>
</event>
<event>
 6    0  0.1361919E+003  0.9493929E+02  0.7546771E-02  0.1291313E+00
         21   -1    0    0  505  501  0.00000000000E+00  0.00000000000E+00  0.17144134988E+03  0.17144134988E+03  0.00000000000E+00 0. -1.
         21   -1    0    0  504  502 -0.00000000000E+00 -0.00000000000E+00 -0.41224678031E+03  0.41224678031E+03  0.00000000000E+00 0.  1.
         21    1    1    2  503  506 -0.57798982244E+02  0.18336599812E+02  0.38074578032E+02  0.71600466014E+02  0.00000000000E+00 0. -1.
         21    1    1    2  504  501 -0.27877269359E+02 -0.11757505930E+02 -0.38759877632E+02  0.49170206494E+02  0.00000000000E+00 0.  1.
         21    1    1    2  505  503 -0.30938802767E+02  0.30660123740E+02  0.95880808935E+02  0.10531088370E+03  0.00000000000E+00 0. -1.
         21    1    1    2  506  502  0.11661505437E+03 -0.37239217622E+02 -0.33600093976E+03  0.35760657398E+03  0.00000000000E+00 0.  1.
<scales pt_clust_3="14000.00000" pt_clust_4="30.25527" pt_clust_5="43.70648" pt_clust_6="94.93929"></scales>
<clustering>
<clus scale="   30.255">  2  4  1 -1</clus>
<clus scale="   43.706">  1  5  2 -1</clus>
<clus scale="   94.939">  2  6  1 -1</clus>
<clus scale="   43.706">  1  3  2 -1</clus>
</clustering>
</event>
<event>
 6    0  0.1361919E+003  0.7302890E+02  0.7546771E-02  0.1350086E+00
         21   -1    0    0  503  501  0.00000000000E+00  0.00000000000E+00  0.98399801250E+02  0.98399801250E+02  0.00000000000E+00 0.  1.
         21   -1    0    0  504  502 -0.00000000000E+00 -0.00000000000E+00 -0.12538881894E+04  0.12538881894E+04  0.00000000000E+00 0.  1.
         21    1    1    2  503  505 -0.40286484980E+02  0.14333236722E+02  0.49047059841E+02  0.65069629060E+02  0.00000000000E+00 0.  1.
         21    1    1    2  504  506  0.41257167369E+02  0.41026270111E+02 -0.93331074988E+03  0.93512259332E+03  0.00000000000E+00 0.  1.
         21    1    1    2  505  502 -0.77717533708E+02 -0.85247092528E+02 -0.23567012265E+03  0.26238804953E+03  0.00000000000E+00 0.  1.
         21    1    1    2  506  501  0.76746851319E+02  0.29887585695E+02 -0.35554575484E+02  0.89707718753E+02  0.00000000000E+00 0.  1.
<scales pt_clust_3="42.76029" pt_clust_4="57.78507" pt_clust_5="14000.00000" pt_clust_6="73.02890"></scales>
<clustering>
<clus scale="   42.760">  1  3  2 -1</clus>
<clus scale="   57.785">  2  4  1 -1</clus>
<clus scale="   73.029">  1  6  2 -1</clus>
<clus scale="   42.760">  1  3  2 -1</clus>
</clustering>
</event>
<event>
 6    0  0.1361919E+003  0.1225259E+03  0.7546771E-02  0.1238987E+00
         21   -1    0    0  505  501  0.00000000000E+00  0.00000000000E+00  0.50021955223E+03  0.50021955223E+03  0.00000000000E+00 0. -1.
         21   -1    0    0  506  502 -0.00000000000E+00 -0.00000000000E+00 -0.11592319176E+03  0.11592319176E+03  0.00000000000E+00 0.  1.
         21    1    1    2  503  502 -0.51688775134E+02  0.11228366198E+03 -0.49414979571E+02  0.13312096164E+03  0.00000000000E+00 0.  1.
         21    1    1    2  504  501 -0.25496526873E+02 -0.27018769596E+02  0.41043890440E+02  0.55359621887E+02  0.00000000000E+00 0. -1.
         21    1    1    2  505  503  0.39439559022E+02  0.22293528067E+02  0.54902884984E+02  0.71181507353E+02  0.00000000000E+00 0.  1.
         21    1    1    2  506  504  0.37745742985E+02 -0.10755842045E+03  0.33776456462E+03  0.35648065310E+03  0.00000000000E+00 0. -1.
<scales pt_clust_3="122.52588" pt_clust_4="37.14952" pt_clust_5="40.38339" pt_clust_6="14000.00000"></scales>
<clustering>
<clus scale="   37.150">  1  4  2 -1</clus>
<clus scale="   40.383">  1  5  2 -1</clus>
<clus scale="  122.526">  2  3  1 -1</clus>
<clus scale="   37.150">  1  3  2 -1</clus>
</clustering>
</event>
<event>
 6    0  0.1361919E+003  0.1308024E+03  0.7546771E-02  0.1226270E+00
         21   -1    0    0  503  501  0.00000000000E+00  0.00000000000E+00  0.12617342468E+04  0.12617342468E+04  0.00000000000E+00 0.  1.
         21   -1    0    0  504  502 -0.00000000000E+00 -0.00000000000E+00 -0.14449150482E+03  0.14449150482E+03  0.00000000000E+00 0.  1.
         21    1    1    2  503  502 -0.75652117657E+02 -0.88132348734E+01  0.10161382548E+04  0.10189886501E+04  0.00000000000E+00 0.  1.
         21    1    1    2  504  505 -0.85740360081E+01  0.31859426393E+02 -0.51960905336E+02  0.61550571296E+02  0.00000000000E+00 0.  1.
         21    1    1    2  505  506 -0.37217692724E+02  0.75266182165E+02 -0.26129754225E+02  0.87937016581E+02  0.00000000000E+00 0.  1.
         21    1    1    2  506  501  0.12144384639E+03 -0.98312373684E+02  0.17919514668E+03  0.23774951364E+03  0.00000000000E+00 0.  1.
<scales pt_clust_3="76.16374" pt_clust_4="32.42444" pt_clust_5="32.42444" pt_clust_6="120.14022"></scales>
<clustering>
<clus scale="   32.424">  4  5 -1 -1</clus>
<clus scale="   76.164">  1  3  2 -1</clus>
<clus scale="  120.140">  1  6  2 -1</clus>
<clus scale="   76.164">  1  3  2 -1</clus>
</clustering>
</event>
<event>
 6    0  0.1361919E+003  0.7398483E+02  0.7546771E-02  0.1347044E+00
         21   -1    0    0  505  501  0.00000000000E+00  0.00000000000E+00  0.44853569538E+03  0.44853569538E+03  0.00000000000E+00 0. -1.
         21   -1    0    0  504  502 -0.00000000000E+00 -0.00000000000E+00 -0.50139264025E+03  0.50139264025E+03  0.00000000000E+00 0. -1.
         21    1    1    2  503  501  0.34919863984E+02  0.74406730569E+01  0.41616056146E+02  0.54832988660E+02  0.00000000000E+00 0.  1.
         21    1    1    2  504  503  0.10516546943E+03  0.15440900316E+02 -0.12811750668E+03  0.16647009606E+03  0.00000000000E+00 0. -1.
         21    1    1    2  505  506 -0.82755670029E+02  0.16610819233E+02  0.37288331975E+03  0.38231713326E+03  0.00000000000E+00 0. -1.
         21    1    1    2  506  502 -0.57329663382E+02 -0.39492392606E+02 -0.33923881408E+03  0.34630811766E+03  0.00000000000E+00 0. -1.
<scales pt_clust_3="35.70379" pt_clust_4="14000.00000" pt_clust_5="55.13685" pt_clust_6="73.98483"></scales>
<clustering>
<clus scale="   35.704">  1  3  2 -1</clus>
<clus scale="   55.137">  1  5  2 -1</clus>
<clus scale="   73.985">  2  6  1 -1</clus>
<clus scale="   35.704">  1  3  2 -1</clus>
</clustering>
</event>
<event>
 6    0  0.1361919E+003  0.1007981E+03  0.7546771E-02  0.1278626E+00
         21   -1    0    0  504  501  0.00000000000E+00  0.00000000000E+00  0.83543840301E+02  0.83543840301E+02  0.00000000000E+00 0. -1.
         21   -1    0    0  503  502 -0.00000000000E+00 -0.00000000000E+00 -0.45537088926E+03  0.45537088926E+03  0.00000000000E+00 0. -1.
         21    1    1    2  503  505  0.29675620701E+02  0.99686080115E+02 -0.10726332741E+03  0.14941010153E+03  0.00000000000E+00 0. -1.
         21    1    1    2  504  506  0.52136731837E+02 -0.21128773264E+02 -0.24078132463E+02  0.61191668789E+02  0.00000000000E+00 0. -1.
         21    1    1    2  505  501 -0.12816532857E+03 -0.34086808967E+02 -0.78633869098E+02  0.15418024310E+03  0.00000000000E+00 0. -1.
         21    1    1    2  506  502  0.46352976027E+02 -0.44470497885E+02 -0.16185171999E+03  0.17413271614E+03  0.00000000000E+00 0. -1.
<scales pt_clust_3="100.79814" pt_clust_4="56.25535" pt_clust_5="14000.00000" pt_clust_6="69.20071"></scales>
<clustering>
<clus scale="   56.255">  1  4  2 -1</clus>
<clus scale="   69.201">  2  6  1 -1</clus>
<clus scale="  100.798">  2  3  1 -1</clus>
<clus scale="   56.255">  1  3  2 -1</clus>
</clustering>
</event>
<event>
 6    0  0.1361919E+003  0.1031734E+03  0.7546771E-02  0.1273761E+00
         21   -1    0    0  506  501  0.00000000000E+00  0.00000000000E+00  0.16637883929E+03  0.16637883929E+03  0.00000000000E+00 0. -1.
         21   -1    0    0  503  502 -0.00000000000E+00 -0.00000000000E+00 -0.26008457804E+04  0.26008457804E+04  0.00000000000E+00 0. -1.
         21    1    1    2  503  501 -0.88630117587E+01  0.31135476518E+02 -0.23408560791E+04  0.23410799119E+04  0.00000000000E+00 0. -1.
         21    1    1    2  504  502 -0.28871868013E+02  0.23147951088E+02 -0.18668815482E+03  0.19032046541E+03  0.00000000000E+00 0. -1.
         21    1    1    2  505  504 -0.44031231014E+02  0.54578544074E+02 -0.13432013935E+01  0.70138227578E+02  0.00000000000E+00 0. -1.
         21    1    1    2  506  505  0.81766110786E+02 -0.10886197168E+03  0.94420494247E+02  0.16568601475E+03  0.00000000000E+00 0. -1.
<scales pt_clust_3="32.37238" pt_clust_4="57.77183" pt_clust_5="14000.00000" pt_clust_6="103.17338"></scales>
<clustering>
<clus scale="   32.372">  2  3  1 -1</clus>
<clus scale="   57.772">  2  4  1 -1</clus>
<clus scale="  103.173">  1  6  2 -1</clus>
<clus scale="  103.173">  1  3  2 -1</clus>
</clustering>
</event>
<event>
 6    0  0.1361919E+003  0.1214508E+03  0.7546771E-02  0.1240723E+00
         21   -1    0    0  503  501  0.00000000000E+00  0.00000000000E+00  0.96228009761E+03  0.96228009761E+03  0.00000000000E+00 0. -1.
         21   -1    0    0  505  502 -0.00000000000E+00 -0.00000000000E+00 -0.23303449947E+03  0.23303449947E+03  0.00000000000E+00 0.  1.
         21    1    1    2  503  504 -0.68959442268E+02 -0.33653527636E+02  0.92207270466E+02  0.11995893184E+03  0.00000000000E+00 0.  1.
         21    1    1    2  504  502  0.14710631828E+02 -0.34664961494E+02 -0.51946733218E+02  0.64160153805E+02  0.00000000000E+00 0. -1.
         21    1    1    2  505  506 -0.86991779213E+02  0.49638087615E+02 -0.13884233981E+03  0.17119785255E+03  0.00000000000E+00 0.  1.
         21    1    1    2  506  501  0.14124058965E+03  0.18680401515E+02  0.82782740071E+03  0.83999765889E+03  0.00000000000E+00 0. -1.
<scales pt_clust_3="121.45080" pt_clust_4="37.65717" pt_clust_5="76.34281" pt_clust_6="14000.00000"></scales>
<clustering>
<clus scale="   37.657">  2  4  1 -1</clus>
<clus scale="   76.343">  2  5  1 -1</clus>
<clus scale="  121.451">  2  3  1 -1</clus>
<clus scale="  121.451">  1  3  2 -1</clus>
</clustering>
</event>
<event>
 6    0  0.1361919E+003  0.7834002E+02  0.7546771E-02  0.1333829E+00
         21   -1    0    0  503  501  0.00000000000E+00  0.00000000000E+00  0.39592621867E+03  0.39592621867E+03  0.00000000000E+00 0.  1.
         21   -1    0    0  505  502 -0.00000000000E+00 -0.00000000000E+00 -0.26343216808E+03  0.26343216808E+03  0.00000000000E+00 0.  1.
         21    1    1    2  503  506 -0.34611665212E+02  0.88098178668E+02  0.15140272819E+03  0.17855543273E+03  0.00000000000E+00 0.  1.
         21    1    1    2  504  501  0.13012836617E+02 -0.63653426532E+02  0.19705415698E+03  0.20748839343E+03  0.00000000000E+00 0.  1.
         21    1    1    2  505  504 -0.21911672347E+02 -0.81131875525E+02 -0.16618622881E+03  0.18622665024E+03  0.00000000000E+00 0.  1.
         21    1    1    2  506  502  0.43510500942E+02  0.56687123389E+02 -0.49776605764E+02  0.87087910365E+02  0.00000000000E+00 0. -1.
<scales pt_clust_3="41.23908" pt_clust_4="64.96994" pt_clust_5="78.34002" pt_clust_6="14000.00000"></scales>
<clustering>
<clus scale="   64.970">  1  4  2 -1</clus>
<clus scale="   41.239">  1  3  2 -1</clus>
<clus scale="   78.340">  2  5  1 -1</clus>
<clus scale="   64.970">  1  3  2 -1</clus>
</clustering>
</event>
<event>
 6    0  0.1361919E+003  0.1662833E+03  0.7546771E-02  0.1181780E+00
         21   -1    0    0  503  501  0.00000000000E+00  0.00000000000E+00  0.21953972180E+04  0.21953972180E+04  0.00000000000E+00 0.  1.
         21   -1    0    0  505  502 -0.00000000000E+00 -0.00000000000E+00 -0.81817722840E+02  0.81817722840E+02  0.00000000000E+00 0.  1.
         21    1    1    2  503  502  0.20411562980E+02  0.15068352158E+03  0.15844787381E+04  0.15917584701E+04  0.00000000000E+00 0.  1.
         21    1    1    2  504  501 -0.52656971120E+02  0.27534928829E+01  0.51524501896E+03  0.51793606545E+03  0.00000000000E+00 0. -1.
         21    1    1    2  505  506  0.27236586962E+02 -0.51641939401E+02 -0.17391798950E+02  0.60919588353E+02  0.00000000000E+00 0.  1.
         21    1    1    2  506  504  0.50088211780E+01 -0.10179507506E+03  0.31247537002E+02  0.10660081691E+03  0.00000000000E+00 0.  1.
<scales pt_clust_3="156.08238" pt_clust_4="52.72891" pt_clust_5="43.40259" pt_clust_6="43.40259"></scales>
<clustering>
<clus scale="   43.403">  5  6 -1 -1</clus>
<clus scale="   52.729">  1  4  2 -1</clus>
<clus scale="  156.082">  1  3  2 -1</clus>
<clus scale="   52.729">  1  3  2 -1</clus>
</clustering>
</event>
<event>
 6    0  0.1361919E+003  0.8871368E+02  0.7546771E-02  0.1305997E+00
         21   -1    0    0  504  501  0.00000000000E+00  0.00000000000E+00  0.32123989625E+03  0.32123989625E+03  0.00000000000E+00 0. -1.
         21   -1    0    0  503  502 -0.00000000000E+00 -0.00000000000E+00 -0.11467082648E+03  0.11467082648E+03  0.00000000000E+00 0. -1.
         21    1    1    2  503  501  0.77826791470E+02 -0.49116680590E+02 -0.17301166540E+02  0.93641807684E+02  0.00000000000E+00 0. -1.
         21    1    1    2  504  505  0.74082125194E+02  0.19433473955E+02  0.10908055810E+03  0.13328311723E+03  0.00000000000E+00 0. -1.
         21    1    1    2  505  506 -0.11711675170E+03 -0.11790759374E+02  0.95294182281E+02  0.15144747179E+03  0.00000000000E+00 0. -1.
         21    1    1    2  506  502 -0.34792164963E+02  0.41473966008E+02  0.19495495931E+02  0.57538326017E+02  0.00000000000E+00 0. -1.
<scales pt_clust_3="62.86205" pt_clust_4="88.71368" pt_clust_5="14000.00000" pt_clust_6="54.13487"></scales>
<clustering>
<clus scale="   54.135">  2  6  1 -1</clus>
<clus scale="   62.862">  2  3  1 -1</clus>
<clus scale="   88.714">  1  4  2 -1</clus>
<clus scale="   88.714">  1  3  2 -1</clus>
</clustering>
</event>
<event>
 6    0  0.1361919E+003  0.1550462E+03  0.7546771E-02  0.1194406E+00
         21   -1    0    0  504  501  0.00000000000E+00  0.00000000000E+00  0.40696546100E+03  0.40696546100E+03  0.00000000000E+00 0. -1.
         21   -1    0    0  503  502 -0.00000000000E+00 -0.00000000000E+00 -0.15276004206E+04  0.15276004206E+04  0.00000000000E+00 0. -1.
         21    1    1    2  503  506  0.72768484404E+02 -0.53566252788E+02 -0.13603741363E+04  0.13633716979E+04  0.00000000000E+00 0. -1.
         21    1    1    2  504  505 -0.38308352216E+02  0.93492931045E+02  0.35562274182E+03  0.36969716324E+03  0.00000000000E+00 0. -1.
         21    1    1    2  505  502  0.56061990084E+02 -0.46823389987E+02 -0.62822382404E+02  0.96343283694E+02  0.00000000000E+00 0.  1.
         21    1    1    2  506  501 -0.90522122273E+02  0.68967117301E+01 -0.53061182670E+02  0.10515373678E+03  0.00000000000E+00 0. -1.
<scales pt_clust_3="155.04621" pt_clust_4="14000.00000" pt_clust_5="73.04366" pt_clust_6="87.56692"></scales>
<clustering>
<clus scale="   73.044">  2  5  1 -1</clus>
<clus scale="   87.567">  1  6  2 -1</clus>
<clus scale="  155.046">  2  3  1 -1</clus>
<clus scale="   87.567">  1  3  2 -1</clus>
</clustering>
</event>
<event>
 6    0  0.1361919E+003  0.1336333E+03  0.7546771E-02  0.1222162E+00
         21   -1    0    0  503  501  0.00000000000E+00  0.00000000000E+00  0.10333750844E+04  0.10333750844E+04  0.00000000000E+00 0.  1.
         21   -1    0    0  505  502 -0.00000000000E+00 -0.00000000000E+00 -0.10401475008E+03  0.10401475008E+03  0.00000000000E+00 0.  1.
         21    1    1    2  503  504 -0.47874279905E+02 -0.25785791325E+02  0.71175043683E+03  0.71382458492E+03  0.00000000000E+00 0.  1.
         21    1    1    2  504  502  0.60563294823E+02 -0.37222065517E+01 -0.12438819507E+02  0.61939419856E+02  0.00000000000E+00 0.  1.
         21    1    1    2  505  506  0.76162992833E+02  0.98200224210E+02  0.23440232686E+02  0.12646552898E+03  0.00000000000E+00 0.  1.
         21    1    1    2  506  501 -0.88852007751E+02 -0.68692226333E+02  0.20660848429E+03  0.23516030069E+03  0.00000000000E+00 0.  1.
<scales pt_clust_3="54.37696" pt_clust_4="57.15350" pt_clust_5="14000.00000" pt_clust_6="133.63332"></scales>
<clustering>
<clus scale="   54.377">  1  3  2 -1</clus>
<clus scale="   57.154">  2  4  1 -1</clus>
<clus scale="  133.633">  1  6  2 -1</clus>
<clus scale="   54.377">  1  3  2 -1</clus>
</clustering>
</event>
<event>
 6    0  0.1361919E+003  0.9254807E+02  0.7546771E-02  0.1296796E+00
         21   -1    0    0  504  501  0.00000000000E+00  0.00000000000E+00  0.18083279887E+04  0.18083279887E+04  0.00000000000E+00 0. -1.
         21   -1    0    0  503  502 -0.00000000000E+00 -0.00000000000E+00 -0.76484247371E+02  0.76484247371E+02  0.00000000000E+00 0.  1.
         21    1    1    2  503  505  0.32033953913E+02  0.15812219791E+02 -0.52214914990E+01  0.36103524364E+02  0.00000000000E+00 0. -1.
         21    1    1    2  504  502 -0.91379197890E+02 -0.67316025140E+02  0.59469360133E+02  0.12813356251E+03  0.00000000000E+00 0. -1.
         21    1    1    2  505  506  0.37488327814E+01  0.12488474882E+03  0.17425501526E+03  0.21441796701E+03  0.00000000000E+00 0.  1.
         21    1    1    2  506  501  0.55596411196E+02 -0.73380943469E+02  0.15033408574E+04  0.15061571822E+04  0.00000000000E+00 0. -1.
<scales pt_clust_3="35.72395" pt_clust_4="91.94762" pt_clust_5="92.54807" pt_clust_6="14000.00000"></scales>
<clustering>
<clus scale="   35.724">  2  3  1 -1</clus>
<clus scale="   91.948">  2  4  1 -1</clus>
<clus scale="   92.548">  2  5  1 -1</clus>
<clus scale="   92.548">  1  3  2 -1</clus>
</clustering>
</event>
<event>
 6    0  0.1361919E+003  0.1430812E+03  0.7546771E-02  0.1209242E+00
         21   -1    0    0  503  501  0.00000000000E+00  0.00000000000E+00  0.54305677987E+03  0.54305677987E+03  0.00000000000E+00 0.  1.
         21   -1    0    0  504  502 -0.00000000000E+00 -0.00000000000E+00 -0.13578167726E+04  0.13578167726E+04  0.00000000000E+00 0.  1.
         21    1    1    2  503  505 -0.30934263839E+02 -0.63628612799E+01  0.21046269717E+03  0.21281908181E+03  0.00000000000E+00 0. -1.
         21    1    1    2  504  506 -0.33880405700E+02  0.16457645579E+03 -0.60046773706E+03  0.62353411690E+03  0.00000000000E+00 0.  1.
         21    1    1    2  505  502 -0.37251533311E+02 -0.41428575308E+02 -0.72470455859E+03  0.72684296848E+03  0.00000000000E+00 0. -1.
         21    1    1    2  506  501  0.10206620285E+03 -0.11678501920E+03  0.29994960581E+03  0.33767738523E+03  0.00000000000E+00 0.  1.
<scales pt_clust_3="31.58187" pt_clust_4="14000.00000" pt_clust_5="55.79561" pt_clust_6="143.08117"></scales>
<clustering>
<clus scale="   31.582">  1  3  2 -1</clus>
<clus scale="   55.796">  2  5  1 -1</clus>
<clus scale="  143.081">  1  6  2 -1</clus>
<clus scale="   31.582">  1  3  2 -1</clus>
</clustering>
</event>
<event>
 6    0  0.1361919E+003  0.3476281E+03  0.7546771E-02  0.1063593E+00
         21   -1    0    0  503  501  0.00000000000E+00  0.00000000000E+00  0.49107437350E+03  0.49107437350E+03  0.00000000000E+00 0. -1.
         21   -1    0    0  506  502 -0.00000000000E+00 -0.00000000000E+00 -0.68381534156E+03  0.68381534156E+03  0.00000000000E+00 0. -1.
         21    1    1    2  503  504  0.44018134377E+01 -0.18113098521E+03  0.28572653331E+03  0.33833040301E+03  0.00000000000E+00 0. -1.
         21    1    1    2  504  505 -0.10201798865E+01 -0.14769992185E+03  0.84382437773E+02  0.17010791718E+03  0.00000000000E+00 0. -1.
         21    1    1    2  505  502  0.30532029570E+02  0.31976587220E+03 -0.49568186257E+03  0.59066312458E+03  0.00000000000E+00 0. -1.
         21    1    1    2  506  501 -0.33913663121E+02  0.90650348686E+01 -0.67168076566E+02  0.75788270287E+02  0.00000000000E+00 0. -1.
<scales pt_clust_3="104.37770" pt_clust_4="104.37770" pt_clust_5="327.80730" pt_clust_6="35.10429"></scales>
<clustering>
<clus scale="   35.104">  2  6  1 -1</clus>
<clus scale="  104.378">  3  4 -1 -1</clus>
<clus scale="  327.807">  2  5  1 -1</clus>
<clus scale="  347.628">  1  3  2 -1</clus>
</clustering>
</event>
<event>
 6    0  0.1361919E+003  0.7007887E+02  0.7546771E-02  0.1359825E+00
         21   -1    0    0  503  501  0.00000000000E+00  0.00000000000E+00  0.20595231893E+03  0.20595231893E+03  0.00000000000E+00 0. -1.
         21   -1    0    0  505  502 -0.00000000000E+00 -0.00000000000E+00 -0.16714461020E+04  0.16714461020E+04  0.00000000000E+00 0. -1.
         21    1    1    2  503  506 -0.44687377597E+02 -0.58621656048E+02 -0.38254603663E+02  0.83047426063E+02  0.00000000000E+00 0. -1.
         21    1    1    2  504  501 -0.12031940375E+02  0.71154140332E+02  0.17318532521E+03  0.18761885871E+03  0.00000000000E+00 0. -1.
         21    1    1    2  505  504  0.11610859029E+02  0.37808574580E+02 -0.16339339276E+03  0.16811216838E+03  0.00000000000E+00 0. -1.
         21    1    1    2  506  502  0.45108458943E+02 -0.50341058863E+02 -0.14370311118E+04  0.14386199677E+04  0.00000000000E+00 0. -1.
<scales pt_clust_3="70.07887" pt_clust_4="14000.00000" pt_clust_5="39.55124" pt_clust_6="57.97128"></scales>
<clustering>
<clus scale="   39.551">  2  5  1 -1</clus>
<clus scale="   57.971">  2  6  1 -1</clus>
<clus scale="   70.079">  2  3  1 -1</clus>
<clus scale="   70.079">  1  3  2 -1</clus>
</clustering>
</event>
<event>
 6    0  0.1361919E+003  0.7926665E+02  0.7546771E-02  0.1331146E+00
         21   -1    0    0  506  501  0.00000000000E+00  0.00000000000E+00  0.19537251133E+03  0.19537251133E+03  0.00000000000E+00 0. -1.
         21   -1    0    0  504  502 -0.00000000000E+00 -0.00000000000E+00 -0.29086312541E+03  0.29086312541E+03  0.00000000000E+00 0. -1.
         21    1    1    2  503  501  0.76135396485E+02 -0.70048705993E+02  0.12256198034E+03  0.16038970926E+03  0.00000000000E+00 0. -1.
         21    1    1    2  504  503  0.31056688289E+02  0.55347703136E+02 -0.16731161372E+03  0.17894429920E+03  0.00000000000E+00 0. -1.
         21    1    1    2  505  502 -0.47546609337E+02  0.30113881942E+02 -0.62584756469E+02  0.84168745311E+02  0.00000000000E+00 0. -1.
         21    1    1    2  506  505 -0.59645475438E+02 -0.15412879085E+02  0.11843775772E+02  0.62732882975E+02  0.00000000000E+00 0. -1.
<scales pt_clust_3="79.26665" pt_clust_4="14000.00000" pt_clust_5="56.28078" pt_clust_6="66.28323"></scales>
<clustering>
<clus scale="   56.281">  2  5  1 -1</clus>
<clus scale="   66.283">  1  6  2 -1</clus>
<clus scale="   79.267">  1  3  2 -1</clus>
<clus scale="   66.283">  1  3  2 -1</clus>
</clustering>
</event>
<event>
 6    0  0.1361919E+003  0.1311111E+03  0.7546771E-02  0.1225816E+00
         21   -1    0    0  504  501  0.00000000000E+00  0.00000000000E+00  0.55787810572E+03  0.55787810572E+03  0.00000000000E+00 0.  1.
         21   -1    0    0  503  502 -0.00000000000E+00 -0.00000000000E+00 -0.20767138063E+03  0.20767138063E+03  0.00000000000E+00 0.  1.
         21    1    1    2  503  505  0.44557471982E+02  0.34828748478E+01 -0.34467193445E+02  0.56440111185E+02  0.00000000000E+00 0.  1.
         21    1    1    2  504  502 -0.66898212758E+02 -0.59273506468E+02 -0.46764713679E+01  0.89501892849E+02  0.00000000000E+00 0.  1.
         21    1    1    2  505  506  0.62086926526E+02  0.88398092349E+02 -0.88102139977E+02  0.13939510840E+03  0.00000000000E+00 0.  1.
         21    1    1    2  506  501 -0.39746185750E+02 -0.32607460728E+02  0.47745252988E+03  0.48021237392E+03  0.00000000000E+00 0.  1.
<scales pt_clust_3="38.12461" pt_clust_4="116.94905" pt_clust_5="38.12461" pt_clust_6="51.41017"></scales>
<clustering>
<clus scale="   38.125">  3  5 -1 -1</clus>
<clus scale="   51.410">  1  6  2 -1</clus>
<clus scale="  116.949">  1  4  2 -1</clus>
<clus scale="   51.410">  1  3  2 -1</clus>
</clustering>
</event>
<event>
 6    0  0.1361919E+003  0.1188030E+03  0.7546771E-02  0.1245085E+00
         21   -1    0    0  504  501  0.00000000000E+00  0.00000000000E+00  0.43350763692E+02  0.43350763692E+02  0.00000000000E+00 0.  1.
         21   -1    0    0  505  502 -0.00000000000E+00 -0.00000000000E+00 -0.26179410671E+04  0.26179410671E+04  0.00000000000E+00 0.  1.
         21    1    1    2  503  506  0.55139004414E+02  0.99573363266E+02 -0.13616722016E+03  0.17747302985E+03  0.00000000000E+00 0.  1.
         21    1    1    2  504  502  0.30347596934E+02 -0.23119589216E+02 -0.56413121446E+02  0.68102366453E+02  0.00000000000E+00 0.  1.
         21    1    1    2  505  503 -0.50986308667E+02 -0.10772432295E+03 -0.23620513211E+04  0.23650561467E+04  0.00000000000E+00 0.  1.
         21    1    1    2  506  501 -0.34500292680E+02  0.31270548904E+02 -0.19958640733E+02  0.50660287836E+02  0.00000000000E+00 0.  1.
<scales pt_clust_3="14000.00000" pt_clust_4="38.15091" pt_clust_5="118.80298" pt_clust_6="31.03364"></scales>
<clustering>
<clus scale="   38.151">  1  4  2 -1</clus>
<clus scale="   31.034">  1  6  2 -1</clus>
<clus scale="  118.803">  2  5  1 -1</clus>
<clus scale="   38.151">  1  3  2 -1</clus>
</clustering>
</event>
<event>
 6    0  0.1361919E+003  0.6503424E+03  0.7546771E-02  0.9806137E-01
         21   -1    0    0  503  501  0.00000000000E+00  0.00000000000E+00  0.16537350048E+04  0.16537350048E+04  0.00000000000E+00 0. -1.
         21   -1    0    0  505  502 -0.00000000000E+00 -0.00000000000E+00 -0.15789571726E+04  0.15789571726E+04  0.00000000000E+00 0. -1.
         21    1    1    2  503  504  0.37585231659E+03 -0.29443958270E+03 -0.13311534206E+04  0.14141884814E+04  0.00000000000E+00 0. -1.
         21    1    1    2  504  502  0.67692587518E+02 -0.20287874461E+03 -0.23591349208E+02  0.21517114857E+03  0.00000000000E+00 0. -1.
         21    1    1    2  505  506 -0.39124073723E+03  0.49958900361E+03  0.11018812455E+04  0.12715348073E+04  0.00000000000E+00 0. -1.
         21    1    1    2  506  501 -0.52304166880E+02 -0.22706762996E+01  0.32764135655E+03  0.33179774014E+03  0.00000000000E+00 0. -1.
<scales pt_clust_3="14000.00000" pt_clust_4="212.86325" pt_clust_5="650.34244" pt_clust_6="52.35343"></scales>
<clustering>
<clus scale="   52.353">  1  6  2 -1</clus>
<clus scale="  212.863">  2  4  1 -1</clus>
<clus scale="  650.342">  1  5  2 -1</clus>
<clus scale="   52.353">  1  3  2 -1</clus>
</clustering>
</event>
<event>
 6    0  0.1361919E+003  0.1061157E+03  0.7546771E-02  0.1267937E+00
         21   -1    0    0  503  501  0.00000000000E+00  0.00000000000E+00  0.19667304434E+03  0.19667304434E+03  0.00000000000E+00 0. -1.
         21   -1    0    0  504  502 -0.00000000000E+00 -0.00000000000E+00 -0.26793865095E+03  0.26793865095E+03  0.00000000000E+00 0. -1.
         21    1    1    2  503  502 -0.44024043227E+02  0.15504140533E+02 -0.49086886497E+02  0.67734903718E+02  0.00000000000E+00 0. -1.
         21    1    1    2  504  505 -0.25573588970E+02 -0.30324706208E+02 -0.12878373776E+03  0.13475476753E+03  0.00000000000E+00 0. -1.
         21    1    1    2  505  506  0.28209443022E+02 -0.94134235878E+02 -0.80881265082E+01  0.98602458541E+02  0.00000000000E+00 0. -1.
         21    1    1    2  506  501  0.41388189174E+02  0.10895480155E+03  0.11469314416E+03  0.16351956550E+03  0.00000000000E+00 0. -1.
<scales pt_clust_3="55.05065" pt_clust_4="39.66858" pt_clust_5="14000.00000" pt_clust_6="106.11573"></scales>
<clustering>
<clus scale="   39.669">  2  4  1 -1</clus>
<clus scale="   55.051">  2  3  1 -1</clus>
<clus scale="  106.116">  1  6  2 -1</clus>
<clus scale="  106.116">  1  3  2 -1</clus>
</clustering>
</event>
<event>
 6    0  0.1361919E+003  0.2775542E+03  0.7546771E-02  0.1097032E+00
         21   -1    0    0  506  501  0.00000000000E+00  0.00000000000E+00  0.54523674945E+03  0.54523674945E+03  0.00000000000E+00 0. -1.
         21   -1    0    0  503  502 -0.00000000000E+00 -0.00000000000E+00 -0.12632370189E+04  0.12632370189E+04  0.00000000000E+00 0.  1.
         21    1    1    2  503  504 -0.38230093540E+02 -0.91574633138E+02 -0.51996829675E+03  0.52935289090E+03  0.00000000000E+00 0.  1.
         21    1    1    2  504  501  0.27517889748E+03 -0.13267201386E+02  0.47912209022E+03  0.55268202576E+03  0.00000000000E+00 0. -1.
         21    1    1    2  505  502 -0.16407305065E+03  0.62819228716E+02 -0.50797827559E+03  0.53750176736E+03  0.00000000000E+00 0.  1.
         21    1    1    2  506  505 -0.72875753296E+02  0.42022605808E+02 -0.16917578734E+03  0.18893708434E+03  0.00000000000E+00 0. -1.
<scales pt_clust_3="99.23434" pt_clust_4="273.85598" pt_clust_5="31.24795" pt_clust_6="31.24795"></scales>
<clustering>
<clus scale="   31.248">  5  6 -1 -1</clus>
<clus scale="   99.234">  2  3  1 -1</clus>
<clus scale="  273.856">  1  4  2 -1</clus>
<clus scale="  273.856">  1  3  2 -1</clus>
</clustering>
</event>
<event>
 6    0  0.1361919E+003  0.1012138E+03  0.7546771E-02  0.1277764E+00
         21   -1    0    0  503  501  0.00000000000E+00  0.00000000000E+00  0.23607675460E+04  0.23607675460E+04  0.00000000000E+00 0. -1.
         21   -1    0    0  506  502 -0.00000000000E+00 -0.00000000000E+00 -0.74758699544E+02  0.74758699544E+02  0.00000000000E+00 0. -1.
         21    1    1    2  503  504 -0.21089457125E+02  0.26776734769E+02  0.10800015136E+04  0.10805392303E+04  0.00000000000E+00 0. -1.
         21    1    1    2  504  502  0.25250844976E+02  0.12042623532E+03  0.19302523300E+03  0.22890789392E+03  0.00000000000E+00 0. -1.
         21    1    1    2  505  501  0.15005576770E+02 -0.12001348463E+03  0.10608855706E+04  0.10677577430E+04  0.00000000000E+00 0. -1.
         21    1    1    2  506  505 -0.19166964620E+02 -0.27189485457E+02 -0.47903470812E+02  0.58321378310E+02  0.00000000000E+00 0. -1.
<scales pt_clust_3="33.96889" pt_clust_4="14000.00000" pt_clust_5="101.21379" pt_clust_6="33.26621"></scales>
<clustering>
<clus scale="   33.266">  2  6  1 -1</clus>
<clus scale="   33.969">  1  3  2 -1</clus>
<clus scale="  101.214">  1  5  2 -1</clus>
<clus scale="   33.969">  1  3  2 -1</clus>
</clustering>
</event>
<event>
 6    0  0.1361919E+003  0.9088555E+02  0.7546771E-02  0.1300721E+00
         21   -1    0    0  503  501  0.00000000000E+00  0.00000000000E+00  0.19807441981E+03  0.19807441981E+03  0.00000000000E+00 0.  1.
         21   -1    0    0  506  502 -0.00000000000E+00 -0.00000000000E+00 -0.53382752489E+03  0.53382752489E+03  0.00000000000E+00 0.  1.
         21    1    1    2  503  505 -0.89185463493E+02  0.26822295234E+02  0.36249215774E+02  0.99937420741E+02  0.00000000000E+00 0.  1.
         21    1    1    2  504  501  0.31750217155E+02 -0.20883103769E+02  0.10846529307E+03  0.11492997917E+03  0.00000000000E+00 0.  1.
         21    1    1    2  505  502  0.14374060077E+01  0.83047063913E+02 -0.16915870298E+03  0.18845038539E+03  0.00000000000E+00 0.  1.
         21    1    1    2  506  504  0.55997840330E+02 -0.88986255379E+02 -0.31130891095E+03  0.32858415939E+03  0.00000000000E+00 0.  1.
<scales pt_clust_3="64.98687" pt_clust_4="38.00237" pt_clust_5="14000.00000" pt_clust_6="90.88555"></scales>
<clustering>
<clus scale="   38.002">  1  4  2 -1</clus>
<clus scale="   64.987">  1  3  2 -1</clus>
<clus scale="   90.886">  2  6  1 -1</clus>
<clus scale="   38.002">  1  3  2 -1</clus>
</clustering>
</event>
<event>
 6    0  0.1361919E+003  0.7913888E+02  0.7546771E-02  0.1331513E+00
         21   -1    0    0  506  501  0.00000000000E+00  0.00000000000E+00  0.37260403829E+03  0.37260403829E+03  0.00000000000E+00 0. -1.
         21   -1    0    0  504  502 -0.00000000000E+00 -0.00000000000E+00 -0.31619518740E+03  0.31619518740E+03  0.00000000000E+00 0.  1.
         21    1    1    2  503  501 -0.95026086990E+01 -0.37737001011E+02  0.83166612105E+02  0.91820837430E+02  0.00000000000E+00 0. -1.
         21    1    1    2  504  503  0.62083432817E+02 -0.23338605468E+02  0.43737198332E+02  0.79448005975E+02  0.00000000000E+00 0. -1.
         21    1    1    2  505  502 -0.23584558635E+02 -0.54514202956E+02 -0.27472562570E+03  0.28107329853E+03  0.00000000000E+00 0.  1.
         21    1    1    2  506  505 -0.28996265483E+02  0.11558980944E+03  0.20423066615E+03  0.23645708375E+03  0.00000000000E+00 0. -1.
<scales pt_clust_3="38.91505" pt_clust_4="14000.00000" pt_clust_5="59.82481" pt_clust_6="79.13888"></scales>
<clustering>
<clus scale="   38.915">  1  3  2 -1</clus>
<clus scale="   59.825">  2  5  1 -1</clus>
<clus scale="   79.139">  1  6  2 -1</clus>
<clus scale="   38.915">  1  3  2 -1</clus>
</clustering>
</event>
<event>
 6    0  0.1361919E+003  0.1712525E+03  0.7546771E-02  0.1176548E+00
         21   -1    0    0  506  501  0.00000000000E+00  0.00000000000E+00  0.35713475314E+03  0.35713475314E+03  0.00000000000E+00 0. -1.
         21   -1    0    0  504  502 -0.00000000000E+00 -0.00000000000E+00 -0.19170978293E+04  0.19170978293E+04  0.00000000000E+00 0.  1.
         21    1    1    2  503  502  0.23632416343E+02  0.96483949213E+02 -0.14239293740E+04  0.14273901028E+04  0.00000000000E+00 0.  1.
         21    1    1    2  504  501 -0.11796219624E+03 -0.92106007326E+02  0.28262299109E+03  0.31980361383E+03  0.00000000000E+00 0. -1.
         21    1    1    2  505  503  0.13390577165E+03 -0.15721690031E+02 -0.45349143035E+03  0.47310929458E+03  0.00000000000E+00 0.  1.
         21    1    1    2  506  505 -0.39575991753E+02  0.11343748143E+02  0.34834737071E+02  0.53929571220E+02  0.00000000000E+00 0. -1.
<scales pt_clust_3="99.34514" pt_clust_4="171.25248" pt_clust_5="14000.00000" pt_clust_6="41.16965"></scales>
<clustering>
<clus scale="   41.170">  1  6  2 -1</clus>
<clus scale="   99.345">  2  3  1 -1</clus>
<clus scale="  171.252">  1  4  2 -1</clus>
<clus scale="   41.170">  1  3  2 -1</clus>
</clustering>
</event>
<event>
 6    0  0.1361919E+003  0.8268587E+02  0.7546771E-02  0.1321598E+00
         21   -1    0    0  504  501  0.00000000000E+00  0.00000000000E+00  0.48085633820E+03  0.48085633820E+03  0.00000000000E+00 0. -1.
         21   -1    0    0  506  502 -0.00000000000E+00 -0.00000000000E+00 -0.64065137707E+02  0.64065137707E+02  0.00000000000E+00 0. -1.
         21    1    1    2  503  501  0.40147985659E+02 -0.37286598085E+02  0.90254924226E+02  0.10558457509E+03  0.00000000000E+00 0. -1.
         21    1    1    2  504  505 -0.10737026163E+02  0.10217581155E+03  0.28010832259E+03  0.29835524561E+03  0.00000000000E+00 0. -1.
         21    1    1    2  505  502 -0.29746619209E+02 -0.95232350887E+02  0.22345691569E+02  0.10224183068E+03  0.00000000000E+00 0. -1.
         21    1    1    2  506  503  0.33565971268E+00  0.30343137424E+02  0.24082262103E+02  0.38739824525E+02  0.00000000000E+00 0. -1.
<scales pt_clust_3="52.12395" pt_clust_4="82.68587" pt_clust_5="14000.00000" pt_clust_6="30.34499"></scales>
<clustering>
<clus scale="   30.345">  2  6  1 -1</clus>
<clus scale="   52.124">  1  3  2 -1</clus>
<clus scale="   82.686">  1  4  2 -1</clus>
<clus scale="   52.124">  1  3  2 -1</clus>
</clustering>
</event>
<event>
 6    0  0.1361919E+003  0.8794629E+02  0.7546771E-02  0.1307903E+00
         21   -1    0    0  504  501  0.00000000000E+00  0.00000000000E+00  0.67544048551E+03  0.67544048551E+03  0.00000000000E+00 0.  1.
         21   -1    0    0  506  502 -0.00000000000E+00 -0.00000000000E+00 -0.11620456548E+04  0.11620456548E+04  0.00000000000E+00 0. -1.
         21    1    1    2  503  502 -0.70265626186E+02  0.57640024153E+02 -0.99888287046E+03  0.10030087834E+04  0.00000000000E+00 0. -1.
         21    1    1    2  504  503 -0.25540269082E+02 -0.82149900606E+02 -0.11281993225E+02  0.86765170924E+02  0.00000000000E+00 0. -1.
         21    1    1    2  505  501  0.49522067226E+02  0.24247271333E+01  0.62874202547E+03  0.63069394245E+03  0.00000000000E+00 0.  1.
         21    1    1    2  506  505  0.46283828042E+02  0.22085149320E+02 -0.10518233104E+03  0.11701824355E+03  0.00000000000E+00 0.  1.
<scales pt_clust_3="14000.00000" pt_clust_4="87.94629" pt_clust_5="49.58139" pt_clust_6="57.25668"></scales>
<clustering>
<clus scale="   49.581">  1  5  2 -1</clus>
<clus scale="   57.257">  1  6  2 -1</clus>
<clus scale="   87.946">  1  4  2 -1</clus>
<clus scale="   49.581">  1  3  2 -1</clus>
</clustering>
</event>
<event>
 6    0  0.1361919E+003  0.9877863E+02  0.7546771E-02  0.1282885E+00
         21   -1    0    0  504  501  0.00000000000E+00  0.00000000000E+00  0.12950255463E+04  0.12950255463E+04  0.00000000000E+00 0.  1.
         21   -1    0    0  505  502 -0.00000000000E+00 -0.00000000000E+00 -0.87534658440E+02  0.87534658440E+02  0.00000000000E+00 0. -1.
         21    1    1    2  503  501 -0.26979007843E+02 -0.21684634614E+02  0.93028823787E+03  0.93093195012E+03  0.00000000000E+00 0.  1.
         21    1    1    2  504  502  0.40856160929E+02  0.11108167500E+03  0.43627475659E+02  0.12614167051E+03  0.00000000000E+00 0.  1.
         21    1    1    2  505  506  0.33794178192E+02 -0.34477303232E+02 -0.26750720256E+02  0.55193586149E+02  0.00000000000E+00 0. -1.
         21    1    1    2  506  503 -0.47671331279E+02 -0.54919737149E+02  0.26032589462E+03  0.27029299799E+03  0.00000000000E+00 0.  1.
<scales pt_clust_3="34.61344" pt_clust_4="98.77863" pt_clust_5="48.16375" pt_clust_6="14000.00000"></scales>
<clustering>
<clus scale="   34.613">  1  3  2 -1</clus>
<clus scale="   48.164">  2  5  1 -1</clus>
<clus scale="   98.779">  2  4  1 -1</clus>
<clus scale="   34.613">  1  3  2 -1</clus>
</clustering>
</event>
<event>
 6    0  0.1361919E+003  0.1025170E+03  0.7546771E-02  0.1275090E+00
         21   -1    0    0  505  501  0.00000000000E+00  0.00000000000E+00  0.73948402588E+03  0.73948402588E+03  0.00000000000E+00 0. -1.
         21   -1    0    0  503  502 -0.00000000000E+00 -0.00000000000E+00 -0.16415567306E+03  0.16415567306E+03  0.00000000000E+00 0. -1.
         21    1    1    2  503  506 -0.66466222239E+02  0.51902651738E+02 -0.43837276195E+02  0.95043941103E+02  0.00000000000E+00 0. -1.
         21    1    1    2  504  502 -0.36740772474E+02 -0.76860054478E+02 -0.62583321335E+02  0.10570725824E+03  0.00000000000E+00 0. -1.
         21    1    1    2  505  504  0.13073861978E+03  0.89466994454E+01  0.61660007405E+03  0.63037154239E+03  0.00000000000E+00 0. -1.
         21    1    1    2  506  501 -0.27531625065E+02  0.16010703295E+02  0.65148876299E+02  0.72516957202E+02  0.00000000000E+00 0. -1.
<scales pt_clust_3="14000.00000" pt_clust_4="85.11354" pt_clust_5="102.51699" pt_clust_6="31.84859"></scales>
<clustering>
<clus scale="   31.849">  1  6  2 -1</clus>
<clus scale="   85.114">  2  4  1 -1</clus>
<clus scale="  102.517">  1  5  2 -1</clus>
<clus scale="   31.849">  1  3  2 -1</clus>
</clustering>
</event>
<event>
 6    0  0.1361919E+003  0.8826470E+02  0.7546771E-02  0.1307109E+00
         21   -1    0    0  505  501  0.00000000000E+00  0.00000000000E+00  0.20697441987E+03  0.20697441987E+03  0.00000000000E+00 0. -1.
         21   -1    0    0  506  502 -0.00000000000E+00 -0.00000000000E+00 -0.40627539179E+03  0.40627539179E+03  0.00000000000E+00 0. -1.
         21    1    1    2  503  502 -0.70374251074E+02 -0.46105195136E+02 -0.51265524345E+01  0.84288230333E+02  0.00000000000E+00 0. -1.
         21    1    1    2  504  501 -0.35739021802E+01  0.55656847527E+02 -0.39637167586E+02  0.68421944635E+02  0.00000000000E+00 0.  1.
         21    1    1    2  505  503 -0.13695136236E+02 -0.28859371001E+02  0.14467430765E+03  0.14815895297E+03  0.00000000000E+00 0. -1.
         21    1    1    2  506  504  0.87643289490E+02  0.19307718610E+02 -0.29921155956E+03  0.31238068372E+03  0.00000000000E+00 0. -1.
<scales pt_clust_3="88.26470" pt_clust_4="49.27351" pt_clust_5="31.94401" pt_clust_6="14000.00000"></scales>
<clustering>
<clus scale="   31.944">  1  5  2 -1</clus>
<clus scale="   49.274">  1  4  2 -1</clus>
<clus scale="   88.265">  1  3  2 -1</clus>
<clus scale="   31.944">  1  3  2 -1</clus>
</clustering>
</event>
<event>
 6    0  0.1361919E+003  0.2034568E+03  0.7546771E-02  0.1146855E+00
         21   -1    0    0  503  501  0.00000000000E+00  0.00000000000E+00  0.57159690717E+03  0.57159690717E+03  0.00000000000E+00 0. -1.
         21   -1    0    0  506  502 -0.00000000000E+00 -0.00000000000E+00 -0.12502579925E+03  0.12502579925E+03  0.00000000000E+00 0. -1.
         21    1    1    2  503  505  0.29687053528E+02  0.16167964412E+03  0.22327629105E+03  0.27726148419E+03  0.00000000000E+00 0. -1.
         21    1    1    2  504  501 -0.49039209269E+02 -0.57797634979E+02  0.13024312603E+03  0.15069400298E+03  0.00000000000E+00 0.  1.
         21    1    1    2  505  502  0.44238277588E+02  0.47497456681E+02 -0.30474499785E+02  0.71705848662E+02  0.00000000000E+00 0.  1.
         21    1    1    2  506  504 -0.24886121847E+02 -0.15137946582E+03  0.12352619062E+03  0.19696137058E+03  0.00000000000E+00 0. -1.
<scales pt_clust_3="184.79529" pt_clust_4="59.83179" pt_clust_5="64.90789" pt_clust_6="59.83179"></scales>
<clustering>
<clus scale="   59.832">  4  6 -1 -1</clus>
<clus scale="   64.908">  2  5  1 -1</clus>
<clus scale="  184.795">  1  3  2 -1</clus>
<clus scale="  184.795">  1  3  2 -1</clus>
</clustering>
</event>
<event>
 6    0  0.1361919E+003  0.1480273E+03  0.7546771E-02  0.1202918E+00
         21   -1    0    0  504  501  0.00000000000E+00  0.00000000000E+00  0.20837479943E+03  0.20837479943E+03  0.00000000000E+00 0. -1.
         21   -1    0    0  503  502 -0.00000000000E+00 -0.00000000000E+00 -0.42829441314E+03  0.42829441314E+03  0.00000000000E+00 0. -1.
         21    1    1    2  503  505  0.78675630228E+01  0.15465941639E+03 -0.10804982006E+03  0.18882848631E+03  0.00000000000E+00 0. -1.
         21    1    1    2  504  506 -0.16006491024E+03 -0.96896492616E+02 -0.10224645427E+03  0.21322298934E+03  0.00000000000E+00 0. -1.
         21    1    1    2  505  501  0.10561605754E+03 -0.18970491989E+02  0.74714199433E+02  0.13075489579E+03  0.00000000000E+00 0.  1.
         21    1    1    2  506  502  0.46581289683E+02 -0.38792431789E+02 -0.84337538822E+02  0.10386284113E+03  0.00000000000E+00 0. -1.
<scales pt_clust_3="148.02730" pt_clust_4="14000.00000" pt_clust_5="111.75354" pt_clust_6="60.61905"></scales>
<clustering>
<clus scale="   60.619">  2  6  1 -1</clus>
<clus scale="  111.754">  1  5  2 -1</clus>
<clus scale="  148.027">  2  3  1 -1</clus>
<clus scale="  111.754">  1  3  2 -1</clus>
</clustering>
</event>
<event>
 6    0  0.1361919E+003  0.9137052E+02  0.7546771E-02  0.1299566E+00
         21   -1    0    0  505  501  0.00000000000E+00  0.00000000000E+00  0.15610923770E+03  0.15610923770E+03  0.00000000000E+00 0.  1.
         21   -1    0    0  503  502 -0.00000000000E+00 -0.00000000000E+00 -0.20186223679E+03  0.20186223679E+03  0.00000000000E+00 0.  1.
         21    1    1    2  503  506 -0.26865011736E+02 -0.41077751452E+02 -0.25674044123E+02  0.55391940402E+02  0.00000000000E+00 0.  1.
         21    1    1    2  504  501  0.22846582626E+02 -0.20701526239E+02  0.67566989166E+02  0.74268550217E+02  0.00000000000E+00 0.  1.
         21    1    1    2  505  502  0.14476114395E+02 -0.58218784204E+02 -0.89615354469E+02  0.10784199775E+03  0.00000000000E+00 0.  1.
         21    1    1    2  506  504 -0.10457685285E+02  0.11999806189E+03  0.19694103367E+01  0.12046898612E+03  0.00000000000E+00 0.  1.
<scales pt_clust_3="50.20519" pt_clust_4="30.83050" pt_clust_5="14000.00000" pt_clust_6="91.37052"></scales>
<clustering>
<clus scale="   30.830">  1  4  2 -1</clus>
<clus scale="   50.205">  2  3  1 -1</clus>
<clus scale="   91.371">  1  6  2 -1</clus>
<clus scale="   30.830">  1  3  2 -1</clus>
</clustering>
</event>
<event>
 6    0  0.1361919E+003  0.8253608E+02  0.7546771E-02  0.1322005E+00
         21   -1    0    0  505  501  0.00000000000E+00  0.00000000000E+00  0.12829867450E+03  0.12829867450E+03  0.00000000000E+00 0.  1.
         21   -1    0    0  506  502 -0.00000000000E+00 -0.00000000000E+00 -0.44988316039E+03  0.44988316039E+03  0.00000000000E+00 0.  1.
         21    1    1    2  503  502  0.30377869126E+02  0.25658236530E+01 -0.28647663561E+02  0.41834041296E+02  0.00000000000E+00 0.  1.
         21    1    1    2  504  501 -0.29073500966E+02 -0.14026985113E+02  0.50188731900E+02  0.59673558461E+02  0.00000000000E+00 0.  1.
         21    1    1    2  505  503  0.10223122012E+03  0.26929815446E+02  0.12040017049E+02  0.10640206453E+03  0.00000000000E+00 0.  1.
         21    1    1    2  506  504 -0.10353558828E+03 -0.15468653986E+02 -0.35516557128E+03  0.37027217060E+03  0.00000000000E+00 0.  1.
<scales pt_clust_3="30.48604" pt_clust_4="31.95497" pt_clust_5="82.53608" pt_clust_6="14000.00000"></scales>
<clustering>
<clus scale="   30.486">  2  3  1 -1</clus>
<clus scale="   31.955">  1  4  2 -1</clus>
<clus scale="   82.536">  1  5  2 -1</clus>
<clus scale="   31.955">  1  3  2 -1</clus>
</clustering>
</event>
<event>
 6    0  0.1361919E+003  0.9331483E+02  0.7546771E-02  0.1295017E+00
         21   -1    0    0  504  501  0.00000000000E+00  0.00000000000E+00  0.17642868211E+03  0.17642868211E+03  0.00000000000E+00 0.  1.
         21   -1    0    0  506  502 -0.00000000000E+00 -0.00000000000E+00 -0.75975422128E+03  0.75975422128E+03  0.00000000000E+00 0.  1.
         21    1    1    2  503  502  0.53413039986E+02 -0.33970742970E+01 -0.85500830951E+02  0.10087063521E+03  0.00000000000E+00 0. -1.
         21    1    1    2  504  503  0.20274846660E+02 -0.11134733155E+03 -0.33475516883E+03  0.35336994879E+03  0.00000000000E+00 0.  1.
         21    1    1    2  505  501  0.12388707429E+02  0.64822805970E+02  0.14440305597E+03  0.15876938879E+03  0.00000000000E+00 0.  1.
         21    1    1    2  506  505 -0.86076594075E+02  0.49921599874E+02 -0.30747259535E+03  0.32317293060E+03  0.00000000000E+00 0.  1.
<scales pt_clust_3="53.52096" pt_clust_4="14000.00000" pt_clust_5="66.07060" pt_clust_6="93.31483"></scales>
<clustering>
<clus scale="   53.521">  2  3  1 -1</clus>
<clus scale="   66.071">  1  5  2 -1</clus>
<clus scale="   93.315">  2  6  1 -1</clus>
<clus scale="   66.071">  1  3  2 -1</clus>
</clustering>
</event>
<event>
 6    0  0.1361919E+003  0.1686745E+03  0.7546771E-02  0.1179237E+00
         21   -1    0    0  506  501  0.00000000000E+00  0.00000000000E+00  0.82840833827E+02  0.82840833827E+02  0.00000000000E+00 0.  1.
         21   -1    0    0  505  502 -0.00000000000E+00 -0.00000000000E+00 -0.12600488193E+04  0.12600488193E+04  0.00000000000E+00 0.  1.
         21    1    1    2  503  504 -0.38610037843E+01  0.10049283453E+03 -0.73256743644E+03  0.73943814215E+03  0.00000000000E+00 0.  1.
         21    1    1    2  504  502 -0.48605412786E+02  0.80587803424E+02 -0.21857908639E+03  0.23797835452E+03  0.00000000000E+00 0.  1.
         21    1    1    2  505  501 -0.76709841882E+01 -0.20780034248E+03 -0.11838404110E+03  0.23927935038E+03  0.00000000000E+00 0.  1.
         21    1    1    2  506  503  0.60137400758E+02  0.26719704527E+02 -0.10767742152E+03  0.12619380605E+03  0.00000000000E+00 0.  1.
<scales pt_clust_3="168.67452" pt_clust_4="93.43018" pt_clust_5="14000.00000" pt_clust_6="65.80615"></scales>
<clustering>
<clus scale="   65.806">  1  6  2 -1</clus>
<clus scale="   93.430">  2  4  1 -1</clus>
<clus scale="  168.675">  2  3  1 -1</clus>
<clus scale="   65.806">  1  3  2 -1</clus>
</clustering>
</event>
<event>
 6    0  0.1361919E+003  0.1026414E+03  0.7546771E-02  0.1274838E+00
         21   -1    0    0  505  501  0.00000000000E+00  0.00000000000E+00  0.11374267888E+03  0.11374267888E+03  0.00000000000E+00 0. -1.
         21   -1    0    0  503  502 -0.00000000000E+00 -0.00000000000E+00 -0.43078395688E+03  0.43078395688E+03  0.00000000000E+00 0.  1.
         21    1    1    2  503  506  0.53192359693E+02 -0.53741600018E+02 -0.31391865882E+03  0.32289705954E+03  0.00000000000E+00 0.  1.
         21    1    1    2  504  502  0.27961246301E+02 -0.20829801790E+02 -0.39737586722E+02  0.52865752012E+02  0.00000000000E+00 0.  1.
         21    1    1    2  505  504 -0.49278346854E+02  0.95735121857E+02 -0.10368950383E+02  0.10817154967E+03  0.00000000000E+00 0. -1.
         21    1    1    2  506  501 -0.31875259140E+02 -0.21163720049E+02  0.46983917923E+02  0.60592274548E+02  0.00000000000E+00 0. -1.
<scales pt_clust_3="14000.00000" pt_clust_4="34.86706" pt_clust_5="102.64137" pt_clust_6="38.05750"></scales>
<clustering>
<clus scale="   34.867">  2  4  1 -1</clus>
<clus scale="   38.057">  1  6  2 -1</clus>
<clus scale="  102.641">  1  5  2 -1</clus>
<clus scale="   38.057">  1  3  2 -1</clus>
</clustering>
</event>
<event>
 6    0  0.1361919E+003  0.1290309E+03  0.7546771E-02  0.1228901E+00
         21   -1    0    0  505  501  0.00000000000E+00  0.00000000000E+00  0.89490740201E+03  0.89490740201E+03  0.00000000000E+00 0. -1.
         21   -1    0    0  506  502 -0.00000000000E+00 -0.00000000000E+00 -0.24443881932E+03  0.24443881932E+03  0.00000000000E+00 0. -1.
         21    1    1    2  503  502  0.12158922002E+03 -0.39645796808E+02 -0.11779490697E+03  0.17387169907E+03  0.00000000000E+00 0. -1.
         21    1    1    2  504  501 -0.70995724961E+02  0.15290174903E+03  0.50851524590E+02  0.17608297866E+03  0.00000000000E+00 0. -1.
         21    1    1    2  505  503 -0.10452857293E+02 -0.12687597182E+03  0.73319128870E+03  0.74416143428E+03  0.00000000000E+00 0. -1.
         21    1    1    2  506  504 -0.40140637767E+02  0.13620019595E+02 -0.15779323631E+02  0.45230109312E+02  0.00000000000E+00 0.  1.
<scales pt_clust_3="98.99711" pt_clust_4="129.03091" pt_clust_5="14000.00000" pt_clust_6="42.38839"></scales>
<clustering>
<clus scale="   42.388">  2  6  1 -1</clus>
<clus scale="   98.997">  2  3  1 -1</clus>
<clus scale="  129.031">  2  4  1 -1</clus>
<clus scale="  129.031">  1  3  2 -1</clus>
</clustering>
</event>
<event>
 6    0  0.1361919E+003  0.1016007E+03  0.7546771E-02  0.1276965E+00
         21   -1    0    0  503  501  0.00000000000E+00  0.00000000000E+00  0.73536996392E+02  0.73536996392E+02  0.00000000000E+00 0.  1.
         21   -1    0    0  506  502 -0.00000000000E+00 -0.00000000000E+00 -0.17171843483E+04  0.17171843483E+04  0.00000000000E+00 0. -1.
         21    1    1    2  503  504 -0.71003632365E+02  0.39997563900E+02 -0.71331888320E+02  0.10830308961E+03  0.00000000000E+00 0.  1.
         21    1    1    2  504  502  0.12723875517E+03  0.14843987493E+02 -0.23499092458E+03  0.26763927107E+03  0.00000000000E+00 0. -1.
         21    1    1    2  505  501 -0.53853677308E+02  0.35003698919E+01  0.18987903603E+02  0.57210240624E+02  0.00000000000E+00 0.  1.
         21    1    1    2  506  505 -0.23814455000E+01 -0.58341921285E+02 -0.13563124426E+04  0.13575687434E+04  0.00000000000E+00 0. -1.
<scales pt_clust_3="101.60070" pt_clust_4="14000.00000" pt_clust_5="53.96732" pt_clust_6="58.37528"></scales>
<clustering>
<clus scale="   53.967">  1  5  2 -1</clus>
<clus scale="   58.375">  2  6  1 -1</clus>
<clus scale="  101.601">  1  3  2 -1</clus>
<clus scale="   53.967">  1  3  2 -1</clus>
</clustering>
</event>
<event>
 6    0  0.1361919E+003  0.9700162E+02  0.7546771E-02  0.1286731E+00
         21   -1    0    0  504  501  0.00000000000E+00  0.00000000000E+00  0.31547152345E+02  0.31547152345E+02  0.00000000000E+00 0. -1.
         21   -1    0    0  505  502 -0.00000000000E+00 -0.00000000000E+00 -0.78336552094E+03  0.78336552094E+03  0.00000000000E+00 0. -1.
         21    1    1    2  503  502  0.58055028989E+02 -0.97139122178E+02 -0.23637143417E+03  0.26206459193E+03  0.00000000000E+00 0. -1.
         21    1    1    2  504  503 -0.25616127847E+02 -0.16676502179E+02 -0.48118055752E+02  0.57005605164E+02  0.00000000000E+00 0.  1.
         21    1    1    2  505  506 -0.32167558333E+02  0.19684181237E+02 -0.31160609317E+03  0.31387987527E+03  0.00000000000E+00 0.  1.
         21    1    1    2  506  501 -0.27134280876E+00  0.94131443119E+02 -0.15572278551E+03  0.18196260093E+03  0.00000000000E+00 0. -1.
<scales pt_clust_3="97.00162" pt_clust_4="30.56619" pt_clust_5="38.28123" pt_clust_6="14000.00000"></scales>
<clustering>
<clus scale="   30.566">  1  4  2 -1</clus>
<clus scale="   38.281">  2  5  1 -1</clus>
<clus scale="   97.002">  2  3  1 -1</clus>
<clus scale="   30.566">  1  3  2 -1</clus>
</clustering>
</event>
<event>
 6    0  0.1361919E+003  0.7515728E+02  0.7546771E-02  0.1343385E+00
         21   -1    0    0  505  501  0.00000000000E+00  0.00000000000E+00  0.20226483375E+03  0.20226483375E+03  0.00000000000E+00 0. -1.
         21   -1    0    0  506  502 -0.00000000000E+00 -0.00000000000E+00 -0.13113844016E+03  0.13113844016E+03  0.00000000000E+00 0. -1.
         21    1    1    2  503  501 -0.20851009427E+02 -0.59120645275E+02  0.77561088662E+02  0.99728319780E+02  0.00000000000E+00 0. -1.
         21    1    1    2  504  502  0.71834081877E+02  0.46540112834E+02  0.13905485448E+02  0.86714934972E+02  0.00000000000E+00 0. -1.
         21    1    1    2  505  504  0.24010090527E+02 -0.40287955285E+02  0.14069335481E+02  0.48964783151E+02  0.00000000000E+00 0. -1.
         21    1    1    2  506  503 -0.74993162978E+02  0.52868487727E+02 -0.34409516009E+02  0.97995236006E+02  0.00000000000E+00 0. -1.
<scales pt_clust_3="80.47451" pt_clust_4="14000.00000" pt_clust_5="46.89993" pt_clust_6="75.15728"></scales>
<clustering>
<clus scale="   46.900">  1  5  2 -1</clus>
<clus scale="   80.475">  1  3  2 -1</clus>
<clus scale="   75.157">  2  6  1 -1</clus>
<clus scale="   46.900">  1  3  2 -1</clus>
</clustering>
</event>
<event>
 6    0  0.1361919E+003  0.1150022E+03  0.7546771E-02  0.1251577E+00
         21   -1    0    0  505  501  0.00000000000E+00  0.00000000000E+00  0.13314619530E+04  0.13314619530E+04  0.00000000000E+00 0. -1.
         21   -1    0    0  506  502 -0.00000000000E+00 -0.00000000000E+00 -0.16026881671E+03  0.16026881671E+03  0.00000000000E+00 0.  1.
         21    1    1    2  503  501  0.43920046240E+02 -0.48306826447E+02  0.32572255507E+03  0.33220129865E+03  0.00000000000E+00 0. -1.
         21    1    1    2  504  502 -0.13555019886E+02  0.41102078589E+02  0.88515045718E+01  0.44175429389E+02  0.00000000000E+00 0. -1.
         21    1    1    2  505  504  0.43434666948E+02  0.12179282580E+03  0.93712726743E+03  0.94600611947E+03  0.00000000000E+00 0. -1.
         21    1    1    2  506  503 -0.73799693301E+02 -0.11458807794E+03 -0.10050819078E+03  0.16934792219E+03  0.00000000000E+00 0.  1.
<scales pt_clust_3="64.39128" pt_clust_4="43.27955" pt_clust_5="14000.00000" pt_clust_6="115.00218"></scales>
<clustering>
<clus scale="   43.280">  2  4  1 -1</clus>
<clus scale="   64.391">  1  3  2 -1</clus>
<clus scale="  115.002">  2  6  1 -1</clus>
<clus scale="   64.391">  1  3  2 -1</clus>
</clustering>
</event>
<event>
 6    0  0.1361919E+003  0.1291594E+03  0.7546771E-02  0.1228708E+00
         21   -1    0    0  503  501  0.00000000000E+00  0.00000000000E+00  0.30288696174E+03  0.30288696174E+03  0.00000000000E+00 0. -1.
         21   -1    0    0  506  502 -0.00000000000E+00 -0.00000000000E+00 -0.21176552325E+04  0.21176552325E+04  0.00000000000E+00 0. -1.
         21    1    1    2  503  502 -0.48490054781E+02 -0.57013228959E+02 -0.20163067872E+04  0.20176954313E+04  0.00000000000E+00 0. -1.
         21    1    1    2  504  501  0.31347865134E+02  0.22142469775E+02  0.11713480924E+03  0.12326208319E+03  0.00000000000E+00 0. -1.
         21    1    1    2  505  504  0.36445560246E+02  0.12811452423E+03  0.11866257322E+03  0.17838838657E+03  0.00000000000E+00 0. -1.
         21    1    1    2  506  505 -0.19303370599E+02 -0.93243765046E+02 -0.34258866033E+02  0.10119629311E+03  0.00000000000E+00 0. -1.
<scales pt_clust_3="74.70385" pt_clust_4="38.37939" pt_clust_5="129.15944" pt_clust_6="14000.00000"></scales>
<clustering>
<clus scale="   38.379">  1  4  2 -1</clus>
<clus scale="   74.704">  2  3  1 -1</clus>
<clus scale="  129.159">  1  5  2 -1</clus>
<clus scale="   38.379">  1  3  2 -1</clus>
</clustering>
</event>
<event>
 6    0  0.1361919E+003  0.1065098E+03  0.7546771E-02  0.1267173E+00
         21   -1    0    0  505  501  0.00000000000E+00  0.00000000000E+00  0.79539253177E+03  0.79539253177E+03  0.00000000000E+00 0.  1.
         21   -1    0    0  504  502 -0.00000000000E+00 -0.00000000000E+00 -0.49392013437E+03  0.49392013437E+03  0.00000000000E+00 0.  1.
         21    1    1    2  503  501  0.40244927872E+02  0.10374900204E+02  0.89331478003E+02  0.98526167773E+02  0.00000000000E+00 0. -1.
         21    1    1    2  504  503  0.31010047188E+02 -0.23598444424E+01 -0.31556480435E+03  0.31709357867E+03  0.00000000000E+00 0.  1.
         21    1    1    2  505  506 -0.41131750653E+02  0.96527447145E+02  0.67915731920E+03  0.68721469220E+03  0.00000000000E+00 0.  1.
         21    1    1    2  506  502 -0.30123224407E+02 -0.10454250291E+03 -0.15145159545E+03  0.18647822749E+03  0.00000000000E+00 0.  1.
<scales pt_clust_3="42.32361" pt_clust_4="31.09971" pt_clust_5="106.50975" pt_clust_6="14000.00000"></scales>
<clustering>
<clus scale="   31.100">  2  4  1 -1</clus>
<clus scale="   42.324">  1  3  2 -1</clus>
<clus scale="  106.510">  1  5  2 -1</clus>
<clus scale="   42.324">  1  3  2 -1</clus>
</clustering>
</event>
<event>
 6    0  0.1361919E+003  0.1294545E+03  0.7546771E-02  0.1228267E+00
         21   -1    0    0  505  501  0.00000000000E+00  0.00000000000E+00  0.11615007995E+04  0.11615007995E+04  0.00000000000E+00 0. -1.
         21   -1    0    0  506  502 -0.00000000000E+00 -0.00000000000E+00 -0.20492950288E+03  0.20492950288E+03  0.00000000000E+00 0. -1.
         21    1    1    2  503  501 -0.41352717461E+02 -0.16289717226E+02  0.59980789374E+03  0.60145233520E+03  0.00000000000E+00 0. -1.
         21    1    1    2  504  502  0.15701192242E+03  0.38232777032E+02 -0.11296968422E+03  0.19717159678E+03  0.00000000000E+00 0. -1.
         21    1    1    2  505  504 -0.90546678461E+02  0.18539723486E+02  0.50189029226E+03  0.51032958742E+03  0.00000000000E+00 0. -1.
         21    1    1    2  506  503 -0.25112526502E+02 -0.40482783291E+02 -0.32157205207E+02  0.57476782939E+02  0.00000000000E+00 0. -1.
<scales pt_clust_3="44.44550" pt_clust_4="129.45454" pt_clust_5="14000.00000" pt_clust_6="48.44741"></scales>
<clustering>
<clus scale="   44.445">  1  3  2 -1</clus>
<clus scale="   48.447">  2  6  1 -1</clus>
<clus scale="  129.455">  2  4  1 -1</clus>
<clus scale="   44.445">  1  3  2 -1</clus>
</clustering>
</event>
<event>
 6    0  0.1361919E+003  0.7910545E+02  0.7546771E-02  0.1331609E+00
         21   -1    0    0  503  501  0.00000000000E+00  0.00000000000E+00  0.79061729109E+02  0.79061729109E+02  0.00000000000E+00 0. -1.
         21   -1    0    0  504  502 -0.00000000000E+00 -0.00000000000E+00 -0.94837241784E+03  0.94837241784E+03  0.00000000000E+00 0.  1.
         21    1    1    2  503  506  0.29993329022E+02  0.98193006902E+02 -0.42781380097E+03  0.43996149229E+03  0.00000000000E+00 0. -1.
         21    1    1    2  504  505 -0.34150164377E+02 -0.53219944293E+02 -0.72757923105E+02  0.96396636726E+02  0.00000000000E+00 0. -1.
         21    1    1    2  505  501  0.19911810739E+02 -0.75992767579E+02  0.34884917163E+02  0.85955444137E+02  0.00000000000E+00 0. -1.
         21    1    1    2  506  502 -0.15754975384E+02  0.31019704970E+02 -0.40362388182E+03  0.40512057381E+03  0.00000000000E+00 0.  1.
<scales pt_clust_3="79.10545" pt_clust_4="60.67804" pt_clust_5="14000.00000" pt_clust_6="34.79140"></scales>
<clustering>
<clus scale="   34.791">  2  6  1 -1</clus>
<clus scale="   60.678">  2  4  1 -1</clus>
<clus scale="   79.105">  2  3  1 -1</clus>
<clus scale="   79.105">  1  3  2 -1</clus>
</clustering>
</event>
<event>
 6    0  0.1361919E+003  0.7772635E+02  0.7546771E-02  0.1335630E+00
         21   -1    0    0  505  501  0.00000000000E+00  0.00000000000E+00  0.12705170804E+03  0.12705170804E+03  0.00000000000E+00 0. -1.
         21   -1    0    0  504  502 -0.00000000000E+00 -0.00000000000E+00 -0.33175945946E+03  0.33175945946E+03  0.00000000000E+00 0. -1.
         21    1    1    2  503  506  0.82801394449E+02  0.51019979735E+02 -0.29046620450E+02  0.10150278525E+03  0.00000000000E+00 0. -1.
         21    1    1    2  504  503  0.24009413486E+02  0.27942957588E+02 -0.14261635634E+03  0.14729794945E+03  0.00000000000E+00 0. -1.
         21    1    1    2  505  502 -0.53625883363E+02 -0.74421341770E+02 -0.92388815185E+02  0.13019202990E+03  0.00000000000E+00 0. -1.
         21    1    1    2  506  501 -0.53184924572E+02 -0.45415955538E+01  0.59344040557E+02  0.79818402900E+02  0.00000000000E+00 0. -1.
<scales pt_clust_3="14000.00000" pt_clust_4="36.84102" pt_clust_5="77.72635" pt_clust_6="51.95643"></scales>
<clustering>
<clus scale="   36.841">  2  4  1 -1</clus>
<clus scale="   51.956">  1  6  2 -1</clus>
<clus scale="   77.726">  2  5  1 -1</clus>
<clus scale="   51.956">  1  3  2 -1</clus>
</clustering>
</event>
<event>
 6    0  0.1361919E+003  0.1954436E+03  0.7546771E-02  0.1153641E+00
         21   -1    0    0  505  501  0.00000000000E+00  0.00000000000E+00  0.12054924565E+04  0.12054924565E+04  0.00000000000E+00 0.  1.
         21   -1    0    0  501  502 -0.00000000000E+00 -0.00000000000E+00 -0.15731197246E+04  0.15731197246E+04  0.00000000000E+00 0. -1.
         21    1    1    2  503  504  0.24569330562E+02  0.34175732495E+02 -0.96825909865E+02  0.10557883082E+03  0.00000000000E+00 0. -1.
         21    1    1    2  504  506  0.89159297378E+02  0.87970294787E+02 -0.63217587722E+03  0.64446450082E+03  0.00000000000E+00 0. -1.
         21    1    1    2  505  503 -0.46009292439E+01 -0.18745699823E+03  0.11826911953E+04  0.11974638859E+04  0.00000000000E+00 0.  1.
         21    1    1    2  506  502 -0.10912769870E+03  0.65310970944E+02 -0.82131667635E+03  0.83110496353E+03  0.00000000000E+00 0. -1.
<scales pt_clust_3="33.13683" pt_clust_4="33.13683" pt_clust_5="186.89746" pt_clust_6="127.17853"></scales>
<clustering>
<clus scale="   33.137">  3  4 -1 -1</clus>
<clus scale="  127.179">  2  6  1 -1</clus>
<clus scale="  186.897">  1  5  2 -1</clus>
<clus scale="  186.897">  1  3  2 -1</clus>
</clustering>
</event>
<event>
 6    0  0.1361919E+003  0.1022363E+03  0.7546771E-02  0.1275662E+00
         21   -1    0    0  506  501  0.00000000000E+00  0.00000000000E+00  0.25881219557E+04  0.25881219557E+04  0.00000000000E+00 0. -1.
         21   -1    0    0  504  502 -0.00000000000E+00 -0.00000000000E+00 -0.82308008952E+03  0.82308008952E+03  0.00000000000E+00 0.  1.
         21    1    1    2  503  501 -0.84438505033E+02  0.52278978452E+02  0.19721334622E+04  0.19746324584E+04  0.00000000000E+00 0. -1.
         21    1    1    2  504  503  0.16723434355E+02  0.61515756747E+02 -0.39834049374E+02  0.75170559891E+02  0.00000000000E+00 0.  1.
         21    1    1    2  505  502 -0.45914930107E+02 -0.77951260379E+02 -0.75565893255E+03  0.76105518994E+03  0.00000000000E+00 0.  1.
         21    1    1    2  506  505  0.11363000079E+03 -0.35843474820E+02  0.58840138585E+03  0.60034383701E+03  0.00000000000E+00 0. -1.
<scales pt_clust_3="14000.00000" pt_clust_4="63.74842" pt_clust_5="33.92508" pt_clust_6="102.23626"></scales>
<clustering>
<clus scale="   63.748">  2  4  1 -1</clus>
<clus scale="   33.925">  2  5  1 -1</clus>
<clus scale="  102.236">  2  6  1 -1</clus>
<clus scale="  102.236">  1  3  2 -1</clus>
</clustering>
</event>
<event>
 6    0  0.1361919E+003  0.1543074E+03  0.7546771E-02  0.1195278E+00
         21   -1    0    0  504  501  0.00000000000E+00  0.00000000000E+00  0.18869179466E+03  0.18869179466E+03  0.00000000000E+00 0.  1.
         21   -1    0    0  503  502 -0.00000000000E+00 -0.00000000000E+00 -0.44728512664E+03  0.44728512664E+03  0.00000000000E+00 0. -1.
         21    1    1    2  503  501  0.72665107065E+02  0.12560349023E+02 -0.71749399914E+02  0.10288807774E+03  0.00000000000E+00 0. -1.
         21    1    1    2  504  506 -0.51375375661E+02  0.17561563765E+02  0.92655507980E+02  0.10739125153E+03  0.00000000000E+00 0.  1.
         21    1    1    2  505  502  0.57443119269E+02 -0.75310432376E+02 -0.31446305331E+03  0.32841800358E+03  0.00000000000E+00 0. -1.
         21    1    1    2  506  505 -0.78732850673E+02  0.45188519588E+02  0.34963613270E+02  0.97279588458E+02  0.00000000000E+00 0.  1.
<scales pt_clust_3="73.74266" pt_clust_4="53.23173" pt_clust_5="138.10503" pt_clust_6="53.23173"></scales>
<clustering>
<clus scale="   53.232">  4  6 -1 -1</clus>
<clus scale="   73.743">  2  3  1 -1</clus>
<clus scale="  138.105">  2  5  1 -1</clus>
<clus scale="  154.307">  1  3  2 -1</clus>
</clustering>
</event>
<event>
 6    0  0.1361919E+003  0.1686976E+03  0.7546771E-02  0.1179213E+00
         21   -1    0    0  503  501  0.00000000000E+00  0.00000000000E+00  0.12981388857E+04  0.12981388857E+04  0.00000000000E+00 0. -1.
         21   -1    0    0  506  502 -0.00000000000E+00 -0.00000000000E+00 -0.13521647365E+03  0.13521647365E+03  0.00000000000E+00 0. -1.
         21    1    1    2  503  505  0.80739584713E+02  0.16626379119E+03  0.97930070982E+03  0.99659039182E+03  0.00000000000E+00 0. -1.
         21    1    1    2  504  501 -0.10844575878E+01 -0.13692862840E+03  0.18466118667E+03  0.22989210335E+03  0.00000000000E+00 0. -1.
         21    1    1    2  505  502 -0.59439978401E+02 -0.80376604447E+02 -0.67536010259E+02  0.12064253917E+03  0.00000000000E+00 0. -1.
         21    1    1    2  506  504 -0.20215148725E+02  0.51041441658E+02  0.66496525773E+02  0.86230324969E+02  0.00000000000E+00 0.  1.
<scales pt_clust_3="14000.00000" pt_clust_4="168.69760" pt_clust_5="85.65399" pt_clust_6="54.89883"></scales>
<clustering>
<clus scale="   54.899">  2  6  1 -1</clus>
<clus scale="   85.654">  2  5  1 -1</clus>
<clus scale="  168.698">  2  4  1 -1</clus>
<clus scale="  168.698">  1  3  2 -1</clus>
</clustering>
</event>
<event>
 6    0  0.1361919E+003  0.6841532E+02  0.7546771E-02  0.1365566E+00
         21   -1    0    0  506  501  0.00000000000E+00  0.00000000000E+00  0.19620125979E+04  0.19620125979E+04  0.00000000000E+00 0.  1.
         21   -1    0    0  503  502 -0.00000000000E+00 -0.00000000000E+00 -0.13420621218E+03  0.13420621218E+03  0.00000000000E+00 0.  1.
         21    1    1    2  503  504  0.51334964492E+02 -0.74947428326E+02 -0.58602690614E+02  0.10810490710E+03  0.00000000000E+00 0.  1.
         21    1    1    2  504  501 -0.66437020486E+02 -0.25894132048E+02  0.13346351972E+04  0.13365386239E+04  0.00000000000E+00 0.  1.
         21    1    1    2  505  502 -0.17575288983E+02  0.32172211061E+02 -0.40391114874E+02  0.54547081573E+02  0.00000000000E+00 0.  1.
         21    1    1    2  506  505  0.32677344977E+02  0.68669349312E+02  0.59216499401E+03  0.59702819744E+03  0.00000000000E+00 0.  1.
<scales pt_clust_3="55.90284" pt_clust_4="14000.00000" pt_clust_5="36.65981" pt_clust_6="68.41532"></scales>
<clustering>
<clus scale="   36.660">  2  5  1 -1</clus>
<clus scale="   55.903">  2  3  1 -1</clus>
<clus scale="   68.415">  2  6  1 -1</clus>
<clus scale="   68.415">  1  3  2 -1</clus>
</clustering>
</event>
<event>
 6    0  0.1361919E+003  0.2705533E+03  0.7546771E-02  0.1100963E+00
         21   -1    0    0  505  501  0.00000000000E+00  0.00000000000E+00  0.26124417548E+03  0.26124417548E+03  0.00000000000E+00 0.  1.
         21   -1    0    0  503  502 -0.00000000000E+00 -0.00000000000E+00 -0.10238617184E+04  0.10238617184E+04  0.00000000000E+00 0.  1.
         21    1    1    2  503  506  0.26516105536E+02 -0.55308462914E+02 -0.24721707815E+03  0.25471241362E+03  0.00000000000E+00 0. -1.
         21    1    1    2  504  501  0.12804802033E+03  0.23935166617E+03 -0.33952534829E+01  0.27147199368E+03  0.00000000000E+00 0.  1.
         21    1    1    2  505  502 -0.47848409310E+02 -0.98734032624E+01  0.10131580904E+03  0.11248043175E+03  0.00000000000E+00 0. -1.
         21    1    1    2  506  504 -0.10671571656E+03 -0.17416979999E+03 -0.61332102033E+03  0.64644105483E+03  0.00000000000E+00 0.  1.
<scales pt_clust_3="60.49539" pt_clust_4="246.45402" pt_clust_5="48.85647" pt_clust_6="60.49539"></scales>
<clustering>
<clus scale="   48.856">  1  5  2 -1</clus>
<clus scale="   60.495">  3  6 -1 -1</clus>
<clus scale="  246.454">  1  4  2 -1</clus>
<clus scale="   48.856">  1  3  2 -1</clus>
</clustering>
</event>
<event>
 6    0  0.1361919E+003  0.9407526E+02  0.7546771E-02  0.1293273E+00
         21   -1    0    0  506  501  0.00000000000E+00  0.00000000000E+00  0.14901342949E+04  0.14901342949E+04  0.00000000000E+00 0. -1.
         21   -1    0    0  503  502 -0.00000000000E+00 -0.00000000000E+00 -0.15289216362E+03  0.15289216362E+03  0.00000000000E+00 0. -1.
         21    1    1    2  503  505  0.31969600227E+01 -0.43644010954E+02 -0.62056909147E+02  0.75934710235E+02  0.00000000000E+00 0.  1.
         21    1    1    2  504  501  0.59828022098E+02 -0.70940169321E+02  0.13090110900E+04  0.13122964351E+04  0.00000000000E+00 0. -1.
         21    1    1    2  505  504 -0.52925526281E+02 -0.37487515182E+02 -0.18618298960E+02  0.67476412047E+02  0.00000000000E+00 0. -1.
         21    1    1    2  506  502 -0.10099455840E+02  0.15207169546E+03  0.10890624938E+03  0.18731890113E+03  0.00000000000E+00 0. -1.
<scales pt_clust_3="43.76094" pt_clust_4="14000.00000" pt_clust_5="78.84124" pt_clust_6="94.07526"></scales>
<clustering>
<clus scale="   43.761">  2  3  1 -1</clus>
<clus scale="   78.841">  2  5  1 -1</clus>
<clus scale="   94.075">  2  6  1 -1</clus>
<clus scale="   94.075">  1  3  2 -1</clus>
</clustering>
</event>
<event>
 6    0  0.1361919E+003  0.1443157E+03  0.7546771E-02  0.1207637E+00
         21   -1    0    0  505  501  0.00000000000E+00  0.00000000000E+00  0.53942490103E+03  0.53942490103E+03  0.00000000000E+00 0.  1.
         21   -1    0    0  503  502 -0.00000000000E+00 -0.00000000000E+00 -0.11641649871E+03  0.11641649871E+03  0.00000000000E+00 0.  1.
         21    1    1    2  503  501 -0.14175570734E+03  0.18535136936E+02 -0.34686283650E+02  0.14711006131E+03  0.00000000000E+00 0.  1.
         21    1    1    2  504  502  0.26222100042E+02 -0.38503255041E+02  0.68885972042E+02  0.83158741715E+02  0.00000000000E+00 0. -1.
         21    1    1    2  505  506  0.35673149343E+02  0.37744757487E+02  0.30142421610E+03  0.30586565409E+03  0.00000000000E+00 0.  1.
         21    1    1    2  506  504  0.79860457954E+02 -0.17776639382E+02  0.87384497829E+02  0.11970694263E+03  0.00000000000E+00 0.  1.
<scales pt_clust_3="136.06587" pt_clust_4="36.29106" pt_clust_5="51.93496" pt_clust_6="36.29106"></scales>
<clustering>
<clus scale="   36.291">  4  6 -1 -1</clus>
<clus scale="   51.935">  1  5  2 -1</clus>
<clus scale="  136.066">  2  3  1 -1</clus>
<clus scale="   51.935">  1  3  2 -1</clus>
</clustering>
</event>
<event>
 6    0  0.1361919E+003  0.1228704E+03  0.7546771E-02  0.1238436E+00
         21   -1    0    0  505  501  0.00000000000E+00  0.00000000000E+00  0.65749529285E+03  0.65749529285E+03  0.00000000000E+00 0. -1.
         21   -1    0    0  503  502 -0.00000000000E+00 -0.00000000000E+00 -0.12265431060E+04  0.12265431060E+04  0.00000000000E+00 0. -1.
         21    1    1    2  503  501  0.37903979325E+02  0.33673625450E+02 -0.26055591146E+03  0.26544304040E+03  0.00000000000E+00 0. -1.
         21    1    1    2  504  502 -0.24440548767E+02  0.84807208054E+02 -0.64967988204E+03  0.65564742971E+03  0.00000000000E+00 0. -1.
         21    1    1    2  505  506 -0.11974665056E+02  0.77009746313E+02  0.61864512599E+03  0.62353483106E+03  0.00000000000E+00 0. -1.
         21    1    1    2  506  504 -0.14887655021E+01 -0.19549057982E+03 -0.27745714566E+03  0.33941309771E+03  0.00000000000E+00 0. -1.
<scales pt_clust_3="50.70133" pt_clust_4="122.87041" pt_clust_5="78.00491" pt_clust_6="14000.00000"></scales>
<clustering>
<clus scale="   50.701">  2  3  1 -1</clus>
<clus scale="   78.005">  1  5  2 -1</clus>
<clus scale="  122.870">  2  4  1 -1</clus>
<clus scale="   78.005">  1  3  2 -1</clus>
</clustering>
</event>
<event>
 6    0  0.1361919E+003  0.1331870E+03  0.7546771E-02  0.1222802E+00
         21   -1    0    0  503  501  0.00000000000E+00  0.00000000000E+00  0.40117123151E+03  0.40117123151E+03  0.00000000000E+00 0. -1.
         21   -1    0    0  504  502 -0.00000000000E+00 -0.00000000000E+00 -0.81559702753E+03  0.81559702753E+03  0.00000000000E+00 0. -1.
         21    1    1    2  503  506 -0.24294498873E+02 -0.10008441542E+03  0.30645773323E+03  0.32330087402E+03  0.00000000000E+00 0. -1.
         21    1    1    2  504  501  0.47940325759E+02 -0.19642326054E+02  0.15849183569E+01  0.51832497267E+02  0.00000000000E+00 0.  1.
         21    1    1    2  505  502 -0.85361907755E+02 -0.90458865769E+02 -0.54700601475E+03  0.56096795083E+03  0.00000000000E+00 0. -1.
         21    1    1    2  506  505  0.61716080869E+02  0.21018560725E+03 -0.17546243287E+03  0.28066693692E+03  0.00000000000E+00 0. -1.
<scales pt_clust_3="117.69637" pt_clust_4="51.80826" pt_clust_5="14000.00000" pt_clust_6="133.18698"></scales>
<clustering>
<clus scale="   51.808">  1  4  2 -1</clus>
<clus scale="  117.696">  1  3  2 -1</clus>
<clus scale="  133.187">  1  6  2 -1</clus>
<clus scale="   51.808">  1  3  2 -1</clus>
</clustering>
</event>
<event>
 6    0  0.1361919E+003  0.2226621E+03  0.7546771E-02  0.1131914E+00
         21   -1    0    0  504  501  0.00000000000E+00  0.00000000000E+00  0.13869633782E+04  0.13869633782E+04  0.00000000000E+00 0. -1.
         21   -1    0    0  503  502 -0.00000000000E+00 -0.00000000000E+00 -0.14813540803E+04  0.14813540803E+04  0.00000000000E+00 0.  1.
         21    1    1    2  503  501 -0.19718717573E+02  0.13246170905E+03 -0.48993479408E+03  0.50790849042E+03  0.00000000000E+00 0.  1.
         21    1    1    2  504  505  0.50360128239E+02  0.10313276928E+02  0.11494490668E+04  0.11505979591E+04  0.00000000000E+00 0. -1.
         21    1    1    2  505  506 -0.26493977290E+03 -0.99789200201E+00  0.12229984061E+03  0.29180700825E+03  0.00000000000E+00 0.  1.
         21    1    1    2  506  502  0.23429836223E+03 -0.14177709398E+03 -0.87620481546E+03  0.91800400084E+03  0.00000000000E+00 0.  1.
<scales pt_clust_3="134.04117" pt_clust_4="51.40531" pt_clust_5="222.66208" pt_clust_6="14000.00000"></scales>
<clustering>
<clus scale="   51.405">  1  4  2 -1</clus>
<clus scale="  134.041">  2  3  1 -1</clus>
<clus scale="  222.662">  1  5  2 -1</clus>
<clus scale="   51.405">  1  3  2 -1</clus>
</clustering>
</event>
