<event>
 5    0  0.5670250E-005  0.3202609E+03  0.7546771E-02  0.1075529E+00
         21   -1    0    0  502  501  0.00000000000E+00  0.00000000000E+00  0.12775203575E+04  0.12775203575E+04  0.00000000000E+00 0. -1.
         21   -1    0    0  501  502 -0.00000000000E+00 -0.00000000000E+00 -0.80286033340E+02  0.80286033340E+02  0.00000000000E+00 0. -1.
         25    1    1    2    0    0  0.10948085471E+03  0.13703097106E+02  0.89944969036E+03  0.91477241864E+03  0.12500000000E+03 0.  0.
         25    1    1    2    0    0 -0.16867320214E+02  0.66089272074E+02  0.19072538296E+03  0.23801989429E+03  0.12500000000E+03 0.  0.
         25    1    1    2    0    0 -0.92613534494E+02 -0.79792369180E+02  0.10705925085E+03  0.20501407792E+03  0.12500000000E+03 0.  0.
</event>
<event>
 5    0  0.5670250E-005  0.4280381E+03  0.7546771E-02  0.1034481E+00
         21   -1    0    0  502  501  0.00000000000E+00  0.00000000000E+00  0.68120065529E+03  0.68120065529E+03  0.00000000000E+00 0.  1.
         21   -1    0    0  501  502 -0.00000000000E+00 -0.00000000000E+00 -0.26896134910E+03  0.26896134910E+03  0.00000000000E+00 0.  1.
         25    1    1    2    0    0 -0.75895781694E+01 -0.18884823084E+03 -0.11623847679E+03  0.25467163068E+03  0.12500000000E+03 0.  0.
         25    1    1    2    0    0  0.18336675159E+02  0.20185362649E+03  0.11740145761E+03  0.26549806484E+03  0.12500000000E+03 0.  0.
         25    1    1    2    0    0 -0.10747096990E+02 -0.13005395654E+02  0.41107632538E+03  0.42999230888E+03  0.12500000000E+03 0.  0.
</event>
<event>
 5    0  0.5670250E-005  0.3014249E+03  0.7546771E-02  0.1084530E+00
         21   -1    0    0  502  501  0.00000000000E+00  0.00000000000E+00  0.21825156461E+03  0.21825156461E+03  0.00000000000E+00 0.  1.
         21   -1    0    0  501  502 -0.00000000000E+00 -0.00000000000E+00 -0.41629481021E+03  0.41629481021E+03  0.00000000000E+00 0.  1.
         25    1    1    2    0    0  0.59698390661E+02 -0.58354886141E+02 -0.15789773850E+02  0.15114068791E+03  0.12500000000E+03 0.  0.
         25    1    1    2    0    0  0.14166990938E+03  0.87905528139E+02 -0.73476708090E+02  0.22095604027E+03  0.12500000000E+03 0.  0.
         25    1    1    2    0    0 -0.20136830004E+03 -0.29550641999E+02 -0.10877676366E+03  0.26244964663E+03  0.12500000000E+03 0.  0.
</event>
<event>
 5    0  0.5670250E-005  0.2278305E+03  0.7546771E-02  0.1128176E+00
         21   -1    0    0  502  501  0.00000000000E+00  0.00000000000E+00  0.53144922680E+03  0.53144922680E+03  0.00000000000E+00 0. -1.
         21   -1    0    0  501  502 -0.00000000000E+00 -0.00000000000E+00 -0.97670192008E+02  0.97670192008E+02  0.00000000000E+00 0. -1.
         25    1    1    2    0    0 -0.50996791398E+01  0.60032644899E+01  0.72576030571E+02  0.14475609184E+03  0.12500000000E+03 0.  0.
         25    1    1    2    0    0  0.86014400089E+00 -0.61824042603E+02  0.30676902473E+03  0.33697950475E+03  0.12500000000E+03 0.  0.
         25    1    1    2    0    0  0.42395351389E+01  0.55820778113E+02  0.54433979498E+02  0.14738382222E+03  0.12500000000E+03 0.  0.
</event>
<event>
 5    0  0.5670250E-005  0.3428107E+03  0.7546771E-02  0.1065605E+00
         21   -1    0    0  502  501  0.00000000000E+00  0.00000000000E+00  0.34242721734E+03  0.34242721734E+03  0.00000000000E+00 0.  1.
         21   -1    0    0  501  502 -0.00000000000E+00 -0.00000000000E+00 -0.34319466898E+03  0.34319466898E+03  0.00000000000E+00 0.  1.
         25    1    1    2    0    0  0.40691255577E+02  0.39159593083E+02  0.44003271644E+02  0.14405047701E+03  0.12500000000E+03 0.  0.
         25    1    1    2    0    0 -0.14633945559E+03  0.99537475039E+02  0.14039347235E+03  0.25818263357E+03  0.12500000000E+03 0.  0.
         25    1    1    2    0    0  0.10564820001E+03 -0.13869706812E+03 -0.18516419564E+03  0.28338877574E+03  0.12500000000E+03 0.  0.
</event>
<event>
 5    0  0.5670250E-005  0.3923477E+03  0.7546771E-02  0.1046462E+00
         21   -1    0    0  502  501  0.00000000000E+00  0.00000000000E+00  0.18221381651E+03  0.18221381651E+03  0.00000000000E+00 0. -1.
         21   -1    0    0  501  502 -0.00000000000E+00 -0.00000000000E+00 -0.84481353728E+03  0.84481353728E+03  0.00000000000E+00 0. -1.
         25    1    1    2    0    0 -0.15117954897E+03  0.24949298060E+03 -0.15216023129E+03  0.35196553721E+03  0.12500000000E+03 0.  0.
         25    1    1    2    0    0  0.10614925370E+03 -0.93651538728E+01 -0.15349372200E+03  0.22481257274E+03  0.12500000000E+03 0.  0.
         25    1    1    2    0    0  0.45030295270E+02 -0.24012782673E+03 -0.35694576747E+03  0.45024924384E+03  0.12500000000E+03 0.  0.
</event>
<event>
 5    0  0.5670250E-005  0.3040960E+03  0.7546771E-02  0.1083211E+00
         21   -1    0    0  502  501  0.00000000000E+00  0.00000000000E+00  0.10023906095E+03  0.10023906095E+03  0.00000000000E+00 0.  1.
         21   -1    0    0  501  502 -0.00000000000E+00 -0.00000000000E+00 -0.92253829209E+03  0.92253829209E+03  0.00000000000E+00 0.  1.
         25    1    1    2    0    0 -0.63928392162E+02  0.84048966795E+02 -0.41912295374E+03  0.44993346008E+03  0.12500000000E+03 0.  0.
         25    1    1    2    0    0  0.51164090843E+02 -0.23327466364E+02 -0.41081977150E+03  0.43308177003E+03  0.12500000000E+03 0.  0.
         25    1    1    2    0    0  0.12764301319E+02 -0.60721500432E+02  0.76434941083E+01  0.13976212293E+03  0.12500000000E+03 0.  0.
</event>
<event>
 5    0  0.5670250E-005  0.2671392E+03  0.7546771E-02  0.1102928E+00
         21   -1    0    0  502  501  0.00000000000E+00  0.00000000000E+00  0.32087825208E+03  0.32087825208E+03  0.00000000000E+00 0.  1.
         21   -1    0    0  501  502 -0.00000000000E+00 -0.00000000000E+00 -0.22240013750E+03  0.22240013750E+03  0.00000000000E+00 0.  1.
         25    1    1    2    0    0 -0.66792862065E+02 -0.29880528802E+02  0.39585433232E+01  0.14489583324E+03  0.12500000000E+03 0.  0.
         25    1    1    2    0    0 -0.47342850303E+01  0.34206370023E+02  0.18671143951E+03  0.22732938844E+03  0.12500000000E+03 0.  0.
         25    1    1    2    0    0  0.71527147095E+02 -0.43258412211E+01 -0.92191868258E+02  0.17105316789E+03  0.12500000000E+03 0.  0.
</event>
<event>
 5    0  0.5670250E-005  0.2375506E+03  0.7546771E-02  0.1121435E+00
         21   -1    0    0  502  501  0.00000000000E+00  0.00000000000E+00  0.42628052129E+02  0.42628052129E+02  0.00000000000E+00 0.  1.
         21   -1    0    0  501  502 -0.00000000000E+00 -0.00000000000E+00 -0.13237825634E+04  0.13237825634E+04  0.00000000000E+00 0.  1.
         25    1    1    2    0    0  0.11674127655E+03 -0.75101437951E+02 -0.54927271223E+03  0.58016744482E+03  0.12500000000E+03 0.  0.
         25    1    1    2    0    0 -0.44729049973E+02  0.41414447599E+02 -0.36268449617E+03  0.38843389160E+03  0.12500000000E+03 0.  0.
         25    1    1    2    0    0 -0.72012226573E+02  0.33686990352E+02 -0.36919730286E+03  0.39780927909E+03  0.12500000000E+03 0.  0.
</event>
<event>
 5    0  0.5864694E-005  0.2484569E+03  0.7546771E-02  0.1114284E+00
         21   -1    0    0  502  501  0.00000000000E+00  0.00000000000E+00  0.34027638814E+03  0.34027638814E+03  0.00000000000E+00 0.  1.
         21   -1    0    0  501  502 -0.00000000000E+00 -0.00000000000E+00 -0.18141380330E+03  0.18141380330E+03  0.00000000000E+00 0.  1.
         25    1    1    2    0    0  0.10467565753E+03 -0.63841029440E+00 -0.30473625936E+02  0.16586453124E+03  0.12500000000E+03 0.  0.
         25    1    1    2    0    0 -0.20253096629E+02 -0.36809323469E+02  0.14101880959E+03  0.19307102029E+03  0.12500000000E+03 0.  0.
         25    1    1    2    0    0 -0.84422560897E+02  0.37447733764E+02  0.48317401191E+02  0.16275463990E+03  0.12500000000E+03 0.  0.
</event>
<event>
 5    0  0.5670250E-005  0.2611391E+03  0.7546771E-02  0.1106461E+00
         21   -1    0    0  502  501  0.00000000000E+00  0.00000000000E+00  0.43847578797E+03  0.43847578797E+03  0.00000000000E+00 0.  1.
         21   -1    0    0  501  502 -0.00000000000E+00 -0.00000000000E+00 -0.15552431877E+03  0.15552431877E+03  0.00000000000E+00 0.  1.
         25    1    1    2    0    0  0.23766027982E+02 -0.14650478679E+03  0.39129776073E+02  0.19795104449E+03  0.12500000000E+03 0.  0.
         25    1    1    2    0    0 -0.10796891865E+02  0.97240911795E+02  0.19740284402E+03  0.25330860749E+03  0.12500000000E+03 0.  0.
         25    1    1    2    0    0 -0.12969136118E+02  0.49263874999E+02  0.46418849101E+02  0.14274045475E+03  0.12500000000E+03 0.  0.
</event>
<event>
 5    0  0.5670250E-005  0.2674951E+03  0.7546771E-02  0.1102722E+00
         21   -1    0    0  502  501  0.00000000000E+00  0.00000000000E+00  0.93813494829E+02  0.93813494829E+02  0.00000000000E+00 0.  1.
         21   -1    0    0  501  502 -0.00000000000E+00 -0.00000000000E+00 -0.76272241309E+03  0.76272241309E+03  0.00000000000E+00 0.  1.
         25    1    1    2    0    0 -0.83856696590E+02 -0.76982124390E+02 -0.17086331037E+03  0.24036943206E+03  0.12500000000E+03 0.  0.
         25    1    1    2    0    0 -0.47341754868E+02  0.11216523784E+03 -0.28600034231E+03  0.33502757817E+03  0.12500000000E+03 0.  0.
         25    1    1    2    0    0  0.13119845146E+03 -0.35183113453E+02 -0.21204526558E+03  0.28113889769E+03  0.12500000000E+03 0.  0.
</event>
<event>
 5    0  0.5670250E-005  0.3640660E+03  0.7546771E-02  0.1056985E+00
         21   -1    0    0  502  501  0.00000000000E+00  0.00000000000E+00  0.36379275310E+02  0.36379275310E+02  0.00000000000E+00 0. -1.
         21   -1    0    0  501  502 -0.00000000000E+00 -0.00000000000E+00 -0.36433935502E+04  0.36433935502E+04  0.00000000000E+00 0. -1.
         25    1    1    2    0    0 -0.20779660049E+03 -0.10752883071E+03 -0.20309994330E+04  0.20482493924E+04  0.12500000000E+03 0.  0.
         25    1    1    2    0    0  0.51829872152E+02 -0.71524746324E+02 -0.61294046884E+03  0.63176193564E+03  0.12500000000E+03 0.  0.
         25    1    1    2    0    0  0.15596672834E+03  0.17905357704E+03 -0.96307437306E+03  0.99976149748E+03  0.12500000000E+03 0.  0.
</event>
<event>
 5    0  0.5670250E-005  0.2472730E+03  0.7546771E-02  0.1115040E+00
         21   -1    0    0  502  501  0.00000000000E+00  0.00000000000E+00  0.88427915079E+02  0.88427915079E+02  0.00000000000E+00 0.  1.
         21   -1    0    0  501  502 -0.00000000000E+00 -0.00000000000E+00 -0.69145495021E+03  0.69145495021E+03  0.00000000000E+00 0.  1.
         25    1    1    2    0    0  0.81162592293E+02  0.96377316614E+02 -0.26986838258E+03  0.32300138925E+03  0.12500000000E+03 0.  0.
         25    1    1    2    0    0 -0.10636092277E+03 -0.27603461659E+02 -0.19903681177E+03  0.25945182487E+03  0.12500000000E+03 0.  0.
         25    1    1    2    0    0  0.25198330478E+02 -0.68773854955E+02 -0.13412184079E+03  0.19742965117E+03  0.12500000000E+03 0.  0.
</event>
<event>
 5    0  0.5670250E-005  0.2229210E+03  0.7546771E-02  0.1131724E+00
         21   -1    0    0  502  501  0.00000000000E+00  0.00000000000E+00  0.11068083480E+03  0.11068083480E+03  0.00000000000E+00 0.  1.
         21   -1    0    0  501  502 -0.00000000000E+00 -0.00000000000E+00 -0.44898256416E+03  0.44898256416E+03  0.00000000000E+00 0.  1.
         25    1    1    2    0    0  0.68815798594E+02 -0.27646817358E+02 -0.10634702595E+03  0.18009622587E+03  0.12500000000E+03 0.  0.
         25    1    1    2    0    0 -0.34720052665E+02  0.87434609374E+02 -0.13891371341E+03  0.20921833750E+03  0.12500000000E+03 0.  0.
         25    1    1    2    0    0 -0.34095745929E+02 -0.59787792016E+02 -0.93040990006E+02  0.17034883559E+03  0.12500000000E+03 0.  0.
</event>
<event>
 5    0  0.5670250E-005  0.2928512E+03  0.7546771E-02  0.1088870E+00
         21   -1    0    0  502  501  0.00000000000E+00  0.00000000000E+00  0.71599544714E+03  0.71599544714E+03  0.00000000000E+00 0.  1.
         21   -1    0    0  501  502 -0.00000000000E+00 -0.00000000000E+00 -0.11977986967E+03  0.11977986967E+03  0.00000000000E+00 0.  1.
         25    1    1    2    0    0  0.58494250888E+02 -0.17586210506E+03  0.38541928048E+03  0.44555816584E+03  0.12500000000E+03 0.  0.
         25    1    1    2    0    0 -0.47629548602E+02  0.14646660814E+03  0.11164830077E+03  0.22762114196E+03  0.12500000000E+03 0.  0.
         25    1    1    2    0    0 -0.10864702287E+02  0.29395496928E+02  0.99147996215E+02  0.16259600902E+03  0.12500000000E+03 0.  0.
</event>
<event>
 5    0  0.5670250E-005  0.3095834E+03  0.7546771E-02  0.1080546E+00
         21   -1    0    0  502  501  0.00000000000E+00  0.00000000000E+00  0.47768507619E+03  0.47768507619E+03  0.00000000000E+00 0. -1.
         21   -1    0    0  501  502 -0.00000000000E+00 -0.00000000000E+00 -0.20063827511E+03  0.20063827511E+03  0.00000000000E+00 0. -1.
         25    1    1    2    0    0  0.24195457905E+02 -0.88739724955E+02 -0.97131816135E+02  0.18308399349E+03  0.12500000000E+03 0.  0.
         25    1    1    2    0    0 -0.34752962796E+02  0.11965054554E+03  0.29483697428E+03  0.34362459585E+03  0.12500000000E+03 0.  0.
         25    1    1    2    0    0  0.10557504891E+02 -0.30910820583E+02  0.79341642937E+02  0.15161476195E+03  0.12500000000E+03 0.  0.
</event>
<event>
 5    0  0.5670250E-005  0.2831145E+03  0.7546771E-02  0.1094000E+00
         21   -1    0    0  502  501  0.00000000000E+00  0.00000000000E+00  0.92712891100E+03  0.92712891100E+03  0.00000000000E+00 0.  1.
         21   -1    0    0  501  502 -0.00000000000E+00 -0.00000000000E+00 -0.86453822404E+02  0.86453822404E+02  0.00000000000E+00 0.  1.
         25    1    1    2    0    0 -0.21876542816E+02 -0.80011078838E+02  0.41153148998E+03  0.43802228609E+03  0.12500000000E+03 0.  0.
         25    1    1    2    0    0 -0.58690939361E+01  0.11020597429E+03  0.49757903966E+02  0.17401336742E+03  0.12500000000E+03 0.  0.
         25    1    1    2    0    0  0.27745636752E+02 -0.30194895455E+02  0.37938569465E+03  0.40154707990E+03  0.12500000000E+03 0.  0.
</event>
<event>
 5    0  0.5670250E-005  0.4344255E+03  0.7546771E-02  0.1032471E+00
         21   -1    0    0  502  501  0.00000000000E+00  0.00000000000E+00  0.19913148116E+03  0.19913148116E+03  0.00000000000E+00 0.  1.
         21   -1    0    0  501  502 -0.00000000000E+00 -0.00000000000E+00 -0.94774331808E+03  0.94774331808E+03  0.00000000000E+00 0.  1.
         25    1    1    2    0    0 -0.33850784187E+02  0.22558721147E+03 -0.26846675934E+03  0.37381127115E+03  0.12500000000E+03 0.  0.
         25    1    1    2    0    0  0.12895374796E+03 -0.34681681162E+03 -0.22808218615E+03  0.45228028210E+03  0.12500000000E+03 0.  0.
         25    1    1    2    0    0 -0.95102963777E+02  0.12122960016E+03 -0.25206289142E+03  0.32078324598E+03  0.12500000000E+03 0.  0.
</event>
<event>
 5    0  0.5670250E-005  0.2827914E+03  0.7546771E-02  0.1094174E+00
         21   -1    0    0  502  501  0.00000000000E+00  0.00000000000E+00  0.24130207276E+03  0.24130207276E+03  0.00000000000E+00 0. -1.
         21   -1    0    0  501  502 -0.00000000000E+00 -0.00000000000E+00 -0.33141437657E+03  0.33141437657E+03  0.00000000000E+00 0. -1.
         25    1    1    2    0    0 -0.14147685901E+03 -0.42875451288E+02  0.22397625452E+02  0.19488627346E+03  0.12500000000E+03 0.  0.
         25    1    1    2    0    0 -0.76474084898E+01 -0.58666222862E+02 -0.67031114289E+02  0.15368272136E+03  0.12500000000E+03 0.  0.
         25    1    1    2    0    0  0.14912426750E+03  0.10154167415E+03 -0.45478814973E+02  0.22414745450E+03  0.12500000000E+03 0.  0.
</event>
<event>
 5    0  0.5670250E-005  0.2387147E+03  0.7546771E-02  0.1120652E+00
         21   -1    0    0  502  501  0.00000000000E+00  0.00000000000E+00  0.58340342523E+03  0.58340342523E+03  0.00000000000E+00 0.  1.
         21   -1    0    0  501  502 -0.00000000000E+00 -0.00000000000E+00 -0.97676338578E+02  0.97676338578E+02  0.00000000000E+00 0.  1.
         25    1    1    2    0    0 -0.63225998109E+02 -0.10235522603E+02  0.12787381981E+03  0.18994474605E+03  0.12500000000E+03 0.  0.
         25    1    1    2    0    0  0.67037772483E+01 -0.62843951537E+02  0.54538529722E+02  0.15031218879E+03  0.12500000000E+03 0.  0.
         25    1    1    2    0    0  0.56522220861E+02  0.73079474140E+02  0.30331473712E+03  0.34082282896E+03  0.12500000000E+03 0.  0.
</event>
<event>
 5    0  0.5670250E-005  0.3943694E+03  0.7546771E-02  0.1045747E+00
         21   -1    0    0  502  501  0.00000000000E+00  0.00000000000E+00  0.28808337794E+03  0.28808337794E+03  0.00000000000E+00 0.  1.
         21   -1    0    0  501  502 -0.00000000000E+00 -0.00000000000E+00 -0.53986872595E+03  0.53986872595E+03  0.00000000000E+00 0.  1.
         25    1    1    2    0    0  0.17934654939E+03  0.43200435554E+02  0.14907377603E+02  0.22333538080E+03  0.12500000000E+03 0.  0.
         25    1    1    2    0    0 -0.27388111169E+03 -0.20407958029E+02 -0.31777065552E+03  0.43821289073E+03  0.12500000000E+03 0.  0.
         25    1    1    2    0    0  0.94534562304E+02 -0.22792477525E+02  0.51077929903E+02  0.16640383236E+03  0.12500000000E+03 0.  0.
</event>
<event>
 5    0  0.5670250E-005  0.4131768E+03  0.7546771E-02  0.1039310E+00
         21   -1    0    0  502  501  0.00000000000E+00  0.00000000000E+00  0.23757553960E+03  0.23757553960E+03  0.00000000000E+00 0. -1.
         21   -1    0    0  501  502 -0.00000000000E+00 -0.00000000000E+00 -0.71857174497E+03  0.71857174497E+03  0.00000000000E+00 0. -1.
         25    1    1    2    0    0 -0.63308462017E+02  0.19473923667E+03 -0.31326380938E+03  0.39457641329E+03  0.12500000000E+03 0.  0.
         25    1    1    2    0    0  0.18453395322E+03 -0.26660675081E+03 -0.10478012206E+03  0.36295428562E+03  0.12500000000E+03 0.  0.
         25    1    1    2    0    0 -0.12122549120E+03  0.71867514148E+02 -0.62952273930E+02  0.19861658566E+03  0.12500000000E+03 0.  0.
</event>
<event>
 5    0  0.5670250E-005  0.4123127E+03  0.7546771E-02  0.1039598E+00
         21   -1    0    0  502  501  0.00000000000E+00  0.00000000000E+00  0.32517009208E+03  0.32517009208E+03  0.00000000000E+00 0. -1.
         21   -1    0    0  501  502 -0.00000000000E+00 -0.00000000000E+00 -0.52280883371E+03  0.52280883371E+03  0.00000000000E+00 0. -1.
         25    1    1    2    0    0 -0.19719065485E+03  0.15532126732E+03  0.81798581733E+01  0.28053655826E+03  0.12500000000E+03 0.  0.
         25    1    1    2    0    0  0.18520015476E+03 -0.14197619326E+02  0.68715375379E+02  0.23419537257E+03  0.12500000000E+03 0.  0.
         25    1    1    2    0    0  0.11990500082E+02 -0.14112364800E+03 -0.27453397518E+03  0.33324699495E+03  0.12500000000E+03 0.  0.
</event>
<event>
 5    0  0.5670250E-005  0.3011141E+03  0.7546771E-02  0.1084685E+00
         21   -1    0    0  502  501  0.00000000000E+00  0.00000000000E+00  0.56341966901E+03  0.56341966901E+03  0.00000000000E+00 0.  1.
         21   -1    0    0  501  502 -0.00000000000E+00 -0.00000000000E+00 -0.16092744268E+03  0.16092744268E+03  0.00000000000E+00 0.  1.
         25    1    1    2    0    0 -0.10730588256E+03 -0.10411501945E+03  0.77530339731E+02  0.20973898847E+03  0.12500000000E+03 0.  0.
         25    1    1    2    0    0 -0.50252197310E+02  0.13999118218E+03  0.17051366689E+03  0.25850091880E+03  0.12500000000E+03 0.  0.
         25    1    1    2    0    0  0.15755807987E+03 -0.35876162729E+02  0.15444821971E+03  0.25610720442E+03  0.12500000000E+03 0.  0.
</event>
<event>
 5    0  0.5670250E-005  0.3483560E+03  0.7546771E-02  0.1063292E+00
         21   -1    0    0  502  501  0.00000000000E+00  0.00000000000E+00  0.30709041610E+03  0.30709041610E+03  0.00000000000E+00 0. -1.
         21   -1    0    0  501  502 -0.00000000000E+00 -0.00000000000E+00 -0.39516677002E+03  0.39516677002E+03  0.00000000000E+00 0. -1.
         25    1    1    2    0    0 -0.17209295485E+02  0.37689785664E+02 -0.13946403597E+03  0.19181214018E+03  0.12500000000E+03 0.  0.
         25    1    1    2    0    0 -0.10779967840E+03  0.31538665882E+02  0.20582086477E+03  0.26571166042E+03  0.12500000000E+03 0.  0.
         25    1    1    2    0    0  0.12500897388E+03 -0.69228451545E+02 -0.15443318272E+03  0.24473338551E+03  0.12500000000E+03 0.  0.
</event>
<event>
 5    0  0.5670250E-005  0.4667000E+03  0.7546771E-02  0.1022856E+00
         21   -1    0    0  502  501  0.00000000000E+00  0.00000000000E+00  0.70580162510E+03  0.70580162510E+03  0.00000000000E+00 0.  1.
         21   -1    0    0  501  502 -0.00000000000E+00 -0.00000000000E+00 -0.30859789787E+03  0.30859789787E+03  0.00000000000E+00 0. -1.
         25    1    1    2    0    0 -0.12752738841E+03 -0.40987938346E+02  0.45450416465E+02  0.18876966452E+03  0.12500000000E+03 0.  0.
         25    1    1    2    0    0  0.11609666033E+03  0.35608611991E+03  0.11249662638E+03  0.41055602575E+03  0.12500000000E+03 0.  0.
         25    1    1    2    0    0  0.11430728084E+02 -0.31509818157E+03  0.23925668438E+03  0.41507383270E+03  0.12500000000E+03 0.  0.
</event>
<event>
 5    0  0.5670250E-005  0.2335423E+03  0.7546771E-02  0.1124171E+00
         21   -1    0    0  502  501  0.00000000000E+00  0.00000000000E+00  0.22699432763E+03  0.22699432763E+03  0.00000000000E+00 0.  1.
         21   -1    0    0  501  502 -0.00000000000E+00 -0.00000000000E+00 -0.24027913272E+03  0.24027913272E+03  0.00000000000E+00 0.  1.
         25    1    1    2    0    0  0.71814862102E+02  0.80765984183E+02  0.60020421962E+02  0.17580662579E+03  0.12500000000E+03 0.  0.
         25    1    1    2    0    0 -0.14045819367E+02 -0.92604344257E+01 -0.21922613013E+02  0.12801813016E+03  0.12500000000E+03 0.  0.
         25    1    1    2    0    0 -0.57769042735E+02 -0.71505549757E+02 -0.51382614039E+02  0.16344870440E+03  0.12500000000E+03 0.  0.
</event>
<event>
 5    0  0.5670250E-005  0.4036790E+03  0.7546771E-02  0.1042513E+00
         21   -1    0    0  502  501  0.00000000000E+00  0.00000000000E+00  0.12199872340E+03  0.12199872340E+03  0.00000000000E+00 0.  1.
         21   -1    0    0  501  502 -0.00000000000E+00 -0.00000000000E+00 -0.13357247126E+04  0.13357247126E+04  0.00000000000E+00 0.  1.
         25    1    1    2    0    0 -0.16347205972E+02  0.39357609891E+02 -0.40193478113E+03  0.42307543167E+03  0.12500000000E+03 0.  0.
         25    1    1    2    0    0  0.21710195015E+03 -0.90032666883E+02 -0.73369278709E+03  0.78049294917E+03  0.12500000000E+03 0.  0.
         25    1    1    2    0    0 -0.20075474418E+03  0.50675056992E+02 -0.78098420981E+02  0.25415505518E+03  0.12500000000E+03 0.  0.
</event>
<event>
 5    0  0.6309610E-005  0.2900608E+03  0.7546771E-02  0.1090317E+00
         21   -1    0    0  502  501  0.00000000000E+00  0.00000000000E+00  0.18997292428E+03  0.18997292428E+03  0.00000000000E+00 0. -1.
         21   -1    0    0  501  502 -0.00000000000E+00 -0.00000000000E+00 -0.44288032930E+03  0.44288032930E+03  0.00000000000E+00 0. -1.
         25    1    1    2    0    0  0.12355519936E+03 -0.86969192897E+02 -0.75090429550E+02  0.20998357177E+03  0.12500000000E+03 0.  0.
         25    1    1    2    0    0 -0.83302939837E+02  0.12131792690E+03  0.74122470094E+01  0.19322877782E+03  0.12500000000E+03 0.  0.
         25    1    1    2    0    0 -0.40252259523E+02 -0.34348734001E+02 -0.18522922248E+03  0.22964090399E+03  0.12500000000E+03 0.  0.
</event>
<event>
 5    0  0.5670250E-005  0.4488849E+03  0.7546771E-02  0.1028055E+00
         21   -1    0    0  502  501  0.00000000000E+00  0.00000000000E+00  0.24192075482E+03  0.24192075482E+03  0.00000000000E+00 0.  1.
         21   -1    0    0  501  502 -0.00000000000E+00 -0.00000000000E+00 -0.83290753412E+03  0.83290753412E+03  0.00000000000E+00 0.  1.
         25    1    1    2    0    0 -0.28003876959E+03  0.52343709921E+01 -0.32407977058E+03  0.44620825722E+03  0.12500000000E+03 0.  0.
         25    1    1    2    0    0  0.28183276260E+03 -0.38924427872E+02  0.22501379666E+02  0.31157042422E+03  0.12500000000E+03 0.  0.
         25    1    1    2    0    0 -0.17939930073E+01  0.33690056880E+02 -0.28940838840E+03  0.31704960750E+03  0.12500000000E+03 0.  0.
</event>
<event>
 5    0  0.6360586E-005  0.3435911E+03  0.7546771E-02  0.1065277E+00
         21   -1    0    0  502  501  0.00000000000E+00  0.00000000000E+00  0.50620687109E+03  0.50620687109E+03  0.00000000000E+00 0.  1.
         21   -1    0    0  501  502 -0.00000000000E+00 -0.00000000000E+00 -0.23321460370E+03  0.23321460370E+03  0.00000000000E+00 0.  1.
         25    1    1    2    0    0  0.51472193240E+02  0.51236959260E+01  0.30109627546E+03  0.33009029981E+03  0.12500000000E+03 0.  0.
         25    1    1    2    0    0  0.94597126573E+01 -0.11975706156E+03 -0.11622648631E+03  0.20872191087E+03  0.12500000000E+03 0.  0.
         25    1    1    2    0    0 -0.60931905897E+02  0.11463336564E+03  0.88122478245E+02  0.20060926411E+03  0.12500000000E+03 0.  0.
</event>
<event>
 5    0  0.5670250E-005  0.2205534E+03  0.7546771E-02  0.1133471E+00
         21   -1    0    0  502  501  0.00000000000E+00  0.00000000000E+00  0.10986369382E+04  0.10986369382E+04  0.00000000000E+00 0.  1.
         21   -1    0    0  501  502 -0.00000000000E+00 -0.00000000000E+00 -0.44276520352E+02  0.44276520352E+02  0.00000000000E+00 0.  1.
         25    1    1    2    0    0 -0.25029347354E+02  0.90333803195E+02  0.46083889340E+03  0.48660471628E+03  0.12500000000E+03 0.  0.
         25    1    1    2    0    0  0.10323401294E+02 -0.44317771944E+02  0.39492660571E+03  0.41672852245E+03  0.12500000000E+03 0.  0.
         25    1    1    2    0    0  0.14705946060E+02 -0.46016031252E+02  0.19859491869E+03  0.23958021978E+03  0.12500000000E+03 0.  0.
</event>
<event>
 5    0  0.5670250E-005  0.4204839E+03  0.7546771E-02  0.1036909E+00
         21   -1    0    0  502  501  0.00000000000E+00  0.00000000000E+00  0.68807621250E+03  0.68807621250E+03  0.00000000000E+00 0.  1.
         21   -1    0    0  501  502 -0.00000000000E+00 -0.00000000000E+00 -0.25695808038E+03  0.25695808038E+03  0.00000000000E+00 0.  1.
         25    1    1    2    0    0  0.11491939834E+03  0.10207538280E+02  0.27174388550E+03  0.32059382598E+03  0.12500000000E+03 0.  0.
         25    1    1    2    0    0 -0.12177516190E+03  0.14543835560E+03 -0.13830250978E+03  0.26595881175E+03  0.12500000000E+03 0.  0.
         25    1    1    2    0    0  0.68557635602E+01 -0.15564589388E+03  0.29767675641E+03  0.35848165515E+03  0.12500000000E+03 0.  0.
</event>
<event>
 5    0  0.5670250E-005  0.3964625E+03  0.7546771E-02  0.1045012E+00
         21   -1    0    0  502  501  0.00000000000E+00  0.00000000000E+00  0.35129015454E+03  0.35129015454E+03  0.00000000000E+00 0.  1.
         21   -1    0    0  501  502 -0.00000000000E+00 -0.00000000000E+00 -0.44744353654E+03  0.44744353654E+03  0.00000000000E+00 0.  1.
         25    1    1    2    0    0  0.48758442295E+01 -0.71345285019E+02 -0.23470058458E+03  0.27536028754E+03  0.12500000000E+03 0.  0.
         25    1    1    2    0    0  0.99122760213E+02  0.91054006081E+02  0.26079248724E+03  0.31898883212E+03  0.12500000000E+03 0.  0.
         25    1    1    2    0    0 -0.10399860444E+03 -0.19708721062E+02 -0.12224528466E+03  0.20438457142E+03  0.12500000000E+03 0.  0.
</event>
<event>
 5    0  0.5670250E-005  0.2397320E+03  0.7546771E-02  0.1119971E+00
         21   -1    0    0  502  501  0.00000000000E+00  0.00000000000E+00  0.13612440543E+04  0.13612440543E+04  0.00000000000E+00 0. -1.
         21   -1    0    0  501  502 -0.00000000000E+00 -0.00000000000E+00 -0.42219780261E+02  0.42219780261E+02  0.00000000000E+00 0. -1.
         25    1    1    2    0    0 -0.74881229893E+01 -0.32961485897E+02  0.34866750270E+03  0.37193622972E+03  0.12500000000E+03 0.  0.
         25    1    1    2    0    0 -0.37343655597E+02  0.12481455215E+03  0.40208352129E+03  0.44076000174E+03  0.12500000000E+03 0.  0.
         25    1    1    2    0    0  0.44831778586E+02 -0.91853066255E+02  0.56827325004E+03  0.59076760309E+03  0.12500000000E+03 0.  0.
</event>
<event>
 5    0  0.5670250E-005  0.2600709E+03  0.7546771E-02  0.1107101E+00
         21   -1    0    0  502  501  0.00000000000E+00  0.00000000000E+00  0.25497922886E+03  0.25497922886E+03  0.00000000000E+00 0. -1.
         21   -1    0    0  501  502 -0.00000000000E+00 -0.00000000000E+00 -0.26526423172E+03  0.26526423172E+03  0.00000000000E+00 0. -1.
         25    1    1    2    0    0  0.47897615773E+02  0.92923118971E+02 -0.61724082567E+02  0.17425197274E+03  0.12500000000E+03 0.  0.
         25    1    1    2    0    0 -0.18016756120E+02 -0.74676493527E+02  0.12849671481E+03  0.19503227400E+03  0.12500000000E+03 0.  0.
         25    1    1    2    0    0 -0.29880859653E+02 -0.18246625444E+02 -0.77057635102E+02  0.15095921383E+03  0.12500000000E+03 0.  0.
</event>
<event>
 5    0  0.5670250E-005  0.5064105E+03  0.7546771E-02  0.1012119E+00
         21   -1    0    0  502  501  0.00000000000E+00  0.00000000000E+00  0.56468312613E+03  0.56468312613E+03  0.00000000000E+00 0.  1.
         21   -1    0    0  501  502 -0.00000000000E+00 -0.00000000000E+00 -0.45415141388E+03  0.45415141388E+03  0.00000000000E+00 0.  1.
         25    1    1    2    0    0  0.25006109517E+03  0.12516897233E+03  0.35827804496E+02  0.30839334384E+03  0.12500000000E+03 0.  0.
         25    1    1    2    0    0 -0.27085548084E+01  0.59471521483E+02 -0.22383780134E+03  0.26319680744E+03  0.12500000000E+03 0.  0.
         25    1    1    2    0    0 -0.24735254036E+03 -0.18464049381E+03  0.29854170909E+03  0.44724438872E+03  0.12500000000E+03 0.  0.
</event>
<event>
 5    0  0.5802378E-005  0.2742503E+03  0.7546771E-02  0.1098871E+00
         21   -1    0    0  502  501  0.00000000000E+00  0.00000000000E+00  0.26282184280E+03  0.26282184280E+03  0.00000000000E+00 0.  1.
         21   -1    0    0  501  502 -0.00000000000E+00 -0.00000000000E+00 -0.28617573876E+03  0.28617573876E+03  0.00000000000E+00 0.  1.
         25    1    1    2    0    0  0.58785130848E+02  0.79080055854E+02  0.13006336623E+03  0.20555005735E+03  0.12500000000E+03 0.  0.
         25    1    1    2    0    0 -0.22801345274E+02 -0.10206721579E+03 -0.36438529803E+02  0.16700414468E+03  0.12500000000E+03 0.  0.
         25    1    1    2    0    0 -0.35983785574E+02  0.22987159939E+02 -0.11697873239E+03  0.17644337952E+03  0.12500000000E+03 0.  0.
</event>
<event>
 5    0  0.5670250E-005  0.2810786E+03  0.7546771E-02  0.1095101E+00
         21   -1    0    0  502  501  0.00000000000E+00  0.00000000000E+00  0.72051268949E+03  0.72051268949E+03  0.00000000000E+00 0.  1.
         21   -1    0    0  501  502 -0.00000000000E+00 -0.00000000000E+00 -0.10965134294E+03  0.10965134294E+03  0.00000000000E+00 0.  1.
         25    1    1    2    0    0  0.48046398627E+01  0.46181222507E+02  0.17331505401E+03  0.21867532513E+03  0.12500000000E+03 0.  0.
         25    1    1    2    0    0  0.28029354309E+02 -0.17499948714E+03  0.12707246339E+03  0.25136204199E+03  0.12500000000E+03 0.  0.
         25    1    1    2    0    0 -0.32833994172E+02  0.12881826463E+03  0.31047382916E+03  0.36012666531E+03  0.12500000000E+03 0.  0.
</event>
<event>
 5    0  0.5670250E-005  0.3048663E+03  0.7546771E-02  0.1082833E+00
         21   -1    0    0  502  501  0.00000000000E+00  0.00000000000E+00  0.10119424440E+03  0.10119424440E+03  0.00000000000E+00 0.  1.
         21   -1    0    0  501  502 -0.00000000000E+00 -0.00000000000E+00 -0.91846574236E+03  0.91846574236E+03  0.00000000000E+00 0.  1.
         25    1    1    2    0    0  0.15082601206E+03 -0.42573123566E+01 -0.20610591428E+03  0.28437872376E+03  0.12500000000E+03 0.  0.
         25    1    1    2    0    0  0.64920294714E+02  0.49914477100E+02 -0.28897128521E+03  0.32532369014E+03  0.12500000000E+03 0.  0.
         25    1    1    2    0    0 -0.21574630677E+03 -0.45657164743E+02 -0.32219429846E+03  0.40995757285E+03  0.12500000000E+03 0.  0.
</event>
<event>
 5    0  0.5670250E-005  0.3231670E+03  0.7546771E-02  0.1074201E+00
         21   -1    0    0  502  501  0.00000000000E+00  0.00000000000E+00  0.48111886900E+03  0.48111886900E+03  0.00000000000E+00 0.  1.
         21   -1    0    0  501  502 -0.00000000000E+00 -0.00000000000E+00 -0.21707092162E+03  0.21707092162E+03  0.00000000000E+00 0.  1.
         25    1    1    2    0    0  0.10784298241E+02  0.72829788428E+02  0.28405603791E+03  0.31895659868E+03  0.12500000000E+03 0.  0.
         25    1    1    2    0    0  0.47314779121E+02  0.26734016638E+02  0.10175271897E+03  0.17009412625E+03  0.12500000000E+03 0.  0.
         25    1    1    2    0    0 -0.58099077362E+02 -0.99563805066E+02 -0.12176080949E+03  0.20913906569E+03  0.12500000000E+03 0.  0.
</event>
<event>
 5    0  0.5670250E-005  0.2239449E+03  0.7546771E-02  0.1130976E+00
         21   -1    0    0  502  501  0.00000000000E+00  0.00000000000E+00  0.20045748979E+03  0.20045748979E+03  0.00000000000E+00 0. -1.
         21   -1    0    0  501  502 -0.00000000000E+00 -0.00000000000E+00 -0.25018429931E+03  0.25018429931E+03  0.00000000000E+00 0. -1.
         25    1    1    2    0    0 -0.25091799409E+02  0.15533385097E+02 -0.99401448018E+02  0.16240853524E+03  0.12500000000E+03 0.  0.
         25    1    1    2    0    0 -0.26781920123E+02 -0.45608222395E+02  0.61660548090E+02  0.14907851752E+03  0.12500000000E+03 0.  0.
         25    1    1    2    0    0  0.51873719531E+02  0.30074837298E+02 -0.11985909594E+02  0.13915473634E+03  0.12500000000E+03 0.  0.
</event>
<event>
 5    0  0.5670250E-005  0.3825846E+03  0.7546771E-02  0.1049983E+00
         21   -1    0    0  502  501  0.00000000000E+00  0.00000000000E+00  0.68024158680E+03  0.68024158680E+03  0.00000000000E+00 0.  1.
         21   -1    0    0  501  502 -0.00000000000E+00 -0.00000000000E+00 -0.21517493479E+03  0.21517493479E+03  0.00000000000E+00 0.  1.
         25    1    1    2    0    0  0.15216471080E+03 -0.11937497382E+03  0.31812586560E+03  0.39272579486E+03  0.12500000000E+03 0.  0.
         25    1    1    2    0    0  0.13607236997E+02  0.19073204198E+03  0.16590369382E+03  0.28233473813E+03  0.12500000000E+03 0.  0.
         25    1    1    2    0    0 -0.16577194780E+03 -0.71357068151E+02 -0.18962907408E+02  0.22035598860E+03  0.12500000000E+03 0.  0.
</event>
<event>
 5    0  0.5670250E-005  0.2582781E+03  0.7546771E-02  0.1108182E+00
         21   -1    0    0  502  501  0.00000000000E+00  0.00000000000E+00  0.23891333308E+03  0.23891333308E+03  0.00000000000E+00 0.  1.
         21   -1    0    0  501  502 -0.00000000000E+00 -0.00000000000E+00 -0.27921247055E+03  0.27921247055E+03  0.00000000000E+00 0.  1.
         25    1    1    2    0    0 -0.90628878479E+02  0.20998218829E+02 -0.10141767973E+03  0.18591682164E+03  0.12500000000E+03 0.  0.
         25    1    1    2    0    0  0.95156403336E+02 -0.46179926019E+02 -0.40981633636E+02  0.16879520419E+03  0.12500000000E+03 0.  0.
         25    1    1    2    0    0 -0.45275248575E+01  0.25181707190E+02  0.10210017588E+03  0.16341377780E+03  0.12500000000E+03 0.  0.
</event>
<event>
 5    0  0.5670250E-005  0.2641779E+03  0.7546771E-02  0.1104659E+00
         21   -1    0    0  502  501  0.00000000000E+00  0.00000000000E+00  0.80970114487E+02  0.80970114487E+02  0.00000000000E+00 0. -1.
         21   -1    0    0  501  502 -0.00000000000E+00 -0.00000000000E+00 -0.86192263393E+03  0.86192263393E+03  0.00000000000E+00 0. -1.
         25    1    1    2    0    0  0.35863659042E+02 -0.35715290305E+02 -0.13111509700E+03  0.18809027796E+03  0.12500000000E+03 0.  0.
         25    1    1    2    0    0 -0.14338607702E+03  0.36714638870E+02 -0.21322232989E+03  0.28809077346E+03  0.12500000000E+03 0.  0.
         25    1    1    2    0    0  0.10752241798E+03 -0.99934856512E+00 -0.43661509255E+03  0.46671169699E+03  0.12500000000E+03 0.  0.
</event>
<event>
 5    0  0.5670250E-005  0.2274665E+03  0.7546771E-02  0.1128436E+00
         21   -1    0    0  502  501  0.00000000000E+00  0.00000000000E+00  0.10290677698E+03  0.10290677698E+03  0.00000000000E+00 0.  1.
         21   -1    0    0  501  502 -0.00000000000E+00 -0.00000000000E+00 -0.50279487737E+03  0.50279487737E+03  0.00000000000E+00 0.  1.
         25    1    1    2    0    0 -0.79653660230E+02 -0.15371014786E+02 -0.11989239068E+03  0.19125940246E+03  0.12500000000E+03 0.  0.
         25    1    1    2    0    0  0.60588475588E+01 -0.34355684328E+02 -0.20770205431E+03  0.24491256816E+03  0.12500000000E+03 0.  0.
         25    1    1    2    0    0  0.73594812671E+02  0.49726699114E+02 -0.72293655392E+02  0.16952968373E+03  0.12500000000E+03 0.  0.
</event>
<event>
 5    0  0.5670250E-005  0.2824965E+03  0.7546771E-02  0.1094333E+00
         21   -1    0    0  502  501  0.00000000000E+00  0.00000000000E+00  0.54194143136E+02  0.54194143136E+02  0.00000000000E+00 0.  1.
         21   -1    0    0  501  502 -0.00000000000E+00 -0.00000000000E+00 -0.14725628345E+04  0.14725628345E+04  0.00000000000E+00 0.  1.
         25    1    1    2    0    0 -0.12249525178E+03 -0.65083386422E+02 -0.66578653033E+03  0.69147497270E+03  0.12500000000E+03 0.  0.
         25    1    1    2    0    0  0.15779472682E+03  0.81986389888E+02 -0.57428345076E+03  0.61404187622E+03  0.12500000000E+03 0.  0.
         25    1    1    2    0    0 -0.35299475043E+02 -0.16903003466E+02 -0.17829871023E+03  0.22124012867E+03  0.12500000000E+03 0.  0.
</event>
<event>
 5    0  0.5670250E-005  0.4045473E+03  0.7546771E-02  0.1042216E+00
         21   -1    0    0  502  501  0.00000000000E+00  0.00000000000E+00  0.62502733280E+03  0.62502733280E+03  0.00000000000E+00 0. -1.
         21   -1    0    0  501  502 -0.00000000000E+00 -0.00000000000E+00 -0.26184219044E+03  0.26184219044E+03  0.00000000000E+00 0. -1.
         25    1    1    2    0    0  0.20159032662E+03  0.59068653114E+02  0.31489897844E+03  0.39864035444E+03  0.12500000000E+03 0.  0.
         25    1    1    2    0    0 -0.13398049223E+02  0.11988692236E+03  0.92236476638E+02  0.19668489901E+03  0.12500000000E+03 0.  0.
         25    1    1    2    0    0 -0.18819227739E+03 -0.17895557547E+03 -0.43950312718E+02  0.29154426980E+03  0.12500000000E+03 0.  0.
</event>
<event>
 5    0  0.5670250E-005  0.4052510E+03  0.7546771E-02  0.1041976E+00
         21   -1    0    0  502  501  0.00000000000E+00  0.00000000000E+00  0.73969390457E+02  0.73969390457E+02  0.00000000000E+00 0. -1.
         21   -1    0    0  501  502 -0.00000000000E+00 -0.00000000000E+00 -0.22202206791E+04  0.22202206791E+04  0.00000000000E+00 0. -1.
         25    1    1    2    0    0 -0.10242062603E+03 -0.23008722366E+02 -0.67927255394E+03  0.69860975407E+03  0.12500000000E+03 0.  0.
         25    1    1    2    0    0  0.35939876804E+02  0.12131394692E+03 -0.75090175428E+02  0.19306030899E+03  0.12500000000E+03 0.  0.
         25    1    1    2    0    0  0.66480749231E+02 -0.98305224551E+02 -0.13918885593E+04  0.14025200065E+04  0.12500000000E+03 0.  0.
</event>
<event>
 5    0  0.5670250E-005  0.3541484E+03  0.7546771E-02  0.1060925E+00
         21   -1    0    0  502  501  0.00000000000E+00  0.00000000000E+00  0.15069408210E+03  0.15069408210E+03  0.00000000000E+00 0. -1.
         21   -1    0    0  501  502 -0.00000000000E+00 -0.00000000000E+00 -0.83228924358E+03  0.83228924358E+03  0.00000000000E+00 0. -1.
         25    1    1    2    0    0 -0.19508255497E+03  0.27327502393E+02 -0.18923645341E+03  0.30039878652E+03  0.12500000000E+03 0.  0.
         25    1    1    2    0    0  0.21328328547E+03 -0.23904724125E+02 -0.95502260107E+02  0.26609561699E+03  0.12500000000E+03 0.  0.
         25    1    1    2    0    0 -0.18200730495E+02 -0.34227782685E+01 -0.39685644796E+03  0.41648892217E+03  0.12500000000E+03 0.  0.
</event>
<event>
 5    0  0.5670250E-005  0.3038497E+03  0.7546771E-02  0.1083332E+00
         21   -1    0    0  502  501  0.00000000000E+00  0.00000000000E+00  0.26705300441E+03  0.26705300441E+03  0.00000000000E+00 0.  1.
         21   -1    0    0  501  502 -0.00000000000E+00 -0.00000000000E+00 -0.34571650057E+03  0.34571650057E+03  0.00000000000E+00 0.  1.
         25    1    1    2    0    0 -0.13653669161E+03  0.12221708518E+03 -0.47681156159E+02  0.22688714533E+03  0.12500000000E+03 0.  0.
         25    1    1    2    0    0 -0.13314551890E+02 -0.13006025409E+03 -0.55129301182E+02  0.18909570814E+03  0.12500000000E+03 0.  0.
         25    1    1    2    0    0  0.14985124350E+03  0.78431689184E+01  0.24146961189E+02  0.19678665151E+03  0.12500000000E+03 0.  0.
</event>
<event>
 5    0  0.5670250E-005  0.3015110E+03  0.7546771E-02  0.1084488E+00
         21   -1    0    0  502  501  0.00000000000E+00  0.00000000000E+00  0.39358276163E+03  0.39358276163E+03  0.00000000000E+00 0. -1.
         21   -1    0    0  501  502 -0.00000000000E+00 -0.00000000000E+00 -0.23097780092E+03  0.23097780092E+03  0.00000000000E+00 0. -1.
         25    1    1    2    0    0 -0.16659193192E+03 -0.38614664003E+02  0.84344711537E+02  0.22799779477E+03  0.12500000000E+03 0.  0.
         25    1    1    2    0    0 -0.40139227774E+02  0.19004579305E+02 -0.21631268566E+02  0.13440700659E+03  0.12500000000E+03 0.  0.
         25    1    1    2    0    0  0.20673115969E+03  0.19610084698E+02  0.99891517739E+02  0.26215576119E+03  0.12500000000E+03 0.  0.
</event>
<event>
 5    0  0.5670250E-005  0.2260849E+03  0.7546771E-02  0.1129426E+00
         21   -1    0    0  502  501  0.00000000000E+00  0.00000000000E+00  0.17259185273E+03  0.17259185273E+03  0.00000000000E+00 0.  1.
         21   -1    0    0  501  502 -0.00000000000E+00 -0.00000000000E+00 -0.29615767339E+03  0.29615767339E+03  0.00000000000E+00 0.  1.
         25    1    1    2    0    0  0.80005909365E+02 -0.64020019731E+02 -0.27299019990E+02  0.16391993458E+03  0.12500000000E+03 0.  0.
         25    1    1    2    0    0 -0.85500523019E+02  0.13329952495E+02 -0.69681540536E+02  0.16723798660E+03  0.12500000000E+03 0.  0.
         25    1    1    2    0    0  0.54946136547E+01  0.50690067236E+02 -0.26585260133E+02  0.13759160495E+03  0.12500000000E+03 0.  0.
</event>
<event>
 5    0  0.5670250E-005  0.2259440E+03  0.7546771E-02  0.1129528E+00
         21   -1    0    0  502  501  0.00000000000E+00  0.00000000000E+00  0.20840855250E+03  0.20840855250E+03  0.00000000000E+00 0.  1.
         21   -1    0    0  501  502 -0.00000000000E+00 -0.00000000000E+00 -0.24495496097E+03  0.24495496097E+03  0.00000000000E+00 0.  1.
         25    1    1    2    0    0  0.81978882883E+02  0.10818055452E+02  0.33996523539E+02  0.15368256627E+03  0.12500000000E+03 0.  0.
         25    1    1    2    0    0 -0.43835120777E+02  0.20795332914E+02  0.22782703507E+02  0.13600740886E+03  0.12500000000E+03 0.  0.
         25    1    1    2    0    0 -0.38143762106E+02 -0.31613388366E+02 -0.93325635509E+02  0.16367353835E+03  0.12500000000E+03 0.  0.
</event>
<event>
 5    0  0.5670250E-005  0.3119920E+03  0.7546771E-02  0.1079395E+00
         21   -1    0    0  502  501  0.00000000000E+00  0.00000000000E+00  0.21656535313E+03  0.21656535313E+03  0.00000000000E+00 0.  1.
         21   -1    0    0  501  502 -0.00000000000E+00 -0.00000000000E+00 -0.44946718685E+03  0.44946718685E+03  0.00000000000E+00 0.  1.
         25    1    1    2    0    0 -0.21495460643E+03  0.31694200376E+02 -0.57980818850E+02  0.25728735009E+03  0.12500000000E+03 0.  0.
         25    1    1    2    0    0  0.17634842171E+03  0.37676475325E+02 -0.12472982328E+03  0.25239019681E+03  0.12500000000E+03 0.  0.
         25    1    1    2    0    0  0.38606184725E+02 -0.69370675701E+02 -0.50191191595E+02  0.15635499308E+03  0.12500000000E+03 0.  0.
</event>
<event>
 5    0  0.5670250E-005  0.3103865E+03  0.7546771E-02  0.1080161E+00
         21   -1    0    0  502  501  0.00000000000E+00  0.00000000000E+00  0.62476051797E+03  0.62476051797E+03  0.00000000000E+00 0. -1.
         21   -1    0    0  501  502 -0.00000000000E+00 -0.00000000000E+00 -0.15420270654E+03  0.15420270654E+03  0.00000000000E+00 0. -1.
         25    1    1    2    0    0 -0.73211118377E+02  0.65767316668E+02  0.99266881085E+02  0.18752098943E+03  0.12500000000E+03 0.  0.
         25    1    1    2    0    0 -0.80435553052E+02  0.11697323662E+03  0.17862093987E+03  0.26015967489E+03  0.12500000000E+03 0.  0.
         25    1    1    2    0    0  0.15364667143E+03 -0.18274055329E+03  0.19266999047E+03  0.33128256019E+03  0.12500000000E+03 0.  0.
</event>
<event>
 5    0  0.5670250E-005  0.2916142E+03  0.7546771E-02  0.1089509E+00
         21   -1    0    0  502  501  0.00000000000E+00  0.00000000000E+00  0.92849108545E+03  0.92849108545E+03  0.00000000000E+00 0.  1.
         21   -1    0    0  501  502 -0.00000000000E+00 -0.00000000000E+00 -0.91588226886E+02  0.91588226886E+02  0.00000000000E+00 0.  1.
         25    1    1    2    0    0 -0.88587312817E+02  0.55010579371E+02  0.98686403754E+02  0.19036250188E+03  0.12500000000E+03 0.  0.
         25    1    1    2    0    0  0.48281999692E+02 -0.39058131786E+02  0.66298955568E+03  0.67752257534E+03  0.12500000000E+03 0.  0.
         25    1    1    2    0    0  0.40305313125E+02 -0.15952447585E+02  0.75226899121E+02  0.15219423511E+03  0.12500000000E+03 0.  0.
</event>
<event>
 5    0  0.5670250E-005  0.3731057E+03  0.7546771E-02  0.1053512E+00
         21   -1    0    0  502  501  0.00000000000E+00  0.00000000000E+00  0.77964314250E+03  0.77964314250E+03  0.00000000000E+00 0. -1.
         21   -1    0    0  501  502 -0.00000000000E+00 -0.00000000000E+00 -0.17855333653E+03  0.17855333653E+03  0.00000000000E+00 0. -1.
         25    1    1    2    0    0  0.17245290305E+03 -0.11171288263E+02  0.18123668499E+03  0.27988665105E+03  0.12500000000E+03 0.  0.
         25    1    1    2    0    0 -0.91115282277E+02  0.15172542402E+03  0.42087825708E+03  0.47337734023E+03  0.12500000000E+03 0.  0.
         25    1    1    2    0    0 -0.81337620769E+02 -0.14055413576E+03 -0.10251360963E+01  0.20493248775E+03  0.12500000000E+03 0.  0.
</event>
<event>
 5    0  0.5670250E-005  0.3062064E+03  0.7546771E-02  0.1082179E+00
         21   -1    0    0  502  501  0.00000000000E+00  0.00000000000E+00  0.54804045829E+02  0.54804045829E+02  0.00000000000E+00 0. -1.
         21   -1    0    0  501  502 -0.00000000000E+00 -0.00000000000E+00 -0.17108653132E+04  0.17108653132E+04  0.00000000000E+00 0. -1.
         25    1    1    2    0    0  0.43279665953E+02 -0.15768674205E+03 -0.90627895852E+03  0.92935719116E+03  0.12500000000E+03 0.  0.
         25    1    1    2    0    0 -0.52795772899E+01  0.18619090535E+03 -0.56761561217E+03  0.61033385155E+03  0.12500000000E+03 0.  0.
         25    1    1    2    0    0 -0.38000088663E+02 -0.28504163306E+02 -0.18216669665E+03  0.22597831629E+03  0.12500000000E+03 0.  0.
</event>
<event>
 5    0  0.5670250E-005  0.2478945E+03  0.7546771E-02  0.1114643E+00
         21   -1    0    0  502  501  0.00000000000E+00  0.00000000000E+00  0.10640771842E+04  0.10640771842E+04  0.00000000000E+00 0. -1.
         21   -1    0    0  501  502 -0.00000000000E+00 -0.00000000000E+00 -0.57751146417E+02  0.57751146417E+02  0.00000000000E+00 0. -1.
         25    1    1    2    0    0  0.87460695684E+02  0.13446860954E+02  0.46006807323E+03  0.48488949604E+03  0.12500000000E+03 0.  0.
         25    1    1    2    0    0  0.83795745787E+01  0.11162654399E+02  0.40450471969E+03  0.42360818025E+03  0.12500000000E+03 0.  0.
         25    1    1    2    0    0 -0.95840270263E+02 -0.24609515352E+02  0.14175324487E+03  0.21333065434E+03  0.12500000000E+03 0.  0.
</event>
<event>
 5    0  0.5670250E-005  0.2353248E+03  0.7546771E-02  0.1122947E+00
         21   -1    0    0  502  501  0.00000000000E+00  0.00000000000E+00  0.31783711318E+03  0.31783711318E+03  0.00000000000E+00 0. -1.
         21   -1    0    0  501  502 -0.00000000000E+00 -0.00000000000E+00 -0.17423314825E+03  0.17423314825E+03  0.00000000000E+00 0. -1.
         25    1    1    2    0    0  0.10601131580E+02  0.61777556847E+02  0.12519094092E+02  0.14039436683E+03  0.12500000000E+03 0.  0.
         25    1    1    2    0    0  0.19128810004E+02 -0.77505020686E+02 -0.23373765285E+02  0.15014750250E+03  0.12500000000E+03 0.  0.
         25    1    1    2    0    0 -0.29729941584E+02  0.15727463839E+02  0.15445863612E+03  0.20152839209E+03  0.12500000000E+03 0.  0.
</event>
<event>
 5    0  0.5670250E-005  0.3668091E+03  0.7546771E-02  0.1055920E+00
         21   -1    0    0  502  501  0.00000000000E+00  0.00000000000E+00  0.28524217668E+03  0.28524217668E+03  0.00000000000E+00 0.  1.
         21   -1    0    0  501  502 -0.00000000000E+00 -0.00000000000E+00 -0.47170052853E+03  0.47170052853E+03  0.00000000000E+00 0.  1.
         25    1    1    2    0    0 -0.74445186335E+02 -0.86934887504E+02 -0.26569669585E+03  0.31514995577E+03  0.12500000000E+03 0.  0.
         25    1    1    2    0    0 -0.23022823864E+02 -0.10930567363E+03 -0.23761763114E+02  0.16931450644E+03  0.12500000000E+03 0.  0.
         25    1    1    2    0    0  0.97468010200E+02  0.19624056113E+03  0.10300010712E+03  0.27247824301E+03  0.12500000000E+03 0.  0.
</event>
<event>
 5    0  0.5670250E-005  0.3196669E+03  0.7546771E-02  0.1075803E+00
         21   -1    0    0  502  501  0.00000000000E+00  0.00000000000E+00  0.96032228871E+03  0.96032228871E+03  0.00000000000E+00 0. -1.
         21   -1    0    0  501  502 -0.00000000000E+00 -0.00000000000E+00 -0.10640897047E+03  0.10640897047E+03  0.00000000000E+00 0. -1.
         25    1    1    2    0    0  0.12913928759E+01 -0.79679099515E+02  0.22730965841E+03  0.27137632064E+03  0.12500000000E+03 0.  0.
         25    1    1    2    0    0 -0.13694409888E+03 -0.47723282854E+00  0.61216647566E+02  0.19525980618E+03  0.12500000000E+03 0.  0.
         25    1    1    2    0    0  0.13565270600E+03  0.80156332344E+02  0.56538701226E+03  0.60009513237E+03  0.12500000000E+03 0.  0.
</event>
<event>
 5    0  0.5670250E-005  0.3599676E+03  0.7546771E-02  0.1058597E+00
         21   -1    0    0  502  501  0.00000000000E+00  0.00000000000E+00  0.75020607741E+03  0.75020607741E+03  0.00000000000E+00 0. -1.
         21   -1    0    0  501  502 -0.00000000000E+00 -0.00000000000E+00 -0.17272148494E+03  0.17272148494E+03  0.00000000000E+00 0. -1.
         25    1    1    2    0    0  0.20051724064E+03 -0.11052253175E+03  0.26140570351E+02  0.26216545012E+03  0.12500000000E+03 0.  0.
         25    1    1    2    0    0 -0.87709491783E+02  0.64404265391E+02  0.15179827373E+03  0.22474114055E+03  0.12500000000E+03 0.  0.
         25    1    1    2    0    0 -0.11280774886E+03  0.46118266355E+02  0.39954574839E+03  0.43602097169E+03  0.12500000000E+03 0.  0.
</event>
<event>
 5    0  0.5670250E-005  0.2317351E+03  0.7546771E-02  0.1125424E+00
         21   -1    0    0  502  501  0.00000000000E+00  0.00000000000E+00  0.21252625220E+03  0.21252625220E+03  0.00000000000E+00 0.  1.
         21   -1    0    0  501  502 -0.00000000000E+00 -0.00000000000E+00 -0.25268010496E+03  0.25268010496E+03  0.00000000000E+00 0.  1.
         25    1    1    2    0    0  0.53524671064E+02 -0.35954020254E+02 -0.33340707057E+02  0.14454820902E+03  0.12500000000E+03 0.  0.
         25    1    1    2    0    0 -0.10731337783E+03  0.27843239555E+02 -0.55258631588E+02  0.17598273613E+03  0.12500000000E+03 0.  0.
         25    1    1    2    0    0  0.53788706766E+02  0.81107806995E+01  0.48445485883E+02  0.14467541201E+03  0.12500000000E+03 0.  0.
</event>
<event>
 5    0  0.7698493E-005  0.3034977E+03  0.7546771E-02  0.1083505E+00
         21   -1    0    0  502  501  0.00000000000E+00  0.00000000000E+00  0.57106908081E+03  0.57106908081E+03  0.00000000000E+00 0.  1.
         21   -1    0    0  501  502 -0.00000000000E+00 -0.00000000000E+00 -0.16129550209E+03  0.16129550209E+03  0.00000000000E+00 0.  1.
         25    1    1    2    0    0 -0.76248027952E+02  0.96923868568E+02  0.14028453069E+03  0.22475041182E+03  0.12500000000E+03 0.  0.
         25    1    1    2    0    0  0.53157370017E+02 -0.19471109001E+03  0.62003339460E+02  0.24537222472E+03  0.12500000000E+03 0.  0.
         25    1    1    2    0    0  0.23090657935E+02  0.97787221443E+02  0.20748570858E+03  0.26224194635E+03  0.12500000000E+03 0.  0.
</event>
<event>
 5    0  0.5670250E-005  0.2818988E+03  0.7546771E-02  0.1094656E+00
         21   -1    0    0  502  501  0.00000000000E+00  0.00000000000E+00  0.11541729504E+04  0.11541729504E+04  0.00000000000E+00 0.  1.
         21   -1    0    0  501  502 -0.00000000000E+00 -0.00000000000E+00 -0.68851860895E+02  0.68851860895E+02  0.00000000000E+00 0.  1.
         25    1    1    2    0    0 -0.86097618566E+02  0.14360733796E+02  0.63333324340E+03  0.65142538160E+03  0.12500000000E+03 0.  0.
         25    1    1    2    0    0  0.47447623487E+02 -0.11003088707E+03  0.15101821262E+03  0.22975981726E+03  0.12500000000E+03 0.  0.
         25    1    1    2    0    0  0.38649995080E+02  0.95670153269E+02  0.30096963344E+03  0.34183961239E+03  0.12500000000E+03 0.  0.
</event>
<event>
 5    0  0.5755757E-005  0.5122049E+03  0.7546771E-02  0.1010641E+00
         21   -1    0    0  502  501  0.00000000000E+00  0.00000000000E+00  0.53010261647E+03  0.53010261647E+03  0.00000000000E+00 0. -1.
         21   -1    0    0  501  502 -0.00000000000E+00 -0.00000000000E+00 -0.49491154551E+03  0.49491154551E+03  0.00000000000E+00 0. -1.
         25    1    1    2    0    0  0.19698760204E+03 -0.62218808173E+02 -0.15066047901E+03  0.28460301366E+03  0.12500000000E+03 0.  0.
         25    1    1    2    0    0 -0.25396883160E+03 -0.23960338352E+03  0.17121801834E+03  0.40847344910E+03  0.12500000000E+03 0.  0.
         25    1    1    2    0    0  0.56981229554E+02  0.30182219169E+03  0.14633531632E+02  0.33193769922E+03  0.12500000000E+03 0.  0.
</event>
<event>
 5    0  0.5855367E-005  0.3089732E+03  0.7546771E-02  0.1080839E+00
         21   -1    0    0  502  501  0.00000000000E+00  0.00000000000E+00  0.64058836953E+03  0.64058836953E+03  0.00000000000E+00 0. -1.
         21   -1    0    0  501  502 -0.00000000000E+00 -0.00000000000E+00 -0.14902621128E+03  0.14902621128E+03  0.00000000000E+00 0. -1.
         25    1    1    2    0    0  0.26278076145E+02  0.11283035238E+03  0.56289742486E+02  0.17948470914E+03  0.12500000000E+03 0.  0.
         25    1    1    2    0    0  0.31763026403E+02 -0.54775920532E+02 -0.99378614892E+01  0.14047438346E+03  0.12500000000E+03 0.  0.
         25    1    1    2    0    0 -0.58041102548E+02 -0.58054431850E+02  0.44521027725E+03  0.46965548822E+03  0.12500000000E+03 0.  0.
</event>
<event>
 5    0  0.6474932E-005  0.2860967E+03  0.7546771E-02  0.1092405E+00
         21   -1    0    0  502  501  0.00000000000E+00  0.00000000000E+00  0.11781715269E+03  0.11781715269E+03  0.00000000000E+00 0. -1.
         21   -1    0    0  501  502 -0.00000000000E+00 -0.00000000000E+00 -0.69473191338E+03  0.69473191338E+03  0.00000000000E+00 0. -1.
         25    1    1    2    0    0 -0.72161365058E+02 -0.17617516093E+02 -0.56425639132E+02  0.15596952341E+03  0.12500000000E+03 0.  0.
         25    1    1    2    0    0  0.13924900518E+03  0.33079004088E+02 -0.10465082830E+03  0.21693616991E+03  0.12500000000E+03 0.  0.
         25    1    1    2    0    0 -0.67087640117E+02 -0.15461487994E+02 -0.41583829326E+03  0.43964337275E+03  0.12500000000E+03 0.  0.
</event>
<event>
 5    0  0.5670250E-005  0.2272969E+03  0.7546771E-02  0.1128557E+00
         21   -1    0    0  502  501  0.00000000000E+00  0.00000000000E+00  0.16280815161E+04  0.16280815161E+04  0.00000000000E+00 0.  1.
         21   -1    0    0  501  502 -0.00000000000E+00 -0.00000000000E+00 -0.31732994801E+02  0.31732994801E+02  0.00000000000E+00 0.  1.
         25    1    1    2    0    0  0.23420451476E+02  0.75479863590E+02  0.34306791437E+03  0.37358576154E+03  0.12500000000E+03 0.  0.
         25    1    1    2    0    0 -0.42064459665E+02 -0.54307343398E+02  0.43008500853E+03  0.45311899196E+03  0.12500000000E+03 0.  0.
         25    1    1    2    0    0  0.18644008189E+02 -0.21172520192E+02  0.82319559843E+03  0.83310975743E+03  0.12500000000E+03 0.  0.
</event>
<event>
 5    0  0.5670250E-005  0.3099026E+03  0.7546771E-02  0.1080393E+00
         21   -1    0    0  502  501  0.00000000000E+00  0.00000000000E+00  0.48068196253E+03  0.48068196253E+03  0.00000000000E+00 0.  1.
         21   -1    0    0  501  502 -0.00000000000E+00 -0.00000000000E+00 -0.19979863997E+03  0.19979863997E+03  0.00000000000E+00 0.  1.
         25    1    1    2    0    0  0.23675050471E+03  0.20123331865E+02  0.16423932839E+03  0.31473053070E+03  0.12500000000E+03 0.  0.
         25    1    1    2    0    0 -0.13554910490E+03 -0.11602724940E+02  0.75014714195E+02  0.19940007626E+03  0.12500000000E+03 0.  0.
         25    1    1    2    0    0 -0.10120139981E+03 -0.85206069248E+01  0.41629279976E+02  0.16634999554E+03  0.12500000000E+03 0.  0.
</event>
<event>
 5    0  0.5670250E-005  0.2181963E+03  0.7546771E-02  0.1135235E+00
         21   -1    0    0  502  501  0.00000000000E+00  0.00000000000E+00  0.51943490171E+03  0.51943490171E+03  0.00000000000E+00 0.  1.
         21   -1    0    0  501  502 -0.00000000000E+00 -0.00000000000E+00 -0.91656577786E+02  0.91656577786E+02  0.00000000000E+00 0.  1.
         25    1    1    2    0    0 -0.46663330443E+02  0.65374689393E+01  0.87975800747E+02  0.15995295066E+03  0.12500000000E+03 0.  0.
         25    1    1    2    0    0 -0.21841424293E+02 -0.20621114357E+02  0.71771939433E+02  0.14723616900E+03  0.12500000000E+03 0.  0.
         25    1    1    2    0    0  0.68504754736E+02  0.14083645418E+02  0.26803058374E+03  0.30390235983E+03  0.12500000000E+03 0.  0.
</event>
<event>
 5    0  0.5670250E-005  0.5310481E+03  0.7546771E-02  0.1005978E+00
         21   -1    0    0  502  501  0.00000000000E+00  0.00000000000E+00  0.59745909275E+03  0.59745909275E+03  0.00000000000E+00 0.  1.
         21   -1    0    0  501  502 -0.00000000000E+00 -0.00000000000E+00 -0.47201905183E+03  0.47201905183E+03  0.00000000000E+00 0.  1.
         25    1    1    2    0    0 -0.36374508358E+02  0.14965501311E+03  0.35954047189E+02  0.20158725485E+03  0.12500000000E+03 0.  0.
         25    1    1    2    0    0 -0.41594091584E+02 -0.26910668515E+03 -0.30662712927E+03  0.42871164301E+03  0.12500000000E+03 0.  0.
         25    1    1    2    0    0  0.77968599942E+02  0.11945167204E+03  0.39611312301E+03  0.43917924672E+03  0.12500000000E+03 0.  0.
</event>
<event>
 5    0  0.5670250E-005  0.3953036E+03  0.7546771E-02  0.1045418E+00
         21   -1    0    0  502  501  0.00000000000E+00  0.00000000000E+00  0.43799892491E+03  0.43799892491E+03  0.00000000000E+00 0. -1.
         21   -1    0    0  501  502 -0.00000000000E+00 -0.00000000000E+00 -0.35677020440E+03  0.35677020440E+03  0.00000000000E+00 0. -1.
         25    1    1    2    0    0  0.85980041596E+02  0.16629135568E+03  0.33162417858E+02  0.22753050012E+03  0.12500000000E+03 0.  0.
         25    1    1    2    0    0 -0.68563742438E+02 -0.24554459490E+03  0.20546839002E+03  0.35047880700E+03  0.12500000000E+03 0.  0.
         25    1    1    2    0    0 -0.17416299158E+02  0.79253239218E+02 -0.15740208738E+03  0.21675982219E+03  0.12500000000E+03 0.  0.
</event>
<event>
 5    0  0.5670250E-005  0.3910244E+03  0.7546771E-02  0.1046933E+00
         21   -1    0    0  502  501  0.00000000000E+00  0.00000000000E+00  0.72512093197E+03  0.72512093197E+03  0.00000000000E+00 0. -1.
         21   -1    0    0  501  502 -0.00000000000E+00 -0.00000000000E+00 -0.21086148675E+03  0.21086148675E+03  0.00000000000E+00 0. -1.
         25    1    1    2    0    0  0.16087727533E+03 -0.23465513612E+03  0.27668890154E+03  0.41608446121E+03  0.12500000000E+03 0.  0.
         25    1    1    2    0    0 -0.46818246397E+02  0.25602333563E+03  0.17822839430E+03  0.33930849845E+03  0.12500000000E+03 0.  0.
         25    1    1    2    0    0 -0.11405902893E+03 -0.21368199509E+02  0.59342149374E+02  0.18058945906E+03  0.12500000000E+03 0.  0.
</event>
<event>
 5    0  0.5670250E-005  0.2591000E+03  0.7546771E-02  0.1107685E+00
         21   -1    0    0  502  501  0.00000000000E+00  0.00000000000E+00  0.73710057954E+03  0.73710057954E+03  0.00000000000E+00 0. -1.
         21   -1    0    0  501  502 -0.00000000000E+00 -0.00000000000E+00 -0.91076848646E+02  0.91076848646E+02  0.00000000000E+00 0. -1.
         25    1    1    2    0    0  0.39504091462E+02 -0.23427872048E+02  0.12787322295E+03  0.18462394097E+03  0.12500000000E+03 0.  0.
         25    1    1    2    0    0  0.54679582743E+02 -0.65386047866E+02  0.82786252782E+02  0.17246378076E+03  0.12500000000E+03 0.  0.
         25    1    1    2    0    0 -0.94183674205E+02  0.88813919914E+02  0.43536425516E+03  0.47108970646E+03  0.12500000000E+03 0.  0.
</event>
<event>
 5    0  0.5670250E-005  0.2603981E+03  0.7546771E-02  0.1106904E+00
         21   -1    0    0  502  501  0.00000000000E+00  0.00000000000E+00  0.10219272020E+04  0.10219272020E+04  0.00000000000E+00 0.  1.
         21   -1    0    0  501  502 -0.00000000000E+00 -0.00000000000E+00 -0.66352275137E+02  0.66352275137E+02  0.00000000000E+00 0.  1.
         25    1    1    2    0    0 -0.12511966470E+03  0.22255344514E+02  0.26555274789E+03  0.31983353915E+03  0.12500000000E+03 0.  0.
         25    1    1    2    0    0  0.79348786104E+00 -0.26880823330E+02  0.46661629215E+03  0.48381708567E+03  0.12500000000E+03 0.  0.
         25    1    1    2    0    0  0.12432617684E+03  0.46254788162E+01  0.22340588679E+03  0.28462885229E+03  0.12500000000E+03 0.  0.
</event>
<event>
 5    0  0.5670250E-005  0.3984572E+03  0.7546771E-02  0.1044315E+00
         21   -1    0    0  502  501  0.00000000000E+00  0.00000000000E+00  0.22768625910E+04  0.22768625910E+04  0.00000000000E+00 0. -1.
         21   -1    0    0  501  502 -0.00000000000E+00 -0.00000000000E+00 -0.69731093406E+02  0.69731093406E+02  0.00000000000E+00 0. -1.
         25    1    1    2    0    0  0.13942831692E+03  0.89338230739E+02  0.14266405198E+04  0.14416482746E+04  0.12500000000E+03 0.  0.
         25    1    1    2    0    0  0.34044566032E+02 -0.13752644668E+03  0.16239261329E+03  0.24913634192E+03  0.12500000000E+03 0.  0.
         25    1    1    2    0    0 -0.17347288295E+03  0.48188215939E+02  0.61809836449E+03  0.65580906784E+03  0.12500000000E+03 0.  0.
</event>
<event>
 5    0  0.5670250E-005  0.2300703E+03  0.7546771E-02  0.1126590E+00
         21   -1    0    0  502  501  0.00000000000E+00  0.00000000000E+00  0.37411750078E+02  0.37411750078E+02  0.00000000000E+00 0.  1.
         21   -1    0    0  501  502 -0.00000000000E+00 -0.00000000000E+00 -0.14148590146E+04  0.14148590146E+04  0.00000000000E+00 0.  1.
         25    1    1    2    0    0  0.19138231927E+02 -0.17107928535E+02 -0.40951925193E+03  0.42894052134E+03  0.12500000000E+03 0.  0.
         25    1    1    2    0    0  0.74705292397E+02 -0.19123605320E+02 -0.65957744157E+03  0.67573219134E+03  0.12500000000E+03 0.  0.
         25    1    1    2    0    0 -0.93843524323E+02  0.36231533856E+02 -0.30835057101E+03  0.34759805199E+03  0.12500000000E+03 0.  0.
</event>
<event>
 5    0  0.5670250E-005  0.2716633E+03  0.7546771E-02  0.1100331E+00
         21   -1    0    0  502  501  0.00000000000E+00  0.00000000000E+00  0.24559591203E+03  0.24559591203E+03  0.00000000000E+00 0.  1.
         21   -1    0    0  501  502 -0.00000000000E+00 -0.00000000000E+00 -0.30049747191E+03  0.30049747191E+03  0.00000000000E+00 0.  1.
         25    1    1    2    0    0 -0.78200799767E+02  0.53760369747E+02  0.70199214247E+02  0.17192577503E+03  0.12500000000E+03 0.  0.
         25    1    1    2    0    0 -0.43542560716E+01  0.73987617524E+02 -0.89792045717E+01  0.14559791622E+03  0.12500000000E+03 0.  0.
         25    1    1    2    0    0  0.82555055839E+02 -0.12774798727E+03 -0.11612156956E+03  0.22856969268E+03  0.12500000000E+03 0.  0.
</event>
<event>
 5    0  0.5670250E-005  0.3699213E+03  0.7546771E-02  0.1054723E+00
         21   -1    0    0  502  501  0.00000000000E+00  0.00000000000E+00  0.12499779472E+03  0.12499779472E+03  0.00000000000E+00 0.  1.
         21   -1    0    0  501  502 -0.00000000000E+00 -0.00000000000E+00 -0.10947537189E+04  0.10947537189E+04  0.00000000000E+00 0.  1.
         25    1    1    2    0    0 -0.15016858447E+03 -0.74796455201E+02 -0.85082380792E+03  0.87616851438E+03  0.12500000000E+03 0.  0.
         25    1    1    2    0    0  0.20946321531E+02  0.81044731052E+00 -0.61394721214E+02  0.14083222999E+03  0.12500000000E+03 0.  0.
         25    1    1    2    0    0  0.12922226294E+03  0.73986007890E+02 -0.57537395052E+02  0.20275076925E+03  0.12500000000E+03 0.  0.
</event>
<event>
 5    0  0.5670250E-005  0.4376196E+03  0.7546771E-02  0.1031480E+00
         21   -1    0    0  502  501  0.00000000000E+00  0.00000000000E+00  0.52771455955E+03  0.52771455955E+03  0.00000000000E+00 0. -1.
         21   -1    0    0  501  502 -0.00000000000E+00 -0.00000000000E+00 -0.36290626634E+03  0.36290626634E+03  0.00000000000E+00 0. -1.
         25    1    1    2    0    0  0.24401644553E+03  0.16254184829E+01  0.42049987136E+02  0.27738036898E+03  0.12500000000E+03 0.  0.
         25    1    1    2    0    0 -0.32749716827E+03  0.87844646493E+02  0.20978903663E+03  0.41786064308E+03  0.12500000000E+03 0.  0.
         25    1    1    2    0    0  0.83480722732E+02 -0.89470064976E+02 -0.87030730558E+02  0.19537981384E+03  0.12500000000E+03 0.  0.
</event>
<event>
 5    0  0.5775365E-005  0.2770265E+03  0.7546771E-02  0.1097324E+00
         21   -1    0    0  502  501  0.00000000000E+00  0.00000000000E+00  0.50375730393E+02  0.50375730393E+02  0.00000000000E+00 0. -1.
         21   -1    0    0  501  502 -0.00000000000E+00 -0.00000000000E+00 -0.15234260857E+04  0.15234260857E+04  0.00000000000E+00 0. -1.
         25    1    1    2    0    0 -0.76629175723E+02 -0.25955459194E+02 -0.12815129247E+03  0.19645220842E+03  0.12500000000E+03 0.  0.
         25    1    1    2    0    0  0.96833873271E+02 -0.97389948943E+00 -0.56203738786E+03  0.58385680851E+03  0.12500000000E+03 0.  0.
         25    1    1    2    0    0 -0.20204697548E+02  0.26929358684E+02 -0.78286167499E+03  0.79349279917E+03  0.12500000000E+03 0.  0.
</event>
<event>
 5    0  0.5670250E-005  0.2321637E+03  0.7546771E-02  0.1125126E+00
         21   -1    0    0  502  501  0.00000000000E+00  0.00000000000E+00  0.14872756038E+04  0.14872756038E+04  0.00000000000E+00 0. -1.
         21   -1    0    0  501  502 -0.00000000000E+00 -0.00000000000E+00 -0.36240750647E+02  0.36240750647E+02  0.00000000000E+00 0. -1.
         25    1    1    2    0    0 -0.72176986025E+02 -0.26414228900E+02  0.51454783699E+03  0.53506233782E+03  0.12500000000E+03 0.  0.
         25    1    1    2    0    0 -0.23328425203E+02 -0.33611238497E+02  0.26058757263E+03  0.29189863615E+03  0.12500000000E+03 0.  0.
         25    1    1    2    0    0  0.95505411228E+02  0.60025467397E+02  0.67589944354E+03  0.69655538048E+03  0.12500000000E+03 0.  0.
</event>
<event>
 5    0  0.5670250E-005  0.2568214E+03  0.7546771E-02  0.1109068E+00
         21   -1    0    0  502  501  0.00000000000E+00  0.00000000000E+00  0.74876129736E+03  0.74876129736E+03  0.00000000000E+00 0.  1.
         21   -1    0    0  501  502 -0.00000000000E+00 -0.00000000000E+00 -0.88088474126E+02  0.88088474126E+02  0.00000000000E+00 0.  1.
         25    1    1    2    0    0  0.96226528171E+02  0.95373056431E+02  0.30473799937E+03  0.35615419817E+03  0.12500000000E+03 0.  0.
         25    1    1    2    0    0 -0.97432000697E+02 -0.11434589884E+03  0.23612559153E+03  0.30650982744E+03  0.12500000000E+03 0.  0.
         25    1    1    2    0    0  0.12054725256E+01  0.18972842411E+02  0.11980923234E+03  0.17418574588E+03  0.12500000000E+03 0.  0.
</event>
<event>
 5    0  0.5670250E-005  0.2782704E+03  0.7546771E-02  0.1096637E+00
         21   -1    0    0  502  501  0.00000000000E+00  0.00000000000E+00  0.20600119903E+03  0.20600119903E+03  0.00000000000E+00 0. -1.
         21   -1    0    0  501  502 -0.00000000000E+00 -0.00000000000E+00 -0.37589309998E+03  0.37589309998E+03  0.00000000000E+00 0. -1.
         25    1    1    2    0    0 -0.45169619950E+02 -0.46646889874E+02 -0.15787852689E+03  0.21158179542E+03  0.12500000000E+03 0.  0.
         25    1    1    2    0    0  0.35906144455E+02  0.15140138802E+03 -0.42685305675E+02  0.20410454876E+03  0.12500000000E+03 0.  0.
         25    1    1    2    0    0  0.92634754946E+01 -0.10475449815E+03  0.30671931609E+02  0.16620795483E+03  0.12500000000E+03 0.  0.
</event>
<event>
 5    0  0.6039633E-005  0.4739368E+03  0.7546771E-02  0.1020815E+00
         21   -1    0    0  502  501  0.00000000000E+00  0.00000000000E+00  0.27004643058E+03  0.27004643058E+03  0.00000000000E+00 0. -1.
         21   -1    0    0  501  502 -0.00000000000E+00 -0.00000000000E+00 -0.83176849307E+03  0.83176849307E+03  0.00000000000E+00 0.  1.
         25    1    1    2    0    0  0.36585529505E+02 -0.23082793248E+02 -0.41934189866E+03  0.43970893132E+03  0.12500000000E+03 0.  0.
         25    1    1    2    0    0 -0.23863744062E+03 -0.18792331206E+03 -0.83855306105E+02  0.33899809976E+03  0.12500000000E+03 0.  0.
         25    1    1    2    0    0  0.20205191111E+03  0.21100610530E+03 -0.58524857725E+02  0.32310789256E+03  0.12500000000E+03 0.  0.
</event>
<event>
 5    0  0.5670250E-005  0.2399680E+03  0.7546771E-02  0.1119814E+00
         21   -1    0    0  502  501  0.00000000000E+00  0.00000000000E+00  0.15504967968E+03  0.15504967968E+03  0.00000000000E+00 0.  1.
         21   -1    0    0  501  502 -0.00000000000E+00 -0.00000000000E+00 -0.37139470067E+03  0.37139470067E+03  0.00000000000E+00 0.  1.
         25    1    1    2    0    0  0.54813744405E+01  0.85830869800E+00 -0.10959914790E+03  0.16633627199E+03  0.12500000000E+03 0.  0.
         25    1    1    2    0    0  0.62220946620E+02  0.91630863293E+02 -0.89919920063E+02  0.18967934345E+03  0.12500000000E+03 0.  0.
         25    1    1    2    0    0 -0.67702321060E+02 -0.92489171991E+02 -0.16825953025E+02  0.17042876491E+03  0.12500000000E+03 0.  0.
</event>
<event>
 5    0  0.5670250E-005  0.3242177E+03  0.7546771E-02  0.1073724E+00
         21   -1    0    0  502  501  0.00000000000E+00  0.00000000000E+00  0.11146146641E+04  0.11146146641E+04  0.00000000000E+00 0.  1.
         21   -1    0    0  501  502 -0.00000000000E+00 -0.00000000000E+00 -0.94308005624E+02  0.94308005624E+02  0.00000000000E+00 0.  1.
         25    1    1    2    0    0  0.13200823325E+03  0.28283993095E+02  0.21112083077E+03  0.28004135961E+03  0.12500000000E+03 0.  0.
         25    1    1    2    0    0 -0.14806399954E+03  0.11374698392E+03  0.23957497861E+03  0.32845470720E+03  0.12500000000E+03 0.  0.
         25    1    1    2    0    0  0.16055766291E+02 -0.14203097702E+03  0.56961084915E+03  0.60042660295E+03  0.12500000000E+03 0.  0.
</event>
<event>
 5    0  0.5670250E-005  0.3721097E+03  0.7546771E-02  0.1053889E+00
         21   -1    0    0  502  501  0.00000000000E+00  0.00000000000E+00  0.67958381689E+03  0.67958381689E+03  0.00000000000E+00 0. -1.
         21   -1    0    0  501  502 -0.00000000000E+00 -0.00000000000E+00 -0.20375059285E+03  0.20375059285E+03  0.00000000000E+00 0. -1.
         25    1    1    2    0    0 -0.17717789478E+03 -0.13685548054E+03  0.16662755037E+02  0.25695150585E+03  0.12500000000E+03 0.  0.
         25    1    1    2    0    0  0.10724662950E+03 -0.63627790027E+02  0.15507558385E+03  0.23499738703E+03  0.12500000000E+03 0.  0.
         25    1    1    2    0    0  0.69931265276E+02  0.20048327057E+03  0.30409488514E+03  0.39138551687E+03  0.12500000000E+03 0.  0.
</event>
<event>
 5    0  0.5670250E-005  0.3342593E+03  0.7546771E-02  0.1069268E+00
         21   -1    0    0  502  501  0.00000000000E+00  0.00000000000E+00  0.18160232860E+03  0.18160232860E+03  0.00000000000E+00 0. -1.
         21   -1    0    0  501  502 -0.00000000000E+00 -0.00000000000E+00 -0.61524129201E+03  0.61524129201E+03  0.00000000000E+00 0.  1.
         25    1    1    2    0    0 -0.18271983247E+02 -0.52913875892E+02 -0.19741999189E+03  0.24027774934E+03  0.12500000000E+03 0.  0.
         25    1    1    2    0    0 -0.71296483121E+02  0.22106916599E+03 -0.18728011439E+03  0.32350209567E+03  0.12500000000E+03 0.  0.
         25    1    1    2    0    0  0.89568466368E+02 -0.16815529010E+03 -0.48938857136E+02  0.23306377559E+03  0.12500000000E+03 0.  0.
</event>
<event>
 5    0  0.5670250E-005  0.3978101E+03  0.7546771E-02  0.1044541E+00
         21   -1    0    0  502  501  0.00000000000E+00  0.00000000000E+00  0.13315544320E+03  0.13315544320E+03  0.00000000000E+00 0.  1.
         21   -1    0    0  501  502 -0.00000000000E+00 -0.00000000000E+00 -0.11884822038E+04  0.11884822038E+04  0.00000000000E+00 0.  1.
         25    1    1    2    0    0 -0.74082195617E+01  0.11415237575E+03 -0.57872948162E+03  0.60302442695E+03  0.12500000000E+03 0.  0.
         25    1    1    2    0    0  0.10533519919E+03 -0.18934619719E+03 -0.48177250715E+03  0.54284181418E+03  0.12500000000E+03 0.  0.
         25    1    1    2    0    0 -0.97926979626E+02  0.75193821436E+02  0.51752281962E+01  0.17577140583E+03  0.12500000000E+03 0.  0.
</event>
<event>
 5    0  0.5670250E-005  0.2400817E+03  0.7546771E-02  0.1119738E+00
         21   -1    0    0  502  501  0.00000000000E+00  0.00000000000E+00  0.43540391546E+03  0.43540391546E+03  0.00000000000E+00 0.  1.
         21   -1    0    0  501  502 -0.00000000000E+00 -0.00000000000E+00 -0.13238099709E+03  0.13238099709E+03  0.00000000000E+00 0.  1.
         25    1    1    2    0    0 -0.18687564483E+02  0.32524904563E+02  0.46076245686E+02  0.13840200468E+03  0.12500000000E+03 0.  0.
         25    1    1    2    0    0 -0.72155665036E+02  0.68113389082E+02  0.12125025087E+03  0.20043077884E+03  0.12500000000E+03 0.  0.
         25    1    1    2    0    0  0.90843229519E+02 -0.10063829364E+03  0.13569642181E+03  0.22895212903E+03  0.12500000000E+03 0.  0.
</event>
<event>
 5    0  0.5670250E-005  0.3198577E+03  0.7546771E-02  0.1075715E+00
         21   -1    0    0  502  501  0.00000000000E+00  0.00000000000E+00  0.64501993854E+02  0.64501993854E+02  0.00000000000E+00 0.  1.
         21   -1    0    0  501  502 -0.00000000000E+00 -0.00000000000E+00 -0.15861362343E+04  0.15861362343E+04  0.00000000000E+00 0.  1.
         25    1    1    2    0    0 -0.77294954995E+02 -0.11669310936E+03 -0.62777232891E+03  0.65522125179E+03  0.12500000000E+03 0.  0.
         25    1    1    2    0    0 -0.24495074716E+01 -0.10849397645E+03 -0.39670511271E+03  0.42985682437E+03  0.12500000000E+03 0.  0.
         25    1    1    2    0    0  0.79744462467E+02  0.22518708581E+03 -0.49715679882E+03  0.56556015199E+03  0.12500000000E+03 0.  0.
</event>
<event>
 5    0  0.5670250E-005  0.4186670E+03  0.7546771E-02  0.1037501E+00
         21   -1    0    0  502  501  0.00000000000E+00  0.00000000000E+00  0.75604066380E+03  0.75604066380E+03  0.00000000000E+00 0.  1.
         21   -1    0    0  501  502 -0.00000000000E+00 -0.00000000000E+00 -0.23184206704E+03  0.23184206704E+03  0.00000000000E+00 0.  1.
         25    1    1    2    0    0  0.22306605065E+03  0.90674539544E+02  0.74370297319E+02  0.28131170647E+03  0.12500000000E+03 0.  0.
         25    1    1    2    0    0 -0.29413351350E+03 -0.10108064041E+03  0.45158652942E+03  0.56239417954E+03  0.12500000000E+03 0.  0.
         25    1    1    2    0    0  0.71067462847E+02  0.10406100868E+02 -0.17582299819E+01  0.14417684482E+03  0.12500000000E+03 0.  0.
</event>
<event>
 5    0  0.5670250E-005  0.2917166E+03  0.7546771E-02  0.1089456E+00
         21   -1    0    0  502  501  0.00000000000E+00  0.00000000000E+00  0.13525458276E+03  0.13525458276E+03  0.00000000000E+00 0. -1.
         21   -1    0    0  501  502 -0.00000000000E+00 -0.00000000000E+00 -0.62917331674E+03  0.62917331674E+03  0.00000000000E+00 0. -1.
         25    1    1    2    0    0 -0.43922406163E+02 -0.53155876102E+00 -0.11658136869E+02  0.13300515957E+03  0.12500000000E+03 0.  0.
         25    1    1    2    0    0 -0.11720843975E+03 -0.37330541347E+01 -0.10077164646E+03  0.19882574977E+03  0.12500000000E+03 0.  0.
         25    1    1    2    0    0  0.16113084591E+03  0.42646128957E+01 -0.38148895065E+03  0.43259699016E+03  0.12500000000E+03 0.  0.
</event>
<event>
 5    0  0.5670250E-005  0.2518204E+03  0.7546771E-02  0.1112160E+00
         21   -1    0    0  502  501  0.00000000000E+00  0.00000000000E+00  0.76265667387E+02  0.76265667387E+02  0.00000000000E+00 0.  1.
         21   -1    0    0  501  502 -0.00000000000E+00 -0.00000000000E+00 -0.83148170388E+03  0.83148170388E+03  0.00000000000E+00 0.  1.
         25    1    1    2    0    0 -0.69793490415E+02  0.74158508618E+02 -0.16249748750E+03  0.22891275445E+03  0.12500000000E+03 0.  0.
         25    1    1    2    0    0  0.61600330330E+02 -0.13151908733E+03 -0.37638329918E+03  0.42235205567E+03  0.12500000000E+03 0.  0.
         25    1    1    2    0    0  0.81931600848E+01  0.57360578709E+02 -0.21633524980E+03  0.25648256114E+03  0.12500000000E+03 0.  0.
</event>
<event>
 5    0  0.5670250E-005  0.3140370E+03  0.7546771E-02  0.1078427E+00
         21   -1    0    0  502  501  0.00000000000E+00  0.00000000000E+00  0.33162332182E+03  0.33162332182E+03  0.00000000000E+00 0. -1.
         21   -1    0    0  501  502 -0.00000000000E+00 -0.00000000000E+00 -0.29738321548E+03  0.29738321548E+03  0.00000000000E+00 0. -1.
         25    1    1    2    0    0 -0.33012621511E+02  0.11047505163E+02 -0.21064376038E+03  0.24740184788E+03  0.12500000000E+03 0.  0.
         25    1    1    2    0    0  0.78227501623E+02 -0.33491179252E+02  0.16951098845E+03  0.22715672190E+03  0.12500000000E+03 0.  0.
         25    1    1    2    0    0 -0.45214880112E+02  0.22443674089E+02  0.75372878273E+02  0.15444796751E+03  0.12500000000E+03 0.  0.
</event>
<event>
 5    0  0.5670250E-005  0.4008421E+03  0.7546771E-02  0.1043488E+00
         21   -1    0    0  502  501  0.00000000000E+00  0.00000000000E+00  0.94204412711E+02  0.94204412711E+02  0.00000000000E+00 0. -1.
         21   -1    0    0  501  502 -0.00000000000E+00 -0.00000000000E+00 -0.17055926386E+04  0.17055926386E+04  0.00000000000E+00 0. -1.
         25    1    1    2    0    0 -0.20284055373E+03  0.12139832930E+03 -0.34053658499E+03  0.43298038098E+03  0.12500000000E+03 0.  0.
         25    1    1    2    0    0  0.12411160798E+03  0.40691998138E+02 -0.18360817782E+03  0.25767516937E+03  0.12500000000E+03 0.  0.
         25    1    1    2    0    0  0.78728945754E+02 -0.16209032744E+03 -0.10872434630E+04  0.11091415009E+04  0.12500000000E+03 0.  0.
</event>
<event>
 5    0  0.5670250E-005  0.2085701E+03  0.7546771E-02  0.1142703E+00
         21   -1    0    0  502  501  0.00000000000E+00  0.00000000000E+00  0.35290252993E+02  0.35290252993E+02  0.00000000000E+00 0. -1.
         21   -1    0    0  501  502 -0.00000000000E+00 -0.00000000000E+00 -0.12326770663E+04  0.12326770663E+04  0.00000000000E+00 0. -1.
         25    1    1    2    0    0  0.19795076502E+02  0.80339873717E+01 -0.38311090136E+03  0.40355340755E+03  0.12500000000E+03 0.  0.
         25    1    1    2    0    0 -0.29241099966E+02 -0.28146912752E+02 -0.21620284700E+03  0.25301375788E+03  0.12500000000E+03 0.  0.
         25    1    1    2    0    0  0.94460234643E+01  0.20112925380E+02 -0.59807306494E+03  0.61140015386E+03  0.12500000000E+03 0.  0.
</event>
<event>
 5    0  0.5670250E-005  0.4067853E+03  0.7546771E-02  0.1041455E+00
         21   -1    0    0  502  501  0.00000000000E+00  0.00000000000E+00  0.19399324430E+04  0.19399324430E+04  0.00000000000E+00 0. -1.
         21   -1    0    0  501  502 -0.00000000000E+00 -0.00000000000E+00 -0.85298999840E+02  0.85298999840E+02  0.00000000000E+00 0.  1.
         25    1    1    2    0    0 -0.20782429903E+03 -0.23479952993E+03  0.99206212322E+03  0.10479188971E+04  0.12500000000E+03 0.  0.
         25    1    1    2    0    0  0.84174756406E+02 -0.43134793953E+00  0.18345367137E+03  0.23741487994E+03  0.12500000000E+03 0.  0.
         25    1    1    2    0    0  0.12364954263E+03  0.23523087787E+03  0.67911764861E+03  0.73989766586E+03  0.12500000000E+03 0.  0.
</event>
<event>
 5    0  0.5670250E-005  0.3147651E+03  0.7546771E-02  0.1078084E+00
         21   -1    0    0  502  501  0.00000000000E+00  0.00000000000E+00  0.15277957279E+03  0.15277957279E+03  0.00000000000E+00 0. -1.
         21   -1    0    0  501  502 -0.00000000000E+00 -0.00000000000E+00 -0.64849689335E+03  0.64849689335E+03  0.00000000000E+00 0. -1.
         25    1    1    2    0    0  0.24301594081E+02  0.74180970065E+02 -0.37597791846E+03  0.40382889813E+03  0.12500000000E+03 0.  0.
         25    1    1    2    0    0  0.11760288518E+03 -0.11189467289E+02 -0.15969723739E+02  0.17273006356E+03  0.12500000000E+03 0.  0.
         25    1    1    2    0    0 -0.14190447926E+03 -0.62991502776E+02 -0.10376967836E+03  0.22471750444E+03  0.12500000000E+03 0.  0.
</event>
<event>
 5    0  0.5670250E-005  0.3748611E+03  0.7546771E-02  0.1052850E+00
         21   -1    0    0  502  501  0.00000000000E+00  0.00000000000E+00  0.49987886128E+03  0.49987886128E+03  0.00000000000E+00 0.  1.
         21   -1    0    0  501  502 -0.00000000000E+00 -0.00000000000E+00 -0.28110977911E+03  0.28110977911E+03  0.00000000000E+00 0.  1.
         25    1    1    2    0    0 -0.83996296088E+02 -0.25066749705E+03  0.65269220900E+01  0.29250157700E+03  0.12500000000E+03 0.  0.
         25    1    1    2    0    0  0.78862087991E+02  0.21300851588E+03  0.25409103326E+02  0.26050427883E+03  0.12500000000E+03 0.  0.
         25    1    1    2    0    0  0.51342080972E+01  0.37658981175E+02  0.18683305675E+03  0.22798278455E+03  0.12500000000E+03 0.  0.
</event>
<event>
 5    0  0.5670250E-005  0.4651763E+03  0.7546771E-02  0.1023291E+00
         21   -1    0    0  502  501  0.00000000000E+00  0.00000000000E+00  0.62667675256E+03  0.62667675256E+03  0.00000000000E+00 0.  1.
         21   -1    0    0  501  502 -0.00000000000E+00 -0.00000000000E+00 -0.34529602132E+03  0.34529602132E+03  0.00000000000E+00 0.  1.
         25    1    1    2    0    0  0.17002951729E+02 -0.19650067130E+03 -0.19807887716E+03  0.30620557762E+03  0.12500000000E+03 0.  0.
         25    1    1    2    0    0 -0.16359948036E+03  0.15492519769E+03  0.21280469414E+03  0.33418175399E+03  0.12500000000E+03 0.  0.
         25    1    1    2    0    0  0.14659652863E+03  0.41575473608E+02  0.26665491427E+03  0.33158544226E+03  0.12500000000E+03 0.  0.
</event>
<event>
 5    0  0.5670250E-005  0.2811954E+03  0.7546771E-02  0.1095038E+00
         21   -1    0    0  502  501  0.00000000000E+00  0.00000000000E+00  0.21965105917E+03  0.21965105917E+03  0.00000000000E+00 0.  1.
         21   -1    0    0  501  502 -0.00000000000E+00 -0.00000000000E+00 -0.35998381828E+03  0.35998381828E+03  0.00000000000E+00 0.  1.
         25    1    1    2    0    0  0.69507489274E+02  0.12001995888E+03 -0.98316679861E+02  0.21101481259E+03  0.12500000000E+03 0.  0.
         25    1    1    2    0    0 -0.94357929613E+02  0.64128514836E+01 -0.92667694914E+02  0.18209021178E+03  0.12500000000E+03 0.  0.
         25    1    1    2    0    0  0.24850440339E+02 -0.12643281036E+03  0.50651615663E+02  0.18652985308E+03  0.12500000000E+03 0.  0.
</event>
<event>
 5    0  0.5670250E-005  0.2857216E+03  0.7546771E-02  0.1092604E+00
         21   -1    0    0  502  501  0.00000000000E+00  0.00000000000E+00  0.16571241736E+03  0.16571241736E+03  0.00000000000E+00 0.  1.
         21   -1    0    0  501  502 -0.00000000000E+00 -0.00000000000E+00 -0.49264150201E+03  0.49264150201E+03  0.00000000000E+00 0.  1.
         25    1    1    2    0    0  0.10680186627E+02  0.11088685422E+03  0.28759474365E+02  0.16988839922E+03  0.12500000000E+03 0.  0.
         25    1    1    2    0    0 -0.16552323782E+02 -0.75379979969E+01 -0.28442267646E+03  0.31121063561E+03  0.12500000000E+03 0.  0.
         25    1    1    2    0    0  0.58721371549E+01 -0.10334885622E+03 -0.71265882557E+02  0.17725488454E+03  0.12500000000E+03 0.  0.
</event>
<event>
 5    0  0.5670250E-005  0.2503191E+03  0.7546771E-02  0.1113103E+00
         21   -1    0    0  502  501  0.00000000000E+00  0.00000000000E+00  0.28120123996E+03  0.28120123996E+03  0.00000000000E+00 0. -1.
         21   -1    0    0  501  502 -0.00000000000E+00 -0.00000000000E+00 -0.22282848665E+03  0.22282848665E+03  0.00000000000E+00 0. -1.
         25    1    1    2    0    0 -0.56817853476E+02  0.11108172687E+02  0.12055268217E+02  0.13828228182E+03  0.12500000000E+03 0.  0.
         25    1    1    2    0    0  0.15801516618E+03 -0.77538716345E+01  0.18237361205E+02  0.20245126972E+03  0.12500000000E+03 0.  0.
         25    1    1    2    0    0 -0.10119731271E+03 -0.33543010524E+01  0.28080123886E+02  0.16329617507E+03  0.12500000000E+03 0.  0.
</event>
<event>
 5    0  0.5670250E-005  0.2065739E+03  0.7546771E-02  0.1144308E+00
         21   -1    0    0  502  501  0.00000000000E+00  0.00000000000E+00  0.52645640497E+02  0.52645640497E+02  0.00000000000E+00 0. -1.
         21   -1    0    0  501  502 -0.00000000000E+00 -0.00000000000E+00 -0.81056609659E+03  0.81056609659E+03  0.00000000000E+00 0. -1.
         25    1    1    2    0    0 -0.21582611681E+01 -0.24629889389E+02 -0.30468360416E+03  0.33025503506E+03  0.12500000000E+03 0.  0.
         25    1    1    2    0    0  0.36198959437E+02 -0.37597347086E+02 -0.24469753163E+03  0.27968876838E+03  0.12500000000E+03 0.  0.
         25    1    1    2    0    0 -0.34040698269E+02  0.62227236475E+02 -0.20853932030E+03  0.25326793364E+03  0.12500000000E+03 0.  0.
</event>
<event>
 5    0  0.5670250E-005  0.4342992E+03  0.7546771E-02  0.1032510E+00
         21   -1    0    0  502  501  0.00000000000E+00  0.00000000000E+00  0.12552629002E+04  0.12552629002E+04  0.00000000000E+00 0. -1.
         21   -1    0    0  501  502 -0.00000000000E+00 -0.00000000000E+00 -0.15025996656E+03  0.15025996656E+03  0.00000000000E+00 0. -1.
         25    1    1    2    0    0  0.57433218064E+02 -0.16343159229E+03  0.11949883734E+03  0.24477220435E+03  0.12500000000E+03 0.  0.
         25    1    1    2    0    0 -0.19461692044E+03  0.97843988803E+02  0.12981300851E+03  0.28271117602E+03  0.12500000000E+03 0.  0.
         25    1    1    2    0    0  0.13718370238E+03  0.65587603490E+02  0.85569108777E+03  0.87803948637E+03  0.12500000000E+03 0.  0.
</event>
<event>
 5    0  0.5670250E-005  0.2356296E+03  0.7546771E-02  0.1122739E+00
         21   -1    0    0  502  501  0.00000000000E+00  0.00000000000E+00  0.64723448514E+02  0.64723448514E+02  0.00000000000E+00 0.  1.
         21   -1    0    0  501  502 -0.00000000000E+00 -0.00000000000E+00 -0.85782403678E+03  0.85782403678E+03  0.00000000000E+00 0.  1.
         25    1    1    2    0    0 -0.56525710507E+01 -0.46901470479E+02 -0.94508470070E+02  0.16367208194E+03  0.12500000000E+03 0.  0.
         25    1    1    2    0    0 -0.35214860887E+02 -0.17020297666E+02 -0.46670512919E+03  0.48473544803E+03  0.12500000000E+03 0.  0.
         25    1    1    2    0    0  0.40867431937E+02  0.63921768145E+02 -0.23188698901E+03  0.27413995533E+03  0.12500000000E+03 0.  0.
</event>
<event>
 5    0  0.6237933E-005  0.4162758E+03  0.7546771E-02  0.1038285E+00
         21   -1    0    0  502  501  0.00000000000E+00  0.00000000000E+00  0.18343333553E+03  0.18343333553E+03  0.00000000000E+00 0.  1.
         21   -1    0    0  501  502 -0.00000000000E+00 -0.00000000000E+00 -0.94467871375E+03  0.94467871375E+03  0.00000000000E+00 0.  1.
         25    1    1    2    0    0 -0.20472236557E+03  0.12236809252E+03 -0.16313076064E+03  0.31483621472E+03  0.12500000000E+03 0.  0.
         25    1    1    2    0    0  0.36106834196E+02 -0.17813286300E+03 -0.53542146605E+02  0.22699511409E+03  0.12500000000E+03 0.  0.
         25    1    1    2    0    0  0.16861553138E+03  0.55764770484E+02 -0.54457247098E+03  0.58628072047E+03  0.12500000000E+03 0.  0.
</event>
<event>
 5    0  0.5670250E-005  0.3448243E+03  0.7546771E-02  0.1064760E+00
         21   -1    0    0  502  501  0.00000000000E+00  0.00000000000E+00  0.27447666406E+03  0.27447666406E+03  0.00000000000E+00 0.  1.
         21   -1    0    0  501  502 -0.00000000000E+00 -0.00000000000E+00 -0.43320193270E+03  0.43320193270E+03  0.00000000000E+00 0.  1.
         25    1    1    2    0    0 -0.17174377000E+03  0.27291576002E+02 -0.19741958669E+03  0.29127348981E+03  0.12500000000E+03 0.  0.
         25    1    1    2    0    0  0.16680014061E+03 -0.13598748854E+03  0.22484970568E+02  0.24989089189E+03  0.12500000000E+03 0.  0.
         25    1    1    2    0    0  0.49436293911E+01  0.10869591254E+03  0.16209347489E+02  0.16651421507E+03  0.12500000000E+03 0.  0.
</event>
<event>
 5    0  0.5670250E-005  0.2458889E+03  0.7546771E-02  0.1115931E+00
         21   -1    0    0  502  501  0.00000000000E+00  0.00000000000E+00  0.15240247699E+04  0.15240247699E+04  0.00000000000E+00 0.  1.
         21   -1    0    0  501  502 -0.00000000000E+00 -0.00000000000E+00 -0.39672148866E+02  0.39672148866E+02  0.00000000000E+00 0.  1.
         25    1    1    2    0    0  0.47879943601E+02  0.64368525278E+02  0.79998744714E+03  0.81365884228E+03  0.12500000000E+03 0.  0.
         25    1    1    2    0    0 -0.36080841694E+02  0.46629044217E+02  0.34156685666E+03  0.36846846876E+03  0.12500000000E+03 0.  0.
         25    1    1    2    0    0 -0.11799101908E+02 -0.11099756950E+03  0.34279831725E+03  0.38156960774E+03  0.12500000000E+03 0.  0.
</event>
<event>
 5    0  0.5670250E-005  0.4340146E+03  0.7546771E-02  0.1032599E+00
         21   -1    0    0  502  501  0.00000000000E+00  0.00000000000E+00  0.37501167498E+03  0.37501167498E+03  0.00000000000E+00 0.  1.
         21   -1    0    0  501  502 -0.00000000000E+00 -0.00000000000E+00 -0.50230084958E+03  0.50230084958E+03  0.00000000000E+00 0.  1.
         25    1    1    2    0    0  0.83487671973E+02  0.41148024320E+01  0.26957092432E+03  0.30867556788E+03  0.12500000000E+03 0.  0.
         25    1    1    2    0    0  0.31691117480E+02  0.13176006187E+03 -0.13697958341E+03  0.22968118578E+03  0.12500000000E+03 0.  0.
         25    1    1    2    0    0 -0.11517878945E+03 -0.13587486430E+03 -0.25988051550E+03  0.33895577090E+03  0.12500000000E+03 0.  0.
</event>
<event>
 5    0  0.5670250E-005  0.3364478E+03  0.7546771E-02  0.1068319E+00
         21   -1    0    0  502  501  0.00000000000E+00  0.00000000000E+00  0.44730115582E+02  0.44730115582E+02  0.00000000000E+00 0. -1.
         21   -1    0    0  501  502 -0.00000000000E+00 -0.00000000000E+00 -0.25306693582E+04  0.25306693582E+04  0.00000000000E+00 0. -1.
         25    1    1    2    0    0  0.13558148519E+03 -0.67216107406E+02 -0.36227760469E+03  0.41203204618E+03  0.12500000000E+03 0.  0.
         25    1    1    2    0    0  0.54926444049E+02  0.70108534615E+02 -0.47886326032E+03  0.50285896926E+03  0.12500000000E+03 0.  0.
         25    1    1    2    0    0 -0.19050792924E+03 -0.28924272089E+01 -0.16447983776E+04  0.16605084584E+04  0.12500000000E+03 0.  0.
</event>
<event>
 5    0  0.5670250E-005  0.2658068E+03  0.7546771E-02  0.1103704E+00
         21   -1    0    0  502  501  0.00000000000E+00  0.00000000000E+00  0.59804818458E+02  0.59804818458E+02  0.00000000000E+00 0. -1.
         21   -1    0    0  501  502 -0.00000000000E+00 -0.00000000000E+00 -0.11813971517E+04  0.11813971517E+04  0.00000000000E+00 0. -1.
         25    1    1    2    0    0  0.15437586129E+02 -0.23900606325E+02 -0.24613136590E+03  0.27751613886E+03  0.12500000000E+03 0.  0.
         25    1    1    2    0    0  0.10447116005E+03  0.95000182030E+02 -0.61250258151E+03  0.64087726612E+03  0.12500000000E+03 0.  0.
         25    1    1    2    0    0 -0.11990874618E+03 -0.71099575705E+02 -0.26295838583E+03  0.32280856518E+03  0.12500000000E+03 0.  0.
</event>
<event>
 5    0  0.5670250E-005  0.2572590E+03  0.7546771E-02  0.1108801E+00
         21   -1    0    0  502  501  0.00000000000E+00  0.00000000000E+00  0.38105896367E+03  0.38105896367E+03  0.00000000000E+00 0. -1.
         21   -1    0    0  501  502 -0.00000000000E+00 -0.00000000000E+00 -0.17367970152E+03  0.17367970152E+03  0.00000000000E+00 0. -1.
         25    1    1    2    0    0 -0.33106458532E+02 -0.76484946361E+02 -0.22173649785E+02  0.15186393700E+03  0.12500000000E+03 0.  0.
         25    1    1    2    0    0  0.95438131045E+02 -0.15951903526E+02  0.14814107801E+03  0.21664182209E+03  0.12500000000E+03 0.  0.
         25    1    1    2    0    0 -0.62331672513E+02  0.92436849887E+02  0.81411833925E+02  0.18623290611E+03  0.12500000000E+03 0.  0.
</event>
<event>
 5    0  0.5670250E-005  0.3230004E+03  0.7546771E-02  0.1074277E+00
         21   -1    0    0  502  501  0.00000000000E+00  0.00000000000E+00  0.44772938541E+02  0.44772938541E+02  0.00000000000E+00 0. -1.
         21   -1    0    0  501  502 -0.00000000000E+00 -0.00000000000E+00 -0.23301861241E+04  0.23301861241E+04  0.00000000000E+00 0.  1.
         25    1    1    2    0    0  0.33977996619E+02  0.12880360625E+03 -0.10340974763E+04  0.10501083105E+04  0.12500000000E+03 0.  0.
         25    1    1    2    0    0 -0.73395711156E+02 -0.21051763922E+03 -0.97866098068E+03  0.10114874799E+04  0.12500000000E+03 0.  0.
         25    1    1    2    0    0  0.39417714537E+02  0.81714032968E+02 -0.27265472855E+03  0.31336327226E+03  0.12500000000E+03 0.  0.
</event>
<event>
 5    0  0.6161815E-005  0.3276689E+03  0.7546771E-02  0.1072173E+00
         21   -1    0    0  502  501  0.00000000000E+00  0.00000000000E+00  0.36376598224E+03  0.36376598224E+03  0.00000000000E+00 0.  1.
         21   -1    0    0  501  502 -0.00000000000E+00 -0.00000000000E+00 -0.29515373288E+03  0.29515373288E+03  0.00000000000E+00 0.  1.
         25    1    1    2    0    0 -0.11471571412E+03 -0.25915373565E+01 -0.10471668877E+03  0.19939156461E+03  0.12500000000E+03 0.  0.
         25    1    1    2    0    0 -0.64060432909E+02  0.66241210609E+02  0.17274734834E+03  0.23228922361E+03  0.12500000000E+03 0.  0.
         25    1    1    2    0    0  0.17877614703E+03 -0.63649673253E+02  0.58158978950E+00  0.22723892690E+03  0.12500000000E+03 0.  0.
</event>
<event>
 5    0  0.5670250E-005  0.3793823E+03  0.7546771E-02  0.1051162E+00
         21   -1    0    0  502  501  0.00000000000E+00  0.00000000000E+00  0.21365445656E+03  0.21365445656E+03  0.00000000000E+00 0. -1.
         21   -1    0    0  501  502 -0.00000000000E+00 -0.00000000000E+00 -0.67366211487E+03  0.67366211487E+03  0.00000000000E+00 0. -1.
         25    1    1    2    0    0  0.12110213084E+03 -0.10354289787E+03 -0.17359640590E+03  0.26673501820E+03  0.12500000000E+03 0.  0.
         25    1    1    2    0    0 -0.22429560814E+02 -0.35220382007E+02  0.10983073470E+03  0.17155567840E+03  0.12500000000E+03 0.  0.
         25    1    1    2    0    0 -0.98672570022E+02  0.13876327987E+03 -0.39624198712E+03  0.44902587483E+03  0.12500000000E+03 0.  0.
</event>
<event>
 5    0  0.5670250E-005  0.3694173E+03  0.7546771E-02  0.1054916E+00
         21   -1    0    0  502  501  0.00000000000E+00  0.00000000000E+00  0.55139658384E+02  0.55139658384E+02  0.00000000000E+00 0. -1.
         21   -1    0    0  501  502 -0.00000000000E+00 -0.00000000000E+00 -0.24749724669E+04  0.24749724669E+04  0.00000000000E+00 0. -1.
         25    1    1    2    0    0  0.62130072211E+02  0.13240440928E+03 -0.34348791708E+03  0.39370042246E+03  0.12500000000E+03 0.  0.
         25    1    1    2    0    0 -0.20626048885E+03 -0.63522362036E+01 -0.14434703302E+04  0.14634942208E+04  0.12500000000E+03 0.  0.
         25    1    1    2    0    0  0.14413041664E+03 -0.12605217307E+03 -0.63287456119E+03  0.67291748197E+03  0.12500000000E+03 0.  0.
</event>
<event>
 5    0  0.5670250E-005  0.2501716E+03  0.7546771E-02  0.1113196E+00
         21   -1    0    0  502  501  0.00000000000E+00  0.00000000000E+00  0.29154595984E+03  0.29154595984E+03  0.00000000000E+00 0.  1.
         21   -1    0    0  501  502 -0.00000000000E+00 -0.00000000000E+00 -0.21466879741E+03  0.21466879741E+03  0.00000000000E+00 0.  1.
         25    1    1    2    0    0  0.10078845109E+03 -0.24473610126E+02 -0.29502551559E+02  0.16508382723E+03  0.12500000000E+03 0.  0.
         25    1    1    2    0    0  0.30301485667E+02  0.39621893359E+02  0.89082637326E+01  0.13487932247E+03  0.12500000000E+03 0.  0.
         25    1    1    2    0    0 -0.13108993675E+03 -0.15148283233E+02  0.97471450255E+02  0.20625160755E+03  0.12500000000E+03 0.  0.
</event>
<event>
 5    0  0.5670250E-005  0.2405916E+03  0.7546771E-02  0.1119399E+00
         21   -1    0    0  502  501  0.00000000000E+00  0.00000000000E+00  0.19237387162E+02  0.19237387162E+02  0.00000000000E+00 0. -1.
         21   -1    0    0  501  502 -0.00000000000E+00 -0.00000000000E+00 -0.30089500196E+04  0.30089500196E+04  0.00000000000E+00 0. -1.
         25    1    1    2    0    0 -0.53026190922E+02 -0.12606855730E+03 -0.10705222686E+04  0.10864382107E+04  0.12500000000E+03 0.  0.
         25    1    1    2    0    0  0.34710558503E+02  0.38607649248E+02 -0.70506225567E+03  0.71793673664E+03  0.12500000000E+03 0.  0.
         25    1    1    2    0    0  0.18315632420E+02  0.87460908051E+02 -0.12141281082E+04  0.12238124594E+04  0.12500000000E+03 0.  0.
</event>
<event>
 5    0  0.5670250E-005  0.3611387E+03  0.7546771E-02  0.1058134E+00
         21   -1    0    0  502  501  0.00000000000E+00  0.00000000000E+00  0.41224504018E+03  0.41224504018E+03  0.00000000000E+00 0.  1.
         21   -1    0    0  501  502 -0.00000000000E+00 -0.00000000000E+00 -0.31636806752E+03  0.31636806752E+03  0.00000000000E+00 0.  1.
         25    1    1    2    0    0 -0.71195816837E+02  0.36270554491E+02 -0.28800561610E+02  0.15112534469E+03  0.12500000000E+03 0.  0.
         25    1    1    2    0    0  0.81910434224E+02  0.16915516055E+03  0.22316512796E+03  0.31741213259E+03  0.12500000000E+03 0.  0.
         25    1    1    2    0    0 -0.10714617387E+02 -0.20542571504E+03 -0.98487593692E+02  0.26007563042E+03  0.12500000000E+03 0.  0.
</event>
<event>
 5    0  0.5670250E-005  0.3013371E+03  0.7546771E-02  0.1084574E+00
         21   -1    0    0  502  501  0.00000000000E+00  0.00000000000E+00  0.37516424241E+02  0.37516424241E+02  0.00000000000E+00 0. -1.
         21   -1    0    0  501  502 -0.00000000000E+00 -0.00000000000E+00 -0.24203805866E+04  0.24203805866E+04  0.00000000000E+00 0. -1.
         25    1    1    2    0    0  0.73730908903E+02 -0.13592134951E+03 -0.47333903343E+03  0.51340598043E+03  0.12500000000E+03 0.  0.
         25    1    1    2    0    0 -0.14801474744E+03  0.68873845112E+02 -0.98962415524E+03  0.10107585966E+04  0.12500000000E+03 0.  0.
         25    1    1    2    0    0  0.74283838538E+02  0.67047504396E+02 -0.91990097371E+03  0.93373243381E+03  0.12500000000E+03 0.  0.
</event>
<event>
 5    0  0.5670250E-005  0.2854272E+03  0.7546771E-02  0.1092761E+00
         21   -1    0    0  502  501  0.00000000000E+00  0.00000000000E+00  0.38851021489E+03  0.38851021489E+03  0.00000000000E+00 0.  1.
         21   -1    0    0  501  502 -0.00000000000E+00 -0.00000000000E+00 -0.20969511274E+03  0.20969511274E+03  0.00000000000E+00 0. -1.
         25    1    1    2    0    0  0.16720592042E+03  0.73699051757E+02  0.49391466831E+02  0.22683449263E+03  0.12500000000E+03 0.  0.
         25    1    1    2    0    0 -0.13893778657E+03 -0.10422215230E+03  0.58926726662E+02  0.22195342909E+03  0.12500000000E+03 0.  0.
         25    1    1    2    0    0 -0.28268133846E+02  0.30523100543E+02  0.70496908654E+02  0.14941740591E+03  0.12500000000E+03 0.  0.
</event>
<event>
 5    0  0.5670250E-005  0.7827563E+03  0.7546771E-02  0.9585318E-01
         21   -1    0    0  502  501  0.00000000000E+00  0.00000000000E+00  0.26031944574E+03  0.26031944574E+03  0.00000000000E+00 0.  1.
         21   -1    0    0  501  502 -0.00000000000E+00 -0.00000000000E+00 -0.23536751722E+04  0.23536751722E+04  0.00000000000E+00 0.  1.
         25    1    1    2    0    0 -0.29135917132E+03  0.39167122049E+03 -0.18533087112E+04  0.19205922760E+04  0.12500000000E+03 0.  0.
         25    1    1    2    0    0  0.11492708511E+03 -0.39379054186E+03 -0.11659563633E+03  0.44440833494E+03  0.12500000000E+03 0.  0.
         25    1    1    2    0    0  0.17643208621E+03  0.21193213697E+01 -0.12345137897E+03  0.24899400703E+03  0.12500000000E+03 0.  0.
</event>
<event>
 5    0  0.5670250E-005  0.3378792E+03  0.7546771E-02  0.1067703E+00
         21   -1    0    0  502  501  0.00000000000E+00  0.00000000000E+00  0.33700592003E+03  0.33700592003E+03  0.00000000000E+00 0.  1.
         21   -1    0    0  501  502 -0.00000000000E+00 -0.00000000000E+00 -0.33875465875E+03  0.33875465875E+03  0.00000000000E+00 0.  1.
         25    1    1    2    0    0 -0.16756818427E+03 -0.38134368234E+02  0.10078511462E+03  0.23519346451E+03  0.12500000000E+03 0.  0.
         25    1    1    2    0    0  0.19767229375E+03  0.10700986022E+03  0.83692359939E+01  0.25733342187E+03  0.12500000000E+03 0.  0.
         25    1    1    2    0    0 -0.30104109483E+02 -0.68875491981E+02 -0.11090308933E+03  0.18323369239E+03  0.12500000000E+03 0.  0.
</event>
<event>
 5    0  0.5670250E-005  0.4915395E+03  0.7546771E-02  0.1016011E+00
         21   -1    0    0  502  501  0.00000000000E+00  0.00000000000E+00  0.11541694187E+03  0.11541694187E+03  0.00000000000E+00 0. -1.
         21   -1    0    0  501  502 -0.00000000000E+00 -0.00000000000E+00 -0.20933763837E+04  0.20933763837E+04  0.00000000000E+00 0. -1.
         25    1    1    2    0    0 -0.10047545846E+02 -0.20383347077E+03 -0.30101290860E+03  0.38455533818E+03  0.12500000000E+03 0.  0.
         25    1    1    2    0    0 -0.20460224621E+03 -0.15192906984E+03 -0.63457733088E+03  0.69516754116E+03  0.12500000000E+03 0.  0.
         25    1    1    2    0    0  0.21464979206E+03  0.35576254061E+03 -0.10423692023E+04  0.11290704462E+04  0.12500000000E+03 0.  0.
</event>
<event>
 5    0  0.5939666E-005  0.2879197E+03  0.7546771E-02  0.1091440E+00
         21   -1    0    0  502  501  0.00000000000E+00  0.00000000000E+00  0.30249158002E+03  0.30249158002E+03  0.00000000000E+00 0. -1.
         21   -1    0    0  501  502 -0.00000000000E+00 -0.00000000000E+00 -0.27404978884E+03  0.27404978884E+03  0.00000000000E+00 0. -1.
         25    1    1    2    0    0 -0.84046490708E+02 -0.69934534275E+02  0.68780235316E+02  0.17975086218E+03  0.12500000000E+03 0.  0.
         25    1    1    2    0    0  0.13592244029E+03  0.21586851374E+02 -0.13048909381E+03  0.22714159797E+03  0.12500000000E+03 0.  0.
         25    1    1    2    0    0 -0.51875949583E+02  0.48347682901E+02  0.90150649676E+02  0.16964890870E+03  0.12500000000E+03 0.  0.
</event>
<event>
 5    0  0.5670250E-005  0.4061490E+03  0.7546771E-02  0.1041671E+00
         21   -1    0    0  502  501  0.00000000000E+00  0.00000000000E+00  0.67778142439E+03  0.67778142439E+03  0.00000000000E+00 0. -1.
         21   -1    0    0  501  502 -0.00000000000E+00 -0.00000000000E+00 -0.24337787397E+03  0.24337787397E+03  0.00000000000E+00 0. -1.
         25    1    1    2    0    0  0.22386185327E+03  0.11978192274E+03 -0.23556955774E+02  0.28397494349E+03  0.12500000000E+03 0.  0.
         25    1    1    2    0    0 -0.17636364383E+03  0.49842356643E+02  0.18332249753E+03  0.28778556858E+03  0.12500000000E+03 0.  0.
         25    1    1    2    0    0 -0.47498209439E+02 -0.16962427939E+03  0.27463800866E+03  0.34939878629E+03  0.12500000000E+03 0.  0.
</event>
<event>
 5    0  0.5670250E-005  0.4502185E+03  0.7546771E-02  0.1027657E+00
         21   -1    0    0  502  501  0.00000000000E+00  0.00000000000E+00  0.13481999624E+04  0.13481999624E+04  0.00000000000E+00 0. -1.
         21   -1    0    0  501  502 -0.00000000000E+00 -0.00000000000E+00 -0.15034617304E+03  0.15034617304E+03  0.00000000000E+00 0. -1.
         25    1    1    2    0    0  0.29294198733E+03 -0.25602963881E+03  0.48522598696E+03  0.63437799639E+03  0.12500000000E+03 0.  0.
         25    1    1    2    0    0 -0.22625655656E+03  0.22348552771E+03  0.53239196378E+03  0.63261679837E+03  0.12500000000E+03 0.  0.
         25    1    1    2    0    0 -0.66685430765E+02  0.32544111102E+02  0.18023583867E+03  0.23155134071E+03  0.12500000000E+03 0.  0.
</event>
<event>
 5    0  0.5670250E-005  0.2871206E+03  0.7546771E-02  0.1091862E+00
         21   -1    0    0  502  501  0.00000000000E+00  0.00000000000E+00  0.42009175886E+03  0.42009175886E+03  0.00000000000E+00 0. -1.
         21   -1    0    0  501  502 -0.00000000000E+00 -0.00000000000E+00 -0.19623861848E+03  0.19623861848E+03  0.00000000000E+00 0. -1.
         25    1    1    2    0    0 -0.97812288274E+02  0.23539591712E+02 -0.29966332097E+02  0.16323093204E+03  0.12500000000E+03 0.  0.
         25    1    1    2    0    0 -0.58309492481E+02  0.39114236293E+02  0.30003438971E+02  0.14647568653E+03  0.12500000000E+03 0.  0.
         25    1    1    2    0    0  0.15612178076E+03 -0.62653828005E+02  0.22381603351E+03  0.30662375877E+03  0.12500000000E+03 0.  0.
</event>
<event>
 5    0  0.5670250E-005  0.2650159E+03  0.7546771E-02  0.1104166E+00
         21   -1    0    0  502  501  0.00000000000E+00  0.00000000000E+00  0.27335401009E+03  0.27335401009E+03  0.00000000000E+00 0.  1.
         21   -1    0    0  501  502 -0.00000000000E+00 -0.00000000000E+00 -0.25693211164E+03  0.25693211164E+03  0.00000000000E+00 0.  1.
         25    1    1    2    0    0 -0.84730907702E+02  0.73638640573E+02 -0.33729653303E+01  0.16804271183E+03  0.12500000000E+03 0.  0.
         25    1    1    2    0    0 -0.14754003179E+02  0.23371787933E+02  0.96393507915E+02  0.16025176894E+03  0.12500000000E+03 0.  0.
         25    1    1    2    0    0  0.99484910881E+02 -0.97010428506E+02 -0.76598644142E+02  0.20199164096E+03  0.12500000000E+03 0.  0.
</event>
<event>
 5    0  0.5670250E-005  0.5377692E+03  0.7546771E-02  0.1004365E+00
         21   -1    0    0  502  501  0.00000000000E+00  0.00000000000E+00  0.25062807980E+03  0.25062807980E+03  0.00000000000E+00 0.  1.
         21   -1    0    0  501  502 -0.00000000000E+00 -0.00000000000E+00 -0.11538837680E+04  0.11538837680E+04  0.00000000000E+00 0.  1.
         25    1    1    2    0    0  0.27655547289E+03  0.23244806187E+03 -0.54297135366E+03  0.66404662633E+03  0.12500000000E+03 0.  0.
         25    1    1    2    0    0 -0.19671433258E+03 -0.36039506896E+03 -0.15397350268E+03  0.45597584794E+03  0.12500000000E+03 0.  0.
         25    1    1    2    0    0 -0.79841140307E+02  0.12794700710E+03 -0.20631083191E+03  0.28448937357E+03  0.12500000000E+03 0.  0.
</event>
<event>
 5    0  0.5670250E-005  0.2278888E+03  0.7546771E-02  0.1128135E+00
         21   -1    0    0  502  501  0.00000000000E+00  0.00000000000E+00  0.11409735898E+03  0.11409735898E+03  0.00000000000E+00 0. -1.
         21   -1    0    0  501  502 -0.00000000000E+00 -0.00000000000E+00 -0.45516669350E+03  0.45516669350E+03  0.00000000000E+00 0. -1.
         25    1    1    2    0    0  0.35695521576E+02 -0.45705725344E+02 -0.96712182907E+02  0.16834913101E+03  0.12500000000E+03 0.  0.
         25    1    1    2    0    0  0.37148684597E+02  0.34517533174E+01 -0.22001774297E+02  0.13229141106E+03  0.12500000000E+03 0.  0.
         25    1    1    2    0    0 -0.72844206173E+02  0.42253972026E+02 -0.22235537731E+03  0.26862351041E+03  0.12500000000E+03 0.  0.
</event>
<event>
 5    0  0.5670250E-005  0.2864626E+03  0.7546771E-02  0.1092211E+00
         21   -1    0    0  502  501  0.00000000000E+00  0.00000000000E+00  0.22845299617E+03  0.22845299617E+03  0.00000000000E+00 0.  1.
         21   -1    0    0  501  502 -0.00000000000E+00 -0.00000000000E+00 -0.35920221714E+03  0.35920221714E+03  0.00000000000E+00 0.  1.
         25    1    1    2    0    0 -0.33448583019E+02 -0.21839161781E+02 -0.25007023424E+02  0.13358932560E+03  0.12500000000E+03 0.  0.
         25    1    1    2    0    0  0.10962059462E+03 -0.10336070389E+03  0.54823955212E+02  0.20329971948E+03  0.12500000000E+03 0.  0.
         25    1    1    2    0    0 -0.76172011605E+02  0.12519986567E+03 -0.16056615276E+03  0.25076616823E+03  0.12500000000E+03 0.  0.
</event>
<event>
 5    0  0.5670250E-005  0.2704639E+03  0.7546771E-02  0.1101014E+00
         21   -1    0    0  502  501  0.00000000000E+00  0.00000000000E+00  0.70995899797E+03  0.70995899797E+03  0.00000000000E+00 0.  1.
         21   -1    0    0  501  502 -0.00000000000E+00 -0.00000000000E+00 -0.10303515689E+03  0.10303515689E+03  0.00000000000E+00 0.  1.
         25    1    1    2    0    0  0.16570620750E+02  0.13537968013E+03  0.26195533039E+03  0.32069898407E+03  0.12500000000E+03 0.  0.
         25    1    1    2    0    0 -0.37463926304E+01 -0.16001918766E+02  0.25192164037E+02  0.12856804421E+03  0.12500000000E+03 0.  0.
         25    1    1    2    0    0 -0.12824228120E+02 -0.11937776137E+03  0.31977634665E+03  0.36372712658E+03  0.12500000000E+03 0.  0.
</event>
<event>
 5    0  0.5670250E-005  0.3573816E+03  0.7546771E-02  0.1059625E+00
         21   -1    0    0  502  501  0.00000000000E+00  0.00000000000E+00  0.24618203506E+04  0.24618203506E+04  0.00000000000E+00 0. -1.
         21   -1    0    0  501  502 -0.00000000000E+00 -0.00000000000E+00 -0.51880951576E+02  0.51880951576E+02  0.00000000000E+00 0. -1.
         25    1    1    2    0    0  0.40443037352E+02 -0.76228786217E+02  0.87506455435E+03  0.88814944767E+03  0.12500000000E+03 0.  0.
         25    1    1    2    0    0 -0.11274309436E+03  0.17352420938E+03  0.33508694379E+03  0.41319476819E+03  0.12500000000E+03 0.  0.
         25    1    1    2    0    0  0.72300057006E+02 -0.97295423164E+02  0.11997879009E+04  0.12123570863E+04  0.12500000000E+03 0.  0.
</event>
<event>
 5    0  0.5670250E-005  0.3793063E+03  0.7546771E-02  0.1051190E+00
         21   -1    0    0  502  501  0.00000000000E+00  0.00000000000E+00  0.10309651982E+04  0.10309651982E+04  0.00000000000E+00 0. -1.
         21   -1    0    0  501  502 -0.00000000000E+00 -0.00000000000E+00 -0.13955201988E+03  0.13955201988E+03  0.00000000000E+00 0. -1.
         25    1    1    2    0    0 -0.12505660897E+03  0.17032547351E+02  0.46175929136E+03  0.49474832620E+03  0.12500000000E+03 0.  0.
         25    1    1    2    0    0  0.27749547310E+03  0.42998311602E+02  0.31425731588E+03  0.43958531933E+03  0.12500000000E+03 0.  0.
         25    1    1    2    0    0 -0.15243886413E+03 -0.60030858953E+02  0.11539657108E+03  0.23618357255E+03  0.12500000000E+03 0.  0.
</event>
<event>
 5    0  0.5670250E-005  0.3397706E+03  0.7546771E-02  0.1066894E+00
         21   -1    0    0  502  501  0.00000000000E+00  0.00000000000E+00  0.95625526314E+03  0.95625526314E+03  0.00000000000E+00 0. -1.
         21   -1    0    0  501  502 -0.00000000000E+00 -0.00000000000E+00 -0.12072518248E+03  0.12072518248E+03  0.00000000000E+00 0. -1.
         25    1    1    2    0    0  0.16428692167E+03  0.15585934554E+01  0.72979636312E+03  0.75843282726E+03  0.12500000000E+03 0.  0.
         25    1    1    2    0    0 -0.76166315508E+02  0.32557802723E+01  0.38346673298E+02  0.15135182548E+03  0.12500000000E+03 0.  0.
         25    1    1    2    0    0 -0.88120606160E+02 -0.48143737277E+01  0.67387044242E+02  0.16719579288E+03  0.12500000000E+03 0.  0.
</event>
<event>
 5    0  0.5670250E-005  0.2171682E+03  0.7546771E-02  0.1136012E+00
         21   -1    0    0  502  501  0.00000000000E+00  0.00000000000E+00  0.25211522090E+03  0.25211522090E+03  0.00000000000E+00 0.  1.
         21   -1    0    0  501  502 -0.00000000000E+00 -0.00000000000E+00 -0.18706535190E+03  0.18706535190E+03  0.00000000000E+00 0.  1.
         25    1    1    2    0    0 -0.26796674466E+02 -0.41371282305E+02  0.68736821143E+02  0.15092844445E+03  0.12500000000E+03 0.  0.
         25    1    1    2    0    0  0.49749752601E+00  0.41972522602E+02  0.60750959666E+02  0.14518133233E+03  0.12500000000E+03 0.  0.
         25    1    1    2    0    0  0.26299176940E+02 -0.60124029734E+00 -0.64437911807E+02  0.14307079603E+03  0.12500000000E+03 0.  0.
</event>
<event>
 5    0  0.5670250E-005  0.3235449E+03  0.7546771E-02  0.1074029E+00
         21   -1    0    0  502  501  0.00000000000E+00  0.00000000000E+00  0.81987839325E+03  0.81987839325E+03  0.00000000000E+00 0. -1.
         21   -1    0    0  501  502 -0.00000000000E+00 -0.00000000000E+00 -0.12767905745E+03  0.12767905745E+03  0.00000000000E+00 0. -1.
         25    1    1    2    0    0  0.29984179126E+02 -0.90641419451E+02  0.38827446105E+03  0.41892359091E+03  0.12500000000E+03 0.  0.
         25    1    1    2    0    0 -0.12430939051E+03 -0.83530943151E+02  0.10617707974E+03  0.22210091241E+03  0.12500000000E+03 0.  0.
         25    1    1    2    0    0  0.94325211381E+02  0.17417236260E+03  0.19774779500E+03  0.30653294737E+03  0.12500000000E+03 0.  0.
</event>
<event>
 5    0  0.5670250E-005  0.3380889E+03  0.7546771E-02  0.1067613E+00
         21   -1    0    0  502  501  0.00000000000E+00  0.00000000000E+00  0.56933022855E+03  0.56933022855E+03  0.00000000000E+00 0. -1.
         21   -1    0    0  501  502 -0.00000000000E+00 -0.00000000000E+00 -0.20076942700E+03  0.20076942700E+03  0.00000000000E+00 0. -1.
         25    1    1    2    0    0  0.53290111771E+02  0.63669814104E+01  0.20786645277E+03  0.24842269754E+03  0.12500000000E+03 0.  0.
         25    1    1    2    0    0  0.59152851183E+02 -0.40872145269E+02  0.27841892191E+03  0.31354694727E+03  0.12500000000E+03 0.  0.
         25    1    1    2    0    0 -0.11244296295E+03  0.34505163859E+02 -0.11772457314E+03  0.20813001074E+03  0.12500000000E+03 0.  0.
</event>
<event>
 5    0  0.5670250E-005  0.3060850E+03  0.7546771E-02  0.1082238E+00
         21   -1    0    0  502  501  0.00000000000E+00  0.00000000000E+00  0.12329511124E+03  0.12329511124E+03  0.00000000000E+00 0. -1.
         21   -1    0    0  501  502 -0.00000000000E+00 -0.00000000000E+00 -0.75986811218E+03  0.75986811218E+03  0.00000000000E+00 0. -1.
         25    1    1    2    0    0 -0.17678328798E+02 -0.85997048387E+02 -0.28249788482E+03  0.32115116467E+03  0.12500000000E+03 0.  0.
         25    1    1    2    0    0  0.14781669359E+03 -0.88126886254E+01 -0.57488193837E+02  0.20213196386E+03  0.12500000000E+03 0.  0.
         25    1    1    2    0    0 -0.13013836479E+03  0.94809737013E+02 -0.29658692228E+03  0.35988009488E+03  0.12500000000E+03 0.  0.
</event>
<event>
 5    0  0.5670250E-005  0.3957611E+03  0.7546771E-02  0.1045257E+00
         21   -1    0    0  502  501  0.00000000000E+00  0.00000000000E+00  0.43965235562E+03  0.43965235562E+03  0.00000000000E+00 0.  1.
         21   -1    0    0  501  502 -0.00000000000E+00 -0.00000000000E+00 -0.35625151383E+03  0.35625151383E+03  0.00000000000E+00 0.  1.
         25    1    1    2    0    0  0.10382726573E+03  0.27942886721E+03  0.15705062971E+03  0.35937514276E+03  0.12500000000E+03 0.  0.
         25    1    1    2    0    0 -0.11324794394E+03 -0.14037432553E+03 -0.11054168136E+03  0.24571225324E+03  0.12500000000E+03 0.  0.
         25    1    1    2    0    0  0.94206782045E+01 -0.13905454168E+03  0.36891893449E+02  0.19081647345E+03  0.12500000000E+03 0.  0.
</event>
<event>
 5    0  0.5670250E-005  0.3266133E+03  0.7546771E-02  0.1072645E+00
         21   -1    0    0  502  501  0.00000000000E+00  0.00000000000E+00  0.59054384157E+03  0.59054384157E+03  0.00000000000E+00 0.  1.
         21   -1    0    0  501  502 -0.00000000000E+00 -0.00000000000E+00 -0.18064068474E+03  0.18064068474E+03  0.00000000000E+00 0.  1.
         25    1    1    2    0    0 -0.20224678882E+02 -0.59346138442E+02  0.17017166474E+03  0.22025984034E+03  0.12500000000E+03 0.  0.
         25    1    1    2    0    0  0.18632312565E+03 -0.74681881285E+02  0.56552955426E+02  0.24313972796E+03  0.12500000000E+03 0.  0.
         25    1    1    2    0    0 -0.16609844676E+03  0.13402801973E+03  0.18317853666E+03  0.30778495802E+03  0.12500000000E+03 0.  0.
</event>
<event>
 5    0  0.5670250E-005  0.2331064E+03  0.7546771E-02  0.1124472E+00
         21   -1    0    0  502  501  0.00000000000E+00  0.00000000000E+00  0.32733373410E+02  0.32733373410E+02  0.00000000000E+00 0. -1.
         21   -1    0    0  501  502 -0.00000000000E+00 -0.00000000000E+00 -0.16600364045E+04  0.16600364045E+04  0.00000000000E+00 0. -1.
         25    1    1    2    0    0 -0.11656398056E+02  0.24047442038E+02 -0.19800611471E+03  0.23568108229E+03  0.12500000000E+03 0.  0.
         25    1    1    2    0    0 -0.31309767753E+02  0.23723786806E+02 -0.48489672247E+03  0.50228771743E+03  0.12500000000E+03 0.  0.
         25    1    1    2    0    0  0.42966165809E+02 -0.47771228844E+02 -0.94440019393E+03  0.95480097821E+03  0.12500000000E+03 0.  0.
</event>
<event>
 5    0  0.5670250E-005  0.2665557E+03  0.7546771E-02  0.1103267E+00
         21   -1    0    0  502  501  0.00000000000E+00  0.00000000000E+00  0.22201552772E+03  0.22201552772E+03  0.00000000000E+00 0.  1.
         21   -1    0    0  501  502 -0.00000000000E+00 -0.00000000000E+00 -0.32003151986E+03  0.32003151986E+03  0.00000000000E+00 0.  1.
         25    1    1    2    0    0  0.10071126553E+03 -0.49296595661E+01 -0.18079938730E+03  0.24182737437E+03  0.12500000000E+03 0.  0.
         25    1    1    2    0    0 -0.83983942908E+02  0.39285983829E+02  0.63524177545E+02  0.16809822225E+03  0.12500000000E+03 0.  0.
         25    1    1    2    0    0 -0.16727322621E+02 -0.34356324263E+02  0.19259217613E+02  0.13212145095E+03  0.12500000000E+03 0.  0.
</event>
<event>
 5    0  0.5670250E-005  0.3209703E+03  0.7546771E-02  0.1075204E+00
         21   -1    0    0  502  501  0.00000000000E+00  0.00000000000E+00  0.12202559324E+03  0.12202559324E+03  0.00000000000E+00 0.  1.
         21   -1    0    0  501  502 -0.00000000000E+00 -0.00000000000E+00 -0.84426486035E+03  0.84426486035E+03  0.00000000000E+00 0.  1.
         25    1    1    2    0    0  0.31092098804E+02 -0.86641992748E+02 -0.36034713710E+03  0.39236285851E+03  0.12500000000E+03 0.  0.
         25    1    1    2    0    0 -0.12263318845E+03 -0.99518897265E+02 -0.13852181363E+03  0.24445081852E+03  0.12500000000E+03 0.  0.
         25    1    1    2    0    0  0.91541089648E+02  0.18616089001E+03 -0.22337031637E+03  0.32947677657E+03  0.12500000000E+03 0.  0.
</event>
<event>
 5    0  0.5670250E-005  0.3021130E+03  0.7546771E-02  0.1084189E+00
         21   -1    0    0  502  501  0.00000000000E+00  0.00000000000E+00  0.90248134712E+02  0.90248134712E+02  0.00000000000E+00 0. -1.
         21   -1    0    0  501  502 -0.00000000000E+00 -0.00000000000E+00 -0.10113476602E+04  0.10113476602E+04  0.00000000000E+00 0. -1.
         25    1    1    2    0    0  0.15625166836E+03  0.13113476718E+02 -0.10589696020E+03  0.22677238217E+03  0.12500000000E+03 0.  0.
         25    1    1    2    0    0 -0.10082684431E+03  0.15912084490E+02 -0.29602387545E+03  0.33715631657E+03  0.12500000000E+03 0.  0.
         25    1    1    2    0    0 -0.55424824050E+02 -0.29025561207E+02 -0.51917868984E+03  0.53766709618E+03  0.12500000000E+03 0.  0.
</event>
<event>
 5    0  0.5670250E-005  0.3457735E+03  0.7546771E-02  0.1064363E+00
         21   -1    0    0  502  501  0.00000000000E+00  0.00000000000E+00  0.17841762091E+04  0.17841762091E+04  0.00000000000E+00 0. -1.
         21   -1    0    0  501  502 -0.00000000000E+00 -0.00000000000E+00 -0.67010921849E+02  0.67010921849E+02  0.00000000000E+00 0. -1.
         25    1    1    2    0    0 -0.17860575332E+03 -0.42544265023E+02  0.12844380613E+04  0.13035015010E+04  0.12500000000E+03 0.  0.
         25    1    1    2    0    0  0.42187303857E+02  0.39775601739E+02  0.11270728420E+03  0.17801628861E+03  0.12500000000E+03 0.  0.
         25    1    1    2    0    0  0.13641844946E+03  0.27686632843E+01  0.32001994169E+03  0.36966934135E+03  0.12500000000E+03 0.  0.
</event>
<event>
 5    0  0.5670250E-005  0.2628863E+03  0.7546771E-02  0.1105421E+00
         21   -1    0    0  502  501  0.00000000000E+00  0.00000000000E+00  0.76975332390E+02  0.76975332390E+02  0.00000000000E+00 0.  1.
         21   -1    0    0  501  502 -0.00000000000E+00 -0.00000000000E+00 -0.89780962124E+03  0.89780962124E+03  0.00000000000E+00 0.  1.
         25    1    1    2    0    0  0.25709272426E+02  0.65221581428E+02 -0.26384358388E+03  0.30025532156E+03  0.12500000000E+03 0.  0.
         25    1    1    2    0    0 -0.14305381227E+03 -0.41807826695E+02 -0.38063661746E+03  0.42745938068E+03  0.12500000000E+03 0.  0.
         25    1    1    2    0    0  0.11734453984E+03 -0.23413754733E+02 -0.17635408751E+03  0.24707025139E+03  0.12500000000E+03 0.  0.
</event>
<event>
 5    0  0.5670250E-005  0.3428703E+03  0.7546771E-02  0.1065580E+00
         21   -1    0    0  502  501  0.00000000000E+00  0.00000000000E+00  0.48023266950E+03  0.48023266950E+03  0.00000000000E+00 0.  1.
         21   -1    0    0  501  502 -0.00000000000E+00 -0.00000000000E+00 -0.24479802772E+03  0.24479802772E+03  0.00000000000E+00 0.  1.
         25    1    1    2    0    0 -0.43356531885E+02  0.16460498973E+03  0.53408028654E+02  0.21783482051E+03  0.12500000000E+03 0.  0.
         25    1    1    2    0    0 -0.83755100615E+02 -0.40920157640E+02  0.23668926461E+03  0.28343638469E+03  0.12500000000E+03 0.  0.
         25    1    1    2    0    0  0.12711163250E+03 -0.12368483209E+03 -0.54662651479E+02  0.22375949203E+03  0.12500000000E+03 0.  0.
</event>
<event>
 5    0  0.5670250E-005  0.2668653E+03  0.7546771E-02  0.1103087E+00
         21   -1    0    0  502  501  0.00000000000E+00  0.00000000000E+00  0.85426236912E+03  0.85426236912E+03  0.00000000000E+00 0. -1.
         21   -1    0    0  501  502 -0.00000000000E+00 -0.00000000000E+00 -0.83366740543E+02  0.83366740543E+02  0.00000000000E+00 0. -1.
         25    1    1    2    0    0  0.19097539776E+02 -0.11092239493E+03  0.13698287191E+03  0.21692810081E+03  0.12500000000E+03 0.  0.
         25    1    1    2    0    0 -0.50217029382E+01  0.71539503756E+02  0.53988892897E+03  0.55879170871E+03  0.12500000000E+03 0.  0.
         25    1    1    2    0    0 -0.14075836838E+02  0.39382891173E+02  0.94023827698E+02  0.16190930015E+03  0.12500000000E+03 0.  0.
</event>
<event>
 5    0  0.6708405E-005  0.2785847E+03  0.7546771E-02  0.1096464E+00
         21   -1    0    0  502  501  0.00000000000E+00  0.00000000000E+00  0.19452856398E+03  0.19452856398E+03  0.00000000000E+00 0.  1.
         21   -1    0    0  501  502 -0.00000000000E+00 -0.00000000000E+00 -0.39896178051E+03  0.39896178051E+03  0.00000000000E+00 0.  1.
         25    1    1    2    0    0  0.10618263002E+03  0.12100804414E+03 -0.16063751757E+03  0.25951321684E+03  0.12500000000E+03 0.  0.
         25    1    1    2    0    0 -0.78581291361E+02  0.75484513089E+00  0.13451113967E+02  0.14826166602E+03  0.12500000000E+03 0.  0.
         25    1    1    2    0    0 -0.27601338659E+02 -0.12176288927E+03 -0.57246812931E+02  0.18571546164E+03  0.12500000000E+03 0.  0.
</event>
<event>
 5    0  0.5670250E-005  0.2492178E+03  0.7546771E-02  0.1113800E+00
         21   -1    0    0  502  501  0.00000000000E+00  0.00000000000E+00  0.84888298095E+02  0.84888298095E+02  0.00000000000E+00 0.  1.
         21   -1    0    0  501  502 -0.00000000000E+00 -0.00000000000E+00 -0.73166139515E+03  0.73166139515E+03  0.00000000000E+00 0.  1.
         25    1    1    2    0    0 -0.60367947432E+02  0.24211697370E+02 -0.29219896970E+02  0.14390725397E+03  0.12500000000E+03 0.  0.
         25    1    1    2    0    0  0.98942035163E+01  0.43648763778E+01 -0.24171690877E+03  0.27233988212E+03  0.12500000000E+03 0.  0.
         25    1    1    2    0    0  0.50473743915E+02 -0.28576573748E+02 -0.37583629132E+03  0.40030255715E+03  0.12500000000E+03 0.  0.
</event>
<event>
 5    0  0.5670250E-005  0.2595332E+03  0.7546771E-02  0.1107424E+00
         21   -1    0    0  502  501  0.00000000000E+00  0.00000000000E+00  0.93084762012E+02  0.93084762012E+02  0.00000000000E+00 0. -1.
         21   -1    0    0  501  502 -0.00000000000E+00 -0.00000000000E+00 -0.72361451873E+03  0.72361451873E+03  0.00000000000E+00 0. -1.
         25    1    1    2    0    0 -0.58976130507E+02  0.28089870090E+02 -0.16653708058E+03  0.21823570739E+03  0.12500000000E+03 0.  0.
         25    1    1    2    0    0  0.92838404924E+01  0.90858907485E+02 -0.79328975709E+02  0.17395291648E+03  0.12500000000E+03 0.  0.
         25    1    1    2    0    0  0.49692290015E+02 -0.11894877757E+03 -0.38466370043E+03  0.42451065687E+03  0.12500000000E+03 0.  0.
</event>
<event>
 5    0  0.5670250E-005  0.3886904E+03  0.7546771E-02  0.1047768E+00
         21   -1    0    0  502  501  0.00000000000E+00  0.00000000000E+00  0.10868998614E+04  0.10868998614E+04  0.00000000000E+00 0. -1.
         21   -1    0    0  501  502 -0.00000000000E+00 -0.00000000000E+00 -0.13900102452E+03  0.13900102452E+03  0.00000000000E+00 0. -1.
         25    1    1    2    0    0 -0.12032287738E+03  0.18538482021E+02  0.11467252583E+03  0.20879669135E+03  0.12500000000E+03 0.  0.
         25    1    1    2    0    0  0.23168763330E+03 -0.77593131132E+02  0.78725683274E+03  0.83372547887E+03  0.12500000000E+03 0.  0.
         25    1    1    2    0    0 -0.11136475592E+03  0.59054649111E+02  0.45969478342E+02  0.18337871573E+03  0.12500000000E+03 0.  0.
</event>
<event>
 5    0  0.5670250E-005  0.3590127E+03  0.7546771E-02  0.1058975E+00
         21   -1    0    0  502  501  0.00000000000E+00  0.00000000000E+00  0.16669851671E+04  0.16669851671E+04  0.00000000000E+00 0. -1.
         21   -1    0    0  501  502 -0.00000000000E+00 -0.00000000000E+00 -0.77319279491E+02  0.77319279491E+02  0.00000000000E+00 0. -1.
         25    1    1    2    0    0  0.26669279272E+03  0.59506677932E+02  0.99682043463E+03  0.10411253860E+04  0.12500000000E+03 0.  0.
         25    1    1    2    0    0 -0.15513022075E+03 -0.65013012913E+02  0.30448414017E+03  0.36963180173E+03  0.12500000000E+03 0.  0.
         25    1    1    2    0    0 -0.11156257197E+03  0.55063349812E+01  0.28836131281E+03  0.33354725890E+03  0.12500000000E+03 0.  0.
</event>
<event>
 5    0  0.5670250E-005  0.2409481E+03  0.7546771E-02  0.1119163E+00
         21   -1    0    0  502  501  0.00000000000E+00  0.00000000000E+00  0.11200295861E+03  0.11200295861E+03  0.00000000000E+00 0. -1.
         21   -1    0    0  501  502 -0.00000000000E+00 -0.00000000000E+00 -0.51834320152E+03  0.51834320152E+03  0.00000000000E+00 0. -1.
         25    1    1    2    0    0  0.29075868957E+02  0.67107245230E+02 -0.16469864775E+03  0.21931582954E+03  0.12500000000E+03 0.  0.
         25    1    1    2    0    0  0.71111154087E+02 -0.40905961983E+02 -0.45196945750E+02  0.15619813657E+03  0.12500000000E+03 0.  0.
         25    1    1    2    0    0 -0.10018702304E+03 -0.26201283247E+02 -0.19644464941E+03  0.25483219403E+03  0.12500000000E+03 0.  0.
</event>
<event>
 5    0  0.5670250E-005  0.2241701E+03  0.7546771E-02  0.1130812E+00
         21   -1    0    0  502  501  0.00000000000E+00  0.00000000000E+00  0.29768469518E+03  0.29768469518E+03  0.00000000000E+00 0. -1.
         21   -1    0    0  501  502 -0.00000000000E+00 -0.00000000000E+00 -0.16881027438E+03  0.16881027438E+03  0.00000000000E+00 0. -1.
         25    1    1    2    0    0  0.13906127909E+02 -0.70466724877E+02 -0.33882035099E+02  0.14809433484E+03  0.12500000000E+03 0.  0.
         25    1    1    2    0    0  0.32951368845E+01 -0.32220792244E+01  0.96391305642E+02  0.15791619146E+03  0.12500000000E+03 0.  0.
         25    1    1    2    0    0 -0.17201264793E+02  0.73688804101E+02  0.66365150256E+02  0.16048444326E+03  0.12500000000E+03 0.  0.
</event>
<event>
 5    0  0.6193336E-005  0.2603748E+03  0.7546771E-02  0.1106918E+00
         21   -1    0    0  502  501  0.00000000000E+00  0.00000000000E+00  0.43437748705E+03  0.43437748705E+03  0.00000000000E+00 0.  1.
         21   -1    0    0  501  502 -0.00000000000E+00 -0.00000000000E+00 -0.15607405810E+03  0.15607405810E+03  0.00000000000E+00 0.  1.
         25    1    1    2    0    0 -0.91499539325E+02  0.10409562489E+03  0.21833618709E+02  0.18790894530E+03  0.12500000000E+03 0.  0.
         25    1    1    2    0    0  0.85221618434E+02 -0.82520505708E+01  0.14273427321E+03  0.20815593515E+03  0.12500000000E+03 0.  0.
         25    1    1    2    0    0  0.62779208910E+01 -0.95843574322E+02  0.11373553702E+03  0.19438666470E+03  0.12500000000E+03 0.  0.
</event>
<event>
 5    0  0.5670250E-005  0.4578814E+03  0.7546771E-02  0.1025397E+00
         21   -1    0    0  502  501  0.00000000000E+00  0.00000000000E+00  0.89663924364E+03  0.89663924364E+03  0.00000000000E+00 0. -1.
         21   -1    0    0  501  502 -0.00000000000E+00 -0.00000000000E+00 -0.23382351902E+03  0.23382351902E+03  0.00000000000E+00 0. -1.
         25    1    1    2    0    0 -0.86352158846E+02  0.10832039469E+03  0.13215897797E+03  0.22865038531E+03  0.12500000000E+03 0.  0.
         25    1    1    2    0    0 -0.21360203299E+03  0.12386657226E+03  0.39033777143E+03  0.47849486103E+03  0.12500000000E+03 0.  0.
         25    1    1    2    0    0  0.29995419184E+03 -0.23218696695E+03  0.14031897522E+03  0.42331751632E+03  0.12500000000E+03 0.  0.
</event>
<event>
 5    0  0.5670250E-005  0.3685568E+03  0.7546771E-02  0.1055246E+00
         21   -1    0    0  502  501  0.00000000000E+00  0.00000000000E+00  0.50681818913E+03  0.50681818913E+03  0.00000000000E+00 0.  1.
         21   -1    0    0  501  502 -0.00000000000E+00 -0.00000000000E+00 -0.26801342421E+03  0.26801342421E+03  0.00000000000E+00 0. -1.
         25    1    1    2    0    0 -0.17367588004E+03  0.11284636330E+03 -0.10113783118E+03  0.26220502267E+03  0.12500000000E+03 0.  0.
         25    1    1    2    0    0  0.48558896440E+02 -0.89214947238E+02  0.43853166981E+02  0.16692924695E+03  0.12500000000E+03 0.  0.
         25    1    1    2    0    0  0.12511698360E+03 -0.23631416064E+02  0.29608942913E+03  0.34569734372E+03  0.12500000000E+03 0.  0.
</event>
<event>
 5    0  0.5670250E-005  0.4419038E+03  0.7546771E-02  0.1030164E+00
         21   -1    0    0  502  501  0.00000000000E+00  0.00000000000E+00  0.21062732306E+03  0.21062732306E+03  0.00000000000E+00 0. -1.
         21   -1    0    0  501  502 -0.00000000000E+00 -0.00000000000E+00 -0.92713012229E+03  0.92713012229E+03  0.00000000000E+00 0. -1.
         25    1    1    2    0    0  0.70079359595E+01  0.23367234366E+03  0.41624003298E+02  0.26834573410E+03  0.12500000000E+03 0.  0.
         25    1    1    2    0    0  0.11678924250E+03 -0.10387438303E+03 -0.44028301701E+03  0.48363596814E+03  0.12500000000E+03 0.  0.
         25    1    1    2    0    0 -0.12379717845E+03 -0.12979796063E+03 -0.31784378552E+03  0.38577574311E+03  0.12500000000E+03 0.  0.
</event>
<event>
 5    0  0.5670250E-005  0.3363725E+03  0.7546771E-02  0.1068352E+00
         21   -1    0    0  502  501  0.00000000000E+00  0.00000000000E+00  0.10747988951E+04  0.10747988951E+04  0.00000000000E+00 0.  1.
         21   -1    0    0  501  502 -0.00000000000E+00 -0.00000000000E+00 -0.10527222087E+03  0.10527222087E+03  0.00000000000E+00 0.  1.
         25    1    1    2    0    0  0.58485419831E+02  0.27841789239E+02  0.14104981109E+03  0.19928813003E+03  0.12500000000E+03 0.  0.
         25    1    1    2    0    0 -0.18617437306E+03 -0.17829629861E+03  0.38937249809E+03  0.48341122200E+03  0.12500000000E+03 0.  0.
         25    1    1    2    0    0  0.12768895323E+03  0.15045450937E+03  0.43910436509E+03  0.49737176398E+03  0.12500000000E+03 0.  0.
</event>
<event>
 5    0  0.5670250E-005  0.3414457E+03  0.7546771E-02  0.1066182E+00
         21   -1    0    0  502  501  0.00000000000E+00  0.00000000000E+00  0.15704934810E+03  0.15704934810E+03  0.00000000000E+00 0. -1.
         21   -1    0    0  501  502 -0.00000000000E+00 -0.00000000000E+00 -0.74234722507E+03  0.74234722507E+03  0.00000000000E+00 0. -1.
         25    1    1    2    0    0  0.64123434267E+02  0.18087959117E+03 -0.21955673237E+02  0.23007888410E+03  0.12500000000E+03 0.  0.
         25    1    1    2    0    0  0.10187102818E+02  0.48304399636E+01 -0.19029965900E+03  0.22796067738E+03  0.12500000000E+03 0.  0.
         25    1    1    2    0    0 -0.74310537085E+02 -0.18571003113E+03 -0.37304254474E+03  0.44135701169E+03  0.12500000000E+03 0.  0.
</event>
<event>
 5    0  0.5670250E-005  0.4376215E+03  0.7546771E-02  0.1031479E+00
         21   -1    0    0  502  501  0.00000000000E+00  0.00000000000E+00  0.37577449385E+03  0.37577449385E+03  0.00000000000E+00 0. -1.
         21   -1    0    0  501  502 -0.00000000000E+00 -0.00000000000E+00 -0.50964757439E+03  0.50964757439E+03  0.00000000000E+00 0. -1.
         25    1    1    2    0    0 -0.21037452181E+03  0.18281002544E+02  0.13802496333E+03  0.28154488982E+03  0.12500000000E+03 0.  0.
         25    1    1    2    0    0  0.23355785639E+03  0.56471974705E+02  0.25363367401E+02  0.27204164500E+03  0.12500000000E+03 0.  0.
         25    1    1    2    0    0 -0.23183334580E+02 -0.74752977248E+02 -0.29726141127E+03  0.33183553342E+03  0.12500000000E+03 0.  0.
</event>
<event>
 5    0  0.5670250E-005  0.2163692E+03  0.7546771E-02  0.1136619E+00
         21   -1    0    0  502  501  0.00000000000E+00  0.00000000000E+00  0.34431444738E+03  0.34431444738E+03  0.00000000000E+00 0.  1.
         21   -1    0    0  501  502 -0.00000000000E+00 -0.00000000000E+00 -0.13596769187E+03  0.13596769187E+03  0.00000000000E+00 0.  1.
         25    1    1    2    0    0  0.16350517023E+02 -0.82688880096E+01  0.98252730906E+01  0.12671720446E+03  0.12500000000E+03 0.  0.
         25    1    1    2    0    0  0.14966391794E+01 -0.46717670543E+02  0.31564082214E+02  0.13713523236E+03  0.12500000000E+03 0.  0.
         25    1    1    2    0    0 -0.17847156203E+02  0.54986558552E+02  0.16695740020E+03  0.21642970242E+03  0.12500000000E+03 0.  0.
</event>
<event>
 5    0  0.5670250E-005  0.3255316E+03  0.7546771E-02  0.1073131E+00
         21   -1    0    0  502  501  0.00000000000E+00  0.00000000000E+00  0.12025123258E+03  0.12025123258E+03  0.00000000000E+00 0.  1.
         21   -1    0    0  501  502 -0.00000000000E+00 -0.00000000000E+00 -0.88124518816E+03  0.88124518816E+03  0.00000000000E+00 0.  1.
         25    1    1    2    0    0 -0.38461226359E+02 -0.17794950807E+03 -0.27295686450E+03  0.35110645570E+03  0.12500000000E+03 0.  0.
         25    1    1    2    0    0 -0.65100497281E+02  0.21038579174E+03 -0.22046945201E+03  0.33575591637E+03  0.12500000000E+03 0.  0.
         25    1    1    2    0    0  0.10356172364E+03 -0.32436283668E+02 -0.26756763907E+03  0.31463404867E+03  0.12500000000E+03 0.  0.
</event>
<event>
 5    0  0.5670250E-005  0.3858656E+03  0.7546771E-02  0.1048787E+00
         21   -1    0    0  502  501  0.00000000000E+00  0.00000000000E+00  0.22055020884E+03  0.22055020884E+03  0.00000000000E+00 0. -1.
         21   -1    0    0  501  502 -0.00000000000E+00 -0.00000000000E+00 -0.67509469855E+03  0.67509469855E+03  0.00000000000E+00 0.  1.
         25    1    1    2    0    0 -0.10642496557E+03 -0.11756621257E+03 -0.27166059328E+03  0.33848569479E+03  0.12500000000E+03 0.  0.
         25    1    1    2    0    0  0.18100482738E+03  0.24713308611E+03 -0.10255928682E+03  0.34638261662E+03  0.12500000000E+03 0.  0.
         25    1    1    2    0    0 -0.74579861808E+02 -0.12956687354E+03 -0.80324609615E+02  0.21077659598E+03  0.12500000000E+03 0.  0.
</event>
<event>
 5    0  0.5670250E-005  0.2369814E+03  0.7546771E-02  0.1121820E+00
         21   -1    0    0  502  501  0.00000000000E+00  0.00000000000E+00  0.37412102316E+02  0.37412102316E+02  0.00000000000E+00 0. -1.
         21   -1    0    0  501  502 -0.00000000000E+00 -0.00000000000E+00 -0.15011230507E+04  0.15011230507E+04  0.00000000000E+00 0. -1.
         25    1    1    2    0    0 -0.24321815363E+02  0.10490389152E+03 -0.71729043189E+03  0.73602101930E+03  0.12500000000E+03 0.  0.
         25    1    1    2    0    0 -0.11139526136E+02 -0.34432572283E+01 -0.39237250714E+03  0.41196738879E+03  0.12500000000E+03 0.  0.
         25    1    1    2    0    0  0.35461341500E+02 -0.10146063429E+03 -0.35404800930E+03  0.39054674489E+03  0.12500000000E+03 0.  0.
</event>
<event>
 5    0  0.5670250E-005  0.2670452E+03  0.7546771E-02  0.1102983E+00
         21   -1    0    0  502  501  0.00000000000E+00  0.00000000000E+00  0.14398979351E+03  0.14398979351E+03  0.00000000000E+00 0. -1.
         21   -1    0    0  501  502 -0.00000000000E+00 -0.00000000000E+00 -0.49526508093E+03  0.49526508093E+03  0.00000000000E+00 0. -1.
         25    1    1    2    0    0  0.11380061895E+03 -0.18781166896E+02 -0.11236439857E+03  0.20384815714E+03  0.12500000000E+03 0.  0.
         25    1    1    2    0    0 -0.16817595110E+03 -0.40231839027E+02 -0.11765172444E+03  0.24365688922E+03  0.12500000000E+03 0.  0.
         25    1    1    2    0    0  0.54375332153E+02  0.59013005923E+02 -0.12125916441E+03  0.19174982808E+03  0.12500000000E+03 0.  0.
</event>
<event>
 5    0  0.5670250E-005  0.2909088E+03  0.7546771E-02  0.1089876E+00
         21   -1    0    0  502  501  0.00000000000E+00  0.00000000000E+00  0.40016041810E+03  0.40016041810E+03  0.00000000000E+00 0. -1.
         21   -1    0    0  501  502 -0.00000000000E+00 -0.00000000000E+00 -0.21148504831E+03  0.21148504831E+03  0.00000000000E+00 0. -1.
         25    1    1    2    0    0 -0.62525961214E+02  0.46510699094E+02  0.96593840370E+01  0.14761790087E+03  0.12500000000E+03 0.  0.
         25    1    1    2    0    0  0.11713498338E+03 -0.13780845221E+03  0.20165622972E+03  0.29833204457E+03  0.12500000000E+03 0.  0.
         25    1    1    2    0    0 -0.54609022166E+02  0.91297753117E+02 -0.22640243958E+02  0.16569552098E+03  0.12500000000E+03 0.  0.
</event>
<event>
 5    0  0.7438971E-005  0.2813419E+03  0.7546771E-02  0.1094958E+00
         21   -1    0    0  502  501  0.00000000000E+00  0.00000000000E+00  0.55946655354E+03  0.55946655354E+03  0.00000000000E+00 0.  1.
         21   -1    0    0  501  502 -0.00000000000E+00 -0.00000000000E+00 -0.14147991049E+03  0.14147991049E+03  0.00000000000E+00 0.  1.
         25    1    1    2    0    0  0.23557299818E+02 -0.68117779707E+02  0.20025766492E+03  0.24682607368E+03  0.12500000000E+03 0.  0.
         25    1    1    2    0    0  0.48676067378E+02  0.14536447955E+03  0.22130335336E+02  0.19903503006E+03  0.12500000000E+03 0.  0.
         25    1    1    2    0    0 -0.72233367196E+02 -0.77246699841E+02  0.19559864279E+03  0.25508536029E+03  0.12500000000E+03 0.  0.
</event>
<event>
 5    0  0.5670250E-005  0.5166005E+03  0.7546771E-02  0.1009535E+00
         21   -1    0    0  502  501  0.00000000000E+00  0.00000000000E+00  0.95157669012E+03  0.95157669012E+03  0.00000000000E+00 0.  1.
         21   -1    0    0  501  502 -0.00000000000E+00 -0.00000000000E+00 -0.28045667804E+03  0.28045667804E+03  0.00000000000E+00 0.  1.
         25    1    1    2    0    0 -0.29784284909E+03 -0.91624008491E+02  0.52234292365E+03  0.62094480558E+03  0.12500000000E+03 0.  0.
         25    1    1    2    0    0 -0.68094047414E+02  0.14278459800E+03  0.33809151048E+02  0.20443164974E+03  0.12500000000E+03 0.  0.
         25    1    1    2    0    0  0.36593689650E+03 -0.51160589509E+02  0.11496793739E+03  0.40665691285E+03  0.12500000000E+03 0.  0.
</event>
<event>
 5    0  0.5670250E-005  0.3177716E+03  0.7546771E-02  0.1076679E+00
         21   -1    0    0  502  501  0.00000000000E+00  0.00000000000E+00  0.77469093667E+03  0.77469093667E+03  0.00000000000E+00 0. -1.
         21   -1    0    0  501  502 -0.00000000000E+00 -0.00000000000E+00 -0.13034721952E+03  0.13034721952E+03  0.00000000000E+00 0. -1.
         25    1    1    2    0    0  0.25666466442E+02 -0.23201855985E+02  0.12474604335E+03  0.17995463026E+03  0.12500000000E+03 0.  0.
         25    1    1    2    0    0  0.74964801274E+01 -0.42255165095E+02 -0.46976679503E+02  0.14026227080E+03  0.12500000000E+03 0.  0.
         25    1    1    2    0    0 -0.33162946569E+02  0.65457021080E+02  0.56657435330E+03  0.58482125513E+03  0.12500000000E+03 0.  0.
</event>
<event>
 5    0  0.5670250E-005  0.3918022E+03  0.7546771E-02  0.1046656E+00
         21   -1    0    0  502  501  0.00000000000E+00  0.00000000000E+00  0.45070896817E+03  0.45070896817E+03  0.00000000000E+00 0. -1.
         21   -1    0    0  501  502 -0.00000000000E+00 -0.00000000000E+00 -0.34059435465E+03  0.34059435465E+03  0.00000000000E+00 0. -1.
         25    1    1    2    0    0  0.51288980188E+02  0.40199146504E-01  0.31109225340E+03  0.33916655382E+03  0.12500000000E+03 0.  0.
         25    1    1    2    0    0  0.35036080101E+02 -0.68656495297E+02 -0.23960740878E+03  0.28103016136E+03  0.12500000000E+03 0.  0.
         25    1    1    2    0    0 -0.86325060289E+02  0.68616296151E+02  0.38629768894E+02  0.17110660763E+03  0.12500000000E+03 0.  0.
</event>
<event>
 5    0  0.5670250E-005  0.3573067E+03  0.7546771E-02  0.1059655E+00
         21   -1    0    0  502  501  0.00000000000E+00  0.00000000000E+00  0.14978931712E+03  0.14978931712E+03  0.00000000000E+00 0. -1.
         21   -1    0    0  501  502 -0.00000000000E+00 -0.00000000000E+00 -0.85231767492E+03  0.85231767492E+03  0.00000000000E+00 0. -1.
         25    1    1    2    0    0 -0.42303791067E+02  0.97858643421E+02 -0.17831591084E+03  0.24246131421E+03  0.12500000000E+03 0.  0.
         25    1    1    2    0    0  0.21701315028E+03 -0.16608254152E+03 -0.40605702830E+03  0.50515881485E+03  0.12500000000E+03 0.  0.
         25    1    1    2    0    0 -0.17470935921E+03  0.68223898100E+02 -0.11815541867E+03  0.25448686298E+03  0.12500000000E+03 0.  0.
</event>
<event>
 5    0  0.5670250E-005  0.2485122E+03  0.7546771E-02  0.1114249E+00
         21   -1    0    0  502  501  0.00000000000E+00  0.00000000000E+00  0.28979511776E+03  0.28979511776E+03  0.00000000000E+00 0. -1.
         21   -1    0    0  501  502 -0.00000000000E+00 -0.00000000000E+00 -0.21311017850E+03  0.21311017850E+03  0.00000000000E+00 0. -1.
         25    1    1    2    0    0 -0.71646049298E+02 -0.53831589148E+02  0.15016240202E+03  0.21495288635E+03  0.12500000000E+03 0.  0.
         25    1    1    2    0    0  0.58392600875E+02 -0.65363337854E+01 -0.25298044572E+02  0.14041869731E+03  0.12500000000E+03 0.  0.
         25    1    1    2    0    0  0.13253448423E+02  0.60367922933E+02 -0.48179418192E+02  0.14753371259E+03  0.12500000000E+03 0.  0.
</event>
<event>
 5    0  0.5670250E-005  0.3144207E+03  0.7546771E-02  0.1078246E+00
         21   -1    0    0  502  501  0.00000000000E+00  0.00000000000E+00  0.20904425675E+04  0.20904425675E+04  0.00000000000E+00 0.  1.
         21   -1    0    0  501  502 -0.00000000000E+00 -0.00000000000E+00 -0.47291607461E+02  0.47291607461E+02  0.00000000000E+00 0.  1.
         25    1    1    2    0    0  0.22888628451E+02 -0.12574667597E+03  0.11074444822E+04  0.11217817956E+04  0.12500000000E+03 0.  0.
         25    1    1    2    0    0  0.16244490897E+02  0.17552693938E+03  0.33153715529E+03  0.39574673122E+03  0.12500000000E+03 0.  0.
         25    1    1    2    0    0 -0.39133119348E+02 -0.49780263403E+02  0.60416932254E+03  0.62020564812E+03  0.12500000000E+03 0.  0.
</event>
<event>
 5    0  0.5670250E-005  0.5411517E+03  0.7546771E-02  0.1003563E+00
         21   -1    0    0  502  501  0.00000000000E+00  0.00000000000E+00  0.16054401059E+03  0.16054401059E+03  0.00000000000E+00 0.  1.
         21   -1    0    0  501  502 -0.00000000000E+00 -0.00000000000E+00 -0.18240804176E+04  0.18240804176E+04  0.00000000000E+00 0.  1.
         25    1    1    2    0    0  0.37527178851E+03 -0.20896963976E+03 -0.59259624862E+03  0.74249076727E+03  0.12500000000E+03 0.  0.
         25    1    1    2    0    0  0.20033360046E+02  0.15837876776E+03 -0.45267309740E+03  0.49600715993E+03  0.12500000000E+03 0.  0.
         25    1    1    2    0    0 -0.39530514855E+03  0.50590871997E+02 -0.61826706099E+03  0.74612650101E+03  0.12500000000E+03 0.  0.
</event>
<event>
 5    0  0.5670250E-005  0.2757475E+03  0.7546771E-02  0.1098035E+00
         21   -1    0    0  502  501  0.00000000000E+00  0.00000000000E+00  0.20470119228E+04  0.20470119228E+04  0.00000000000E+00 0.  1.
         21   -1    0    0  501  502 -0.00000000000E+00 -0.00000000000E+00 -0.37145202835E+02  0.37145202835E+02  0.00000000000E+00 0.  1.
         25    1    1    2    0    0  0.37893341262E+02  0.26040125542E+02  0.53739416508E+03  0.55365285343E+03  0.12500000000E+03 0.  0.
         25    1    1    2    0    0  0.52140157253E+01  0.13378920593E+03  0.96575448848E+03  0.98297175422E+03  0.12500000000E+03 0.  0.
         25    1    1    2    0    0 -0.43107356987E+02 -0.15982933147E+03  0.50671806642E+03  0.54753251800E+03  0.12500000000E+03 0.  0.
</event>
<event>
 5    0  0.5670250E-005  0.4506486E+03  0.7546771E-02  0.1027529E+00
         21   -1    0    0  502  501  0.00000000000E+00  0.00000000000E+00  0.12062802200E+04  0.12062802200E+04  0.00000000000E+00 0.  1.
         21   -1    0    0  501  502 -0.00000000000E+00 -0.00000000000E+00 -0.16835567647E+03  0.16835567647E+03  0.00000000000E+00 0.  1.
         25    1    1    2    0    0 -0.65775052232E+02  0.37448731372E+02  0.13230191236E+03  0.19712321272E+03  0.12500000000E+03 0.  0.
         25    1    1    2    0    0 -0.81464977014E+02 -0.35104595092E+02 -0.80168053638E+02  0.17297627554E+03  0.12500000000E+03 0.  0.
         25    1    1    2    0    0  0.14724002925E+03 -0.23441362807E+01  0.98579068482E+03  0.10045364082E+04  0.12500000000E+03 0.  0.
</event>
<event>
 5    0  0.5670250E-005  0.4281489E+03  0.7546771E-02  0.1034446E+00
         21   -1    0    0  502  501  0.00000000000E+00  0.00000000000E+00  0.77385706104E+03  0.77385706104E+03  0.00000000000E+00 0.  1.
         21   -1    0    0  501  502 -0.00000000000E+00 -0.00000000000E+00 -0.23688030935E+03  0.23688030935E+03  0.00000000000E+00 0.  1.
         25    1    1    2    0    0 -0.92848942235E+02  0.26678954909E+03  0.11143195514E+03  0.32838950989E+03  0.12500000000E+03 0.  0.
         25    1    1    2    0    0 -0.48247905494E+01  0.68229874556E+02  0.20931142791E+03  0.25320913933E+03  0.12500000000E+03 0.  0.
         25    1    1    2    0    0  0.97673732785E+02 -0.33501942365E+03  0.21623336864E+03  0.42913872117E+03  0.12500000000E+03 0.  0.
</event>
<event>
 5    0  0.5670250E-005  0.4421545E+03  0.7546771E-02  0.1030088E+00
         21   -1    0    0  502  501  0.00000000000E+00  0.00000000000E+00  0.25699083141E+03  0.25699083141E+03  0.00000000000E+00 0.  1.
         21   -1    0    0  501  502 -0.00000000000E+00 -0.00000000000E+00 -0.76072988865E+03  0.76072988865E+03  0.00000000000E+00 0.  1.
         25    1    1    2    0    0  0.18887717219E+03 -0.10964318852E+03  0.11347630995E+03  0.27604001138E+03  0.12500000000E+03 0.  0.
         25    1    1    2    0    0  0.32401594041E+02 -0.42695020118E+01 -0.24286393238E+03  0.27509267819E+03  0.12500000000E+03 0.  0.
         25    1    1    2    0    0 -0.22127876623E+03  0.11391269053E+03 -0.37435143481E+03  0.46658803049E+03  0.12500000000E+03 0.  0.
</event>
<event>
 5    0  0.5670250E-005  0.3887352E+03  0.7546771E-02  0.1047752E+00
         21   -1    0    0  502  501  0.00000000000E+00  0.00000000000E+00  0.71270897208E+03  0.71270897208E+03  0.00000000000E+00 0. -1.
         21   -1    0    0  501  502 -0.00000000000E+00 -0.00000000000E+00 -0.21202915319E+03  0.21202915319E+03  0.00000000000E+00 0. -1.
         25    1    1    2    0    0 -0.21088062677E+02  0.12705932160E+02 -0.11198672896E+03  0.16962362619E+03  0.12500000000E+03 0.  0.
         25    1    1    2    0    0  0.27415069336E+02 -0.16049820285E+03  0.15208696631E+03  0.25547349073E+03  0.12500000000E+03 0.  0.
         25    1    1    2    0    0 -0.63270066590E+01  0.14779227069E+03  0.46057958154E+03  0.49964100834E+03  0.12500000000E+03 0.  0.
</event>
<event>
 5    0  0.5670250E-005  0.3303831E+03  0.7546771E-02  0.1070967E+00
         21   -1    0    0  502  501  0.00000000000E+00  0.00000000000E+00  0.18950688679E+03  0.18950688679E+03  0.00000000000E+00 0.  1.
         21   -1    0    0  501  502 -0.00000000000E+00 -0.00000000000E+00 -0.57598447420E+03  0.57598447420E+03  0.00000000000E+00 0.  1.
         25    1    1    2    0    0 -0.95693063652E+02 -0.38912278998E+02 -0.18079479339E+03  0.24286433498E+03  0.12500000000E+03 0.  0.
         25    1    1    2    0    0 -0.49147439477E+02  0.66403719550E+02 -0.27836409258E+03  0.31612733639E+03  0.12500000000E+03 0.  0.
         25    1    1    2    0    0  0.14484050313E+03 -0.27491440553E+02  0.72681298557E+02  0.20649968961E+03  0.12500000000E+03 0.  0.
</event>
<event>
 5    0  0.5670250E-005  0.6806753E+03  0.7546771E-02  0.9750863E-01
         21   -1    0    0  502  501  0.00000000000E+00  0.00000000000E+00  0.54614661662E+03  0.54614661662E+03  0.00000000000E+00 0.  1.
         21   -1    0    0  501  502 -0.00000000000E+00 -0.00000000000E+00 -0.84834154011E+03  0.84834154011E+03  0.00000000000E+00 0.  1.
         25    1    1    2    0    0 -0.14778716033E+03  0.18565250995E+03  0.38375814686E+03  0.46819142932E+03  0.12500000000E+03 0.  0.
         25    1    1    2    0    0  0.19888471418E+03  0.41980625950E+02 -0.59068382488E+02  0.24582834723E+03  0.12500000000E+03 0.  0.
         25    1    1    2    0    0 -0.51097553846E+02 -0.22763313590E+03 -0.62688468786E+03  0.68046838019E+03  0.12500000000E+03 0.  0.
</event>
<event>
 5    0  0.5670250E-005  0.2937932E+03  0.7546771E-02  0.1088385E+00
         21   -1    0    0  502  501  0.00000000000E+00  0.00000000000E+00  0.71760203701E+02  0.71760203701E+02  0.00000000000E+00 0.  1.
         21   -1    0    0  501  502 -0.00000000000E+00 -0.00000000000E+00 -0.12028173082E+04  0.12028173082E+04  0.00000000000E+00 0.  1.
         25    1    1    2    0    0  0.29633387489E+02  0.17394624054E+02 -0.34633876329E+03  0.36980569163E+03  0.12500000000E+03 0.  0.
         25    1    1    2    0    0  0.38525685688E+02  0.96553298468E+02 -0.66974281818E+03  0.68919315900E+03  0.12500000000E+03 0.  0.
         25    1    1    2    0    0 -0.68159073177E+02 -0.11394792252E+03 -0.11497552302E+03  0.21557866128E+03  0.12500000000E+03 0.  0.
</event>
<event>
 5    0  0.5670250E-005  0.4188701E+03  0.7546771E-02  0.1037435E+00
         21   -1    0    0  502  501  0.00000000000E+00  0.00000000000E+00  0.40311863964E+03  0.40311863964E+03  0.00000000000E+00 0.  1.
         21   -1    0    0  501  502 -0.00000000000E+00 -0.00000000000E+00 -0.43523694268E+03  0.43523694268E+03  0.00000000000E+00 0.  1.
         25    1    1    2    0    0  0.12901713845E+03  0.63154099979E+02 -0.12531002762E+02  0.19082947463E+03  0.12500000000E+03 0.  0.
         25    1    1    2    0    0 -0.27202493534E+03 -0.24173835497E+03 -0.34925888875E+02  0.38636746165E+03  0.12500000000E+03 0.  0.
         25    1    1    2    0    0  0.14300779688E+03  0.17858425499E+03  0.15338588596E+02  0.26115864604E+03  0.12500000000E+03 0.  0.
</event>
<event>
 5    0  0.5670250E-005  0.2864092E+03  0.7546771E-02  0.1092239E+00
         21   -1    0    0  502  501  0.00000000000E+00  0.00000000000E+00  0.12232398483E+04  0.12232398483E+04  0.00000000000E+00 0. -1.
         21   -1    0    0  501  502 -0.00000000000E+00 -0.00000000000E+00 -0.67059813602E+02  0.67059813602E+02  0.00000000000E+00 0. -1.
         25    1    1    2    0    0  0.11428855225E+03 -0.14189977482E+03  0.36611798780E+03  0.42762694052E+03  0.12500000000E+03 0.  0.
         25    1    1    2    0    0 -0.71779039524E+02  0.13777513742E+03  0.59133675565E+03  0.62404998004E+03  0.12500000000E+03 0.  0.
         25    1    1    2    0    0 -0.42509512728E+02  0.41246374025E+01  0.19872529129E+03  0.23862274138E+03  0.12500000000E+03 0.  0.
</event>
<event>
 5    0  0.5670250E-005  0.2627339E+03  0.7546771E-02  0.1105512E+00
         21   -1    0    0  502  501  0.00000000000E+00  0.00000000000E+00  0.11296928258E+04  0.11296928258E+04  0.00000000000E+00 0. -1.
         21   -1    0    0  501  502 -0.00000000000E+00 -0.00000000000E+00 -0.61104291430E+02  0.61104291430E+02  0.00000000000E+00 0. -1.
         25    1    1    2    0    0 -0.22574197440E+02  0.13663014423E+02  0.37386212807E+03  0.39508753860E+03  0.12500000000E+03 0.  0.
         25    1    1    2    0    0  0.72549374421E+02 -0.14012702932E+03  0.40190415886E+03  0.44950077751E+03  0.12500000000E+03 0.  0.
         25    1    1    2    0    0 -0.49975176981E+02  0.12646401490E+03  0.29282224747E+03  0.34620880114E+03  0.12500000000E+03 0.  0.
</event>
<event>
 5    0  0.5670250E-005  0.3768776E+03  0.7546771E-02  0.1052094E+00
         21   -1    0    0  502  501  0.00000000000E+00  0.00000000000E+00  0.89323062183E+03  0.89323062183E+03  0.00000000000E+00 0.  1.
         21   -1    0    0  501  502 -0.00000000000E+00 -0.00000000000E+00 -0.15901461093E+03  0.15901461093E+03  0.00000000000E+00 0.  1.
         25    1    1    2    0    0  0.30379950120E+02  0.50572499298E+02  0.49475851163E+03  0.51370371215E+03  0.12500000000E+03 0.  0.
         25    1    1    2    0    0 -0.17728464663E+02  0.17991623251E+03  0.11388009305E+03  0.24754358156E+03  0.12500000000E+03 0.  0.
         25    1    1    2    0    0 -0.12651485457E+02 -0.23048873181E+03  0.12557740622E+03  0.29099793904E+03  0.12500000000E+03 0.  0.
</event>
<event>
 5    0  0.5670250E-005  0.2904965E+03  0.7546771E-02  0.1090090E+00
         21   -1    0    0  502  501  0.00000000000E+00  0.00000000000E+00  0.11694109440E+03  0.11694109440E+03  0.00000000000E+00 0.  1.
         21   -1    0    0  501  502 -0.00000000000E+00 -0.00000000000E+00 -0.72163004885E+03  0.72163004885E+03  0.00000000000E+00 0.  1.
         25    1    1    2    0    0  0.13358898218E+02  0.10778319398E+03 -0.15387383970E+03  0.22604830371E+03  0.12500000000E+03 0.  0.
         25    1    1    2    0    0  0.26072864869E+02 -0.15303492022E+03 -0.42781575817E+03  0.47196483346E+03  0.12500000000E+03 0.  0.
         25    1    1    2    0    0 -0.39431763087E+02  0.45251726234E+02 -0.22999356582E+02  0.14055800607E+03  0.12500000000E+03 0.  0.
</event>
<event>
 5    0  0.5670250E-005  0.2653664E+03  0.7546771E-02  0.1103961E+00
         21   -1    0    0  502  501  0.00000000000E+00  0.00000000000E+00  0.22454171581E+03  0.22454171581E+03  0.00000000000E+00 0.  1.
         21   -1    0    0  501  502 -0.00000000000E+00 -0.00000000000E+00 -0.31361345604E+03  0.31361345604E+03  0.00000000000E+00 0.  1.
         25    1    1    2    0    0 -0.24950569691E+01  0.37927141720E+02 -0.60679546683E+01  0.13079187078E+03  0.12500000000E+03 0.  0.
         25    1    1    2    0    0 -0.56659271562E+02 -0.13292293782E+03 -0.13241958014E+03  0.23246231019E+03  0.12500000000E+03 0.  0.
         25    1    1    2    0    0  0.59154328531E+02  0.94995796100E+02  0.49415794574E+02  0.17490099089E+03  0.12500000000E+03 0.  0.
</event>
<event>
 5    0  0.5670250E-005  0.3038726E+03  0.7546771E-02  0.1083321E+00
         21   -1    0    0  502  501  0.00000000000E+00  0.00000000000E+00  0.33497583869E+03  0.33497583869E+03  0.00000000000E+00 0.  1.
         21   -1    0    0  501  502 -0.00000000000E+00 -0.00000000000E+00 -0.27565737731E+03  0.27565737731E+03  0.00000000000E+00 0.  1.
         25    1    1    2    0    0  0.12332939622E+03  0.20378192440E+02 -0.19660057262E+02  0.17786772768E+03  0.12500000000E+03 0.  0.
         25    1    1    2    0    0  0.73169463524E+01 -0.23357570988E+02  0.18389275733E+03  0.22369769786E+03  0.12500000000E+03 0.  0.
         25    1    1    2    0    0 -0.13064634257E+03  0.29793785481E+01 -0.10491423869E+03  0.20906779045E+03  0.12500000000E+03 0.  0.
</event>
<event>
 5    0  0.5670250E-005  0.2889038E+03  0.7546771E-02  0.1090923E+00
         21   -1    0    0  502  501  0.00000000000E+00  0.00000000000E+00  0.20356227403E+03  0.20356227403E+03  0.00000000000E+00 0. -1.
         21   -1    0    0  501  502 -0.00000000000E+00 -0.00000000000E+00 -0.41002400668E+03  0.41002400668E+03  0.00000000000E+00 0. -1.
         25    1    1    2    0    0 -0.83102265036E+02  0.95751917991E+02 -0.82958735931E+02  0.19642191354E+03  0.12500000000E+03 0.  0.
         25    1    1    2    0    0  0.14762063965E+03  0.18011373081E+02 -0.13391026181E+03  0.23595173453E+03  0.12500000000E+03 0.  0.
         25    1    1    2    0    0 -0.64518374615E+02 -0.11376329107E+03  0.10407265086E+02  0.18121263263E+03  0.12500000000E+03 0.  0.
</event>
<event>
 5    0  0.5670250E-005  0.6208706E+03  0.7546771E-02  0.9863028E-01
         21   -1    0    0  502  501  0.00000000000E+00  0.00000000000E+00  0.61334669046E+03  0.61334669046E+03  0.00000000000E+00 0.  1.
         21   -1    0    0  501  502 -0.00000000000E+00 -0.00000000000E+00 -0.62848677313E+03  0.62848677313E+03  0.00000000000E+00 0.  1.
         25    1    1    2    0    0  0.59595252182E+02  0.46486553610E+03  0.85779885547E+01  0.48512899586E+03  0.12500000000E+03 0.  0.
         25    1    1    2    0    0 -0.22908592178E+03 -0.18228102111E+03  0.16325623432E+03  0.35774897381E+03  0.12500000000E+03 0.  0.
         25    1    1    2    0    0  0.16949066960E+03 -0.28258451498E+03 -0.18697430555E+03  0.39895549392E+03  0.12500000000E+03 0.  0.
</event>
<event>
 5    0  0.5670250E-005  0.3634215E+03  0.7546771E-02  0.1057237E+00
         21   -1    0    0  502  501  0.00000000000E+00  0.00000000000E+00  0.76911397315E+03  0.76911397315E+03  0.00000000000E+00 0.  1.
         21   -1    0    0  501  502 -0.00000000000E+00 -0.00000000000E+00 -0.17172381096E+03  0.17172381096E+03  0.00000000000E+00 0.  1.
         25    1    1    2    0    0 -0.28498547107E+02  0.23617558516E+03  0.38265964635E+03  0.46759435322E+03  0.12500000000E+03 0.  0.
         25    1    1    2    0    0 -0.54537418588E+02 -0.62741291421E+02  0.19061830242E+03  0.24263375052E+03  0.12500000000E+03 0.  0.
         25    1    1    2    0    0  0.83035965694E+02 -0.17343429374E+03  0.24112213420E+02  0.23060968037E+03  0.12500000000E+03 0.  0.
</event>
<event>
 5    0  0.5670250E-005  0.2158477E+03  0.7546771E-02  0.1137017E+00
         21   -1    0    0  502  501  0.00000000000E+00  0.00000000000E+00  0.92376158343E+03  0.92376158343E+03  0.00000000000E+00 0.  1.
         21   -1    0    0  501  502 -0.00000000000E+00 -0.00000000000E+00 -0.50435338765E+02  0.50435338765E+02  0.00000000000E+00 0.  1.
         25    1    1    2    0    0  0.41487788857E+02  0.84738936772E+02  0.29515999820E+03  0.33413522497E+03  0.12500000000E+03 0.  0.
         25    1    1    2    0    0 -0.47013956500E+02 -0.34403742738E+02  0.25548849214E+03  0.29033308326E+03  0.12500000000E+03 0.  0.
         25    1    1    2    0    0  0.55261676435E+01 -0.50335194034E+02  0.32267775432E+03  0.34972861396E+03  0.12500000000E+03 0.  0.
</event>
<event>
 5    0  0.5670250E-005  0.2782775E+03  0.7546771E-02  0.1096633E+00
         21   -1    0    0  502  501  0.00000000000E+00  0.00000000000E+00  0.50121516364E+03  0.50121516364E+03  0.00000000000E+00 0.  1.
         21   -1    0    0  501  502 -0.00000000000E+00 -0.00000000000E+00 -0.15450121357E+03  0.15450121357E+03  0.00000000000E+00 0.  1.
         25    1    1    2    0    0 -0.81286791414E+02  0.10911940204E+03  0.20901390564E+03  0.27897383231E+03  0.12500000000E+03 0.  0.
         25    1    1    2    0    0  0.54982277959E+02 -0.15477121434E+03  0.12306153441E+03  0.24030464192E+03  0.12500000000E+03 0.  0.
         25    1    1    2    0    0  0.26304513455E+02  0.45651812298E+02  0.14638510009E+02  0.13643790298E+03  0.12500000000E+03 0.  0.
</event>
<event>
 5    0  0.5670250E-005  0.2735703E+03  0.7546771E-02  0.1099253E+00
         21   -1    0    0  502  501  0.00000000000E+00  0.00000000000E+00  0.25762494791E+03  0.25762494791E+03  0.00000000000E+00 0. -1.
         21   -1    0    0  501  502 -0.00000000000E+00 -0.00000000000E+00 -0.29050249271E+03  0.29050249271E+03  0.00000000000E+00 0. -1.
         25    1    1    2    0    0 -0.54858807245E+02  0.43575936207E+02 -0.12887540067E+03  0.19272316894E+03  0.12500000000E+03 0.  0.
         25    1    1    2    0    0 -0.59437123124E+02  0.94657226324E+01  0.11044583875E+03  0.17732922717E+03  0.12500000000E+03 0.  0.
         25    1    1    2    0    0  0.11429593037E+03 -0.53041658839E+02 -0.14447982884E+02  0.17807504452E+03  0.12500000000E+03 0.  0.
</event>
<event>
 5    0  0.5670250E-005  0.3223464E+03  0.7546771E-02  0.1074574E+00
         21   -1    0    0  502  501  0.00000000000E+00  0.00000000000E+00  0.16760289570E+03  0.16760289570E+03  0.00000000000E+00 0. -1.
         21   -1    0    0  501  502 -0.00000000000E+00 -0.00000000000E+00 -0.61996068299E+03  0.61996068299E+03  0.00000000000E+00 0. -1.
         25    1    1    2    0    0 -0.96070516046E+02  0.42862521788E+01  0.27420017229E+02  0.16007739802E+03  0.12500000000E+03 0.  0.
         25    1    1    2    0    0 -0.22247518245E+02  0.12029974900E+03 -0.30825161454E+03  0.35441647752E+03  0.12500000000E+03 0.  0.
         25    1    1    2    0    0  0.11831803429E+03 -0.12458600118E+03 -0.17152618998E+03  0.27306970315E+03  0.12500000000E+03 0.  0.
</event>
<event>
 5    0  0.5670250E-005  0.3243691E+03  0.7546771E-02  0.1073656E+00
         21   -1    0    0  502  501  0.00000000000E+00  0.00000000000E+00  0.88464721077E+03  0.88464721077E+03  0.00000000000E+00 0. -1.
         21   -1    0    0  501  502 -0.00000000000E+00 -0.00000000000E+00 -0.11893475264E+03  0.11893475264E+03  0.00000000000E+00 0. -1.
         25    1    1    2    0    0 -0.66975227068E+02  0.13013349366E+02  0.81925803743E+02  0.16429201326E+03  0.12500000000E+03 0.  0.
         25    1    1    2    0    0  0.57444067970E+01 -0.17410073595E+03  0.54368504456E+03  0.58443347966E+03  0.12500000000E+03 0.  0.
         25    1    1    2    0    0  0.61230820271E+02  0.16108738659E+03  0.14010160983E+03  0.25485647048E+03  0.12500000000E+03 0.  0.
</event>
<event>
 5    0  0.5670250E-005  0.2361663E+03  0.7546771E-02  0.1122373E+00
         21   -1    0    0  502  501  0.00000000000E+00  0.00000000000E+00  0.15639919165E+04  0.15639919165E+04  0.00000000000E+00 0.  1.
         21   -1    0    0  501  502 -0.00000000000E+00 -0.00000000000E+00 -0.35661635044E+02  0.35661635044E+02  0.00000000000E+00 0.  1.
         25    1    1    2    0    0  0.81350978566E+02  0.23365972481E+02  0.70375450225E+03  0.71976339850E+03  0.12500000000E+03 0.  0.
         25    1    1    2    0    0 -0.11067572353E+03 -0.94895088679E+00  0.35065019021E+03  0.38836911847E+03  0.12500000000E+03 0.  0.
         25    1    1    2    0    0  0.29324744962E+02 -0.22417021594E+02  0.47392558898E+03  0.49152103456E+03  0.12500000000E+03 0.  0.
</event>
<event>
 5    0  0.5670250E-005  0.4296102E+03  0.7546771E-02  0.1033983E+00
         21   -1    0    0  502  501  0.00000000000E+00  0.00000000000E+00  0.10663162732E+03  0.10663162732E+03  0.00000000000E+00 0.  1.
         21   -1    0    0  501  502 -0.00000000000E+00 -0.00000000000E+00 -0.17308645857E+04  0.17308645857E+04  0.00000000000E+00 0.  1.
         25    1    1    2    0    0 -0.13754489506E+03  0.27827817217E+03 -0.82796299301E+03  0.89303138638E+03  0.12500000000E+03 0.  0.
         25    1    1    2    0    0  0.13149075510E+03 -0.25527591798E+03 -0.30563872176E+03  0.43760214947E+03  0.12500000000E+03 0.  0.
         25    1    1    2    0    0  0.60541399598E+01 -0.23002254189E+02 -0.49063124363E+03  0.50686267720E+03  0.12500000000E+03 0.  0.
</event>
<event>
 5    0  0.5670250E-005  0.5147815E+03  0.7546771E-02  0.1009991E+00
         21   -1    0    0  502  501  0.00000000000E+00  0.00000000000E+00  0.41514993882E+03  0.41514993882E+03  0.00000000000E+00 0.  1.
         21   -1    0    0  501  502 -0.00000000000E+00 -0.00000000000E+00 -0.63832360080E+03  0.63832360080E+03  0.00000000000E+00 0.  1.
         25    1    1    2    0    0  0.31713019009E+03  0.11244522342E+03 -0.14891742927E+03  0.38860891199E+03  0.12500000000E+03 0.  0.
         25    1    1    2    0    0  0.64274786067E+02 -0.13320946953E+03 -0.16318617209E+03  0.25324047397E+03  0.12500000000E+03 0.  0.
         25    1    1    2    0    0 -0.38140497616E+03  0.20764246110E+02  0.88929939380E+02  0.41162415366E+03  0.12500000000E+03 0.  0.
</event>
<event>
 5    0  0.5670250E-005  0.3824423E+03  0.7546771E-02  0.1050035E+00
         21   -1    0    0  502  501  0.00000000000E+00  0.00000000000E+00  0.18491823090E+03  0.18491823090E+03  0.00000000000E+00 0. -1.
         21   -1    0    0  501  502 -0.00000000000E+00 -0.00000000000E+00 -0.79095547092E+03  0.79095547092E+03  0.00000000000E+00 0. -1.
         25    1    1    2    0    0 -0.19653075611E+03  0.12147335893E+03 -0.48399603248E+03  0.55068800104E+03  0.12500000000E+03 0.  0.
         25    1    1    2    0    0  0.94639820777E+02 -0.14651720356E+03  0.10644223630E+02  0.21485410425E+03  0.12500000000E+03 0.  0.
         25    1    1    2    0    0  0.10189093534E+03  0.25043844632E+02 -0.13268543117E+03  0.21033159654E+03  0.12500000000E+03 0.  0.
</event>
<event>
 5    0  0.6140365E-005  0.3338407E+03  0.7546771E-02  0.1069450E+00
         21   -1    0    0  502  501  0.00000000000E+00  0.00000000000E+00  0.37142812526E+03  0.37142812526E+03  0.00000000000E+00 0.  1.
         21   -1    0    0  501  502 -0.00000000000E+00 -0.00000000000E+00 -0.30005693231E+03  0.30005693231E+03  0.00000000000E+00 0.  1.
         25    1    1    2    0    0 -0.12811234352E+03  0.17328927920E+02  0.13647225148E+03  0.22574928511E+03  0.12500000000E+03 0.  0.
         25    1    1    2    0    0  0.20808749986E+03  0.73162618519E+02 -0.92301886350E+02  0.26981070136E+03  0.12500000000E+03 0.  0.
         25    1    1    2    0    0 -0.79975156343E+02 -0.90491546439E+02  0.27200827822E+02  0.17592507110E+03  0.12500000000E+03 0.  0.
</event>
<event>
 5    0  0.5670250E-005  0.2353572E+03  0.7546771E-02  0.1122925E+00
         21   -1    0    0  502  501  0.00000000000E+00  0.00000000000E+00  0.89154385739E+02  0.89154385739E+02  0.00000000000E+00 0. -1.
         21   -1    0    0  501  502 -0.00000000000E+00 -0.00000000000E+00 -0.62131535988E+03  0.62131535988E+03  0.00000000000E+00 0. -1.
         25    1    1    2    0    0 -0.51313076722E+02 -0.61733746826E+02 -0.54978132463E+02  0.15840354286E+03  0.12500000000E+03 0.  0.
         25    1    1    2    0    0  0.64984326459E+01  0.40537214180E+02 -0.31508877058E+03  0.34145487068E+03  0.12500000000E+03 0.  0.
         25    1    1    2    0    0  0.44814644076E+02  0.21196532646E+02 -0.16209407110E+03  0.21061133209E+03  0.12500000000E+03 0.  0.
</event>
<event>
 5    0  0.5670250E-005  0.4248034E+03  0.7546771E-02  0.1035514E+00
         21   -1    0    0  502  501  0.00000000000E+00  0.00000000000E+00  0.15848206268E+03  0.15848206268E+03  0.00000000000E+00 0.  1.
         21   -1    0    0  501  502 -0.00000000000E+00 -0.00000000000E+00 -0.11386644899E+04  0.11386644899E+04  0.00000000000E+00 0.  1.
         25    1    1    2    0    0 -0.49858223759E+02  0.19204594266E+03 -0.37024411261E+03  0.43826155375E+03  0.12500000000E+03 0.  0.
         25    1    1    2    0    0 -0.14660446035E+03 -0.27791167172E+03 -0.45279695535E+03  0.56513524739E+03  0.12500000000E+03 0.  0.
         25    1    1    2    0    0  0.19646268411E+03  0.85865729065E+02 -0.15714135925E+03  0.29374975143E+03  0.12500000000E+03 0.  0.
</event>
<event>
 5    0  0.5670250E-005  0.3277721E+03  0.7546771E-02  0.1072127E+00
         21   -1    0    0  502  501  0.00000000000E+00  0.00000000000E+00  0.72382573219E+02  0.72382573219E+02  0.00000000000E+00 0.  1.
         21   -1    0    0  501  502 -0.00000000000E+00 -0.00000000000E+00 -0.14842596568E+04  0.14842596568E+04  0.00000000000E+00 0.  1.
         25    1    1    2    0    0  0.54630164484E+02  0.24255151302E+03 -0.44652331352E+03  0.52614043834E+03  0.12500000000E+03 0.  0.
         25    1    1    2    0    0 -0.26568247429E+02 -0.13505583393E+03 -0.61105649552E+03  0.63871824052E+03  0.12500000000E+03 0.  0.
         25    1    1    2    0    0 -0.28061917055E+02 -0.10749567909E+03 -0.35429727449E+03  0.39178355111E+03  0.12500000000E+03 0.  0.
</event>
<event>
 5    0  0.5670250E-005  0.5676060E+03  0.7546771E-02  0.9974990E-01
         21   -1    0    0  502  501  0.00000000000E+00  0.00000000000E+00  0.12049624435E+04  0.12049624435E+04  0.00000000000E+00 0. -1.
         21   -1    0    0  501  502 -0.00000000000E+00 -0.00000000000E+00 -0.26737480209E+03  0.26737480209E+03  0.00000000000E+00 0. -1.
         25    1    1    2    0    0  0.20849939229E+03 -0.27859551058E+03  0.10728057466E+03  0.38499555426E+03  0.12500000000E+03 0.  0.
         25    1    1    2    0    0  0.17702497358E+02 -0.78477867949E+02  0.15543603876E+01  0.14865924191E+03  0.12500000000E+03 0.  0.
         25    1    1    2    0    0 -0.22620188965E+03  0.35707337853E+03  0.82875270633E+03  0.93868244939E+03  0.12500000000E+03 0.  0.
</event>
<event>
 5    0  0.6233935E-005  0.2626439E+03  0.7546771E-02  0.1105565E+00
         21   -1    0    0  502  501  0.00000000000E+00  0.00000000000E+00  0.10243252975E+03  0.10243252975E+03  0.00000000000E+00 0. -1.
         21   -1    0    0  501  502 -0.00000000000E+00 -0.00000000000E+00 -0.67343659384E+03  0.67343659384E+03  0.00000000000E+00 0. -1.
         25    1    1    2    0    0  0.80764636254E+02  0.56768615407E+02 -0.15482010556E+03  0.22212579150E+03  0.12500000000E+03 0.  0.
         25    1    1    2    0    0 -0.15648611795E+03 -0.50931816995E+02 -0.31174188568E+03  0.37401866047E+03  0.12500000000E+03 0.  0.
         25    1    1    2    0    0  0.75721481696E+02 -0.58367984120E+01 -0.10444207286E+03  0.17972467162E+03  0.12500000000E+03 0.  0.
</event>
<event>
 5    0  0.5670250E-005  0.2781129E+03  0.7546771E-02  0.1096724E+00
         21   -1    0    0  502  501  0.00000000000E+00  0.00000000000E+00  0.21976257757E+04  0.21976257757E+04  0.00000000000E+00 0.  1.
         21   -1    0    0  501  502 -0.00000000000E+00 -0.00000000000E+00 -0.35195604121E+02  0.35195604121E+02  0.00000000000E+00 0.  1.
         25    1    1    2    0    0  0.11819857782E+03 -0.94049538131E+02  0.10416399338E+04  0.10599315879E+04  0.12500000000E+03 0.  0.
         25    1    1    2    0    0 -0.67438085701E+02 -0.39520332357E+02  0.62090818305E+03  0.63817060717E+03  0.12500000000E+03 0.  0.
         25    1    1    2    0    0 -0.50760492121E+02  0.13356987049E+03  0.49988205472E+03  0.53471918471E+03  0.12500000000E+03 0.  0.
</event>
<event>
 5    0  0.5670250E-005  0.4851456E+03  0.7546771E-02  0.1017731E+00
         21   -1    0    0  502  501  0.00000000000E+00  0.00000000000E+00  0.53876975005E+03  0.53876975005E+03  0.00000000000E+00 0.  1.
         21   -1    0    0  501  502 -0.00000000000E+00 -0.00000000000E+00 -0.43685874793E+03  0.43685874793E+03  0.00000000000E+00 0.  1.
         25    1    1    2    0    0  0.12794122087E+03  0.43822479755E+02 -0.16181937210E+02  0.18486811738E+03  0.12500000000E+03 0.  0.
         25    1    1    2    0    0 -0.23348753270E+03 -0.34512963854E+03  0.10563510610E+03  0.44767697167E+03  0.12500000000E+03 0.  0.
         25    1    1    2    0    0  0.10554631182E+03  0.30130715879E+03  0.12457833231E+02  0.34308340893E+03  0.12500000000E+03 0.  0.
</event>
<event>
 5    0  0.5993426E-005  0.3549810E+03  0.7546771E-02  0.1060589E+00
         21   -1    0    0  502  501  0.00000000000E+00  0.00000000000E+00  0.31975307998E+03  0.31975307998E+03  0.00000000000E+00 0. -1.
         21   -1    0    0  501  502 -0.00000000000E+00 -0.00000000000E+00 -0.39409013448E+03  0.39409013448E+03  0.00000000000E+00 0. -1.
         25    1    1    2    0    0  0.19098676552E+02 -0.10712557119E+03  0.13816447438E+03  0.21576623793E+03  0.12500000000E+03 0.  0.
         25    1    1    2    0    0 -0.15606911860E+03  0.11925165109E+03 -0.20799088753E+03  0.31219182463E+03  0.12500000000E+03 0.  0.
         25    1    1    2    0    0  0.13697044205E+03 -0.12126079903E+02 -0.45106413507E+01  0.18588515190E+03  0.12500000000E+03 0.  0.
</event>
<event>
 5    0  0.5670250E-005  0.2072268E+03  0.7546771E-02  0.1143781E+00
         21   -1    0    0  502  501  0.00000000000E+00  0.00000000000E+00  0.51841972537E+03  0.51841972537E+03  0.00000000000E+00 0. -1.
         21   -1    0    0  501  502 -0.00000000000E+00 -0.00000000000E+00 -0.82834318131E+02  0.82834318131E+02  0.00000000000E+00 0. -1.
         25    1    1    2    0    0  0.24647313226E+02 -0.53396684537E+02  0.11887632142E+03  0.18225058508E+03  0.12500000000E+03 0.  0.
         25    1    1    2    0    0 -0.34024691806E+02 -0.87434938988E+01  0.11453203339E+03  0.17313784974E+03  0.12500000000E+03 0.  0.
         25    1    1    2    0    0  0.93773785797E+01  0.62140178436E+02  0.20217705242E+03  0.24586560868E+03  0.12500000000E+03 0.  0.
</event>
<event>
 5    0  0.5670250E-005  0.2271640E+03  0.7546771E-02  0.1128652E+00
         21   -1    0    0  502  501  0.00000000000E+00  0.00000000000E+00  0.15404230640E+03  0.15404230640E+03  0.00000000000E+00 0. -1.
         21   -1    0    0  501  502 -0.00000000000E+00 -0.00000000000E+00 -0.33499538642E+03  0.33499538642E+03  0.00000000000E+00 0. -1.
         25    1    1    2    0    0  0.19347563899E+02  0.36600314887E+02 -0.55108644762E+02  0.14274408571E+03  0.12500000000E+03 0.  0.
         25    1    1    2    0    0  0.78901838114E+02 -0.63741535523E+02 -0.70936316280E+02  0.17591317283E+03  0.12500000000E+03 0.  0.
         25    1    1    2    0    0 -0.98249402013E+02  0.27141220636E+02 -0.54908118977E+02  0.17038043427E+03  0.12500000000E+03 0.  0.
</event>
<event>
 5    0  0.5670250E-005  0.3180564E+03  0.7546771E-02  0.1076547E+00
         21   -1    0    0  502  501  0.00000000000E+00  0.00000000000E+00  0.41632116286E+03  0.41632116286E+03  0.00000000000E+00 0.  1.
         21   -1    0    0  501  502 -0.00000000000E+00 -0.00000000000E+00 -0.24298517205E+03  0.24298517205E+03  0.00000000000E+00 0.  1.
         25    1    1    2    0    0 -0.33799251927E+02 -0.13866233991E+03 -0.11176684337E+03  0.22019641509E+03  0.12500000000E+03 0.  0.
         25    1    1    2    0    0  0.27818717702E+02 -0.12502288616E+02  0.16422185855E+03  0.20862408082E+03  0.12500000000E+03 0.  0.
         25    1    1    2    0    0  0.59805342249E+01  0.15116462852E+03  0.12088097564E+03  0.23048583899E+03  0.12500000000E+03 0.  0.
</event>
<event>
 5    0  0.5670250E-005  0.2170734E+03  0.7546771E-02  0.1136084E+00
         21   -1    0    0  502  501  0.00000000000E+00  0.00000000000E+00  0.29722513967E+02  0.29722513967E+02  0.00000000000E+00 0.  1.
         21   -1    0    0  501  502 -0.00000000000E+00 -0.00000000000E+00 -0.15853589765E+04  0.15853589765E+04  0.00000000000E+00 0.  1.
         25    1    1    2    0    0 -0.31672386477E+02 -0.30955664119E+02 -0.34597919706E+03  0.37052395065E+03  0.12500000000E+03 0.  0.
         25    1    1    2    0    0 -0.19180822815E+02  0.70483055592E+02 -0.47540326799E+03  0.49695978943E+03  0.12500000000E+03 0.  0.
         25    1    1    2    0    0  0.50853209292E+02 -0.39527391474E+02 -0.73425399748E+03  0.74759775039E+03  0.12500000000E+03 0.  0.
</event>
<event>
 5    0  0.5670250E-005  0.3473373E+03  0.7546771E-02  0.1063713E+00
         21   -1    0    0  502  501  0.00000000000E+00  0.00000000000E+00  0.31216905230E+03  0.31216905230E+03  0.00000000000E+00 0.  1.
         21   -1    0    0  501  502 -0.00000000000E+00 -0.00000000000E+00 -0.38646755471E+03  0.38646755471E+03  0.00000000000E+00 0.  1.
         25    1    1    2    0    0 -0.54097953089E+02  0.14615707273E+03 -0.46698025344E+02  0.20516867209E+03  0.12500000000E+03 0.  0.
         25    1    1    2    0    0  0.18534461806E+03 -0.15360789851E+03  0.79697581883E+02  0.28270960098E+03  0.12500000000E+03 0.  0.
         25    1    1    2    0    0 -0.13124666497E+03  0.74508257738E+01 -0.10729805895E+03  0.21075833394E+03  0.12500000000E+03 0.  0.
</event>
<event>
 5    0  0.5670250E-005  0.3306229E+03  0.7546771E-02  0.1070862E+00
         21   -1    0    0  502  501  0.00000000000E+00  0.00000000000E+00  0.94544470780E+03  0.94544470780E+03  0.00000000000E+00 0. -1.
         21   -1    0    0  501  502 -0.00000000000E+00 -0.00000000000E+00 -0.11561911279E+03  0.11561911279E+03  0.00000000000E+00 0.  1.
         25    1    1    2    0    0 -0.23526246824E+03  0.64395101339E+02  0.42669143853E+03  0.50713483587E+03  0.12500000000E+03 0.  0.
         25    1    1    2    0    0  0.66027208492E+02  0.31056310508E+02  0.11664489090E+03  0.18589006767E+03  0.12500000000E+03 0.  0.
         25    1    1    2    0    0  0.16923525975E+03 -0.95451411847E+02  0.28648926558E+03  0.36803891705E+03  0.12500000000E+03 0.  0.
</event>
<event>
 5    0  0.5670250E-005  0.2224366E+03  0.7546771E-02  0.1132079E+00
         21   -1    0    0  502  501  0.00000000000E+00  0.00000000000E+00  0.12896440354E+04  0.12896440354E+04  0.00000000000E+00 0.  1.
         21   -1    0    0  501  502 -0.00000000000E+00 -0.00000000000E+00 -0.38365642277E+02  0.38365642277E+02  0.00000000000E+00 0.  1.
         25    1    1    2    0    0 -0.60521663196E+02  0.23835093162E+02  0.66372771736E+03  0.67852079274E+03  0.12500000000E+03 0.  0.
         25    1    1    2    0    0  0.53814033844E+02 -0.39609550820E+02  0.22823545334E+03  0.26866575687E+03  0.12500000000E+03 0.  0.
         25    1    1    2    0    0  0.67076293515E+01  0.15774457658E+02  0.35931522238E+03  0.38082312803E+03  0.12500000000E+03 0.  0.
</event>
<event>
 5    0  0.5670250E-005  0.3971020E+03  0.7546771E-02  0.1044788E+00
         21   -1    0    0  502  501  0.00000000000E+00  0.00000000000E+00  0.11208974144E+03  0.11208974144E+03  0.00000000000E+00 0. -1.
         21   -1    0    0  501  502 -0.00000000000E+00 -0.00000000000E+00 -0.14068194257E+04  0.14068194257E+04  0.00000000000E+00 0. -1.
         25    1    1    2    0    0  0.11201876486E+03 -0.27083221592E+03 -0.28659182046E+03  0.42855357240E+03  0.12500000000E+03 0.  0.
         25    1    1    2    0    0 -0.68959933030E+02  0.42531945773E+02 -0.30711756546E+03  0.34133654622E+03  0.12500000000E+03 0.  0.
         25    1    1    2    0    0 -0.43058831827E+02  0.22830027015E+03 -0.70102029835E+03  0.74901904852E+03  0.12500000000E+03 0.  0.
</event>
<event>
 5    0  0.5670250E-005  0.2237619E+03  0.7546771E-02  0.1131109E+00
         21   -1    0    0  502  501  0.00000000000E+00  0.00000000000E+00  0.20072377128E+03  0.20072377128E+03  0.00000000000E+00 0.  1.
         21   -1    0    0  501  502 -0.00000000000E+00 -0.00000000000E+00 -0.24944425518E+03  0.24944425518E+03  0.00000000000E+00 0.  1.
         25    1    1    2    0    0  0.60548292486E+02 -0.35994775868E+02 -0.47364061701E+02  0.15109624070E+03  0.12500000000E+03 0.  0.
         25    1    1    2    0    0 -0.10327810342E+03  0.16321581451E+02 -0.20115570124E+02  0.16420230458E+03  0.12500000000E+03 0.  0.
         25    1    1    2    0    0  0.42729810938E+02  0.19673194416E+02  0.18759147923E+02  0.13486948117E+03  0.12500000000E+03 0.  0.
</event>
<event>
 5    0  0.5670250E-005  0.3185758E+03  0.7546771E-02  0.1076307E+00
         21   -1    0    0  502  501  0.00000000000E+00  0.00000000000E+00  0.89040740862E+02  0.89040740862E+02  0.00000000000E+00 0.  1.
         21   -1    0    0  501  502 -0.00000000000E+00 -0.00000000000E+00 -0.11398212858E+04  0.11398212858E+04  0.00000000000E+00 0.  1.
         25    1    1    2    0    0 -0.16164371674E+03  0.84463244896E+02 -0.58871222433E+03  0.62886390736E+03  0.12500000000E+03 0.  0.
         25    1    1    2    0    0  0.41338952834E+02 -0.21637845305E+02 -0.39890150207E+02  0.13925993485E+03  0.12500000000E+03 0.  0.
         25    1    1    2    0    0  0.12030476391E+03 -0.62825399591E+02 -0.42217817041E+03  0.46073818446E+03  0.12500000000E+03 0.  0.
</event>
<event>
 5    0  0.5670250E-005  0.3364200E+03  0.7546771E-02  0.1068331E+00
         21   -1    0    0  502  501  0.00000000000E+00  0.00000000000E+00  0.14247373160E+03  0.14247373160E+03  0.00000000000E+00 0.  1.
         21   -1    0    0  501  502 -0.00000000000E+00 -0.00000000000E+00 -0.79438109804E+03  0.79438109804E+03  0.00000000000E+00 0.  1.
         25    1    1    2    0    0 -0.16003924921E+03  0.70155379539E+02 -0.40466702796E+03  0.45816453604E+03  0.12500000000E+03 0.  0.
         25    1    1    2    0    0 -0.19335706047E+02 -0.11222608559E+03 -0.17803116877E+03  0.24553749382E+03  0.12500000000E+03 0.  0.
         25    1    1    2    0    0  0.17937495526E+03  0.42070706046E+02 -0.69209169711E+02  0.23315279980E+03  0.12500000000E+03 0.  0.
</event>
<event>
 5    0  0.5670250E-005  0.3271510E+03  0.7546771E-02  0.1072404E+00
         21   -1    0    0  502  501  0.00000000000E+00  0.00000000000E+00  0.32985950032E+03  0.32985950032E+03  0.00000000000E+00 0. -1.
         21   -1    0    0  501  502 -0.00000000000E+00 -0.00000000000E+00 -0.32446468392E+03  0.32446468392E+03  0.00000000000E+00 0. -1.
         25    1    1    2    0    0 -0.88681622933E+02 -0.10864654562E+02  0.20897287089E+03  0.25937835633E+03  0.12500000000E+03 0.  0.
         25    1    1    2    0    0 -0.23307660588E+01  0.96106185602E+02 -0.12707611307E+03  0.20252202323E+03  0.12500000000E+03 0.  0.
         25    1    1    2    0    0  0.91012388992E+02 -0.85241531040E+02 -0.76501941416E+02  0.19242380467E+03  0.12500000000E+03 0.  0.
</event>
<event>
 5    0  0.5670250E-005  0.2266530E+03  0.7546771E-02  0.1129018E+00
         21   -1    0    0  502  501  0.00000000000E+00  0.00000000000E+00  0.33941124756E+03  0.33941124756E+03  0.00000000000E+00 0.  1.
         21   -1    0    0  501  502 -0.00000000000E+00 -0.00000000000E+00 -0.15135491375E+03  0.15135491375E+03  0.00000000000E+00 0.  1.
         25    1    1    2    0    0  0.44388866266E+02 -0.50788164614E+02  0.52246347679E+02  0.15134229402E+03  0.12500000000E+03 0.  0.
         25    1    1    2    0    0 -0.36313318750E+02  0.91991812514E+02  0.14165736450E+02  0.16002130726E+03  0.12500000000E+03 0.  0.
         25    1    1    2    0    0 -0.80755475160E+01 -0.41203647900E+02  0.12164424968E+03  0.17940256004E+03  0.12500000000E+03 0.  0.
</event>
<event>
 5    0  0.5670250E-005  0.2990843E+03  0.7546771E-02  0.1085699E+00
         21   -1    0    0  502  501  0.00000000000E+00  0.00000000000E+00  0.40911763242E+02  0.40911763242E+02  0.00000000000E+00 0. -1.
         21   -1    0    0  501  502 -0.00000000000E+00 -0.00000000000E+00 -0.21864473262E+04  0.21864473262E+04  0.00000000000E+00 0. -1.
         25    1    1    2    0    0  0.92454659077E+02 -0.37978278040E+02 -0.22302120095E+03  0.27450622882E+03  0.12500000000E+03 0.  0.
         25    1    1    2    0    0 -0.13957013464E+03  0.35465306971E+02 -0.79988348258E+03  0.82229933490E+03  0.12500000000E+03 0.  0.
         25    1    1    2    0    0  0.47115475567E+02  0.25129710688E+01 -0.11226308794E+04  0.11305535257E+04  0.12500000000E+03 0.  0.
</event>
<event>
 5    0  0.5670250E-005  0.6018577E+03  0.7546771E-02  0.9901559E-01
         21   -1    0    0  502  501  0.00000000000E+00  0.00000000000E+00  0.65633933353E+03  0.65633933353E+03  0.00000000000E+00 0. -1.
         21   -1    0    0  501  502 -0.00000000000E+00 -0.00000000000E+00 -0.55189842662E+03  0.55189842662E+03  0.00000000000E+00 0. -1.
         25    1    1    2    0    0 -0.19341732228E+03  0.31242496829E+03 -0.22491525584E+02  0.38878077382E+03  0.12500000000E+03 0.  0.
         25    1    1    2    0    0 -0.13380512058E+03 -0.33454597310E+02  0.28855537353E+03  0.34338349403E+03  0.12500000000E+03 0.  0.
         25    1    1    2    0    0  0.32722244287E+03 -0.27897037098E+03 -0.16162294104E+03  0.47607349230E+03  0.12500000000E+03 0.  0.
</event>
<event>
 5    0  0.5670250E-005  0.2663868E+03  0.7546771E-02  0.1103365E+00
         21   -1    0    0  502  501  0.00000000000E+00  0.00000000000E+00  0.27389759127E+04  0.27389759127E+04  0.00000000000E+00 0.  1.
         21   -1    0    0  501  502 -0.00000000000E+00 -0.00000000000E+00 -0.25908203308E+02  0.25908203308E+02  0.00000000000E+00 0.  1.
         25    1    1    2    0    0 -0.11502956932E+03  0.36225842245E+02  0.64131033813E+03  0.66441558023E+03  0.12500000000E+03 0.  0.
         25    1    1    2    0    0  0.93704707345E+02  0.60119493798E+02  0.14059587017E+04  0.14158883419E+04  0.12500000000E+03 0.  0.
         25    1    1    2    0    0  0.21324861973E+02 -0.96345336043E+02  0.66579866949E+03  0.68458019385E+03  0.12500000000E+03 0.  0.
</event>
<event>
 5    0  0.6888809E-005  0.2870665E+03  0.7546771E-02  0.1091891E+00
         21   -1    0    0  502  501  0.00000000000E+00  0.00000000000E+00  0.63506275363E+03  0.63506275363E+03  0.00000000000E+00 0. -1.
         21   -1    0    0  501  502 -0.00000000000E+00 -0.00000000000E+00 -0.12976224869E+03  0.12976224869E+03  0.00000000000E+00 0. -1.
         25    1    1    2    0    0 -0.93255364253E+02 -0.13691832357E+03  0.31830167478E+03  0.37997913951E+03  0.12500000000E+03 0.  0.
         25    1    1    2    0    0  0.88029372297E+02  0.10143333787E+03  0.17615698157E+03  0.25435049552E+03  0.12500000000E+03 0.  0.
         25    1    1    2    0    0  0.52259919556E+01  0.35484985707E+02  0.10841848594E+02  0.13049536729E+03  0.12500000000E+03 0.  0.
</event>
<event>
 5    0  0.5670250E-005  0.3588748E+03  0.7546771E-02  0.1059030E+00
         21   -1    0    0  502  501  0.00000000000E+00  0.00000000000E+00  0.67372051312E+02  0.67372051312E+02  0.00000000000E+00 0.  1.
         21   -1    0    0  501  502 -0.00000000000E+00 -0.00000000000E+00 -0.19116407186E+04  0.19116407186E+04  0.00000000000E+00 0.  1.
         25    1    1    2    0    0 -0.10222209501E+03  0.37159115289E+02 -0.80375062475E+02  0.18416109042E+03  0.12500000000E+03 0.  0.
         25    1    1    2    0    0  0.65320574925E+02 -0.11298156563E+03 -0.10066479879E+04  0.10227398414E+04  0.12500000000E+03 0.  0.
         25    1    1    2    0    0  0.36901520082E+02  0.75822450339E+02 -0.75724561688E+03  0.77211183804E+03  0.12500000000E+03 0.  0.
</event>
<event>
 5    0  0.5670250E-005  0.4054903E+03  0.7546771E-02  0.1041895E+00
         21   -1    0    0  502  501  0.00000000000E+00  0.00000000000E+00  0.65464740142E+03  0.65464740142E+03  0.00000000000E+00 0.  1.
         21   -1    0    0  501  502 -0.00000000000E+00 -0.00000000000E+00 -0.25116168909E+03  0.25116168909E+03  0.00000000000E+00 0.  1.
         25    1    1    2    0    0 -0.98260887723E+02  0.12170161141E+03  0.24833452011E+03  0.31900081215E+03  0.12500000000E+03 0.  0.
         25    1    1    2    0    0 -0.30671755339E+02 -0.85060580360E+02  0.31039243349E+03  0.34661869782E+03  0.12500000000E+03 0.  0.
         25    1    1    2    0    0  0.12893264306E+03 -0.36641031051E+02 -0.15524124128E+03  0.24018958053E+03  0.12500000000E+03 0.  0.
</event>
<event>
 5    0  0.5670250E-005  0.3624728E+03  0.7546771E-02  0.1057609E+00
         21   -1    0    0  502  501  0.00000000000E+00  0.00000000000E+00  0.17851785173E+03  0.17851785173E+03  0.00000000000E+00 0.  1.
         21   -1    0    0  501  502 -0.00000000000E+00 -0.00000000000E+00 -0.73598536557E+03  0.73598536557E+03  0.00000000000E+00 0.  1.
         25    1    1    2    0    0  0.20913238897E+03 -0.23777016753E+02 -0.22070733983E+03  0.32960344733E+03  0.12500000000E+03 0.  0.
         25    1    1    2    0    0  0.88204295902E+02 -0.83093032556E+01 -0.12485887258E+03  0.19764559291E+03  0.12500000000E+03 0.  0.
         25    1    1    2    0    0 -0.29733668487E+03  0.32086320009E+02 -0.21190130143E+03  0.38725417706E+03  0.12500000000E+03 0.  0.
</event>
<event>
 5    0  0.5670250E-005  0.2917217E+03  0.7546771E-02  0.1089454E+00
         21   -1    0    0  502  501  0.00000000000E+00  0.00000000000E+00  0.19358173649E+03  0.19358173649E+03  0.00000000000E+00 0. -1.
         21   -1    0    0  501  502 -0.00000000000E+00 -0.00000000000E+00 -0.43961551645E+03  0.43961551645E+03  0.00000000000E+00 0. -1.
         25    1    1    2    0    0  0.54425761845E+02 -0.85560711909E+02 -0.56255119728E+02  0.17050641475E+03  0.12500000000E+03 0.  0.
         25    1    1    2    0    0 -0.18687257712E+03  0.45723896721E+02 -0.65341811978E+02  0.23855101593E+03  0.12500000000E+03 0.  0.
         25    1    1    2    0    0  0.13244681528E+03  0.39836815188E+02 -0.12443684826E+03  0.22413982226E+03  0.12500000000E+03 0.  0.
</event>
<event>
 5    0  0.6591943E-005  0.2863352E+03  0.7546771E-02  0.1092278E+00
         21   -1    0    0  502  501  0.00000000000E+00  0.00000000000E+00  0.49352862203E+03  0.49352862203E+03  0.00000000000E+00 0.  1.
         21   -1    0    0  501  502 -0.00000000000E+00 -0.00000000000E+00 -0.16612585182E+03  0.16612585182E+03  0.00000000000E+00 0.  1.
         25    1    1    2    0    0 -0.87544311492E+02  0.93279224339E+02  0.11193128036E+03  0.21099438782E+03  0.12500000000E+03 0.  0.
         25    1    1    2    0    0 -0.25423986500E+02 -0.12907127379E+02  0.22799146724E+03  0.26156850376E+03  0.12500000000E+03 0.  0.
         25    1    1    2    0    0  0.11296829799E+03 -0.80372096960E+02 -0.12519977381E+02  0.18709158227E+03  0.12500000000E+03 0.  0.
</event>
<event>
 5    0  0.5670250E-005  0.5060124E+03  0.7546771E-02  0.1012221E+00
         21   -1    0    0  502  501  0.00000000000E+00  0.00000000000E+00  0.31610472804E+03  0.31610472804E+03  0.00000000000E+00 0. -1.
         21   -1    0    0  501  502 -0.00000000000E+00 -0.00000000000E+00 -0.81001185997E+03  0.81001185997E+03  0.00000000000E+00 0. -1.
         25    1    1    2    0    0  0.33895600082E+03  0.12595748312E+03  0.60988209627E+02  0.38742872862E+03  0.12500000000E+03 0.  0.
         25    1    1    2    0    0 -0.31416434603E+03 -0.12362921087E+03 -0.40226266200E+03  0.53983670432E+03  0.12500000000E+03 0.  0.
         25    1    1    2    0    0 -0.24791654798E+02 -0.23282722458E+01 -0.15263267956E+03  0.19885115506E+03  0.12500000000E+03 0.  0.
</event>
<event>
 5    0  0.5670250E-005  0.2892910E+03  0.7546771E-02  0.1090720E+00
         21   -1    0    0  502  501  0.00000000000E+00  0.00000000000E+00  0.12447882746E+03  0.12447882746E+03  0.00000000000E+00 0.  1.
         21   -1    0    0  501  502 -0.00000000000E+00 -0.00000000000E+00 -0.67231726025E+03  0.67231726025E+03  0.00000000000E+00 0.  1.
         25    1    1    2    0    0 -0.14493761626E+03 -0.83205001949E+01 -0.73838845186E+02  0.20531273314E+03  0.12500000000E+03 0.  0.
         25    1    1    2    0    0  0.16830320286E+03  0.15958284814E+02 -0.37586441148E+03  0.43067353153E+03  0.12500000000E+03 0.  0.
         25    1    1    2    0    0 -0.23365586608E+02 -0.76377846188E+01 -0.98135176132E+02  0.16080982304E+03  0.12500000000E+03 0.  0.
</event>
<event>
 5    0  0.5670250E-005  0.3056648E+03  0.7546771E-02  0.1082443E+00
         21   -1    0    0  502  501  0.00000000000E+00  0.00000000000E+00  0.16401737229E+03  0.16401737229E+03  0.00000000000E+00 0.  1.
         21   -1    0    0  501  502 -0.00000000000E+00 -0.00000000000E+00 -0.56964058752E+03  0.56964058752E+03  0.00000000000E+00 0.  1.
         25    1    1    2    0    0 -0.50270002711E+02 -0.12572129480E+02 -0.11827501171E+03  0.17971953152E+03  0.12500000000E+03 0.  0.
         25    1    1    2    0    0 -0.28490542917E+02  0.46444310983E+02 -0.36065023177E+03  0.38556760073E+03  0.12500000000E+03 0.  0.
         25    1    1    2    0    0  0.78760545628E+02 -0.33872181503E+02  0.73302028248E+02  0.16837082756E+03  0.12500000000E+03 0.  0.
</event>
<event>
 5    0  0.5670250E-005  0.4473049E+03  0.7546771E-02  0.1028529E+00
         21   -1    0    0  502  501  0.00000000000E+00  0.00000000000E+00  0.95612369031E+02  0.95612369031E+02  0.00000000000E+00 0.  1.
         21   -1    0    0  501  502 -0.00000000000E+00 -0.00000000000E+00 -0.20926334385E+04  0.20926334385E+04  0.00000000000E+00 0.  1.
         25    1    1    2    0    0  0.13096969633E+03 -0.12841679457E+03 -0.51413171757E+03  0.56000031919E+03  0.12500000000E+03 0.  0.
         25    1    1    2    0    0  0.46496273585E+02 -0.21409943832E+03 -0.41117611428E+03  0.48238083492E+03  0.12500000000E+03 0.  0.
         25    1    1    2    0    0 -0.17746596991E+03  0.34251623289E+03 -0.10717132377E+04  0.11458646535E+04  0.12500000000E+03 0.  0.
</event>
<event>
 5    0  0.5670250E-005  0.4205248E+03  0.7546771E-02  0.1036896E+00
         21   -1    0    0  502  501  0.00000000000E+00  0.00000000000E+00  0.72153841150E+02  0.72153841150E+02  0.00000000000E+00 0.  1.
         21   -1    0    0  501  502 -0.00000000000E+00 -0.00000000000E+00 -0.24508897748E+04  0.24508897748E+04  0.00000000000E+00 0.  1.
         25    1    1    2    0    0 -0.93805811062E+02 -0.78002371732E+02 -0.84471227773E+03  0.86258201484E+03  0.12500000000E+03 0.  0.
         25    1    1    2    0    0  0.60438949541E+02  0.46066816353E+02 -0.28482665960E+02  0.14903449416E+03  0.12500000000E+03 0.  0.
         25    1    1    2    0    0  0.33366861521E+02  0.31935555379E+02 -0.15055409899E+04  0.15114271069E+04  0.12500000000E+03 0.  0.
</event>
<event>
 5    0  0.5670250E-005  0.3177074E+03  0.7546771E-02  0.1076709E+00
         21   -1    0    0  502  501  0.00000000000E+00  0.00000000000E+00  0.22687930800E+04  0.22687930800E+04  0.00000000000E+00 0. -1.
         21   -1    0    0  501  502 -0.00000000000E+00 -0.00000000000E+00 -0.44489719149E+02  0.44489719149E+02  0.00000000000E+00 0. -1.
         25    1    1    2    0    0  0.40022877711E+02  0.76153167240E+02  0.19886510791E+03  0.25014689038E+03  0.12500000000E+03 0.  0.
         25    1    1    2    0    0 -0.27680583981E+00 -0.18423196023E+03  0.11488800873E+04  0.11702529413E+04  0.12500000000E+03 0.  0.
         25    1    1    2    0    0 -0.39746071871E+02  0.10807879299E+03  0.87655816562E+03  0.89288296738E+03  0.12500000000E+03 0.  0.
</event>
<event>
 5    0  0.5670250E-005  0.3040288E+03  0.7546771E-02  0.1083244E+00
         21   -1    0    0  502  501  0.00000000000E+00  0.00000000000E+00  0.18035342518E+04  0.18035342518E+04  0.00000000000E+00 0. -1.
         21   -1    0    0  501  502 -0.00000000000E+00 -0.00000000000E+00 -0.51251326460E+02  0.51251326460E+02  0.00000000000E+00 0. -1.
         25    1    1    2    0    0 -0.16015525004E+02 -0.17351756188E+03  0.35743147730E+03  0.41682982414E+03  0.12500000000E+03 0.  0.
         25    1    1    2    0    0 -0.16075230991E+02 -0.18166162274E+01  0.64210361120E+03  0.65435751747E+03  0.12500000000E+03 0.  0.
         25    1    1    2    0    0  0.32090755995E+02  0.17533417811E+03  0.75274783686E+03  0.78359823669E+03  0.12500000000E+03 0.  0.
</event>
<event>
 5    0  0.5670250E-005  0.2623774E+03  0.7546771E-02  0.1105723E+00
         21   -1    0    0  502  501  0.00000000000E+00  0.00000000000E+00  0.16282498487E+03  0.16282498487E+03  0.00000000000E+00 0. -1.
         21   -1    0    0  501  502 -0.00000000000E+00 -0.00000000000E+00 -0.42279689916E+03  0.42279689916E+03  0.00000000000E+00 0. -1.
         25    1    1    2    0    0 -0.80478555854E+02  0.65249712038E+02 -0.74689504771E+02  0.17871162524E+03  0.12500000000E+03 0.  0.
         25    1    1    2    0    0 -0.48345611486E+02 -0.96764084305E+01 -0.17237369217E+03  0.21856033671E+03  0.12500000000E+03 0.  0.
         25    1    1    2    0    0  0.12882416734E+03 -0.55573303607E+02 -0.12908717342E+02  0.18834992208E+03  0.12500000000E+03 0.  0.
</event>
<event>
 5    0  0.5670250E-005  0.3769515E+03  0.7546771E-02  0.1052066E+00
         21   -1    0    0  502  501  0.00000000000E+00  0.00000000000E+00  0.47819707187E+03  0.47819707187E+03  0.00000000000E+00 0.  1.
         21   -1    0    0  501  502 -0.00000000000E+00 -0.00000000000E+00 -0.29714206938E+03  0.29714206938E+03  0.00000000000E+00 0.  1.
         25    1    1    2    0    0 -0.21427355014E+03 -0.52985112826E+02 -0.13182059421E+03  0.28587102954E+03  0.12500000000E+03 0.  0.
         25    1    1    2    0    0  0.16253695124E+03 -0.40979742956E+02  0.14624216228E+03  0.25516537751E+03  0.12500000000E+03 0.  0.
         25    1    1    2    0    0  0.51736598906E+02  0.93964855782E+02  0.16663343442E+03  0.23430273420E+03  0.12500000000E+03 0.  0.
</event>
<event>
 5    0  0.5670250E-005  0.2864676E+03  0.7546771E-02  0.1092208E+00
         21   -1    0    0  502  501  0.00000000000E+00  0.00000000000E+00  0.53377540028E+03  0.53377540028E+03  0.00000000000E+00 0.  1.
         21   -1    0    0  501  502 -0.00000000000E+00 -0.00000000000E+00 -0.15374201006E+03  0.15374201006E+03  0.00000000000E+00 0.  1.
         25    1    1    2    0    0 -0.42475260361E+02  0.15929601425E+03  0.12387878782E+02  0.20726270151E+03  0.12500000000E+03 0.  0.
         25    1    1    2    0    0  0.38414581351E+02 -0.10401741491E+03  0.24510601595E+03  0.29664332407E+03  0.12500000000E+03 0.  0.
         25    1    1    2    0    0  0.40606790102E+01 -0.55278599336E+02  0.12253949549E+03  0.18361138476E+03  0.12500000000E+03 0.  0.
</event>
<event>
 5    0  0.5670250E-005  0.3040634E+03  0.7546771E-02  0.1083227E+00
         21   -1    0    0  502  501  0.00000000000E+00  0.00000000000E+00  0.18240733122E+04  0.18240733122E+04  0.00000000000E+00 0.  1.
         21   -1    0    0  501  502 -0.00000000000E+00 -0.00000000000E+00 -0.50685774992E+02  0.50685774992E+02  0.00000000000E+00 0.  1.
         25    1    1    2    0    0 -0.11597778491E+03 -0.29038644040E+02  0.75158643845E+03  0.77123359879E+03  0.12500000000E+03 0.  0.
         25    1    1    2    0    0  0.61476518299E+02 -0.14139525480E+03  0.48867241587E+03  0.52744450932E+03  0.12500000000E+03 0.  0.
         25    1    1    2    0    0  0.54501266613E+02  0.17043389884E+03  0.53312868284E+03  0.57608097904E+03  0.12500000000E+03 0.  0.
</event>
<event>
 5    0  0.5670250E-005  0.5202733E+03  0.7546771E-02  0.1008619E+00
         21   -1    0    0  502  501  0.00000000000E+00  0.00000000000E+00  0.37882513333E+03  0.37882513333E+03  0.00000000000E+00 0. -1.
         21   -1    0    0  501  502 -0.00000000000E+00 -0.00000000000E+00 -0.71453642690E+03  0.71453642690E+03  0.00000000000E+00 0. -1.
         25    1    1    2    0    0  0.77520581654E+02 -0.27959759460E+03  0.10825442929E+02  0.31611144506E+03  0.12500000000E+03 0.  0.
         25    1    1    2    0    0  0.90180069099E+02 -0.94225680278E+02  0.56304555086E+02  0.18922506866E+03  0.12500000000E+03 0.  0.
         25    1    1    2    0    0 -0.16770065075E+03  0.37382327488E+03 -0.40284129159E+03  0.58802504650E+03  0.12500000000E+03 0.  0.
</event>
<event>
 5    0  0.5670250E-005  0.2784604E+03  0.7546771E-02  0.1096533E+00
         21   -1    0    0  502  501  0.00000000000E+00  0.00000000000E+00  0.14057766996E+03  0.14057766996E+03  0.00000000000E+00 0.  1.
         21   -1    0    0  501  502 -0.00000000000E+00 -0.00000000000E+00 -0.55158246764E+03  0.55158246764E+03  0.00000000000E+00 0.  1.
         25    1    1    2    0    0 -0.28024595983E+02 -0.41931606655E+02 -0.74215977010E+02  0.15387218352E+03  0.12500000000E+03 0.  0.
         25    1    1    2    0    0 -0.99558370970E+01 -0.14273395662E+03 -0.18959237318E+03  0.26840709572E+03  0.12500000000E+03 0.  0.
         25    1    1    2    0    0  0.37980433080E+02  0.18466556328E+03 -0.14719644749E+03  0.26988085836E+03  0.12500000000E+03 0.  0.
</event>
<event>
 5    0  0.5670250E-005  0.2417678E+03  0.7546771E-02  0.1118621E+00
         21   -1    0    0  502  501  0.00000000000E+00  0.00000000000E+00  0.11956723984E+03  0.11956723984E+03  0.00000000000E+00 0. -1.
         21   -1    0    0  501  502 -0.00000000000E+00 -0.00000000000E+00 -0.48886028292E+03  0.48886028292E+03  0.00000000000E+00 0. -1.
         25    1    1    2    0    0  0.66027416625E+02 -0.20575596244E+02 -0.58460113350E+02  0.15435530363E+03  0.12500000000E+03 0.  0.
         25    1    1    2    0    0 -0.95785294942E+02  0.58592072218E+02 -0.77585804434E+02  0.18507406816E+03  0.12500000000E+03 0.  0.
         25    1    1    2    0    0  0.29757878317E+02 -0.38016475974E+02 -0.23324712529E+03  0.26899815097E+03  0.12500000000E+03 0.  0.
</event>
<event>
 5    0  0.5670250E-005  0.3979835E+03  0.7546771E-02  0.1044480E+00
         21   -1    0    0  502  501  0.00000000000E+00  0.00000000000E+00  0.12604927737E+04  0.12604927737E+04  0.00000000000E+00 0.  1.
         21   -1    0    0  501  502 -0.00000000000E+00 -0.00000000000E+00 -0.12565788586E+03  0.12565788586E+03  0.00000000000E+00 0.  1.
         25    1    1    2    0    0  0.16799186019E+03 -0.83647050480E+02  0.49077823490E+02  0.23076335693E+03  0.12500000000E+03 0.  0.
         25    1    1    2    0    0 -0.69372847098E+02 -0.36606120798E+01  0.82699417952E+03  0.83926775522E+03  0.12500000000E+03 0.  0.
         25    1    1    2    0    0 -0.98619013093E+02  0.87307662559E+02  0.25876288484E+03  0.31611954741E+03  0.12500000000E+03 0.  0.
</event>
<event>
 5    0  0.5670250E-005  0.2530333E+03  0.7546771E-02  0.1111403E+00
         21   -1    0    0  502  501  0.00000000000E+00  0.00000000000E+00  0.54274936858E+02  0.54274936858E+02  0.00000000000E+00 0. -1.
         21   -1    0    0  501  502 -0.00000000000E+00 -0.00000000000E+00 -0.11796579525E+04  0.11796579525E+04  0.00000000000E+00 0. -1.
         25    1    1    2    0    0  0.73691677298E+02  0.36890116413E+02 -0.21098370491E+03  0.25870923395E+03  0.12500000000E+03 0.  0.
         25    1    1    2    0    0 -0.60897946377E+02  0.56246769548E+02 -0.65804565522E+03  0.67492321290E+03  0.12500000000E+03 0.  0.
         25    1    1    2    0    0 -0.12793730921E+02 -0.93136885962E+02 -0.25635365550E+03  0.30030044250E+03  0.12500000000E+03 0.  0.
</event>
<event>
 5    0  0.5670250E-005  0.4309619E+03  0.7546771E-02  0.1033557E+00
         21   -1    0    0  502  501  0.00000000000E+00  0.00000000000E+00  0.13284116719E+04  0.13284116719E+04  0.00000000000E+00 0.  1.
         21   -1    0    0  501  502 -0.00000000000E+00 -0.00000000000E+00 -0.13981217305E+03  0.13981217305E+03  0.00000000000E+00 0.  1.
         25    1    1    2    0    0 -0.61091019404E+02  0.32032127234E+03  0.68806565524E+03  0.77161983909E+03  0.12500000000E+03 0.  0.
         25    1    1    2    0    0  0.49058939570E+02 -0.51700169882E+02  0.40847158395E+02  0.14957666083E+03  0.12500000000E+03 0.  0.
         25    1    1    2    0    0  0.12032079834E+02 -0.26862110246E+03  0.45968668518E+03  0.54702734499E+03  0.12500000000E+03 0.  0.
</event>
<event>
 5    0  0.5670250E-005  0.3254740E+03  0.7546771E-02  0.1073157E+00
         21   -1    0    0  502  501  0.00000000000E+00  0.00000000000E+00  0.38370024206E+03  0.38370024206E+03  0.00000000000E+00 0.  1.
         21   -1    0    0  501  502 -0.00000000000E+00 -0.00000000000E+00 -0.27608357975E+03  0.27608357975E+03  0.00000000000E+00 0.  1.
         25    1    1    2    0    0 -0.39751434690E+02  0.26839183903E+02  0.57092466204E+01  0.13400788727E+03  0.12500000000E+03 0.  0.
         25    1    1    2    0    0  0.28183670196E+02  0.13234692805E+03 -0.12413858171E+03  0.22213828148E+03  0.12500000000E+03 0.  0.
         25    1    1    2    0    0  0.11567764494E+02 -0.15918611195E+03  0.22604599741E+03  0.30363765307E+03  0.12500000000E+03 0.  0.
</event>
<event>
 5    0  0.5670250E-005  0.4271316E+03  0.7546771E-02  0.1034770E+00
         21   -1    0    0  502  501  0.00000000000E+00  0.00000000000E+00  0.81791357473E+03  0.81791357473E+03  0.00000000000E+00 0.  1.
         21   -1    0    0  501  502 -0.00000000000E+00 -0.00000000000E+00 -0.22305702195E+03  0.22305702195E+03  0.00000000000E+00 0.  1.
         25    1    1    2    0    0 -0.16232880530E+03  0.14909040535E+03  0.89111651759E+01  0.25354092148E+03  0.12500000000E+03 0.  0.
         25    1    1    2    0    0 -0.11032347020E+03  0.33437558053E+02  0.14282714165E+03  0.22206740139E+03  0.12500000000E+03 0.  0.
         25    1    1    2    0    0  0.27265227550E+03 -0.18252796341E+03  0.44311824595E+03  0.56536227382E+03  0.12500000000E+03 0.  0.
</event>
<event>
 5    0  0.5686484E-005  0.2757855E+03  0.7546771E-02  0.1098013E+00
         21   -1    0    0  502  501  0.00000000000E+00  0.00000000000E+00  0.50723965726E+03  0.50723965726E+03  0.00000000000E+00 0. -1.
         21   -1    0    0  501  502 -0.00000000000E+00 -0.00000000000E+00 -0.14994419874E+03  0.14994419874E+03  0.00000000000E+00 0. -1.
         25    1    1    2    0    0 -0.14791831857E+03 -0.44405771909E+01  0.69735097859E+02  0.20588232457E+03  0.12500000000E+03 0.  0.
         25    1    1    2    0    0  0.10381162283E+03  0.91540211164E+02  0.12715406929E+03  0.22572022645E+03  0.12500000000E+03 0.  0.
         25    1    1    2    0    0  0.44106695748E+02 -0.87099633973E+02  0.16040629137E+03  0.22558130499E+03  0.12500000000E+03 0.  0.
</event>
<event>
 5    0  0.5670250E-005  0.2000556E+03  0.7546771E-02  0.1149692E+00
         21   -1    0    0  502  501  0.00000000000E+00  0.00000000000E+00  0.76428264874E+03  0.76428264874E+03  0.00000000000E+00 0. -1.
         21   -1    0    0  501  502 -0.00000000000E+00 -0.00000000000E+00 -0.52365747995E+02  0.52365747995E+02  0.00000000000E+00 0. -1.
         25    1    1    2    0    0  0.14156048555E+02  0.21802165981E+02  0.35540204421E+03  0.37763916796E+03  0.12500000000E+03 0.  0.
         25    1    1    2    0    0 -0.14821406690E+02  0.12277237233E+02  0.18334277958E+03  0.22273297796E+03  0.12500000000E+03 0.  0.
         25    1    1    2    0    0  0.66535813590E+00 -0.34079403215E+02  0.17317207696E+03  0.21627625081E+03  0.12500000000E+03 0.  0.
</event>
<event>
 5    0  0.5670250E-005  0.2736324E+03  0.7546771E-02  0.1099219E+00
         21   -1    0    0  502  501  0.00000000000E+00  0.00000000000E+00  0.53825925253E+02  0.53825925253E+02  0.00000000000E+00 0. -1.
         21   -1    0    0  501  502 -0.00000000000E+00 -0.00000000000E+00 -0.13910521504E+04  0.13910521504E+04  0.00000000000E+00 0. -1.
         25    1    1    2    0    0  0.53573151715E+01 -0.74339858679E+02 -0.18235404947E+03  0.23330905420E+03  0.12500000000E+03 0.  0.
         25    1    1    2    0    0 -0.99470701033E+02 -0.44085098162E+02 -0.62256998396E+03  0.64424863304E+03  0.12500000000E+03 0.  0.
         25    1    1    2    0    0  0.94113385861E+02  0.11842495684E+03 -0.53230219169E+03  0.56732038838E+03  0.12500000000E+03 0.  0.
</event>
<event>
 5    0  0.5670250E-005  0.2372891E+03  0.7546771E-02  0.1121612E+00
         21   -1    0    0  502  501  0.00000000000E+00  0.00000000000E+00  0.23230409071E+03  0.23230409071E+03  0.00000000000E+00 0.  1.
         21   -1    0    0  501  502 -0.00000000000E+00 -0.00000000000E+00 -0.24238115256E+03  0.24238115256E+03  0.00000000000E+00 0.  1.
         25    1    1    2    0    0 -0.63111828040E+02  0.16990859723E+02 -0.35690418002E+02  0.14550119618E+03  0.12500000000E+03 0.  0.
         25    1    1    2    0    0  0.37617496303E+02  0.92560979200E+02  0.11502083681E+02  0.16043661935E+03  0.12500000000E+03 0.  0.
         25    1    1    2    0    0  0.25494331736E+02 -0.10955183892E+03  0.14111272471E+02  0.16874742775E+03  0.12500000000E+03 0.  0.
</event>
<event>
 5    0  0.5670250E-005  0.2728042E+03  0.7546771E-02  0.1099685E+00
         21   -1    0    0  502  501  0.00000000000E+00  0.00000000000E+00  0.26480231972E+03  0.26480231972E+03  0.00000000000E+00 0.  1.
         21   -1    0    0  501  502 -0.00000000000E+00 -0.00000000000E+00 -0.28104778640E+03  0.28104778640E+03  0.00000000000E+00 0.  1.
         25    1    1    2    0    0 -0.84690563693E+02 -0.23780298442E+02  0.34801663336E+00  0.15284997641E+03  0.12500000000E+03 0.  0.
         25    1    1    2    0    0  0.24249772573E+02  0.88009011228E+02  0.11369573991E+03  0.19205561382E+03  0.12500000000E+03 0.  0.
         25    1    1    2    0    0  0.60440791120E+02 -0.64228712786E+02 -0.13028922322E+03  0.20094451589E+03  0.12500000000E+03 0.  0.
</event>
<event>
 5    0  0.5670250E-005  0.5237440E+03  0.7546771E-02  0.1007761E+00
         21   -1    0    0  502  501  0.00000000000E+00  0.00000000000E+00  0.26081948631E+03  0.26081948631E+03  0.00000000000E+00 0. -1.
         21   -1    0    0  501  502 -0.00000000000E+00 -0.00000000000E+00 -0.10517150861E+04  0.10517150861E+04  0.00000000000E+00 0. -1.
         25    1    1    2    0    0  0.27239345193E+02  0.40063604902E+02 -0.12257599679E+03  0.18165062443E+03  0.12500000000E+03 0.  0.
         25    1    1    2    0    0  0.28651388510E+03  0.16671479374E+02 -0.71946546654E+03  0.78461691425E+03  0.12500000000E+03 0.  0.
         25    1    1    2    0    0 -0.31375323030E+03 -0.56735084276E+02  0.51145863532E+02  0.34626703376E+03  0.12500000000E+03 0.  0.
</event>
<event>
 5    0  0.5670250E-005  0.2887122E+03  0.7546771E-02  0.1091023E+00
         21   -1    0    0  502  501  0.00000000000E+00  0.00000000000E+00  0.61514921204E+02  0.61514921204E+02  0.00000000000E+00 0.  1.
         21   -1    0    0  501  502 -0.00000000000E+00 -0.00000000000E+00 -0.13550329233E+04  0.13550329233E+04  0.00000000000E+00 0.  1.
         25    1    1    2    0    0  0.19437635972E+01  0.38603792565E+02 -0.35299201655E+03  0.37646034952E+03  0.12500000000E+03 0.  0.
         25    1    1    2    0    0  0.17275950850E+03 -0.47808688051E+02 -0.36139186935E+03  0.42232759993E+03  0.12500000000E+03 0.  0.
         25    1    1    2    0    0 -0.17470327210E+03  0.92048954863E+01 -0.57913411618E+03  0.61775989503E+03  0.12500000000E+03 0.  0.
</event>
<event>
 5    0  0.6283295E-005  0.2716359E+03  0.7546771E-02  0.1100347E+00
         21   -1    0    0  502  501  0.00000000000E+00  0.00000000000E+00  0.18847140026E+03  0.18847140026E+03  0.00000000000E+00 0.  1.
         21   -1    0    0  501  502 -0.00000000000E+00 -0.00000000000E+00 -0.39149753871E+03  0.39149753871E+03  0.00000000000E+00 0.  1.
         25    1    1    2    0    0 -0.56312893808E+02  0.11830143067E+03 -0.15661496275E+03  0.23941515630E+03  0.12500000000E+03 0.  0.
         25    1    1    2    0    0  0.10639265835E+03 -0.60745047223E+02 -0.76560458548E+02  0.19103890265E+03  0.12500000000E+03 0.  0.
         25    1    1    2    0    0 -0.50079764542E+02 -0.57556383443E+02  0.30149282846E+02  0.14951488002E+03  0.12500000000E+03 0.  0.
</event>
<event>
 5    0  0.5670250E-005  0.2312617E+03  0.7546771E-02  0.1125755E+00
         21   -1    0    0  502  501  0.00000000000E+00  0.00000000000E+00  0.24257465554E+03  0.24257465554E+03  0.00000000000E+00 0.  1.
         21   -1    0    0  501  502 -0.00000000000E+00 -0.00000000000E+00 -0.22047633331E+03  0.22047633331E+03  0.00000000000E+00 0.  1.
         25    1    1    2    0    0  0.34733429317E+02 -0.90101332792E+02  0.32207374928E+02  0.16120476507E+03  0.12500000000E+03 0.  0.
         25    1    1    2    0    0 -0.17890257917E+02 -0.20488073261E+02 -0.34103481708E+02  0.13239286211E+03  0.12500000000E+03 0.  0.
         25    1    1    2    0    0 -0.16843171401E+02  0.11058940605E+03  0.23994429006E+02  0.16945336166E+03  0.12500000000E+03 0.  0.
</event>
<event>
 5    0  0.5670250E-005  0.4747518E+03  0.7546771E-02  0.1020588E+00
         21   -1    0    0  502  501  0.00000000000E+00  0.00000000000E+00  0.18578353718E+04  0.18578353718E+04  0.00000000000E+00 0. -1.
         21   -1    0    0  501  502 -0.00000000000E+00 -0.00000000000E+00 -0.12131823889E+03  0.12131823889E+03  0.00000000000E+00 0. -1.
         25    1    1    2    0    0  0.23983371936E+03 -0.17411414317E+03  0.40736236931E+03  0.51904243345E+03  0.12500000000E+03 0.  0.
         25    1    1    2    0    0 -0.11015638440E+03 -0.15548589316E+03  0.54061709164E+03  0.58668742254E+03  0.12500000000E+03 0.  0.
         25    1    1    2    0    0 -0.12967733496E+03  0.32960003634E+03  0.78853767198E+03  0.87342375470E+03  0.12500000000E+03 0.  0.
</event>
<event>
 5    0  0.5670250E-005  0.2991942E+03  0.7546771E-02  0.1085644E+00
         21   -1    0    0  502  501  0.00000000000E+00  0.00000000000E+00  0.37520199339E+03  0.37520199339E+03  0.00000000000E+00 0.  1.
         21   -1    0    0  501  502 -0.00000000000E+00 -0.00000000000E+00 -0.23858399772E+03  0.23858399772E+03  0.00000000000E+00 0.  1.
         25    1    1    2    0    0  0.48749285896E+02  0.49272769529E+02 -0.54375712146E+02  0.15292487294E+03  0.12500000000E+03 0.  0.
         25    1    1    2    0    0  0.67574839687E+02  0.11463418088E+03  0.89505357422E+02  0.20333116680E+03  0.12500000000E+03 0.  0.
         25    1    1    2    0    0 -0.11632412558E+03 -0.16390695041E+03  0.10148835040E+03  0.25752995137E+03  0.12500000000E+03 0.  0.
</event>
<event>
 5    0  0.5670250E-005  0.3167471E+03  0.7546771E-02  0.1077156E+00
         21   -1    0    0  502  501  0.00000000000E+00  0.00000000000E+00  0.44410710935E+02  0.44410710935E+02  0.00000000000E+00 0.  1.
         21   -1    0    0  501  502 -0.00000000000E+00 -0.00000000000E+00 -0.22591103550E+04  0.22591103550E+04  0.00000000000E+00 0.  1.
         25    1    1    2    0    0  0.19395588959E+02 -0.43627008719E+02 -0.26958148259E+03  0.30096292216E+03  0.12500000000E+03 0.  0.
         25    1    1    2    0    0  0.54673040284E+02  0.15294938778E+03 -0.42757490761E+03  0.47416026634E+03  0.12500000000E+03 0.  0.
         25    1    1    2    0    0 -0.74068629244E+02 -0.10932237906E+03 -0.15175432539E+04  0.15283978774E+04  0.12500000000E+03 0.  0.
</event>
<event>
 5    0  0.5670250E-005  0.5367419E+03  0.7546771E-02  0.1004610E+00
         21   -1    0    0  502  501  0.00000000000E+00  0.00000000000E+00  0.73827632582E+03  0.73827632582E+03  0.00000000000E+00 0. -1.
         21   -1    0    0  501  502 -0.00000000000E+00 -0.00000000000E+00 -0.39022224646E+03  0.39022224646E+03  0.00000000000E+00 0. -1.
         25    1    1    2    0    0 -0.21779332194E+03 -0.15876142050E+03 -0.22479014990E+03  0.37255164905E+03  0.12500000000E+03 0.  0.
         25    1    1    2    0    0  0.10505260521E+03  0.25167581510E+03  0.32555765433E+03  0.44270707252E+03  0.12500000000E+03 0.  0.
         25    1    1    2    0    0  0.11274071672E+03 -0.92914394595E+02  0.24728657493E+03  0.31323985070E+03  0.12500000000E+03 0.  0.
</event>
<event>
 5    0  0.5670250E-005  0.2676779E+03  0.7546771E-02  0.1102616E+00
         21   -1    0    0  502  501  0.00000000000E+00  0.00000000000E+00  0.32487811044E+03  0.32487811044E+03  0.00000000000E+00 0. -1.
         21   -1    0    0  501  502 -0.00000000000E+00 -0.00000000000E+00 -0.22054878001E+03  0.22054878001E+03  0.00000000000E+00 0. -1.
         25    1    1    2    0    0 -0.23162324644E+02 -0.34190490922E+02 -0.21924649276E+02  0.13345850740E+03  0.12500000000E+03 0.  0.
         25    1    1    2    0    0  0.98203524822E+02 -0.83836319535E+02  0.13408603197E+03  0.22422427328E+03  0.12500000000E+03 0.  0.
         25    1    1    2    0    0 -0.75041200177E+02  0.11802681046E+03 -0.78320522595E+01  0.18774410977E+03  0.12500000000E+03 0.  0.
</event>
<event>
 5    0  0.5670250E-005  0.2510425E+03  0.7546771E-02  0.1112648E+00
         21   -1    0    0  502  501  0.00000000000E+00  0.00000000000E+00  0.20711328637E+04  0.20711328637E+04  0.00000000000E+00 0.  1.
         21   -1    0    0  501  502 -0.00000000000E+00 -0.00000000000E+00 -0.30428913324E+02  0.30428913324E+02  0.00000000000E+00 0.  1.
         25    1    1    2    0    0  0.11032608046E+02  0.89998523349E+02  0.44685528287E+03  0.47278546559E+03  0.12500000000E+03 0.  0.
         25    1    1    2    0    0  0.57212121208E+02 -0.11440307460E+03  0.10916869268E+04  0.11062398639E+04  0.12500000000E+03 0.  0.
         25    1    1    2    0    0 -0.68244729254E+02  0.24404551248E+02  0.50216174067E+03  0.52253644752E+03  0.12500000000E+03 0.  0.
</event>
<event>
 5    0  0.5670250E-005  0.3756197E+03  0.7546771E-02  0.1052565E+00
         21   -1    0    0  502  501  0.00000000000E+00  0.00000000000E+00  0.44395819010E+03  0.44395819010E+03  0.00000000000E+00 0.  1.
         21   -1    0    0  501  502 -0.00000000000E+00 -0.00000000000E+00 -0.31780056994E+03  0.31780056994E+03  0.00000000000E+00 0.  1.
         25    1    1    2    0    0  0.89263615984E+02  0.13347765336E+03 -0.64988623691E+02  0.21361834728E+03  0.12500000000E+03 0.  0.
         25    1    1    2    0    0  0.34702767443E+02  0.50792186674E+02 -0.92186872732E+02  0.16705552310E+03  0.12500000000E+03 0.  0.
         25    1    1    2    0    0 -0.12396638343E+03 -0.18426984003E+03  0.28333311659E+03  0.38108488965E+03  0.12500000000E+03 0.  0.
</event>
<event>
 5    0  0.5670250E-005  0.5378833E+03  0.7546771E-02  0.1004338E+00
         21   -1    0    0  502  501  0.00000000000E+00  0.00000000000E+00  0.43510004370E+03  0.43510004370E+03  0.00000000000E+00 0.  1.
         21   -1    0    0  501  502 -0.00000000000E+00 -0.00000000000E+00 -0.66494698670E+03  0.66494698670E+03  0.00000000000E+00 0.  1.
         25    1    1    2    0    0 -0.19709800996E+03 -0.13348188398E+03 -0.12241519718E+03  0.29542430398E+03  0.12500000000E+03 0.  0.
         25    1    1    2    0    0  0.12936108206E+03  0.41722442299E+03  0.37158264947E+02  0.45586867116E+03  0.12500000000E+03 0.  0.
         25    1    1    2    0    0  0.67736927901E+02 -0.28374253901E+03 -0.14459001078E+03  0.34875405526E+03  0.12500000000E+03 0.  0.
</event>
<event>
 5    0  0.5670250E-005  0.3044865E+03  0.7546771E-02  0.1083019E+00
         21   -1    0    0  502  501  0.00000000000E+00  0.00000000000E+00  0.71537544285E+02  0.71537544285E+02  0.00000000000E+00 0.  1.
         21   -1    0    0  501  502 -0.00000000000E+00 -0.00000000000E+00 -0.12959911689E+04  0.12959911689E+04  0.00000000000E+00 0.  1.
         25    1    1    2    0    0 -0.15736724503E+03 -0.12981656267E+01 -0.22206139531E+03  0.29950358650E+03  0.12500000000E+03 0.  0.
         25    1    1    2    0    0 -0.17588711507E+00 -0.40585419004E+02 -0.62175706647E+03  0.63549512734E+03  0.12500000000E+03 0.  0.
         25    1    1    2    0    0  0.15754313214E+03  0.41883584631E+02 -0.38063516287E+03  0.43252999937E+03  0.12500000000E+03 0.  0.
</event>
<event>
 5    0  0.5670250E-005  0.2827932E+03  0.7546771E-02  0.1094173E+00
         21   -1    0    0  502  501  0.00000000000E+00  0.00000000000E+00  0.94116565284E+02  0.94116565284E+02  0.00000000000E+00 0. -1.
         21   -1    0    0  501  502 -0.00000000000E+00 -0.00000000000E+00 -0.84971239144E+03  0.84971239144E+03  0.00000000000E+00 0. -1.
         25    1    1    2    0    0  0.27910348402E+02  0.38937577758E+02 -0.16656740660E+03  0.21369329295E+03  0.12500000000E+03 0.  0.
         25    1    1    2    0    0 -0.13395298696E+03  0.10621308312E+03 -0.31066371026E+03  0.37598080086E+03  0.12500000000E+03 0.  0.
         25    1    1    2    0    0  0.10604263856E+03 -0.14515066088E+03 -0.27836470929E+03  0.35415486291E+03  0.12500000000E+03 0.  0.
</event>
<event>
 5    0  0.5670250E-005  0.2727648E+03  0.7546771E-02  0.1099708E+00
         21   -1    0    0  502  501  0.00000000000E+00  0.00000000000E+00  0.13785423673E+04  0.13785423673E+04  0.00000000000E+00 0. -1.
         21   -1    0    0  501  502 -0.00000000000E+00 -0.00000000000E+00 -0.53970509094E+02  0.53970509094E+02  0.00000000000E+00 0. -1.
         25    1    1    2    0    0 -0.69220903088E+02 -0.82293437765E+01  0.68219248716E+03  0.69704436377E+03  0.12500000000E+03 0.  0.
         25    1    1    2    0    0 -0.45953791448E+02 -0.92097174355E+01  0.48546186110E+03  0.50348265951E+03  0.12500000000E+03 0.  0.
         25    1    1    2    0    0  0.11517469454E+03  0.17439061212E+02  0.15691750994E+03  0.23198585311E+03  0.12500000000E+03 0.  0.
</event>
<event>
 5    0  0.5670250E-005  0.3309625E+03  0.7546771E-02  0.1070712E+00
         21   -1    0    0  502  501  0.00000000000E+00  0.00000000000E+00  0.27484948429E+03  0.27484948429E+03  0.00000000000E+00 0. -1.
         21   -1    0    0  501  502 -0.00000000000E+00 -0.00000000000E+00 -0.39853150391E+03  0.39853150391E+03  0.00000000000E+00 0. -1.
         25    1    1    2    0    0 -0.24508445912E+02 -0.16646206941E+02  0.18003405284E+03  0.22116740336E+03  0.12500000000E+03 0.  0.
         25    1    1    2    0    0  0.57661285047E+01 -0.85993485174E+02 -0.22480809545E+03  0.27127809995E+03  0.12500000000E+03 0.  0.
         25    1    1    2    0    0  0.18742317407E+02  0.10263969212E+03 -0.78907977014E+02  0.18093548490E+03  0.12500000000E+03 0.  0.
</event>
<event>
 5    0  0.5670250E-005  0.2770449E+03  0.7546771E-02  0.1097314E+00
         21   -1    0    0  502  501  0.00000000000E+00  0.00000000000E+00  0.21599927181E+04  0.21599927181E+04  0.00000000000E+00 0. -1.
         21   -1    0    0  501  502 -0.00000000000E+00 -0.00000000000E+00 -0.35534312615E+02  0.35534312615E+02  0.00000000000E+00 0. -1.
         25    1    1    2    0    0  0.37434983826E+02 -0.75517758502E+02  0.52445703227E+03  0.54569633365E+03  0.12500000000E+03 0.  0.
         25    1    1    2    0    0  0.12144853549E+03 -0.53706563039E+01  0.90038142099E+03  0.91710975024E+03  0.12500000000E+03 0.  0.
         25    1    1    2    0    0 -0.15888351932E+03  0.80888414806E+02  0.69961995219E+03  0.73272094679E+03  0.12500000000E+03 0.  0.
</event>
<event>
 5    0  0.5670250E-005  0.2448619E+03  0.7546771E-02  0.1116596E+00
         21   -1    0    0  502  501  0.00000000000E+00  0.00000000000E+00  0.12995561335E+04  0.12995561335E+04  0.00000000000E+00 0.  1.
         21   -1    0    0  501  502 -0.00000000000E+00 -0.00000000000E+00 -0.46136778924E+02  0.46136778924E+02  0.00000000000E+00 0.  1.
         25    1    1    2    0    0  0.44995045089E+01 -0.86976610236E+02  0.60339132305E+03  0.62232729732E+03  0.12500000000E+03 0.  0.
         25    1    1    2    0    0  0.82118205842E+02  0.20497202042E+02  0.32855204706E+03  0.36157292854E+03  0.12500000000E+03 0.  0.
         25    1    1    2    0    0 -0.86617710351E+02  0.66479408194E+02  0.32147598447E+03  0.36179268657E+03  0.12500000000E+03 0.  0.
</event>
<event>
 5    0  0.5670250E-005  0.3386645E+03  0.7546771E-02  0.1067366E+00
         21   -1    0    0  502  501  0.00000000000E+00  0.00000000000E+00  0.51057613680E+03  0.51057613680E+03  0.00000000000E+00 0. -1.
         21   -1    0    0  501  502 -0.00000000000E+00 -0.00000000000E+00 -0.22463567958E+03  0.22463567958E+03  0.00000000000E+00 0. -1.
         25    1    1    2    0    0 -0.71634201935E+01  0.96820851763E+02  0.27333761350E+03  0.31585446471E+03  0.12500000000E+03 0.  0.
         25    1    1    2    0    0  0.38429609995E+02  0.69833120911E+02  0.11260685588E+03  0.18616875058E+03  0.12500000000E+03 0.  0.
         25    1    1    2    0    0 -0.31266189801E+02 -0.16665397267E+03 -0.10000401216E+03  0.23318860110E+03  0.12500000000E+03 0.  0.
</event>
<event>
 5    0  0.5670250E-005  0.4303686E+03  0.7546771E-02  0.1033744E+00
         21   -1    0    0  502  501  0.00000000000E+00  0.00000000000E+00  0.35072893685E+03  0.35072893685E+03  0.00000000000E+00 0.  1.
         21   -1    0    0  501  502 -0.00000000000E+00 -0.00000000000E+00 -0.52809198230E+03  0.52809198230E+03  0.00000000000E+00 0.  1.
         25    1    1    2    0    0  0.41828089939E+02  0.82564166776E+02 -0.19775719825E+02  0.15678810490E+03  0.12500000000E+03 0.  0.
         25    1    1    2    0    0 -0.26516679619E+03 -0.14075158402E+03 -0.28304508120E+03  0.43111942220E+03  0.12500000000E+03 0.  0.
         25    1    1    2    0    0  0.22333870625E+03  0.58187417249E+02  0.12545775558E+03  0.29091339204E+03  0.12500000000E+03 0.  0.
</event>
<event>
 5    0  0.5670250E-005  0.5339932E+03  0.7546771E-02  0.1005268E+00
         21   -1    0    0  502  501  0.00000000000E+00  0.00000000000E+00  0.13951443804E+03  0.13951443804E+03  0.00000000000E+00 0.  1.
         21   -1    0    0  501  502 -0.00000000000E+00 -0.00000000000E+00 -0.20438652698E+04  0.20438652698E+04  0.00000000000E+00 0.  1.
         25    1    1    2    0    0  0.33283037515E+03 -0.63049620689E+02 -0.14642305078E+04  0.15080939272E+04  0.12500000000E+03 0.  0.
         25    1    1    2    0    0 -0.12309556927E+03 -0.88361874252E+01 -0.10549765334E+02  0.17597413142E+03  0.12500000000E+03 0.  0.
         25    1    1    2    0    0 -0.20973480589E+03  0.71885808115E+02 -0.42957055864E+03  0.49931164923E+03  0.12500000000E+03 0.  0.
</event>
<event>
 5    0  0.5670250E-005  0.2192290E+03  0.7546771E-02  0.1134459E+00
         21   -1    0    0  502  501  0.00000000000E+00  0.00000000000E+00  0.63155751076E+03  0.63155751076E+03  0.00000000000E+00 0. -1.
         21   -1    0    0  501  502 -0.00000000000E+00 -0.00000000000E+00 -0.76099704832E+02  0.76099704832E+02  0.00000000000E+00 0. -1.
         25    1    1    2    0    0  0.20636823560E+02  0.24623341863E+02  0.11968760001E+03  0.17601792252E+03  0.12500000000E+03 0.  0.
         25    1    1    2    0    0  0.59159211695E+02 -0.61542795865E+02  0.20415849343E+03  0.25415156598E+03  0.12500000000E+03 0.  0.
         25    1    1    2    0    0 -0.79796035255E+02  0.36919454002E+02  0.23161171248E+03  0.27748772708E+03  0.12500000000E+03 0.  0.
</event>
<event>
 5    0  0.5670250E-005  0.2083394E+03  0.7546771E-02  0.1142888E+00
         21   -1    0    0  502  501  0.00000000000E+00  0.00000000000E+00  0.84492248788E+02  0.84492248788E+02  0.00000000000E+00 0. -1.
         21   -1    0    0  501  502 -0.00000000000E+00 -0.00000000000E+00 -0.51371948455E+03  0.51371948455E+03  0.00000000000E+00 0. -1.
         25    1    1    2    0    0  0.14257578634E+02 -0.78363602322E+02 -0.15513440758E+03  0.21455958877E+03  0.12500000000E+03 0.  0.
         25    1    1    2    0    0  0.11135285198E+02  0.19420645694E+02 -0.14619682876E+03  0.19364831214E+03  0.12500000000E+03 0.  0.
         25    1    1    2    0    0 -0.25392863832E+02  0.58942956628E+02 -0.12789599943E+03  0.19000383244E+03  0.12500000000E+03 0.  0.
</event>
<event>
 5    0  0.5670250E-005  0.2755226E+03  0.7546771E-02  0.1098160E+00
         21   -1    0    0  502  501  0.00000000000E+00  0.00000000000E+00  0.81379840053E+02  0.81379840053E+02  0.00000000000E+00 0. -1.
         21   -1    0    0  501  502 -0.00000000000E+00 -0.00000000000E+00 -0.93281923096E+03  0.93281923096E+03  0.00000000000E+00 0. -1.
         25    1    1    2    0    0 -0.11078214879E+01  0.12882247557E+03 -0.16926711997E+03  0.24672416862E+03  0.12500000000E+03 0.  0.
         25    1    1    2    0    0  0.18221638204E+02 -0.14330525092E+03 -0.55827279571E+03  0.59005248704E+03  0.12500000000E+03 0.  0.
         25    1    1    2    0    0 -0.17113816716E+02  0.14482775343E+02 -0.12389947523E+03  0.17742241535E+03  0.12500000000E+03 0.  0.
</event>
<event>
 5    0  0.5670250E-005  0.4138645E+03  0.7546771E-02  0.1039082E+00
         21   -1    0    0  502  501  0.00000000000E+00  0.00000000000E+00  0.82030932073E+03  0.82030932073E+03  0.00000000000E+00 0.  1.
         21   -1    0    0  501  502 -0.00000000000E+00 -0.00000000000E+00 -0.20880389772E+03  0.20880389772E+03  0.00000000000E+00 0.  1.
         25    1    1    2    0    0  0.25798685317E+03  0.22834073830E+02  0.69721271308E+02  0.29591327616E+03  0.12500000000E+03 0.  0.
         25    1    1    2    0    0 -0.19234808640E+03  0.65259357635E+02  0.51106154755E+03  0.56397293861E+03  0.12500000000E+03 0.  0.
         25    1    1    2    0    0 -0.65638766760E+02 -0.88093431466E+02  0.30722604149E+02  0.16922700368E+03  0.12500000000E+03 0.  0.
</event>
<event>
 5    0  0.5670250E-005  0.2555535E+03  0.7546771E-02  0.1109845E+00
         21   -1    0    0  502  501  0.00000000000E+00  0.00000000000E+00  0.31577063360E+03  0.31577063360E+03  0.00000000000E+00 0.  1.
         21   -1    0    0  501  502 -0.00000000000E+00 -0.00000000000E+00 -0.20681969939E+03  0.20681969939E+03  0.00000000000E+00 0.  1.
         25    1    1    2    0    0 -0.25131425548E+02 -0.35776149215E+02  0.20342877625E+02  0.13397893145E+03  0.12500000000E+03 0.  0.
         25    1    1    2    0    0  0.14442783406E+03  0.66934385431E+02  0.38530979272E+02  0.20603215178E+03  0.12500000000E+03 0.  0.
         25    1    1    2    0    0 -0.11929640851E+03 -0.31158236216E+02  0.50077077316E+02  0.18257924975E+03  0.12500000000E+03 0.  0.
</event>
<event>
 5    0  0.5670250E-005  0.3716905E+03  0.7546771E-02  0.1054048E+00
         21   -1    0    0  502  501  0.00000000000E+00  0.00000000000E+00  0.62880772142E+03  0.62880772142E+03  0.00000000000E+00 0. -1.
         21   -1    0    0  501  502 -0.00000000000E+00 -0.00000000000E+00 -0.21970758645E+03  0.21970758645E+03  0.00000000000E+00 0. -1.
         25    1    1    2    0    0 -0.91202594663E+02  0.16821818340E+03 -0.23862657169E+02  0.22980360508E+03  0.12500000000E+03 0.  0.
         25    1    1    2    0    0 -0.96821933835E+02 -0.86818694367E+02  0.28334020472E+03  0.33588486744E+03  0.12500000000E+03 0.  0.
         25    1    1    2    0    0  0.18802452850E+03 -0.81399489037E+02  0.14962258742E+03  0.28282683536E+03  0.12500000000E+03 0.  0.
</event>
<event>
 5    0  0.5670250E-005  0.3088777E+03  0.7546771E-02  0.1080885E+00
         21   -1    0    0  502  501  0.00000000000E+00  0.00000000000E+00  0.63048248569E+03  0.63048248569E+03  0.00000000000E+00 0.  1.
         21   -1    0    0  501  502 -0.00000000000E+00 -0.00000000000E+00 -0.15132128242E+03  0.15132128242E+03  0.00000000000E+00 0.  1.
         25    1    1    2    0    0  0.62218053122E+02 -0.14518381452E+03  0.85237988212E+02  0.21872343443E+03  0.12500000000E+03 0.  0.
         25    1    1    2    0    0 -0.11843656689E+03  0.88228859686E+01  0.30479730427E+03  0.35018775020E+03  0.12500000000E+03 0.  0.
         25    1    1    2    0    0  0.56218513771E+02  0.13636092856E+03  0.89125910787E+02  0.21289258348E+03  0.12500000000E+03 0.  0.
</event>
<event>
 5    0  0.5670250E-005  0.2789449E+03  0.7546771E-02  0.1096267E+00
         21   -1    0    0  502  501  0.00000000000E+00  0.00000000000E+00  0.54787173913E+03  0.54787173913E+03  0.00000000000E+00 0. -1.
         21   -1    0    0  501  502 -0.00000000000E+00 -0.00000000000E+00 -0.14202277252E+03  0.14202277252E+03  0.00000000000E+00 0. -1.
         25    1    1    2    0    0 -0.27346602626E+02 -0.76465313411E+02  0.35791369149E+03  0.38771380087E+03  0.12500000000E+03 0.  0.
         25    1    1    2    0    0  0.39310505894E+02  0.88304149727E+02 -0.19408599168E+02  0.15919997630E+03  0.12500000000E+03 0.  0.
         25    1    1    2    0    0 -0.11963903268E+02 -0.11838836315E+02  0.67343874282E+02  0.14298073447E+03  0.12500000000E+03 0.  0.
</event>
<event>
 5    0  0.5670250E-005  0.3005132E+03  0.7546771E-02  0.1084984E+00
         21   -1    0    0  502  501  0.00000000000E+00  0.00000000000E+00  0.30339999461E+03  0.30339999461E+03  0.00000000000E+00 0.  1.
         21   -1    0    0  501  502 -0.00000000000E+00 -0.00000000000E+00 -0.29765390570E+03  0.29765390570E+03  0.00000000000E+00 0.  1.
         25    1    1    2    0    0  0.10019178524E+03 -0.76324185187E+02  0.88873300203E+02  0.19846218421E+03  0.12500000000E+03 0.  0.
         25    1    1    2    0    0  0.52418533593E+01  0.14557743001E+03 -0.11265278373E+03  0.22256665258E+03  0.12500000000E+03 0.  0.
         25    1    1    2    0    0 -0.10543363860E+03 -0.69253244827E+02  0.29525572435E+02  0.18002506352E+03  0.12500000000E+03 0.  0.
</event>
<event>
 5    0  0.5670250E-005  0.2328602E+03  0.7546771E-02  0.1124643E+00
         21   -1    0    0  502  501  0.00000000000E+00  0.00000000000E+00  0.86331405748E+03  0.86331405748E+03  0.00000000000E+00 0.  1.
         21   -1    0    0  501  502 -0.00000000000E+00 -0.00000000000E+00 -0.62808986650E+02  0.62808986650E+02  0.00000000000E+00 0.  1.
         25    1    1    2    0    0  0.35252346410E+02 -0.62065551635E+02  0.40772466510E+03  0.43238786195E+03  0.12500000000E+03 0.  0.
         25    1    1    2    0    0 -0.87424618350E+02  0.55269296539E+02  0.23667056137E+03  0.28694200399E+03  0.12500000000E+03 0.  0.
         25    1    1    2    0    0  0.52172271940E+02  0.67962550962E+01  0.15610984436E+03  0.20679317820E+03  0.12500000000E+03 0.  0.
</event>
<event>
 5    0  0.5670250E-005  0.3008758E+03  0.7546771E-02  0.1084804E+00
         21   -1    0    0  502  501  0.00000000000E+00  0.00000000000E+00  0.90968586401E+03  0.90968586401E+03  0.00000000000E+00 0.  1.
         21   -1    0    0  501  502 -0.00000000000E+00 -0.00000000000E+00 -0.99513768044E+02  0.99513768044E+02  0.00000000000E+00 0.  1.
         25    1    1    2    0    0  0.13051959518E+03  0.78370354753E+02  0.50349177623E+03  0.54065353598E+03  0.12500000000E+03 0.  0.
         25    1    1    2    0    0 -0.12745458518E+03 -0.39985266769E+01  0.72221725304E+02  0.19261785251E+03  0.12500000000E+03 0.  0.
         25    1    1    2    0    0 -0.30650099982E+01 -0.74371828076E+02  0.23445859443E+03  0.27592824357E+03  0.12500000000E+03 0.  0.
</event>
<event>
 5    0  0.5670250E-005  0.2135457E+03  0.7546771E-02  0.1138789E+00
         21   -1    0    0  502  501  0.00000000000E+00  0.00000000000E+00  0.89493596817E+02  0.89493596817E+02  0.00000000000E+00 0.  1.
         21   -1    0    0  501  502 -0.00000000000E+00 -0.00000000000E+00 -0.50955318536E+03  0.50955318536E+03  0.00000000000E+00 0.  1.
         25    1    1    2    0    0  0.57263059673E+02 -0.43428187999E+02 -0.14368307113E+03  0.20355562003E+03  0.12500000000E+03 0.  0.
         25    1    1    2    0    0 -0.57100353610E+02 -0.60679993635E+01 -0.85308710138E+02  0.16186366802E+03  0.12500000000E+03 0.  0.
         25    1    1    2    0    0 -0.16270606344E+00  0.49496187363E+02 -0.19106780728E+03  0.23362749414E+03  0.12500000000E+03 0.  0.
</event>
<event>
 5    0  0.5670250E-005  0.3411136E+03  0.7546771E-02  0.1066323E+00
         21   -1    0    0  502  501  0.00000000000E+00  0.00000000000E+00  0.11695222320E+03  0.11695222320E+03  0.00000000000E+00 0. -1.
         21   -1    0    0  501  502 -0.00000000000E+00 -0.00000000000E+00 -0.99492340896E+03  0.99492340896E+03  0.00000000000E+00 0. -1.
         25    1    1    2    0    0  0.18197393097E+02  0.69604771874E+02 -0.45116725448E+03  0.47365901332E+03  0.12500000000E+03 0.  0.
         25    1    1    2    0    0 -0.33775034523E+02 -0.22182034228E+03 -0.33006658232E+03  0.41822717029E+03  0.12500000000E+03 0.  0.
         25    1    1    2    0    0  0.15577641426E+02  0.15221557041E+03 -0.96737348960E+02  0.21998944854E+03  0.12500000000E+03 0.  0.
</event>
<event>
 5    0  0.5670250E-005  0.4354994E+03  0.7546771E-02  0.1032137E+00
         21   -1    0    0  502  501  0.00000000000E+00  0.00000000000E+00  0.12443635009E+03  0.12443635009E+03  0.00000000000E+00 0.  1.
         21   -1    0    0  501  502 -0.00000000000E+00 -0.00000000000E+00 -0.15241505632E+04  0.15241505632E+04  0.00000000000E+00 0.  1.
         25    1    1    2    0    0  0.32054941037E+01 -0.13511720079E+03 -0.12632802613E+03  0.22327271066E+03  0.12500000000E+03 0.  0.
         25    1    1    2    0    0 -0.90262555105E+02  0.26771539926E+03 -0.29800469834E+03  0.42924429418E+03  0.12500000000E+03 0.  0.
         25    1    1    2    0    0  0.87057061001E+02 -0.13259819847E+03 -0.97538148870E+03  0.99606990849E+03  0.12500000000E+03 0.  0.
</event>
<event>
 5    0  0.5670250E-005  0.2539270E+03  0.7546771E-02  0.1110848E+00
         21   -1    0    0  502  501  0.00000000000E+00  0.00000000000E+00  0.77450777748E+03  0.77450777748E+03  0.00000000000E+00 0.  1.
         21   -1    0    0  501  502 -0.00000000000E+00 -0.00000000000E+00 -0.83251474647E+02  0.83251474647E+02  0.00000000000E+00 0.  1.
         25    1    1    2    0    0 -0.52874559653E+02  0.10296052296E+03  0.13268911100E+03  0.21593514888E+03  0.12500000000E+03 0.  0.
         25    1    1    2    0    0  0.79744511268E+02 -0.20529096785E+02  0.37272849601E+03  0.40166175151E+03  0.12500000000E+03 0.  0.
         25    1    1    2    0    0 -0.26869951615E+02 -0.82431426174E+02  0.18583869583E+03  0.24016235173E+03  0.12500000000E+03 0.  0.
</event>
<event>
 5    0  0.5670250E-005  0.3631761E+03  0.7546771E-02  0.1057333E+00
         21   -1    0    0  502  501  0.00000000000E+00  0.00000000000E+00  0.40380018461E+03  0.40380018461E+03  0.00000000000E+00 0. -1.
         21   -1    0    0  501  502 -0.00000000000E+00 -0.00000000000E+00 -0.32663896793E+03  0.32663896793E+03  0.00000000000E+00 0. -1.
         25    1    1    2    0    0 -0.71687832809E+02  0.20518508214E+03  0.20771523612E+03  0.32559281722E+03  0.12500000000E+03 0.  0.
         25    1    1    2    0    0  0.78903852502E+02 -0.29429445026E+02  0.35760021271E+01  0.15076371568E+03  0.12500000000E+03 0.  0.
         25    1    1    2    0    0 -0.72160196925E+01 -0.17575563712E+03 -0.13413002157E+03  0.25408261965E+03  0.12500000000E+03 0.  0.
</event>
<event>
 5    0  0.5670250E-005  0.2680766E+03  0.7546771E-02  0.1102386E+00
         21   -1    0    0  502  501  0.00000000000E+00  0.00000000000E+00  0.12643964883E+03  0.12643964883E+03  0.00000000000E+00 0. -1.
         21   -1    0    0  501  502 -0.00000000000E+00 -0.00000000000E+00 -0.56837422820E+03  0.56837422820E+03  0.00000000000E+00 0. -1.
         25    1    1    2    0    0 -0.12899082177E+03 -0.27697820906E+02 -0.15126667407E+03  0.23645804716E+03  0.12500000000E+03 0.  0.
         25    1    1    2    0    0  0.78149272376E+02  0.41099677586E+02 -0.18344532213E+02  0.15413634916E+03  0.12500000000E+03 0.  0.
         25    1    1    2    0    0  0.50841549394E+02 -0.13401856681E+02 -0.27232337309E+03  0.30421948070E+03  0.12500000000E+03 0.  0.
</event>
<event>
 5    0  0.5670250E-005  0.2997182E+03  0.7546771E-02  0.1085382E+00
         21   -1    0    0  502  501  0.00000000000E+00  0.00000000000E+00  0.18100852061E+03  0.18100852061E+03  0.00000000000E+00 0. -1.
         21   -1    0    0  501  502 -0.00000000000E+00 -0.00000000000E+00 -0.49628052538E+03  0.49628052538E+03  0.00000000000E+00 0. -1.
         25    1    1    2    0    0  0.29839590910E+02  0.69562796775E+02 -0.29819476096E+03  0.33207604452E+03  0.12500000000E+03 0.  0.
         25    1    1    2    0    0 -0.48234713631E+02  0.57654667827E+02  0.49382447954E+02  0.15399439758E+03  0.12500000000E+03 0.  0.
         25    1    1    2    0    0  0.18395122721E+02 -0.12721746460E+03 -0.66459691762E+02  0.19121860388E+03  0.12500000000E+03 0.  0.
</event>
<event>
 5    0  0.5670250E-005  0.2718219E+03  0.7546771E-02  0.1100241E+00
         21   -1    0    0  502  501  0.00000000000E+00  0.00000000000E+00  0.28705197029E+02  0.28705197029E+02  0.00000000000E+00 0. -1.
         21   -1    0    0  501  502 -0.00000000000E+00 -0.00000000000E+00 -0.25739990540E+04  0.25739990540E+04  0.00000000000E+00 0. -1.
         25    1    1    2    0    0  0.52204478666E+02  0.59278198580E+02 -0.15072076091E+04  0.15144434586E+04  0.12500000000E+03 0.  0.
         25    1    1    2    0    0 -0.34988379640E+02  0.63486036051E+02 -0.36577197107E+03  0.39327954219E+03  0.12500000000E+03 0.  0.
         25    1    1    2    0    0 -0.17216099026E+02 -0.12276423463E+03 -0.67231427679E+03  0.69498125021E+03  0.12500000000E+03 0.  0.
</event>
<event>
 5    0  0.5670250E-005  0.3288053E+03  0.7546771E-02  0.1071667E+00
         21   -1    0    0  502  501  0.00000000000E+00  0.00000000000E+00  0.15217822081E+03  0.15217822081E+03  0.00000000000E+00 0.  1.
         21   -1    0    0  501  502 -0.00000000000E+00 -0.00000000000E+00 -0.71043640402E+03  0.71043640402E+03  0.00000000000E+00 0.  1.
         25    1    1    2    0    0 -0.14892181728E+03 -0.96152369077E+02 -0.14188393658E+03  0.25918919190E+03  0.12500000000E+03 0.  0.
         25    1    1    2    0    0 -0.78198375973E+02 -0.26741941399E+02 -0.14416012339E+03  0.20793570788E+03  0.12500000000E+03 0.  0.
         25    1    1    2    0    0  0.22712019325E+03  0.12289431048E+03 -0.27221412324E+03  0.39548972505E+03  0.12500000000E+03 0.  0.
</event>
<event>
 5    0  0.5670250E-005  0.3318685E+03  0.7546771E-02  0.1070313E+00
         21   -1    0    0  502  501  0.00000000000E+00  0.00000000000E+00  0.38490763659E+03  0.38490763659E+03  0.00000000000E+00 0.  1.
         21   -1    0    0  501  502 -0.00000000000E+00 -0.00000000000E+00 -0.28613805168E+03  0.28613805168E+03  0.00000000000E+00 0.  1.
         25    1    1    2    0    0 -0.27093655920E+01 -0.73201033762E+02  0.74911858633E+02  0.16310278529E+03  0.12500000000E+03 0.  0.
         25    1    1    2    0    0  0.15576471099E+03  0.19171348330E+03  0.18378998864E+02  0.27745178404E+03  0.12500000000E+03 0.  0.
         25    1    1    2    0    0 -0.15305534540E+03 -0.11851244954E+03  0.54787274178E+01  0.23049111893E+03  0.12500000000E+03 0.  0.
</event>
<event>
 5    0  0.5670250E-005  0.3283854E+03  0.7546771E-02  0.1071854E+00
         21   -1    0    0  502  501  0.00000000000E+00  0.00000000000E+00  0.28177098219E+03  0.28177098219E+03  0.00000000000E+00 0.  1.
         21   -1    0    0  501  502 -0.00000000000E+00 -0.00000000000E+00 -0.38271151278E+03  0.38271151278E+03  0.00000000000E+00 0.  1.
         25    1    1    2    0    0 -0.17003774412E+03 -0.49511136034E+01  0.27833038962E+02  0.21292493045E+03  0.12500000000E+03 0.  0.
         25    1    1    2    0    0  0.67237818286E+02 -0.76521150898E+02 -0.19996616940E+03  0.25688106129E+03  0.12500000000E+03 0.  0.
         25    1    1    2    0    0  0.10279992583E+03  0.81472264501E+02  0.71192599852E+02  0.19467650322E+03  0.12500000000E+03 0.  0.
</event>
<event>
 5    0  0.5670250E-005  0.3928997E+03  0.7546771E-02  0.1046266E+00
         21   -1    0    0  502  501  0.00000000000E+00  0.00000000000E+00  0.51746177991E+03  0.51746177991E+03  0.00000000000E+00 0. -1.
         21   -1    0    0  501  502 -0.00000000000E+00 -0.00000000000E+00 -0.29832185484E+03  0.29832185484E+03  0.00000000000E+00 0. -1.
         25    1    1    2    0    0  0.72139082490E+02 -0.93246302022E+01 -0.21466050881E+01  0.14463956535E+03  0.12500000000E+03 0.  0.
         25    1    1    2    0    0  0.15103040780E+03 -0.11021423447E+03 -0.97647579963E+02  0.24518852223E+03  0.12500000000E+03 0.  0.
         25    1    1    2    0    0 -0.22316949029E+03  0.11953886468E+03  0.31893411012E+03  0.42595554717E+03  0.12500000000E+03 0.  0.
</event>
<event>
 5    0  0.5670250E-005  0.3972910E+03  0.7546771E-02  0.1044722E+00
         21   -1    0    0  502  501  0.00000000000E+00  0.00000000000E+00  0.16239128461E+04  0.16239128461E+04  0.00000000000E+00 0. -1.
         21   -1    0    0  501  502 -0.00000000000E+00 -0.00000000000E+00 -0.97197407728E+02  0.97197407728E+02  0.00000000000E+00 0. -1.
         25    1    1    2    0    0 -0.12323188320E+03 -0.27932572525E+03  0.80436036976E+03  0.86938458824E+03  0.12500000000E+03 0.  0.
         25    1    1    2    0    0  0.65030769665E+02  0.14950486000E+03  0.57851853837E+03  0.61391318882E+03  0.12500000000E+03 0.  0.
         25    1    1    2    0    0  0.58201113535E+02  0.12982086526E+03  0.14383653022E+03  0.23781247675E+03  0.12500000000E+03 0.  0.
</event>
<event>
 5    0  0.5670250E-005  0.3995114E+03  0.7546771E-02  0.1043949E+00
         21   -1    0    0  502  501  0.00000000000E+00  0.00000000000E+00  0.10934200436E+03  0.10934200436E+03  0.00000000000E+00 0. -1.
         21   -1    0    0  501  502 -0.00000000000E+00 -0.00000000000E+00 -0.14597256416E+04  0.14597256416E+04  0.00000000000E+00 0. -1.
         25    1    1    2    0    0  0.13021329935E+03 -0.14611358107E+03 -0.66230238952E+03  0.70183626086E+03  0.12500000000E+03 0.  0.
         25    1    1    2    0    0  0.58752802751E+02  0.64363586869E+02 -0.15910870381E+02  0.15320809033E+03  0.12500000000E+03 0.  0.
         25    1    1    2    0    0 -0.18896610210E+03  0.81749994202E+02 -0.67217037731E+03  0.71402329474E+03  0.12500000000E+03 0.  0.
</event>
<event>
 5    0  0.5670250E-005  0.4823411E+03  0.7546771E-02  0.1018494E+00
         21   -1    0    0  502  501  0.00000000000E+00  0.00000000000E+00  0.60223298710E+03  0.60223298710E+03  0.00000000000E+00 0.  1.
         21   -1    0    0  501  502 -0.00000000000E+00 -0.00000000000E+00 -0.38631723319E+03  0.38631723319E+03  0.00000000000E+00 0.  1.
         25    1    1    2    0    0 -0.11771690375E+03 -0.14322807748E+03  0.14084932084E+02  0.22404226592E+03  0.12500000000E+03 0.  0.
         25    1    1    2    0    0  0.39333887928E+03  0.10889871906E+03  0.16531828293E+03  0.45774396734E+03  0.12500000000E+03 0.  0.
         25    1    1    2    0    0 -0.27562197552E+03  0.34329358419E+02  0.36512538892E+02  0.30676398703E+03  0.12500000000E+03 0.  0.
</event>
<event>
 5    0  0.5670250E-005  0.2521339E+03  0.7546771E-02  0.1111964E+00
         21   -1    0    0  502  501  0.00000000000E+00  0.00000000000E+00  0.49158248873E+03  0.49158248873E+03  0.00000000000E+00 0. -1.
         21   -1    0    0  501  502 -0.00000000000E+00 -0.00000000000E+00 -0.12932009635E+03  0.12932009635E+03  0.00000000000E+00 0. -1.
         25    1    1    2    0    0 -0.12228842899E+02  0.13273793316E+03  0.99023057529E+02  0.20784482053E+03  0.12500000000E+03 0.  0.
         25    1    1    2    0    0  0.35360785509E+01 -0.12846016019E+03  0.93959946834E+02  0.20240550441E+03  0.12500000000E+03 0.  0.
         25    1    1    2    0    0  0.86927643483E+01 -0.42777729720E+01  0.16927938802E+03  0.21065226014E+03  0.12500000000E+03 0.  0.
</event>
<event>
 5    0  0.5670250E-005  0.6599668E+03  0.7546771E-02  0.9788255E-01
         21   -1    0    0  502  501  0.00000000000E+00  0.00000000000E+00  0.68584145281E+03  0.68584145281E+03  0.00000000000E+00 0. -1.
         21   -1    0    0  501  502 -0.00000000000E+00 -0.00000000000E+00 -0.63506827858E+03  0.63506827858E+03  0.00000000000E+00 0. -1.
         25    1    1    2    0    0 -0.80937021026E+02 -0.46328730885E+03 -0.34481224959E+03  0.59641128375E+03  0.12500000000E+03 0.  0.
         25    1    1    2    0    0  0.78379298940E+01  0.22854551002E+03  0.36286064578E+03  0.44675197991E+03  0.12500000000E+03 0.  0.
         25    1    1    2    0    0  0.73099091132E+02  0.23474179883E+03  0.32724778035E+02  0.27774646774E+03  0.12500000000E+03 0.  0.
</event>
<event>
 5    0  0.5670250E-005  0.3524441E+03  0.7546771E-02  0.1061616E+00
         21   -1    0    0  502  501  0.00000000000E+00  0.00000000000E+00  0.32076273119E+03  0.32076273119E+03  0.00000000000E+00 0.  1.
         21   -1    0    0  501  502 -0.00000000000E+00 -0.00000000000E+00 -0.38725463368E+03  0.38725463368E+03  0.00000000000E+00 0.  1.
         25    1    1    2    0    0 -0.13909746798E+03 -0.21543135610E+03 -0.99453038937E+01  0.28545171896E+03  0.12500000000E+03 0.  0.
         25    1    1    2    0    0  0.11396241589E+03  0.93135236181E+02  0.69841496033E+02  0.20533981354E+03  0.12500000000E+03 0.  0.
         25    1    1    2    0    0  0.25135052088E+02  0.12229611992E+03 -0.12638809463E+03  0.21722583238E+03  0.12500000000E+03 0.  0.
</event>
<event>
 5    0  0.5670250E-005  0.3637421E+03  0.7546771E-02  0.1057112E+00
         21   -1    0    0  502  501  0.00000000000E+00  0.00000000000E+00  0.70587262660E+02  0.70587262660E+02  0.00000000000E+00 0. -1.
         21   -1    0    0  501  502 -0.00000000000E+00 -0.00000000000E+00 -0.18743931984E+04  0.18743931984E+04  0.00000000000E+00 0. -1.
         25    1    1    2    0    0  0.25367796007E+02  0.18228516084E+03 -0.58793233761E+03  0.62861819775E+03  0.12500000000E+03 0.  0.
         25    1    1    2    0    0 -0.11300999372E+03 -0.11935237297E+03 -0.20109550977E+03  0.28823714484E+03  0.12500000000E+03 0.  0.
         25    1    1    2    0    0  0.87642197712E+02 -0.62932787871E+02 -0.10147780883E+04  0.10281251184E+04  0.12500000000E+03 0.  0.
</event>
<event>
 5    0  0.5897672E-005  0.3270357E+03  0.7546771E-02  0.1072456E+00
         21   -1    0    0  502  501  0.00000000000E+00  0.00000000000E+00  0.62483720170E+03  0.62483720170E+03  0.00000000000E+00 0. -1.
         21   -1    0    0  501  502 -0.00000000000E+00 -0.00000000000E+00 -0.17116834718E+03  0.17116834718E+03  0.00000000000E+00 0. -1.
         25    1    1    2    0    0  0.19914493967E+02  0.65564887142E+02  0.33770095609E+03  0.36655460335E+03  0.12500000000E+03 0.  0.
         25    1    1    2    0    0 -0.15563573434E+03 -0.65099409424E+02  0.12563701783E+03  0.24468362258E+03  0.12500000000E+03 0.  0.
         25    1    1    2    0    0  0.13572124037E+03 -0.46547771755E+00 -0.96691193928E+01  0.18476732294E+03  0.12500000000E+03 0.  0.
</event>
<event>
 5    0  0.5670250E-005  0.2432633E+03  0.7546771E-02  0.1117638E+00
         21   -1    0    0  502  501  0.00000000000E+00  0.00000000000E+00  0.12011351790E+03  0.12011351790E+03  0.00000000000E+00 0.  1.
         21   -1    0    0  501  502 -0.00000000000E+00 -0.00000000000E+00 -0.49267576863E+03  0.49267576863E+03  0.00000000000E+00 0.  1.
         25    1    1    2    0    0 -0.59476953833E+02  0.11954453731E+02 -0.23063983392E+03  0.26925851889E+03  0.12500000000E+03 0.  0.
         25    1    1    2    0    0 -0.28581106337E+02 -0.13353717478E+02 -0.14040500211E+03  0.19061418108E+03  0.12500000000E+03 0.  0.
         25    1    1    2    0    0  0.88058060170E+02  0.13992637475E+01 -0.15174146911E+01  0.15291658657E+03  0.12500000000E+03 0.  0.
</event>
<event>
 5    0  0.5670250E-005  0.2683973E+03  0.7546771E-02  0.1102200E+00
         21   -1    0    0  502  501  0.00000000000E+00  0.00000000000E+00  0.11115681435E+03  0.11115681435E+03  0.00000000000E+00 0. -1.
         21   -1    0    0  501  502 -0.00000000000E+00 -0.00000000000E+00 -0.64806738822E+03  0.64806738822E+03  0.00000000000E+00 0. -1.
         25    1    1    2    0    0  0.25915805485E+02  0.11164635594E+03 -0.29135961105E+03  0.33712306466E+03  0.12500000000E+03 0.  0.
         25    1    1    2    0    0 -0.10407522773E+03 -0.56665895181E+02 -0.18694806467E+03  0.25419924388E+03  0.12500000000E+03 0.  0.
         25    1    1    2    0    0  0.78159422245E+02 -0.54980460762E+02 -0.58602898142E+02  0.16790189404E+03  0.12500000000E+03 0.  0.
</event>
<event>
 5    0  0.5670250E-005  0.2513076E+03  0.7546771E-02  0.1112481E+00
         21   -1    0    0  502  501  0.00000000000E+00  0.00000000000E+00  0.27774156156E+03  0.27774156156E+03  0.00000000000E+00 0. -1.
         21   -1    0    0  501  502 -0.00000000000E+00 -0.00000000000E+00 -0.22738954134E+03  0.22738954134E+03  0.00000000000E+00 0. -1.
         25    1    1    2    0    0 -0.60488199460E+02 -0.78585154083E+01 -0.94214652142E+02  0.16799398566E+03  0.12500000000E+03 0.  0.
         25    1    1    2    0    0  0.10110171670E+03 -0.14330624212E+02  0.12112362818E+03  0.20179905157E+03  0.12500000000E+03 0.  0.
         25    1    1    2    0    0 -0.40613517244E+02  0.22189139620E+02  0.23443044172E+02  0.13533806567E+03  0.12500000000E+03 0.  0.
</event>
<event>
 5    0  0.5670250E-005  0.3784777E+03  0.7546771E-02  0.1051498E+00
         21   -1    0    0  502  501  0.00000000000E+00  0.00000000000E+00  0.19963429947E+03  0.19963429947E+03  0.00000000000E+00 0.  1.
         21   -1    0    0  501  502 -0.00000000000E+00 -0.00000000000E+00 -0.71753876984E+03  0.71753876984E+03  0.00000000000E+00 0.  1.
         25    1    1    2    0    0 -0.14690161001E+03  0.25603918950E+02 -0.13723505354E+03  0.23810523642E+03  0.12500000000E+03 0.  0.
         25    1    1    2    0    0  0.30218603226E+03  0.78066975823E+02 -0.25177727304E+03  0.42003291064E+03  0.12500000000E+03 0.  0.
         25    1    1    2    0    0 -0.15528442225E+03 -0.10367089477E+03 -0.12889214379E+03  0.25903492225E+03  0.12500000000E+03 0.  0.
</event>
<event>
 5    0  0.5670250E-005  0.3839682E+03  0.7546771E-02  0.1049477E+00
         21   -1    0    0  502  501  0.00000000000E+00  0.00000000000E+00  0.25691478299E+03  0.25691478299E+03  0.00000000000E+00 0.  1.
         21   -1    0    0  501  502 -0.00000000000E+00 -0.00000000000E+00 -0.57385409175E+03  0.57385409175E+03  0.00000000000E+00 0.  1.
         25    1    1    2    0    0 -0.56450831816E+02 -0.53388797566E+02 -0.31119550732E+03  0.34424512182E+03  0.12500000000E+03 0.  0.
         25    1    1    2    0    0 -0.30370155131E+01  0.57678533844E+01 -0.20444354504E+03  0.23971786480E+03  0.12500000000E+03 0.  0.
         25    1    1    2    0    0  0.59487847329E+02  0.47620944181E+02  0.19869974360E+03  0.24680588812E+03  0.12500000000E+03 0.  0.
</event>
<event>
 5    0  0.5670250E-005  0.2407056E+03  0.7546771E-02  0.1119324E+00
         21   -1    0    0  502  501  0.00000000000E+00  0.00000000000E+00  0.95372579730E+02  0.95372579730E+02  0.00000000000E+00 0. -1.
         21   -1    0    0  501  502 -0.00000000000E+00 -0.00000000000E+00 -0.60750379134E+03  0.60750379134E+03  0.00000000000E+00 0. -1.
         25    1    1    2    0    0 -0.34369280370E+02  0.66389603219E+02 -0.96546191579E+02  0.17474265065E+03  0.12500000000E+03 0.  0.
         25    1    1    2    0    0  0.75391134366E+02 -0.22123153654E+01 -0.90900654369E+02  0.17197862206E+03  0.12500000000E+03 0.  0.
         25    1    1    2    0    0 -0.41021853996E+02 -0.64177287853E+02 -0.32468436566E+03  0.35615509835E+03  0.12500000000E+03 0.  0.
</event>
<event>
 5    0  0.5670250E-005  0.2176179E+03  0.7546771E-02  0.1135672E+00
         21   -1    0    0  502  501  0.00000000000E+00  0.00000000000E+00  0.32805870510E+03  0.32805870510E+03  0.00000000000E+00 0.  1.
         21   -1    0    0  501  502 -0.00000000000E+00 -0.00000000000E+00 -0.14435696675E+03  0.14435696675E+03  0.00000000000E+00 0.  1.
         25    1    1    2    0    0 -0.35027116557E+02 -0.32593817384E+02  0.20680580356E+02  0.13543242680E+03  0.12500000000E+03 0.  0.
         25    1    1    2    0    0  0.38578047695E+02  0.63608052147E+02  0.14758791424E+03  0.20722317074E+03  0.12500000000E+03 0.  0.
         25    1    1    2    0    0 -0.35509311380E+01 -0.31014234764E+02  0.15433243750E+02  0.12976007430E+03  0.12500000000E+03 0.  0.
</event>
<event>
 5    0  0.5670250E-005  0.3202601E+03  0.7546771E-02  0.1075530E+00
         21   -1    0    0  502  501  0.00000000000E+00  0.00000000000E+00  0.12617618791E+04  0.12617618791E+04  0.00000000000E+00 0.  1.
         21   -1    0    0  501  502 -0.00000000000E+00 -0.00000000000E+00 -0.81288354840E+02  0.81288354840E+02  0.00000000000E+00 0.  1.
         25    1    1    2    0    0 -0.15125028392E+03 -0.54412753912E+02  0.53739911147E+03  0.57468269609E+03  0.12500000000E+03 0.  0.
         25    1    1    2    0    0  0.32751555436E+02 -0.10025987290E+03  0.14277226135E+03  0.21710279848E+03  0.12500000000E+03 0.  0.
         25    1    1    2    0    0  0.11849872849E+03  0.15467262681E+03  0.50030215148E+03  0.55126473941E+03  0.12500000000E+03 0.  0.
</event>
<event>
 5    0  0.5670250E-005  0.3122805E+03  0.7546771E-02  0.1079258E+00
         21   -1    0    0  502  501  0.00000000000E+00  0.00000000000E+00  0.74188552836E+03  0.74188552836E+03  0.00000000000E+00 0.  1.
         21   -1    0    0  501  502 -0.00000000000E+00 -0.00000000000E+00 -0.13144768926E+03  0.13144768926E+03  0.00000000000E+00 0.  1.
         25    1    1    2    0    0 -0.40703807100E+02  0.26421736190E+02  0.11521733432E+03  0.17679067335E+03  0.12500000000E+03 0.  0.
         25    1    1    2    0    0  0.18850440046E+01  0.18819606474E+03  0.31317330124E+03  0.38616554583E+03  0.12500000000E+03 0.  0.
         25    1    1    2    0    0  0.38818763095E+02 -0.21461780093E+03  0.18204720355E+03  0.31037699845E+03  0.12500000000E+03 0.  0.
</event>
<event>
 5    0  0.5670250E-005  0.2998374E+03  0.7546771E-02  0.1085322E+00
         21   -1    0    0  502  501  0.00000000000E+00  0.00000000000E+00  0.29812200929E+04  0.29812200929E+04  0.00000000000E+00 0.  1.
         21   -1    0    0  501  502 -0.00000000000E+00 -0.00000000000E+00 -0.30156265634E+02  0.30156265634E+02  0.00000000000E+00 0.  1.
         25    1    1    2    0    0  0.12960432617E+03 -0.11177273684E+03  0.69422963288E+03  0.72585825698E+03  0.12500000000E+03 0.  0.
         25    1    1    2    0    0 -0.67940095056E+02  0.10873452804E+03  0.17723785557E+04  0.17814010775E+04  0.12500000000E+03 0.  0.
         25    1    1    2    0    0 -0.61664231116E+02  0.30382088005E+01  0.48445563864E+03  0.50411702403E+03  0.12500000000E+03 0.  0.
</event>
<event>
 5    0  0.5670250E-005  0.2799580E+03  0.7546771E-02  0.1095712E+00
         21   -1    0    0  502  501  0.00000000000E+00  0.00000000000E+00  0.27147063662E+03  0.27147063662E+03  0.00000000000E+00 0. -1.
         21   -1    0    0  501  502 -0.00000000000E+00 -0.00000000000E+00 -0.28871072303E+03  0.28871072303E+03  0.00000000000E+00 0. -1.
         25    1    1    2    0    0  0.10034290502E+02 -0.76910484033E+02 -0.25780923687E+02  0.14935047896E+03  0.12500000000E+03 0.  0.
         25    1    1    2    0    0  0.76576316221E+02 -0.99991672143E+02  0.20721768101E+01  0.17745861664E+03  0.12500000000E+03 0.  0.
         25    1    1    2    0    0 -0.86610606723E+02  0.17690215618E+03  0.64686604629E+01  0.23337226404E+03  0.12500000000E+03 0.  0.
</event>
<event>
 5    0  0.5670250E-005  0.2504547E+03  0.7546771E-02  0.1113018E+00
         21   -1    0    0  502  501  0.00000000000E+00  0.00000000000E+00  0.25726818065E+03  0.25726818065E+03  0.00000000000E+00 0.  1.
         21   -1    0    0  501  502 -0.00000000000E+00 -0.00000000000E+00 -0.24382169059E+03  0.24382169059E+03  0.00000000000E+00 0.  1.
         25    1    1    2    0    0  0.17726047690E+02  0.41376054755E+02 -0.12962423481E+03  0.18561689827E+03  0.12500000000E+03 0.  0.
         25    1    1    2    0    0  0.24231007734E+02 -0.64193349769E+02  0.44848626980E+02  0.14948019010E+03  0.12500000000E+03 0.  0.
         25    1    1    2    0    0 -0.41957055424E+02  0.22817295014E+02  0.98222097888E+02  0.16599278287E+03  0.12500000000E+03 0.  0.
</event>
<event>
 5    0  0.5670250E-005  0.2628759E+03  0.7546771E-02  0.1105428E+00
         21   -1    0    0  502  501  0.00000000000E+00  0.00000000000E+00  0.20855293676E+03  0.20855293676E+03  0.00000000000E+00 0.  1.
         21   -1    0    0  501  502 -0.00000000000E+00 -0.00000000000E+00 -0.33134873219E+03  0.33134873219E+03  0.00000000000E+00 0.  1.
         25    1    1    2    0    0 -0.18533189539E+02  0.71386229315E+01 -0.83925928580E+02  0.15186507347E+03  0.12500000000E+03 0.  0.
         25    1    1    2    0    0  0.97063459901E+02  0.10551625756E+03  0.24596527173E+02  0.19179412141E+03  0.12500000000E+03 0.  0.
         25    1    1    2    0    0 -0.78530270362E+02 -0.11265488049E+03 -0.63466394027E+02  0.19624247408E+03  0.12500000000E+03 0.  0.
</event>
<event>
 5    0  0.5670250E-005  0.4713222E+03  0.7546771E-02  0.1021548E+00
         21   -1    0    0  502  501  0.00000000000E+00  0.00000000000E+00  0.13300103676E+04  0.13300103676E+04  0.00000000000E+00 0.  1.
         21   -1    0    0  501  502 -0.00000000000E+00 -0.00000000000E+00 -0.16702475260E+03  0.16702475260E+03  0.00000000000E+00 0.  1.
         25    1    1    2    0    0  0.84080516101E+02 -0.26324506227E+02  0.57654903509E+02  0.16343684014E+03  0.12500000000E+03 0.  0.
         25    1    1    2    0    0 -0.54475083564E+02 -0.96416780118E+01  0.11751224485E+04  0.11830461807E+04  0.12500000000E+03 0.  0.
         25    1    1    2    0    0 -0.29605432538E+02  0.35966184239E+02 -0.69791737063E+02  0.15055209931E+03  0.12500000000E+03 0.  0.
</event>
<event>
 5    0  0.5670250E-005  0.2517508E+03  0.7546771E-02  0.1112203E+00
         21   -1    0    0  502  501  0.00000000000E+00  0.00000000000E+00  0.14735285750E+03  0.14735285750E+03  0.00000000000E+00 0.  1.
         21   -1    0    0  501  502 -0.00000000000E+00 -0.00000000000E+00 -0.43011344640E+03  0.43011344640E+03  0.00000000000E+00 0.  1.
         25    1    1    2    0    0  0.52966317977E+01 -0.30450754417E+02 -0.41539768380E+02  0.13529913196E+03  0.12500000000E+03 0.  0.
         25    1    1    2    0    0  0.51876846017E+02  0.91857941523E+02 -0.69758459187E+01  0.16371545742E+03  0.12500000000E+03 0.  0.
         25    1    1    2    0    0 -0.57173477815E+02 -0.61407187105E+02 -0.23424497460E+03  0.27845171452E+03  0.12500000000E+03 0.  0.
</event>
<event>
 5    0  0.5670250E-005  0.3136404E+03  0.7546771E-02  0.1078614E+00
         21   -1    0    0  502  501  0.00000000000E+00  0.00000000000E+00  0.16737506754E+04  0.16737506754E+04  0.00000000000E+00 0.  1.
         21   -1    0    0  501  502 -0.00000000000E+00 -0.00000000000E+00 -0.58772378358E+02  0.58772378358E+02  0.00000000000E+00 0.  1.
         25    1    1    2    0    0 -0.16977158343E+03  0.14744119299E+03  0.70299223362E+03  0.74858825562E+03  0.12500000000E+03 0.  0.
         25    1    1    2    0    0  0.17054414231E+03 -0.95795719322E+02  0.52627227722E+03  0.57519530082E+03  0.12500000000E+03 0.  0.
         25    1    1    2    0    0 -0.77255888727E+00 -0.51645473666E+02  0.38571378626E+03  0.40873949736E+03  0.12500000000E+03 0.  0.
</event>
<event>
 5    0  0.5670250E-005  0.3937077E+03  0.7546771E-02  0.1045981E+00
         21   -1    0    0  502  501  0.00000000000E+00  0.00000000000E+00  0.88340141637E+03  0.88340141637E+03  0.00000000000E+00 0. -1.
         21   -1    0    0  501  502 -0.00000000000E+00 -0.00000000000E+00 -0.17546471107E+03  0.17546471107E+03  0.00000000000E+00 0. -1.
         25    1    1    2    0    0 -0.20625281868E+02 -0.39489821047E+02  0.45206701263E+03  0.47114162640E+03  0.12500000000E+03 0.  0.
         25    1    1    2    0    0 -0.10569804087E+03 -0.13803724829E+03  0.25958223090E+03  0.33650303469E+03  0.12500000000E+03 0.  0.
         25    1    1    2    0    0  0.12632332273E+03  0.17752706933E+03 -0.37125382274E+01  0.25122146635E+03  0.12500000000E+03 0.  0.
</event>
<event>
 5    0  0.5670250E-005  0.3310920E+03  0.7546771E-02  0.1070655E+00
         21   -1    0    0  502  501  0.00000000000E+00  0.00000000000E+00  0.14594523372E+04  0.14594523372E+04  0.00000000000E+00 0.  1.
         21   -1    0    0  501  502 -0.00000000000E+00 -0.00000000000E+00 -0.75111666783E+02  0.75111666783E+02  0.00000000000E+00 0.  1.
         25    1    1    2    0    0  0.21172105049E+03  0.79489113433E+02  0.69219365970E+03  0.73885139568E+03  0.12500000000E+03 0.  0.
         25    1    1    2    0    0  0.55039008559E+01  0.71131440978E+01  0.18541892322E+03  0.22379916629E+03  0.12500000000E+03 0.  0.
         25    1    1    2    0    0 -0.21722495135E+03 -0.86602257531E+02  0.50672808751E+03  0.57191344203E+03  0.12500000000E+03 0.  0.
</event>
<event>
 5    0  0.5670250E-005  0.3510522E+03  0.7546771E-02  0.1062184E+00
         21   -1    0    0  502  501  0.00000000000E+00  0.00000000000E+00  0.34673013691E+03  0.34673013691E+03  0.00000000000E+00 0.  1.
         21   -1    0    0  501  502 -0.00000000000E+00 -0.00000000000E+00 -0.35542822269E+03  0.35542822269E+03  0.00000000000E+00 0.  1.
         25    1    1    2    0    0 -0.19646448985E+03 -0.14511730934E+03  0.63845778772E+02  0.28170660750E+03  0.12500000000E+03 0.  0.
         25    1    1    2    0    0  0.12220365686E+03 -0.37545130865E+02 -0.11643204023E+02  0.17917570929E+03  0.12500000000E+03 0.  0.
         25    1    1    2    0    0  0.74260832994E+02  0.18266244021E+03 -0.60900660533E+02  0.24127604281E+03  0.12500000000E+03 0.  0.
</event>
<event>
 5    0  0.5670250E-005  0.3991488E+03  0.7546771E-02  0.1044075E+00
         21   -1    0    0  502  501  0.00000000000E+00  0.00000000000E+00  0.22599682736E+03  0.22599682736E+03  0.00000000000E+00 0. -1.
         21   -1    0    0  501  502 -0.00000000000E+00 -0.00000000000E+00 -0.70496454122E+03  0.70496454122E+03  0.00000000000E+00 0. -1.
         25    1    1    2    0    0 -0.28334993440E+02 -0.24908929944E+03 -0.14509583687E+03  0.31547765821E+03  0.12500000000E+03 0.  0.
         25    1    1    2    0    0  0.10482420255E+03 -0.10050725993E+02 -0.26268823051E+03  0.30938525657E+03  0.12500000000E+03 0.  0.
         25    1    1    2    0    0 -0.76489209114E+02  0.25914002544E+03 -0.71183646473E+02  0.30609845380E+03  0.12500000000E+03 0.  0.
</event>
<event>
 5    0  0.5670250E-005  0.3444459E+03  0.7546771E-02  0.1064918E+00
         21   -1    0    0  502  501  0.00000000000E+00  0.00000000000E+00  0.38577569891E+03  0.38577569891E+03  0.00000000000E+00 0.  1.
         21   -1    0    0  501  502 -0.00000000000E+00 -0.00000000000E+00 -0.30754386982E+03  0.30754386982E+03  0.00000000000E+00 0.  1.
         25    1    1    2    0    0 -0.24488911045E+02 -0.13768433189E+03 -0.19056644051E+02  0.18853338615E+03  0.12500000000E+03 0.  0.
         25    1    1    2    0    0  0.10467761720E+03 -0.10833363174E+03  0.94587498435E+02  0.21740601226E+03  0.12500000000E+03 0.  0.
         25    1    1    2    0    0 -0.80188706155E+02  0.24601796363E+03  0.27009747030E+01  0.28738017031E+03  0.12500000000E+03 0.  0.
</event>
<event>
 5    0  0.5670250E-005  0.2690399E+03  0.7546771E-02  0.1101830E+00
         21   -1    0    0  502  501  0.00000000000E+00  0.00000000000E+00  0.12924482117E+03  0.12924482117E+03  0.00000000000E+00 0.  1.
         21   -1    0    0  501  502 -0.00000000000E+00 -0.00000000000E+00 -0.56004133527E+03  0.56004133527E+03  0.00000000000E+00 0.  1.
         25    1    1    2    0    0  0.69051965631E+02 -0.49581588467E+02 -0.24561796169E+02  0.15314956645E+03  0.12500000000E+03 0.  0.
         25    1    1    2    0    0 -0.13658444644E+03  0.55563338661E+02 -0.30679000651E+03  0.36261233254E+03  0.12500000000E+03 0.  0.
         25    1    1    2    0    0  0.67532480805E+02 -0.59817501940E+01 -0.99444711417E+02  0.17352425746E+03  0.12500000000E+03 0.  0.
</event>
<event>
 5    0  0.5670250E-005  0.2689671E+03  0.7546771E-02  0.1101872E+00
         21   -1    0    0  502  501  0.00000000000E+00  0.00000000000E+00  0.32940047881E+03  0.32940047881E+03  0.00000000000E+00 0. -1.
         21   -1    0    0  501  502 -0.00000000000E+00 -0.00000000000E+00 -0.21962105704E+03  0.21962105704E+03  0.00000000000E+00 0. -1.
         25    1    1    2    0    0  0.12555353589E+03 -0.87375917520E+02  0.22776550051E+02  0.19885173514E+03  0.12500000000E+03 0.  0.
         25    1    1    2    0    0 -0.17540704526E+02 -0.61135606456E+01  0.98166083780E+02  0.16002072348E+03  0.12500000000E+03 0.  0.
         25    1    1    2    0    0 -0.10801283136E+03  0.93489478165E+02 -0.11163212067E+02  0.19014907723E+03  0.12500000000E+03 0.  0.
</event>
<event>
 5    0  0.5670250E-005  0.8311568E+03  0.7546771E-02  0.9515983E-01
         21   -1    0    0  502  501  0.00000000000E+00  0.00000000000E+00  0.12903154216E+04  0.12903154216E+04  0.00000000000E+00 0. -1.
         21   -1    0    0  501  502 -0.00000000000E+00 -0.00000000000E+00 -0.53538969567E+03  0.53538969567E+03  0.00000000000E+00 0. -1.
         25    1    1    2    0    0  0.22022008588E+03  0.65175395406E+03  0.49891493987E+03  0.85896520307E+03  0.12500000000E+03 0.  0.
         25    1    1    2    0    0 -0.28660355610E+03 -0.33886896586E+03 -0.10031367872E+03  0.47187033020E+03  0.12500000000E+03 0.  0.
         25    1    1    2    0    0  0.66383470221E+02 -0.31288498821E+03  0.35632446476E+03  0.49486958398E+03  0.12500000000E+03 0.  0.
</event>
<event>
 5    0  0.5670250E-005  0.4320037E+03  0.7546771E-02  0.1033229E+00
         21   -1    0    0  502  501  0.00000000000E+00  0.00000000000E+00  0.19897370773E+03  0.19897370773E+03  0.00000000000E+00 0. -1.
         21   -1    0    0  501  502 -0.00000000000E+00 -0.00000000000E+00 -0.93794906899E+03  0.93794906899E+03  0.00000000000E+00 0. -1.
         25    1    1    2    0    0 -0.50877170616E+02  0.80188671817E+01  0.55029193825E+02  0.14596575247E+03  0.12500000000E+03 0.  0.
         25    1    1    2    0    0 -0.92908448980E+01 -0.23974150167E+03 -0.19378950934E+03  0.33277872731E+03  0.12500000000E+03 0.  0.
         25    1    1    2    0    0  0.60168015514E+02  0.23172263449E+03 -0.60021504575E+03  0.65817829694E+03  0.12500000000E+03 0.  0.
</event>
<event>
 5    0  0.5670250E-005  0.5512150E+03  0.7546771E-02  0.1001213E+00
         21   -1    0    0  502  501  0.00000000000E+00  0.00000000000E+00  0.11807382099E+03  0.11807382099E+03  0.00000000000E+00 0.  1.
         21   -1    0    0  501  502 -0.00000000000E+00 -0.00000000000E+00 -0.25732883615E+04  0.25732883615E+04  0.00000000000E+00 0.  1.
         25    1    1    2    0    0 -0.16808386002E+03  0.38392777374E+02 -0.73464799529E+03  0.76489140820E+03  0.12500000000E+03 0.  0.
         25    1    1    2    0    0  0.26495717301E+02 -0.30834813714E+03 -0.14834838143E+04  0.15205689145E+04  0.12500000000E+03 0.  0.
         25    1    1    2    0    0  0.14158814272E+03  0.26995535976E+03 -0.23708273097E+03  0.40590185975E+03  0.12500000000E+03 0.  0.
</event>
<event>
 5    0  0.5670250E-005  0.3559203E+03  0.7546771E-02  0.1060211E+00
         21   -1    0    0  502  501  0.00000000000E+00  0.00000000000E+00  0.18549168022E+04  0.18549168022E+04  0.00000000000E+00 0.  1.
         21   -1    0    0  501  502 -0.00000000000E+00 -0.00000000000E+00 -0.68293787199E+02  0.68293787199E+02  0.00000000000E+00 0.  1.
         25    1    1    2    0    0 -0.13458520486E+03  0.50107125437E+02  0.99286356071E+03  0.10109534864E+04  0.12500000000E+03 0.  0.
         25    1    1    2    0    0 -0.29141079214E+02 -0.15788193615E+03  0.26067010427E+03  0.33068083029E+03  0.12500000000E+03 0.  0.
         25    1    1    2    0    0  0.16372628407E+03  0.10777481072E+03  0.53308934997E+03  0.58157627271E+03  0.12500000000E+03 0.  0.
</event>
<event>
 5    0  0.5670250E-005  0.2977914E+03  0.7546771E-02  0.1086350E+00
         21   -1    0    0  502  501  0.00000000000E+00  0.00000000000E+00  0.48824602336E+03  0.48824602336E+03  0.00000000000E+00 0.  1.
         21   -1    0    0  501  502 -0.00000000000E+00 -0.00000000000E+00 -0.18162921490E+03  0.18162921490E+03  0.00000000000E+00 0.  1.
         25    1    1    2    0    0  0.20939403147E+03  0.17644522526E+02  0.17944683827E+03  0.30328758194E+03  0.12500000000E+03 0.  0.
         25    1    1    2    0    0 -0.10389009942E+03  0.10277891710E+02  0.94539004261E+01  0.16313541629E+03  0.12500000000E+03 0.  0.
         25    1    1    2    0    0 -0.10550393205E+03 -0.27922414236E+02  0.11771606976E+03  0.20345224004E+03  0.12500000000E+03 0.  0.
</event>
<event>
 5    0  0.5670250E-005  0.2802118E+03  0.7546771E-02  0.1095573E+00
         21   -1    0    0  502  501  0.00000000000E+00  0.00000000000E+00  0.35420802239E+03  0.35420802239E+03  0.00000000000E+00 0. -1.
         21   -1    0    0  501  502 -0.00000000000E+00 -0.00000000000E+00 -0.22167383935E+03  0.22167383935E+03  0.00000000000E+00 0. -1.
         25    1    1    2    0    0 -0.46335705634E+02  0.46247890936E+02 -0.10315239446E+03  0.17478924886E+03  0.12500000000E+03 0.  0.
         25    1    1    2    0    0  0.48618290244E+02 -0.26612981658E+02  0.23803955894E+03  0.27451743216E+03  0.12500000000E+03 0.  0.
         25    1    1    2    0    0 -0.22825846095E+01 -0.19634909278E+02 -0.23529814419E+01  0.12657518073E+03  0.12500000000E+03 0.  0.
</event>
<event>
 5    0  0.5670250E-005  0.2276618E+03  0.7546771E-02  0.1128296E+00
         21   -1    0    0  502  501  0.00000000000E+00  0.00000000000E+00  0.19529466543E+03  0.19529466543E+03  0.00000000000E+00 0.  1.
         21   -1    0    0  501  502 -0.00000000000E+00 -0.00000000000E+00 -0.26539318572E+03  0.26539318572E+03  0.00000000000E+00 0.  1.
         25    1    1    2    0    0  0.34711319859E+02  0.63796907244E+01 -0.11302914818E+03  0.17218061597E+03  0.12500000000E+03 0.  0.
         25    1    1    2    0    0 -0.23490366779E+02  0.11077264206E+02  0.86839616433E+02  0.15440408704E+03  0.12500000000E+03 0.  0.
         25    1    1    2    0    0 -0.11220953080E+02 -0.17456954931E+02 -0.43908988549E+02  0.13410314813E+03  0.12500000000E+03 0.  0.
</event>
<event>
 5    0  0.5670250E-005  0.3186965E+03  0.7546771E-02  0.1076251E+00
         21   -1    0    0  502  501  0.00000000000E+00  0.00000000000E+00  0.25507736048E+04  0.25507736048E+04  0.00000000000E+00 0. -1.
         21   -1    0    0  501  502 -0.00000000000E+00 -0.00000000000E+00 -0.39818284502E+02  0.39818284502E+02  0.00000000000E+00 0. -1.
         25    1    1    2    0    0 -0.86233572161E+01  0.37781862326E+02  0.31138810690E+03  0.33777120145E+03  0.12500000000E+03 0.  0.
         25    1    1    2    0    0  0.14390967430E+03 -0.87554079715E+02  0.17749933642E+04  0.17873450015E+04  0.12500000000E+03 0.  0.
         25    1    1    2    0    0 -0.13528631708E+03  0.49772217390E+02  0.42457384919E+03  0.46547568640E+03  0.12500000000E+03 0.  0.
</event>
<event>
 5    0  0.5670250E-005  0.2946257E+03  0.7546771E-02  0.1087958E+00
         21   -1    0    0  502  501  0.00000000000E+00  0.00000000000E+00  0.32521101756E+03  0.32521101756E+03  0.00000000000E+00 0.  1.
         21   -1    0    0  501  502 -0.00000000000E+00 -0.00000000000E+00 -0.26691694228E+03  0.26691694228E+03  0.00000000000E+00 0.  1.
         25    1    1    2    0    0 -0.62155385769E+02 -0.13673106377E+03  0.15374507961E+03  0.24863874453E+03  0.12500000000E+03 0.  0.
         25    1    1    2    0    0  0.88923159341E+02  0.11948519278E+03 -0.90311234293E+02  0.21439486608E+03  0.12500000000E+03 0.  0.
         25    1    1    2    0    0 -0.26767773572E+02  0.17245870992E+02 -0.51397700399E+01  0.12909434923E+03  0.12500000000E+03 0.  0.
</event>
<event>
 5    0  0.5670250E-005  0.3276861E+03  0.7546771E-02  0.1072165E+00
         21   -1    0    0  502  501  0.00000000000E+00  0.00000000000E+00  0.46860271336E+03  0.46860271336E+03  0.00000000000E+00 0. -1.
         21   -1    0    0  501  502 -0.00000000000E+00 -0.00000000000E+00 -0.22914543546E+03  0.22914543546E+03  0.00000000000E+00 0. -1.
         25    1    1    2    0    0 -0.94438120607E+02  0.97390000586E+02 -0.38818799084E+02  0.18850801044E+03  0.12500000000E+03 0.  0.
         25    1    1    2    0    0  0.47692730672E+02 -0.33597002543E+02  0.32586196760E+03  0.35385643567E+03  0.12500000000E+03 0.  0.
         25    1    1    2    0    0  0.46745389934E+02 -0.63792998043E+02 -0.47585890622E+02  0.15538370270E+03  0.12500000000E+03 0.  0.
</event>
<event>
 5    0  0.5670250E-005  0.3378165E+03  0.7546771E-02  0.1067730E+00
         21   -1    0    0  502  501  0.00000000000E+00  0.00000000000E+00  0.45304047574E+03  0.45304047574E+03  0.00000000000E+00 0.  1.
         21   -1    0    0  501  502 -0.00000000000E+00 -0.00000000000E+00 -0.25189797773E+03  0.25189797773E+03  0.00000000000E+00 0.  1.
         25    1    1    2    0    0  0.79269799001E+02  0.36785812297E+01 -0.82566517620E+02  0.16952717430E+03  0.12500000000E+03 0.  0.
         25    1    1    2    0    0  0.81184392705E+02 -0.26572125799E+02 -0.36161740492E+02  0.15565877734E+03  0.12500000000E+03 0.  0.
         25    1    1    2    0    0 -0.16045419171E+03  0.22893544569E+02  0.31987075612E+03  0.37975250182E+03  0.12500000000E+03 0.  0.
</event>
<event>
 5    0  0.5670250E-005  0.2980544E+03  0.7546771E-02  0.1086217E+00
         21   -1    0    0  502  501  0.00000000000E+00  0.00000000000E+00  0.14674272252E+04  0.14674272252E+04  0.00000000000E+00 0.  1.
         21   -1    0    0  501  502 -0.00000000000E+00 -0.00000000000E+00 -0.60538910445E+02  0.60538910445E+02  0.00000000000E+00 0.  1.
         25    1    1    2    0    0  0.11190443782E+03  0.96937758199E+02  0.24676619872E+03  0.31374844860E+03  0.12500000000E+03 0.  0.
         25    1    1    2    0    0 -0.24421497778E+02 -0.13078897339E+03  0.81749953426E+03  0.83763515544E+03  0.12500000000E+03 0.  0.
         25    1    1    2    0    0 -0.87482940044E+02  0.33851215191E+02  0.34262258179E+03  0.37658253162E+03  0.12500000000E+03 0.  0.
</event>
<event>
 5    0  0.5670250E-005  0.4261321E+03  0.7546771E-02  0.1035089E+00
         21   -1    0    0  502  501  0.00000000000E+00  0.00000000000E+00  0.45732023633E+04  0.45732023633E+04  0.00000000000E+00 0.  1.
         21   -1    0    0  501  502 -0.00000000000E+00 -0.00000000000E+00 -0.39707092353E+02  0.39707092353E+02  0.00000000000E+00 0.  1.
         25    1    1    2    0    0  0.11722096073E+03 -0.23630230757E+02  0.63277466268E+03  0.65599383775E+03  0.12500000000E+03 0.  0.
         25    1    1    2    0    0 -0.26804526845E+03 -0.17434148419E+03  0.28226215685E+04  0.28434241221E+04  0.12500000000E+03 0.  0.
         25    1    1    2    0    0  0.15082430772E+03  0.19797171495E+03  0.10780990398E+04  0.11134914958E+04  0.12500000000E+03 0.  0.
</event>
<event>
 5    0  0.5670250E-005  0.3980908E+03  0.7546771E-02  0.1044443E+00
         21   -1    0    0  502  501  0.00000000000E+00  0.00000000000E+00  0.63134525011E+03  0.63134525011E+03  0.00000000000E+00 0. -1.
         21   -1    0    0  501  502 -0.00000000000E+00 -0.00000000000E+00 -0.25101368977E+03  0.25101368977E+03  0.00000000000E+00 0. -1.
         25    1    1    2    0    0  0.15163981210E+03 -0.10032337695E+02 -0.78189016903E+01  0.19692997648E+03  0.12500000000E+03 0.  0.
         25    1    1    2    0    0 -0.55014174802E+02 -0.12207015717E+03  0.43694306679E+03  0.47378468350E+03  0.12500000000E+03 0.  0.
         25    1    1    2    0    0 -0.96625637302E+02  0.13210249486E+03 -0.48792604759E+02  0.21164427990E+03  0.12500000000E+03 0.  0.
</event>
<event>
 5    0  0.5670250E-005  0.2413717E+03  0.7546771E-02  0.1118882E+00
         21   -1    0    0  502  501  0.00000000000E+00  0.00000000000E+00  0.60513688058E+03  0.60513688058E+03  0.00000000000E+00 0.  1.
         21   -1    0    0  501  502 -0.00000000000E+00 -0.00000000000E+00 -0.96276259564E+02  0.96276259564E+02  0.00000000000E+00 0.  1.
         25    1    1    2    0    0 -0.61004268772E+01  0.63559138110E+02  0.32899036451E+03  0.35768231601E+03  0.12500000000E+03 0.  0.
         25    1    1    2    0    0 -0.11937618360E+02 -0.72349192551E+02  0.15949612821E+03  0.21550157148E+03  0.12500000000E+03 0.  0.
         25    1    1    2    0    0  0.18038045237E+02  0.87900544412E+01  0.20374128295E+02  0.12822925266E+03  0.12500000000E+03 0.  0.
</event>
<event>
 5    0  0.5670250E-005  0.2427575E+03  0.7546771E-02  0.1117969E+00
         21   -1    0    0  502  501  0.00000000000E+00  0.00000000000E+00  0.13573374053E+04  0.13573374053E+04  0.00000000000E+00 0. -1.
         21   -1    0    0  501  502 -0.00000000000E+00 -0.00000000000E+00 -0.43416778615E+02  0.43416778615E+02  0.00000000000E+00 0. -1.
         25    1    1    2    0    0  0.17985393755E+02 -0.32311601884E+02  0.48778491269E+03  0.50490259957E+03  0.12500000000E+03 0.  0.
         25    1    1    2    0    0  0.38599709612E+02  0.11401365006E+03  0.30632856938E+03  0.35206709929E+03  0.12500000000E+03 0.  0.
         25    1    1    2    0    0 -0.56585103368E+02 -0.81702048171E+02  0.51980714460E+03  0.54378448505E+03  0.12500000000E+03 0.  0.
</event>
<event>
 5    0  0.5670250E-005  0.2591818E+03  0.7546771E-02  0.1107636E+00
         21   -1    0    0  502  501  0.00000000000E+00  0.00000000000E+00  0.36585626773E+03  0.36585626773E+03  0.00000000000E+00 0.  1.
         21   -1    0    0  501  502 -0.00000000000E+00 -0.00000000000E+00 -0.18361087613E+03  0.18361087613E+03  0.00000000000E+00 0.  1.
         25    1    1    2    0    0 -0.25585534409E+02 -0.92543041749E+02 -0.55849864835E+02  0.16722153435E+03  0.12500000000E+03 0.  0.
         25    1    1    2    0    0  0.70037729342E+02  0.13486712870E+02  0.12775308513E+03  0.19243966773E+03  0.12500000000E+03 0.  0.
         25    1    1    2    0    0 -0.44452194933E+02  0.79056328878E+02  0.11034217129E+03  0.18980594178E+03  0.12500000000E+03 0.  0.
</event>
<event>
 5    0  0.5670250E-005  0.4346584E+03  0.7546771E-02  0.1032398E+00
         21   -1    0    0  502  501  0.00000000000E+00  0.00000000000E+00  0.64477223011E+03  0.64477223011E+03  0.00000000000E+00 0. -1.
         21   -1    0    0  501  502 -0.00000000000E+00 -0.00000000000E+00 -0.29301498911E+03  0.29301498911E+03  0.00000000000E+00 0. -1.
         25    1    1    2    0    0  0.23790981933E+02 -0.75360207724E+02  0.11845483772E+03  0.18947749288E+03  0.12500000000E+03 0.  0.
         25    1    1    2    0    0  0.27410894579E+03  0.16575739421E+03  0.22840713671E+03  0.41280267440E+03  0.12500000000E+03 0.  0.
         25    1    1    2    0    0 -0.29789992772E+03 -0.90397186483E+02  0.48952665654E+01  0.33550705193E+03  0.12500000000E+03 0.  0.
</event>
<event>
 5    0  0.5670250E-005  0.4086161E+03  0.7546771E-02  0.1040836E+00
         21   -1    0    0  502  501  0.00000000000E+00  0.00000000000E+00  0.67823288889E+03  0.67823288889E+03  0.00000000000E+00 0. -1.
         21   -1    0    0  501  502 -0.00000000000E+00 -0.00000000000E+00 -0.24617959863E+03  0.24617959863E+03  0.00000000000E+00 0. -1.
         25    1    1    2    0    0  0.26118327966E+03 -0.25048315283E+02  0.14000483071E+03  0.32259956028E+03  0.12500000000E+03 0.  0.
         25    1    1    2    0    0 -0.25910167549E+03  0.77134923153E+02  0.34555003028E+03  0.45619436432E+03  0.12500000000E+03 0.  0.
         25    1    1    2    0    0 -0.20816041654E+01 -0.52086607870E+02 -0.53501570722E+02  0.14561856291E+03  0.12500000000E+03 0.  0.
</event>
<event>
 5    0  0.5670250E-005  0.4150809E+03  0.7546771E-02  0.1038679E+00
         21   -1    0    0  502  501  0.00000000000E+00  0.00000000000E+00  0.13687841247E+04  0.13687841247E+04  0.00000000000E+00 0. -1.
         21   -1    0    0  501  502 -0.00000000000E+00 -0.00000000000E+00 -0.12587242072E+03  0.12587242072E+03  0.00000000000E+00 0. -1.
         25    1    1    2    0    0  0.16698752308E+03  0.39355934503E+02  0.33625932481E+03  0.39765444291E+03  0.12500000000E+03 0.  0.
         25    1    1    2    0    0  0.25392684459E+02 -0.25487582292E+03  0.56263818288E+03  0.63070848921E+03  0.12500000000E+03 0.  0.
         25    1    1    2    0    0 -0.19238020754E+03  0.21551988841E+03  0.34401419632E+03  0.46629361332E+03  0.12500000000E+03 0.  0.
</event>
<event>
 5    0  0.5670250E-005  0.3413181E+03  0.7546771E-02  0.1066236E+00
         21   -1    0    0  502  501  0.00000000000E+00  0.00000000000E+00  0.20683223636E+03  0.20683223636E+03  0.00000000000E+00 0.  1.
         21   -1    0    0  501  502 -0.00000000000E+00 -0.00000000000E+00 -0.56324888274E+03  0.56324888274E+03  0.00000000000E+00 0.  1.
         25    1    1    2    0    0 -0.25084908061E+02  0.84818296857E+02 -0.24247674940E+03  0.28678104905E+03  0.12500000000E+03 0.  0.
         25    1    1    2    0    0  0.10228069938E+03 -0.17849457653E+03 -0.17615026414E+03  0.29828773168E+03  0.12500000000E+03 0.  0.
         25    1    1    2    0    0 -0.77195791317E+02  0.93676279668E+02  0.62210367157E+02  0.18501233838E+03  0.12500000000E+03 0.  0.
</event>
<event>
 5    0  0.5670250E-005  0.2686179E+03  0.7546771E-02  0.1102073E+00
         21   -1    0    0  502  501  0.00000000000E+00  0.00000000000E+00  0.84333496208E+03  0.84333496208E+03  0.00000000000E+00 0.  1.
         21   -1    0    0  501  502 -0.00000000000E+00 -0.00000000000E+00 -0.85559799596E+02  0.85559799596E+02  0.00000000000E+00 0.  1.
         25    1    1    2    0    0  0.13253281701E+03 -0.84433461017E+01  0.22334978005E+03  0.28835110876E+03  0.12500000000E+03 0.  0.
         25    1    1    2    0    0 -0.75029614871E+01 -0.32931960797E+02  0.38240680446E+03  0.40373354155E+03  0.12500000000E+03 0.  0.
         25    1    1    2    0    0 -0.12502985553E+03  0.41375306899E+02  0.15201857797E+03  0.23681011136E+03  0.12500000000E+03 0.  0.
</event>
<event>
 5    0  0.5670250E-005  0.4584965E+03  0.7546771E-02  0.1025218E+00
         21   -1    0    0  502  501  0.00000000000E+00  0.00000000000E+00  0.84026639278E+03  0.84026639278E+03  0.00000000000E+00 0.  1.
         21   -1    0    0  501  502 -0.00000000000E+00 -0.00000000000E+00 -0.25018142740E+03  0.25018142740E+03  0.00000000000E+00 0.  1.
         25    1    1    2    0    0 -0.21925828991E+02  0.35612854402E+03  0.39383946306E+03  0.54593296704E+03  0.12500000000E+03 0.  0.
         25    1    1    2    0    0 -0.10385366875E+03 -0.90655168019E+02  0.46074246567E+02  0.19170753819E+03  0.12500000000E+03 0.  0.
         25    1    1    2    0    0  0.12577949774E+03 -0.26547337601E+03  0.15017125576E+03  0.35280731494E+03  0.12500000000E+03 0.  0.
</event>
<event>
 5    0  0.5810515E-005  0.2664829E+03  0.7546771E-02  0.1103310E+00
         21   -1    0    0  502  501  0.00000000000E+00  0.00000000000E+00  0.29007477988E+03  0.29007477988E+03  0.00000000000E+00 0. -1.
         21   -1    0    0  501  502 -0.00000000000E+00 -0.00000000000E+00 -0.24480975938E+03  0.24480975938E+03  0.00000000000E+00 0. -1.
         25    1    1    2    0    0 -0.23074192205E+02 -0.29023443736E+02  0.84564119926E+02  0.15540549865E+03  0.12500000000E+03 0.  0.
         25    1    1    2    0    0 -0.25015362958E+02 -0.74112626535E+02  0.84501508608E+02  0.16995280154E+03  0.12500000000E+03 0.  0.
         25    1    1    2    0    0  0.48089555164E+02  0.10313607027E+03 -0.12380060803E+03  0.20952623906E+03  0.12500000000E+03 0.  0.
</event>
<event>
 5    0  0.5670250E-005  0.3029293E+03  0.7546771E-02  0.1083785E+00
         21   -1    0    0  502  501  0.00000000000E+00  0.00000000000E+00  0.52653871482E+02  0.52653871482E+02  0.00000000000E+00 0.  1.
         21   -1    0    0  501  502 -0.00000000000E+00 -0.00000000000E+00 -0.17428187846E+04  0.17428187846E+04  0.00000000000E+00 0.  1.
         25    1    1    2    0    0 -0.58197152812E+02 -0.65123492961E+02 -0.23460923599E+03  0.27981149287E+03  0.12500000000E+03 0.  0.
         25    1    1    2    0    0  0.72363277369E+02  0.10342824194E+03 -0.12995018313E+04  0.13115882947E+04  0.12500000000E+03 0.  0.
         25    1    1    2    0    0 -0.14166124557E+02 -0.38304748976E+02 -0.15605384582E+03  0.20407286854E+03  0.12500000000E+03 0.  0.
</event>
<event>
 5    0  0.5670250E-005  0.3951791E+03  0.7546771E-02  0.1045462E+00
         21   -1    0    0  502  501  0.00000000000E+00  0.00000000000E+00  0.13428621894E+04  0.13428621894E+04  0.00000000000E+00 0.  1.
         21   -1    0    0  501  502 -0.00000000000E+00 -0.00000000000E+00 -0.11629378256E+03  0.11629378256E+03  0.00000000000E+00 0.  1.
         25    1    1    2    0    0  0.15907214739E+03  0.45354240532E+02  0.88916527321E+03  0.91301743592E+03  0.12500000000E+03 0.  0.
         25    1    1    2    0    0 -0.16113581684E+03 -0.15634894737E+03  0.24535119252E+03  0.35529136281E+03  0.12500000000E+03 0.  0.
         25    1    1    2    0    0  0.20636694478E+01  0.11099470684E+03  0.92051941150E+02  0.19084717327E+03  0.12500000000E+03 0.  0.
</event>
<event>
 5    0  0.5670250E-005  0.3670978E+03  0.7546771E-02  0.1055808E+00
         21   -1    0    0  502  501  0.00000000000E+00  0.00000000000E+00  0.43020210879E+03  0.43020210879E+03  0.00000000000E+00 0. -1.
         21   -1    0    0  501  502 -0.00000000000E+00 -0.00000000000E+00 -0.31324988977E+03  0.31324988977E+03  0.00000000000E+00 0. -1.
         25    1    1    2    0    0 -0.11094686566E+03 -0.20745086777E+03 -0.62447071492E+02  0.27362329264E+03  0.12500000000E+03 0.  0.
         25    1    1    2    0    0 -0.69139385960E+01 -0.26248790836E+02  0.11653866532E+03  0.17304063708E+03  0.12500000000E+03 0.  0.
         25    1    1    2    0    0  0.11786080425E+03  0.23369965860E+03  0.62860625197E+02  0.29678806885E+03  0.12500000000E+03 0.  0.
</event>
<event>
 5    0  0.5670250E-005  0.2843190E+03  0.7546771E-02  0.1093353E+00
         21   -1    0    0  502  501  0.00000000000E+00  0.00000000000E+00  0.71134404627E+02  0.71134404627E+02  0.00000000000E+00 0.  1.
         21   -1    0    0  501  502 -0.00000000000E+00 -0.00000000000E+00 -0.11364020317E+04  0.11364020317E+04  0.00000000000E+00 0.  1.
         25    1    1    2    0    0 -0.57606411267E+02 -0.42988864438E+02 -0.28509297708E+03  0.31948324943E+03  0.12500000000E+03 0.  0.
         25    1    1    2    0    0 -0.97066120639E+02  0.63154218058E+02 -0.15026492854E+03  0.22718898693E+03  0.12500000000E+03 0.  0.
         25    1    1    2    0    0  0.15467253191E+03 -0.20165353619E+02 -0.62990972141E+03  0.66086419992E+03  0.12500000000E+03 0.  0.
</event>
<event>
 5    0  0.5670250E-005  0.2539299E+03  0.7546771E-02  0.1110846E+00
         21   -1    0    0  502  501  0.00000000000E+00  0.00000000000E+00  0.20425566216E+03  0.20425566216E+03  0.00000000000E+00 0. -1.
         21   -1    0    0  501  502 -0.00000000000E+00 -0.00000000000E+00 -0.31568475341E+03  0.31568475341E+03  0.00000000000E+00 0. -1.
         25    1    1    2    0    0 -0.23038993146E+02  0.19157919004E+02 -0.17492024041E+02  0.12972583386E+03  0.12500000000E+03 0.  0.
         25    1    1    2    0    0  0.31679922174E+02 -0.84528300551E+02  0.73748866788E+02  0.17091678214E+03  0.12500000000E+03 0.  0.
         25    1    1    2    0    0 -0.86409290285E+01  0.65370381547E+02 -0.16768593399E+03  0.21929779957E+03  0.12500000000E+03 0.  0.
</event>
<event>
 5    0  0.5670250E-005  0.2394993E+03  0.7546771E-02  0.1120127E+00
         21   -1    0    0  502  501  0.00000000000E+00  0.00000000000E+00  0.33364302175E+02  0.33364302175E+02  0.00000000000E+00 0. -1.
         21   -1    0    0  501  502 -0.00000000000E+00 -0.00000000000E+00 -0.17191997434E+04  0.17191997434E+04  0.00000000000E+00 0. -1.
         25    1    1    2    0    0 -0.72734831047E+02  0.11052601112E+03 -0.67947487913E+03  0.70343263086E+03  0.12500000000E+03 0.  0.
         25    1    1    2    0    0  0.55703726390E+02 -0.83265357934E+02 -0.44007175601E+03  0.46832059041E+03  0.12500000000E+03 0.  0.
         25    1    1    2    0    0  0.17031104657E+02 -0.27260653183E+02 -0.56628880607E+03  0.58081082429E+03  0.12500000000E+03 0.  0.
</event>
<event>
 5    0  0.5670250E-005  0.3494718E+03  0.7546771E-02  0.1062832E+00
         21   -1    0    0  502  501  0.00000000000E+00  0.00000000000E+00  0.97099650981E+03  0.97099650981E+03  0.00000000000E+00 0. -1.
         21   -1    0    0  501  502 -0.00000000000E+00 -0.00000000000E+00 -0.12577858425E+03  0.12577858425E+03  0.00000000000E+00 0. -1.
         25    1    1    2    0    0 -0.19080084295E+03  0.38089008302E+02  0.28803361791E+03  0.36938340416E+03  0.12500000000E+03 0.  0.
         25    1    1    2    0    0  0.16118830068E+03  0.13600491445E+03  0.35385693116E+03  0.43048662320E+03  0.12500000000E+03 0.  0.
         25    1    1    2    0    0  0.29612542273E+02 -0.17409392275E+03  0.20332737649E+03  0.29690506669E+03  0.12500000000E+03 0.  0.
</event>
<event>
 5    0  0.5670250E-005  0.3010427E+03  0.7546771E-02  0.1084721E+00
         21   -1    0    0  502  501  0.00000000000E+00  0.00000000000E+00  0.12750694127E+03  0.12750694127E+03  0.00000000000E+00 0. -1.
         21   -1    0    0  501  502 -0.00000000000E+00 -0.00000000000E+00 -0.71075887406E+03  0.71075887406E+03  0.00000000000E+00 0. -1.
         25    1    1    2    0    0 -0.51119197219E+02 -0.14751458549E+03 -0.36184275973E+03  0.41343549440E+03  0.12500000000E+03 0.  0.
         25    1    1    2    0    0  0.19634057199E+02  0.14960537193E+03 -0.36335562834E+02  0.19928004576E+03  0.12500000000E+03 0.  0.
         25    1    1    2    0    0  0.31485140020E+02 -0.20907864398E+01 -0.18507361022E+03  0.22555027517E+03  0.12500000000E+03 0.  0.
</event>
<event>
 5    0  0.5670250E-005  0.2891787E+03  0.7546771E-02  0.1090779E+00
         21   -1    0    0  502  501  0.00000000000E+00  0.00000000000E+00  0.15434573206E+03  0.15434573206E+03  0.00000000000E+00 0.  1.
         21   -1    0    0  501  502 -0.00000000000E+00 -0.00000000000E+00 -0.54179888337E+03  0.54179888337E+03  0.00000000000E+00 0.  1.
         25    1    1    2    0    0  0.61928526186E+02  0.44441898910E+02 -0.77514924460E+02  0.16566166801E+03  0.12500000000E+03 0.  0.
         25    1    1    2    0    0  0.12511688405E+03  0.34139927750E+02 -0.19648917308E+03  0.26655724428E+03  0.12500000000E+03 0.  0.
         25    1    1    2    0    0 -0.18704541024E+03 -0.78581826660E+02 -0.11344905378E+03  0.26392570313E+03  0.12500000000E+03 0.  0.
</event>
<event>
 5    0  0.5670250E-005  0.3760511E+03  0.7546771E-02  0.1052403E+00
         21   -1    0    0  502  501  0.00000000000E+00  0.00000000000E+00  0.95694424307E+02  0.95694424307E+02  0.00000000000E+00 0. -1.
         21   -1    0    0  501  502 -0.00000000000E+00 -0.00000000000E+00 -0.14777712158E+04  0.14777712158E+04  0.00000000000E+00 0. -1.
         25    1    1    2    0    0  0.79581328840E+02  0.16053986003E+03 -0.59218140961E+03  0.63119731975E+03  0.12500000000E+03 0.  0.
         25    1    1    2    0    0 -0.50992140282E+02 -0.29614976247E+03 -0.46509000169E+03  0.56766062912E+03  0.12500000000E+03 0.  0.
         25    1    1    2    0    0 -0.28589188558E+02  0.13560990243E+03 -0.32480538021E+03  0.37460769127E+03  0.12500000000E+03 0.  0.
</event>
<event>
 5    0  0.5670250E-005  0.3069243E+03  0.7546771E-02  0.1081830E+00
         21   -1    0    0  502  501  0.00000000000E+00  0.00000000000E+00  0.12896301762E+04  0.12896301762E+04  0.00000000000E+00 0. -1.
         21   -1    0    0  501  502 -0.00000000000E+00 -0.00000000000E+00 -0.73046139002E+02  0.73046139002E+02  0.00000000000E+00 0. -1.
         25    1    1    2    0    0 -0.58509956251E+02 -0.18711002661E+02  0.22332028811E+03  0.26319283365E+03  0.12500000000E+03 0.  0.
         25    1    1    2    0    0 -0.17108903708E+02 -0.13115303232E+03  0.77896122489E+03  0.79993713650E+03  0.12500000000E+03 0.  0.
         25    1    1    2    0    0  0.75618859959E+02  0.14986403498E+03  0.21430252423E+03  0.29954634508E+03  0.12500000000E+03 0.  0.
</event>
<event>
 5    0  0.5670250E-005  0.2267494E+03  0.7546771E-02  0.1128949E+00
         21   -1    0    0  502  501  0.00000000000E+00  0.00000000000E+00  0.68786387222E+03  0.68786387222E+03  0.00000000000E+00 0. -1.
         21   -1    0    0  501  502 -0.00000000000E+00 -0.00000000000E+00 -0.74746286232E+02  0.74746286232E+02  0.00000000000E+00 0. -1.
         25    1    1    2    0    0  0.65777320809E+02  0.61181892225E+02  0.29567717686E+03  0.33334647558E+03  0.12500000000E+03 0.  0.
         25    1    1    2    0    0 -0.15702010756E+02 -0.29396203814E+01  0.21873215362E+03  0.25243603058E+03  0.12500000000E+03 0.  0.
         25    1    1    2    0    0 -0.50075310053E+02 -0.58242271843E+02  0.98708255511E+02  0.17682765228E+03  0.12500000000E+03 0.  0.
</event>
<event>
 5    0  0.6484175E-005  0.4097289E+03  0.7546771E-02  0.1040462E+00
         21   -1    0    0  502  501  0.00000000000E+00  0.00000000000E+00  0.12327034000E+03  0.12327034000E+03  0.00000000000E+00 0. -1.
         21   -1    0    0  501  502 -0.00000000000E+00 -0.00000000000E+00 -0.13618668089E+04  0.13618668089E+04  0.00000000000E+00 0. -1.
         25    1    1    2    0    0  0.17997636194E+03 -0.17910733658E+03 -0.33355898256E+03  0.43744430928E+03  0.12500000000E+03 0.  0.
         25    1    1    2    0    0  0.21132815409E+02  0.75321040916E+02 -0.70648483712E+03  0.72171024669E+03  0.12500000000E+03 0.  0.
         25    1    1    2    0    0 -0.20110917734E+03  0.10378629567E+03 -0.19855264923E+03  0.32598259293E+03  0.12500000000E+03 0.  0.
</event>
<event>
 5    0  0.5670250E-005  0.2865982E+03  0.7546771E-02  0.1092139E+00
         21   -1    0    0  502  501  0.00000000000E+00  0.00000000000E+00  0.21206896074E+03  0.21206896074E+03  0.00000000000E+00 0. -1.
         21   -1    0    0  501  502 -0.00000000000E+00 -0.00000000000E+00 -0.38731993577E+03  0.38731993577E+03  0.00000000000E+00 0. -1.
         25    1    1    2    0    0  0.36058061533E+02  0.66091606992E+02  0.30559684255E+02  0.14908782183E+03  0.12500000000E+03 0.  0.
         25    1    1    2    0    0  0.43117518510E+02  0.10839843255E+03 -0.10175482224E+03  0.19896830006E+03  0.12500000000E+03 0.  0.
         25    1    1    2    0    0 -0.79175580043E+02 -0.17449003954E+03 -0.10405583705E+03  0.25133277462E+03  0.12500000000E+03 0.  0.
</event>
<event>
 5    0  0.5670250E-005  0.3703753E+03  0.7546771E-02  0.1054550E+00
         21   -1    0    0  502  501  0.00000000000E+00  0.00000000000E+00  0.94108768078E+03  0.94108768078E+03  0.00000000000E+00 0. -1.
         21   -1    0    0  501  502 -0.00000000000E+00 -0.00000000000E+00 -0.14576526417E+03  0.14576526417E+03  0.00000000000E+00 0. -1.
         25    1    1    2    0    0  0.27718276384E+02  0.87784085457E+02  0.61032409917E+03  0.62975777449E+03  0.12500000000E+03 0.  0.
         25    1    1    2    0    0  0.94023706584E+01  0.45601722633E+02  0.22938851524E+03  0.26535261937E+03  0.12500000000E+03 0.  0.
         25    1    1    2    0    0 -0.37120647042E+02 -0.13338580809E+03 -0.44390197809E+02  0.19174255109E+03  0.12500000000E+03 0.  0.
</event>
<event>
 5    0  0.5670250E-005  0.2440823E+03  0.7546771E-02  0.1117103E+00
         21   -1    0    0  502  501  0.00000000000E+00  0.00000000000E+00  0.24913404267E+03  0.24913404267E+03  0.00000000000E+00 0.  1.
         21   -1    0    0  501  502 -0.00000000000E+00 -0.00000000000E+00 -0.23913301567E+03  0.23913301567E+03  0.00000000000E+00 0.  1.
         25    1    1    2    0    0 -0.12967809047E+02  0.12589979933E+03  0.11540139020E+02  0.17826132040E+03  0.12500000000E+03 0.  0.
         25    1    1    2    0    0  0.33823185248E+02 -0.90820627349E+02  0.54184431438E+02  0.16719254416E+03  0.12500000000E+03 0.  0.
         25    1    1    2    0    0 -0.20855376201E+02 -0.35079171983E+02 -0.55723543459E+02  0.14281319379E+03  0.12500000000E+03 0.  0.
</event>
<event>
 5    0  0.5670250E-005  0.3497732E+03  0.7546771E-02  0.1062708E+00
         21   -1    0    0  502  501  0.00000000000E+00  0.00000000000E+00  0.55616594527E+03  0.55616594527E+03  0.00000000000E+00 0. -1.
         21   -1    0    0  501  502 -0.00000000000E+00 -0.00000000000E+00 -0.21997263421E+03  0.21997263421E+03  0.00000000000E+00 0. -1.
         25    1    1    2    0    0  0.99807679555E+01  0.64328258885E+02  0.10826781725E+02  0.14135048575E+03  0.12500000000E+03 0.  0.
         25    1    1    2    0    0  0.86912787259E+02  0.81125070377E+02 -0.68907837163E+02  0.18576436595E+03  0.12500000000E+03 0.  0.
         25    1    1    2    0    0 -0.96893555214E+02 -0.14545332926E+03  0.39427436649E+03  0.44902372778E+03  0.12500000000E+03 0.  0.
</event>
<event>
 5    0  0.5754499E-005  0.3194575E+03  0.7546771E-02  0.1075899E+00
         21   -1    0    0  502  501  0.00000000000E+00  0.00000000000E+00  0.19449938701E+03  0.19449938701E+03  0.00000000000E+00 0. -1.
         21   -1    0    0  501  502 -0.00000000000E+00 -0.00000000000E+00 -0.52469611212E+03  0.52469611212E+03  0.00000000000E+00 0. -1.
         25    1    1    2    0    0 -0.92742806909E+02  0.53150299977E+02 -0.51507409029E+02  0.17234905223E+03  0.12500000000E+03 0.  0.
         25    1    1    2    0    0  0.15364077009E+03 -0.17160465352E+03 -0.73595187448E+02  0.27220377470E+03  0.12500000000E+03 0.  0.
         25    1    1    2    0    0 -0.60897963185E+02  0.11845435354E+03 -0.20509412863E+03  0.27464267220E+03  0.12500000000E+03 0.  0.
</event>
<event>
 5    0  0.5670250E-005  0.3379398E+03  0.7546771E-02  0.1067677E+00
         21   -1    0    0  502  501  0.00000000000E+00  0.00000000000E+00  0.75423958863E+02  0.75423958863E+02  0.00000000000E+00 0. -1.
         21   -1    0    0  501  502 -0.00000000000E+00 -0.00000000000E+00 -0.15141511996E+04  0.15141511996E+04  0.00000000000E+00 0. -1.
         25    1    1    2    0    0 -0.38294422591E+02  0.10834347822E+03 -0.37306133827E+03  0.40988356174E+03  0.12500000000E+03 0.  0.
         25    1    1    2    0    0  0.10472405267E+03 -0.20816226255E+03 -0.32471327119E+03  0.41876289621E+03  0.12500000000E+03 0.  0.
         25    1    1    2    0    0 -0.66429630083E+02  0.99818784332E+02 -0.74095263123E+03  0.76092870046E+03  0.12500000000E+03 0.  0.
</event>
<event>
 5    0  0.5670250E-005  0.3401142E+03  0.7546771E-02  0.1066747E+00
         21   -1    0    0  502  501  0.00000000000E+00  0.00000000000E+00  0.11029791839E+03  0.11029791839E+03  0.00000000000E+00 0.  1.
         21   -1    0    0  501  502 -0.00000000000E+00 -0.00000000000E+00 -0.10487748147E+04  0.10487748147E+04  0.00000000000E+00 0.  1.
         25    1    1    2    0    0  0.78016309390E+02  0.15851645698E+02 -0.62114698785E+03  0.63858155291E+03  0.12500000000E+03 0.  0.
         25    1    1    2    0    0  0.97112047561E+02 -0.65471916112E+02 -0.22092463470E+03  0.27955324323E+03  0.12500000000E+03 0.  0.
         25    1    1    2    0    0 -0.17512835695E+03  0.49620270414E+02 -0.96405273739E+02  0.24093793692E+03  0.12500000000E+03 0.  0.
</event>
<event>
 5    0  0.5670250E-005  0.4667509E+03  0.7546771E-02  0.1022841E+00
         21   -1    0    0  502  501  0.00000000000E+00  0.00000000000E+00  0.34528588796E+03  0.34528588796E+03  0.00000000000E+00 0.  1.
         21   -1    0    0  501  502 -0.00000000000E+00 -0.00000000000E+00 -0.63094512489E+03  0.63094512489E+03  0.00000000000E+00 0.  1.
         25    1    1    2    0    0  0.76816055750E+02  0.24611227467E+03  0.74078895127E+02  0.29594702375E+03  0.12500000000E+03 0.  0.
         25    1    1    2    0    0  0.48791089338E+02 -0.33307698401E+03 -0.31547701624E+03  0.47798702436E+03  0.12500000000E+03 0.  0.
         25    1    1    2    0    0 -0.12560714509E+03  0.86964709345E+02 -0.44261115819E+02  0.20229696474E+03  0.12500000000E+03 0.  0.
</event>
<event>
 5    0  0.5670250E-005  0.5862564E+03  0.7546771E-02  0.9934337E-01
         21   -1    0    0  502  501  0.00000000000E+00  0.00000000000E+00  0.24160333125E+04  0.24160333125E+04  0.00000000000E+00 0.  1.
         21   -1    0    0  501  502 -0.00000000000E+00 -0.00000000000E+00 -0.14225654585E+03  0.14225654585E+03  0.00000000000E+00 0.  1.
         25    1    1    2    0    0  0.29658630436E+03 -0.15369701632E+03  0.39644588707E+03  0.53327342906E+03  0.12500000000E+03 0.  0.
         25    1    1    2    0    0 -0.97190792968E+02  0.28979696921E+03  0.16107896167E+04  0.16442921039E+04  0.12500000000E+03 0.  0.
         25    1    1    2    0    0 -0.19939551140E+03 -0.13609995288E+03  0.26654126285E+03  0.38072432539E+03  0.12500000000E+03 0.  0.
</event>
<event>
 5    0  0.5670250E-005  0.4900510E+03  0.7546771E-02  0.1016409E+00
         21   -1    0    0  502  501  0.00000000000E+00  0.00000000000E+00  0.10939604138E+03  0.10939604138E+03  0.00000000000E+00 0.  1.
         21   -1    0    0  501  502 -0.00000000000E+00 -0.00000000000E+00 -0.21952348098E+04  0.21952348098E+04  0.00000000000E+00 0.  1.
         25    1    1    2    0    0 -0.40303629740E+02  0.15956951134E+02 -0.12868775270E+04  0.12936606110E+04  0.12500000000E+03 0.  0.
         25    1    1    2    0    0  0.13637259114E+03 -0.25592540833E+03 -0.30154737564E+03  0.43663613913E+03  0.12500000000E+03 0.  0.
         25    1    1    2    0    0 -0.96068961396E+02  0.23996845720E+03 -0.49741386572E+03  0.57433410103E+03  0.12500000000E+03 0.  0.
</event>
<event>
 5    0  0.5670250E-005  0.3030413E+03  0.7546771E-02  0.1083730E+00
         21   -1    0    0  502  501  0.00000000000E+00  0.00000000000E+00  0.64052418831E+03  0.64052418831E+03  0.00000000000E+00 0.  1.
         21   -1    0    0  501  502 -0.00000000000E+00 -0.00000000000E+00 -0.14337322295E+03  0.14337322295E+03  0.00000000000E+00 0.  1.
         25    1    1    2    0    0  0.14560928665E+03  0.69735378885E+01  0.32203862363E+03  0.37494608906E+03  0.12500000000E+03 0.  0.
         25    1    1    2    0    0 -0.71043766228E+02  0.11070396276E+03  0.10072034695E+03  0.20753836363E+03  0.12500000000E+03 0.  0.
         25    1    1    2    0    0 -0.74565520419E+02 -0.11767750065E+03  0.74391994772E+02  0.20141295857E+03  0.12500000000E+03 0.  0.
</event>
<event>
 5    0  0.5670250E-005  0.3004958E+03  0.7546771E-02  0.1084993E+00
         21   -1    0    0  502  501  0.00000000000E+00  0.00000000000E+00  0.88987148283E+03  0.88987148283E+03  0.00000000000E+00 0.  1.
         21   -1    0    0  501  502 -0.00000000000E+00 -0.00000000000E+00 -0.10147280236E+03  0.10147280236E+03  0.00000000000E+00 0.  1.
         25    1    1    2    0    0  0.16188156726E+03  0.56213112380E+02  0.26182382048E+03  0.33696033712E+03  0.12500000000E+03 0.  0.
         25    1    1    2    0    0 -0.16329375964E+03  0.53824780004E+02  0.36474476002E+03  0.42216785624E+03  0.12500000000E+03 0.  0.
         25    1    1    2    0    0  0.14121923818E+01 -0.11003789238E+03  0.16183009997E+03  0.23221609183E+03  0.12500000000E+03 0.  0.
</event>
<event>
 5    0  0.5670250E-005  0.4774206E+03  0.7546771E-02  0.1019846E+00
         21   -1    0    0  502  501  0.00000000000E+00  0.00000000000E+00  0.14239602756E+03  0.14239602756E+03  0.00000000000E+00 0. -1.
         21   -1    0    0  501  502 -0.00000000000E+00 -0.00000000000E+00 -0.16006795502E+04  0.16006795502E+04  0.00000000000E+00 0. -1.
         25    1    1    2    0    0 -0.23270338333E+03  0.91309518604E+02 -0.20609777888E+03  0.34726011470E+03  0.12500000000E+03 0.  0.
         25    1    1    2    0    0  0.13077344026E+03 -0.57421743279E+02 -0.12112032423E+04  0.12259841938E+04  0.12500000000E+03 0.  0.
         25    1    1    2    0    0  0.10192994307E+03 -0.33887775325E+02 -0.40982501536E+02  0.16983126933E+03  0.12500000000E+03 0.  0.
</event>
<event>
 5    0  0.5670250E-005  0.2362147E+03  0.7546771E-02  0.1122341E+00
         21   -1    0    0  502  501  0.00000000000E+00  0.00000000000E+00  0.21982854219E+03  0.21982854219E+03  0.00000000000E+00 0.  1.
         21   -1    0    0  501  502 -0.00000000000E+00 -0.00000000000E+00 -0.25382218613E+03  0.25382218613E+03  0.00000000000E+00 0.  1.
         25    1    1    2    0    0  0.23338161515E+02 -0.25784921344E+02 -0.87366150368E+02  0.15642051075E+03  0.12500000000E+03 0.  0.
         25    1    1    2    0    0  0.54030721093E+02  0.46678682767E+02  0.82494527910E+02  0.16591734503E+03  0.12500000000E+03 0.  0.
         25    1    1    2    0    0 -0.77368882608E+02 -0.20893761423E+02 -0.29122021485E+02  0.15131287254E+03  0.12500000000E+03 0.  0.
</event>
<event>
 5    0  0.5670250E-005  0.3205428E+03  0.7546771E-02  0.1075400E+00
         21   -1    0    0  502  501  0.00000000000E+00  0.00000000000E+00  0.63784187253E+03  0.63784187253E+03  0.00000000000E+00 0. -1.
         21   -1    0    0  501  502 -0.00000000000E+00 -0.00000000000E+00 -0.16108641582E+03  0.16108641582E+03  0.00000000000E+00 0. -1.
         25    1    1    2    0    0  0.18264307969E+03  0.11598536789E+03  0.20202237838E+03  0.32132404437E+03  0.12500000000E+03 0.  0.
         25    1    1    2    0    0 -0.34414285903E+02 -0.76921808920E+02  0.22969402888E+03  0.27474652803E+03  0.12500000000E+03 0.  0.
         25    1    1    2    0    0 -0.14822879379E+03 -0.39063558965E+02  0.45039049451E+02  0.20285771595E+03  0.12500000000E+03 0.  0.
</event>
<event>
 5    0  0.5670250E-005  0.2510654E+03  0.7546771E-02  0.1112633E+00
         21   -1    0    0  502  501  0.00000000000E+00  0.00000000000E+00  0.27620491586E+03  0.27620491586E+03  0.00000000000E+00 0. -1.
         21   -1    0    0  501  502 -0.00000000000E+00 -0.00000000000E+00 -0.22821410115E+03  0.22821410115E+03  0.00000000000E+00 0. -1.
         25    1    1    2    0    0  0.44931794227E+01 -0.43547454874E+02  0.77713781724E+02  0.15356106719E+03  0.12500000000E+03 0.  0.
         25    1    1    2    0    0 -0.46538099741E+02 -0.21023062722E+02 -0.11817205908E+03  0.17943633813E+03  0.12500000000E+03 0.  0.
         25    1    1    2    0    0  0.42044920319E+02  0.64570517596E+02  0.88449092066E+02  0.17142161169E+03  0.12500000000E+03 0.  0.
</event>
<event>
 5    0  0.5670250E-005  0.2562754E+03  0.7546771E-02  0.1109402E+00
         21   -1    0    0  502  501  0.00000000000E+00  0.00000000000E+00  0.77037322992E+02  0.77037322992E+02  0.00000000000E+00 0.  1.
         21   -1    0    0  501  502 -0.00000000000E+00 -0.00000000000E+00 -0.85253598083E+03  0.85253598083E+03  0.00000000000E+00 0.  1.
         25    1    1    2    0    0 -0.11797859072E+03  0.46292553596E+02 -0.13942960486E+03  0.22611404887E+03  0.12500000000E+03 0.  0.
         25    1    1    2    0    0  0.11221457878E+03 -0.21895988733E+02 -0.30840086124E+03  0.35186309444E+03  0.12500000000E+03 0.  0.
         25    1    1    2    0    0  0.57640119400E+01 -0.24396564863E+02 -0.32766819174E+03  0.35159616052E+03  0.12500000000E+03 0.  0.
</event>
<event>
 5    0  0.5670250E-005  0.2667068E+03  0.7546771E-02  0.1103179E+00
         21   -1    0    0  502  501  0.00000000000E+00  0.00000000000E+00  0.16511029886E+04  0.16511029886E+04  0.00000000000E+00 0. -1.
         21   -1    0    0  501  502 -0.00000000000E+00 -0.00000000000E+00 -0.43081824150E+02  0.43081824150E+02  0.00000000000E+00 0. -1.
         25    1    1    2    0    0  0.98947430436E+01  0.56639137241E+02  0.67696232471E+03  0.69080307388E+03  0.12500000000E+03 0.  0.
         25    1    1    2    0    0 -0.58223211404E+02 -0.14163904996E+02  0.12987093728E+03  0.18995267543E+03  0.12500000000E+03 0.  0.
         25    1    1    2    0    0  0.48328468360E+02 -0.42475232245E+02  0.80118790242E+03  0.81342906340E+03  0.12500000000E+03 0.  0.
</event>
<event>
 5    0  0.5670250E-005  0.2566697E+03  0.7546771E-02  0.1109161E+00
         21   -1    0    0  502  501  0.00000000000E+00  0.00000000000E+00  0.40993896284E+02  0.40993896284E+02  0.00000000000E+00 0.  1.
         21   -1    0    0  501  502 -0.00000000000E+00 -0.00000000000E+00 -0.16070522647E+04  0.16070522647E+04  0.00000000000E+00 0.  1.
         25    1    1    2    0    0 -0.42931375098E+02 -0.88003958689E+02 -0.70081805945E+03  0.71858106861E+03  0.12500000000E+03 0.  0.
         25    1    1    2    0    0 -0.53077750797E+02  0.95812316659E+01 -0.56723686131E+03  0.58334527037E+03  0.12500000000E+03 0.  0.
         25    1    1    2    0    0  0.96009125895E+02  0.78422727023E+02 -0.29800344762E+03  0.34611982197E+03  0.12500000000E+03 0.  0.
</event>
<event>
 5    0  0.5670250E-005  0.2588819E+03  0.7546771E-02  0.1107817E+00
         21   -1    0    0  502  501  0.00000000000E+00  0.00000000000E+00  0.10082745388E+04  0.10082745388E+04  0.00000000000E+00 0.  1.
         21   -1    0    0  501  502 -0.00000000000E+00 -0.00000000000E+00 -0.66469833872E+02  0.66469833872E+02  0.00000000000E+00 0.  1.
         25    1    1    2    0    0 -0.32641914150E+02  0.40673954212E+02  0.21951607501E+03  0.25793831103E+03  0.12500000000E+03 0.  0.
         25    1    1    2    0    0  0.14762646742E+03  0.16265230699E+02  0.29110760133E+03  0.34989536602E+03  0.12500000000E+03 0.  0.
         25    1    1    2    0    0 -0.11498455327E+03 -0.56939184910E+02  0.43118102860E+03  0.46691069563E+03  0.12500000000E+03 0.  0.
</event>
<event>
 5    0  0.5670250E-005  0.2817490E+03  0.7546771E-02  0.1094737E+00
         21   -1    0    0  502  501  0.00000000000E+00  0.00000000000E+00  0.21799622185E+04  0.21799622185E+04  0.00000000000E+00 0.  1.
         21   -1    0    0  501  502 -0.00000000000E+00 -0.00000000000E+00 -0.36414621369E+02  0.36414621369E+02  0.00000000000E+00 0.  1.
         25    1    1    2    0    0 -0.57738032184E+02 -0.12239650837E+03  0.41173193826E+03  0.45106848106E+03  0.12500000000E+03 0.  0.
         25    1    1    2    0    0  0.60249046348E+02  0.15185758464E+03  0.87099183482E+03  0.89495388144E+03  0.12500000000E+03 0.  0.
         25    1    1    2    0    0 -0.25110141644E+01 -0.29461076267E+02  0.86082382404E+03  0.87035447735E+03  0.12500000000E+03 0.  0.
</event>
<event>
 5    0  0.5670250E-005  0.2480607E+03  0.7546771E-02  0.1114537E+00
         21   -1    0    0  502  501  0.00000000000E+00  0.00000000000E+00  0.11372002006E+04  0.11372002006E+04  0.00000000000E+00 0. -1.
         21   -1    0    0  501  502 -0.00000000000E+00 -0.00000000000E+00 -0.54110182490E+02  0.54110182490E+02  0.00000000000E+00 0. -1.
         25    1    1    2    0    0 -0.11567768527E+01  0.92663936360E+02  0.65520030014E+03  0.67342436586E+03  0.12500000000E+03 0.  0.
         25    1    1    2    0    0  0.28143017655E+02  0.80143248417E+01  0.20543694096E+03  0.24225110022E+03  0.12500000000E+03 0.  0.
         25    1    1    2    0    0 -0.26986240802E+02 -0.10067826120E+03  0.22245277697E+03  0.27563491697E+03  0.12500000000E+03 0.  0.
</event>
<event>
 5    0  0.5670250E-005  0.4620087E+03  0.7546771E-02  0.1024200E+00
         21   -1    0    0  502  501  0.00000000000E+00  0.00000000000E+00  0.26899434451E+03  0.26899434451E+03  0.00000000000E+00 0.  1.
         21   -1    0    0  501  502 -0.00000000000E+00 -0.00000000000E+00 -0.79351857468E+03  0.79351857468E+03  0.00000000000E+00 0.  1.
         25    1    1    2    0    0 -0.12134189149E+03 -0.13363855679E+03 -0.32838210191E+03  0.39502268713E+03  0.12500000000E+03 0.  0.
         25    1    1    2    0    0 -0.17264959615E+03  0.21569215480E+03 -0.13546237534E+03  0.33212353699E+03  0.12500000000E+03 0.  0.
         25    1    1    2    0    0  0.29399148764E+03 -0.82053598011E+02 -0.60679752926E+02  0.33536669507E+03  0.12500000000E+03 0.  0.
</event>
<event>
 5    0  0.5670250E-005  0.2775637E+03  0.7546771E-02  0.1097027E+00
         21   -1    0    0  502  501  0.00000000000E+00  0.00000000000E+00  0.85761743012E+03  0.85761743012E+03  0.00000000000E+00 0. -1.
         21   -1    0    0  501  502 -0.00000000000E+00 -0.00000000000E+00 -0.89832126392E+02  0.89832126392E+02  0.00000000000E+00 0. -1.
         25    1    1    2    0    0  0.12755724226E+03 -0.59913604176E+00  0.33589466669E+03  0.38042270717E+03  0.12500000000E+03 0.  0.
         25    1    1    2    0    0 -0.18389741887E+03 -0.35388031428E+02  0.25051820804E+03  0.33683073790E+03  0.12500000000E+03 0.  0.
         25    1    1    2    0    0  0.56340176611E+02  0.35987167469E+02  0.18137242900E+03  0.23019611145E+03  0.12500000000E+03 0.  0.
</event>
<event>
 5    0  0.5670250E-005  0.3660280E+03  0.7546771E-02  0.1056222E+00
         21   -1    0    0  502  501  0.00000000000E+00  0.00000000000E+00  0.77386567818E+03  0.77386567818E+03  0.00000000000E+00 0.  1.
         21   -1    0    0  501  502 -0.00000000000E+00 -0.00000000000E+00 -0.17312626063E+03  0.17312626063E+03  0.00000000000E+00 0.  1.
         25    1    1    2    0    0  0.15251005919E+03  0.14796584029E+03  0.68595007300E+01  0.24662777783E+03  0.12500000000E+03 0.  0.
         25    1    1    2    0    0 -0.37513028478E+02  0.64522218266E+01  0.13857260008E+03  0.19046318270E+03  0.12500000000E+03 0.  0.
         25    1    1    2    0    0 -0.11499703071E+03 -0.15441806212E+03  0.45530731674E+03  0.50990097829E+03  0.12500000000E+03 0.  0.
</event>
<event>
 5    0  0.5670250E-005  0.4601096E+03  0.7546771E-02  0.1024749E+00
         21   -1    0    0  502  501  0.00000000000E+00  0.00000000000E+00  0.17946860266E+04  0.17946860266E+04  0.00000000000E+00 0. -1.
         21   -1    0    0  501  502 -0.00000000000E+00 -0.00000000000E+00 -0.11795982089E+03  0.11795982089E+03  0.00000000000E+00 0. -1.
         25    1    1    2    0    0 -0.65518159536E+02 -0.79305722572E+01  0.29668368834E+03  0.32863617289E+03  0.12500000000E+03 0.  0.
         25    1    1    2    0    0  0.34519842723E+03  0.16792046866E+03  0.52886115790E+03  0.66534078658E+03  0.12500000000E+03 0.  0.
         25    1    1    2    0    0 -0.27968026770E+03 -0.15998989640E+03  0.85118135951E+03  0.91866888805E+03  0.12500000000E+03 0.  0.
</event>
<event>
 5    0  0.5670250E-005  0.2590836E+03  0.7546771E-02  0.1107695E+00
         21   -1    0    0  502  501  0.00000000000E+00  0.00000000000E+00  0.32882300507E+03  0.32882300507E+03  0.00000000000E+00 0.  1.
         21   -1    0    0  501  502 -0.00000000000E+00 -0.00000000000E+00 -0.20413514975E+03  0.20413514975E+03  0.00000000000E+00 0.  1.
         25    1    1    2    0    0  0.14209199409E+03  0.17027669770E+02  0.52153328940E+02  0.19704072178E+03  0.12500000000E+03 0.  0.
         25    1    1    2    0    0 -0.12096496432E+03 -0.72801475264E+02  0.54253780042E+02  0.19621684444E+03  0.12500000000E+03 0.  0.
         25    1    1    2    0    0 -0.21127029763E+02  0.55773805494E+02  0.18280746345E+02  0.13970058859E+03  0.12500000000E+03 0.  0.
</event>
<event>
 5    0  0.5670250E-005  0.2930406E+03  0.7546771E-02  0.1088772E+00
         21   -1    0    0  502  501  0.00000000000E+00  0.00000000000E+00  0.16831105431E+04  0.16831105431E+04  0.00000000000E+00 0.  1.
         21   -1    0    0  501  502 -0.00000000000E+00 -0.00000000000E+00 -0.51020283239E+02  0.51020283239E+02  0.00000000000E+00 0.  1.
         25    1    1    2    0    0  0.15672114540E+03 -0.46993729102E+02  0.83691532242E+03  0.86187132734E+03  0.12500000000E+03 0.  0.
         25    1    1    2    0    0 -0.16834619307E+03  0.66822735533E+02  0.60257593035E+03  0.64150484842E+03  0.12500000000E+03 0.  0.
         25    1    1    2    0    0  0.11625047675E+02 -0.19829006432E+02  0.19259900705E+03  0.23075465054E+03  0.12500000000E+03 0.  0.
</event>
<event>
 5    0  0.5670250E-005  0.2619570E+03  0.7546771E-02  0.1105973E+00
         21   -1    0    0  502  501  0.00000000000E+00  0.00000000000E+00  0.13548399849E+03  0.13548399849E+03  0.00000000000E+00 0.  1.
         21   -1    0    0  501  502 -0.00000000000E+00 -0.00000000000E+00 -0.50649137114E+03  0.50649137114E+03  0.00000000000E+00 0.  1.
         25    1    1    2    0    0 -0.70579383837E+02 -0.55048434287E+02 -0.33628468391E+01  0.15377934933E+03  0.12500000000E+03 0.  0.
         25    1    1    2    0    0  0.63508094924E+02  0.99550736234E+02 -0.12867340234E+03  0.21476841405E+03  0.12500000000E+03 0.  0.
         25    1    1    2    0    0  0.70712889133E+01 -0.44502301947E+02 -0.23897112348E+03  0.27342760626E+03  0.12500000000E+03 0.  0.
</event>
<event>
 5    0  0.5670250E-005  0.3535340E+03  0.7546771E-02  0.1061174E+00
         21   -1    0    0  502  501  0.00000000000E+00  0.00000000000E+00  0.22551186474E+04  0.22551186474E+04  0.00000000000E+00 0.  1.
         21   -1    0    0  501  502 -0.00000000000E+00 -0.00000000000E+00 -0.55423365882E+02  0.55423365882E+02  0.00000000000E+00 0.  1.
         25    1    1    2    0    0  0.27581388680E+03 -0.65419126255E+02  0.82582298316E+03  0.88202129325E+03  0.12500000000E+03 0.  0.
         25    1    1    2    0    0 -0.16148208387E+03  0.29661408694E+02  0.56965011678E+03  0.60587335155E+03  0.12500000000E+03 0.  0.
         25    1    1    2    0    0 -0.11433180293E+03  0.35757717560E+02  0.80422218160E+03  0.82264736850E+03  0.12500000000E+03 0.  0.
</event>
<event>
 5    0  0.5670250E-005  0.2828086E+03  0.7546771E-02  0.1094165E+00
         21   -1    0    0  502  501  0.00000000000E+00  0.00000000000E+00  0.25305177292E+02  0.25305177292E+02  0.00000000000E+00 0. -1.
         21   -1    0    0  501  502 -0.00000000000E+00 -0.00000000000E+00 -0.31606458724E+04  0.31606458724E+04  0.00000000000E+00 0. -1.
         25    1    1    2    0    0 -0.79661855998E+02  0.14841321509E+03 -0.18918049520E+04  0.19033978749E+04  0.12500000000E+03 0.  0.
         25    1    1    2    0    0  0.56968048268E+02 -0.45619826961E+02 -0.46322009455E+03  0.48530854426E+03  0.12500000000E+03 0.  0.
         25    1    1    2    0    0  0.22693807730E+02 -0.10279338812E+03 -0.78031564853E+03  0.79724463052E+03  0.12500000000E+03 0.  0.
</event>
<event>
 5    0  0.5670250E-005  0.2698525E+03  0.7546771E-02  0.1101364E+00
         21   -1    0    0  502  501  0.00000000000E+00  0.00000000000E+00  0.78676736631E+02  0.78676736631E+02  0.00000000000E+00 0. -1.
         21   -1    0    0  501  502 -0.00000000000E+00 -0.00000000000E+00 -0.92556441322E+03  0.92556441322E+03  0.00000000000E+00 0. -1.
         25    1    1    2    0    0  0.72959216799E+02 -0.63515403539E+01 -0.35288215662E+03  0.38146324310E+03  0.12500000000E+03 0.  0.
         25    1    1    2    0    0  0.87535945458E+02 -0.86426475401E+00 -0.10987134570E+03  0.18804255185E+03  0.12500000000E+03 0.  0.
         25    1    1    2    0    0 -0.16049516226E+03  0.72158051079E+01 -0.38413417428E+03  0.43473535490E+03  0.12500000000E+03 0.  0.
</event>
<event>
 5    0  0.5670250E-005  0.2658527E+03  0.7546771E-02  0.1103677E+00
         21   -1    0    0  502  501  0.00000000000E+00  0.00000000000E+00  0.24821331739E+03  0.24821331739E+03  0.00000000000E+00 0. -1.
         21   -1    0    0  501  502 -0.00000000000E+00 -0.00000000000E+00 -0.28474555010E+03  0.28474555010E+03  0.00000000000E+00 0. -1.
         25    1    1    2    0    0 -0.37916725692E+02  0.11942619679E+03 -0.48890973373E+01  0.17705704685E+03  0.12500000000E+03 0.  0.
         25    1    1    2    0    0 -0.49449315496E+02  0.10891572135E+02 -0.69562086763E+02  0.15174895407E+03  0.12500000000E+03 0.  0.
         25    1    1    2    0    0  0.87366041188E+02 -0.13031776893E+03  0.37918951392E+02  0.20415286656E+03  0.12500000000E+03 0.  0.
</event>
<event>
 5    0  0.5670250E-005  0.2454492E+03  0.7546771E-02  0.1116215E+00
         21   -1    0    0  502  501  0.00000000000E+00  0.00000000000E+00  0.37403554169E+02  0.37403554169E+02  0.00000000000E+00 0. -1.
         21   -1    0    0  501  502 -0.00000000000E+00 -0.00000000000E+00 -0.16106841539E+04  0.16106841539E+04  0.00000000000E+00 0. -1.
         25    1    1    2    0    0 -0.36342625954E+02  0.20373159145E+01 -0.48870696136E+03  0.50575135314E+03  0.12500000000E+03 0.  0.
         25    1    1    2    0    0 -0.45139135350E+02 -0.86137502321E+02 -0.74919807797E+03  0.76575451084E+03  0.12500000000E+03 0.  0.
         25    1    1    2    0    0  0.81481761304E+02  0.84100186407E+02 -0.33537556036E+03  0.37658184404E+03  0.12500000000E+03 0.  0.
</event>
<event>
 5    0  0.5670250E-005  0.2586610E+03  0.7546771E-02  0.1107950E+00
         21   -1    0    0  502  501  0.00000000000E+00  0.00000000000E+00  0.10361244335E+03  0.10361244335E+03  0.00000000000E+00 0.  1.
         21   -1    0    0  501  502 -0.00000000000E+00 -0.00000000000E+00 -0.64572860488E+03  0.64572860488E+03  0.00000000000E+00 0.  1.
         25    1    1    2    0    0 -0.99669344987E+02  0.59423246127E+02 -0.11894462942E+03  0.20793731118E+03  0.12500000000E+03 0.  0.
         25    1    1    2    0    0  0.54835161531E+02 -0.12451802729E+03 -0.28069789546E+03  0.33604753023E+03  0.12500000000E+03 0.  0.
         25    1    1    2    0    0  0.44834183456E+02  0.65094781167E+02 -0.14247363666E+03  0.20535620683E+03  0.12500000000E+03 0.  0.
</event>
<event>
 5    0  0.5670250E-005  0.2482146E+03  0.7546771E-02  0.1114438E+00
         21   -1    0    0  502  501  0.00000000000E+00  0.00000000000E+00  0.11272431451E+03  0.11272431451E+03  0.00000000000E+00 0. -1.
         21   -1    0    0  501  502 -0.00000000000E+00 -0.00000000000E+00 -0.54655894027E+03  0.54655894027E+03  0.00000000000E+00 0. -1.
         25    1    1    2    0    0  0.16934029474E+02  0.37435109627E+02 -0.13021658712E+03  0.18512025375E+03  0.12500000000E+03 0.  0.
         25    1    1    2    0    0  0.87701388632E+02  0.49233878863E+01 -0.25770884999E+03  0.29959076201E+03  0.12500000000E+03 0.  0.
         25    1    1    2    0    0 -0.10463541811E+03 -0.42358497514E+02 -0.45909188654E+02  0.17457223902E+03  0.12500000000E+03 0.  0.
</event>
<event>
 5    0  0.6024578E-005  0.2765301E+03  0.7546771E-02  0.1097599E+00
         21   -1    0    0  502  501  0.00000000000E+00  0.00000000000E+00  0.19293566835E+03  0.19293566835E+03  0.00000000000E+00 0. -1.
         21   -1    0    0  501  502 -0.00000000000E+00 -0.00000000000E+00 -0.39634388261E+03  0.39634388261E+03  0.00000000000E+00 0. -1.
         25    1    1    2    0    0  0.11819829306E+03 -0.11047466294E+03 -0.11287564819E+03  0.23354100194E+03  0.12500000000E+03 0.  0.
         25    1    1    2    0    0 -0.10409535590E+03 -0.87709964710E+01 -0.63026254894E+01  0.16302606107E+03  0.12500000000E+03 0.  0.
         25    1    1    2    0    0 -0.14102937153E+02  0.11924565941E+03 -0.84229940581E+02  0.19271248796E+03  0.12500000000E+03 0.  0.
</event>
<event>
 5    0  0.5670250E-005  0.4884585E+03  0.7546771E-02  0.1016836E+00
         21   -1    0    0  502  501  0.00000000000E+00  0.00000000000E+00  0.17468710352E+03  0.17468710352E+03  0.00000000000E+00 0. -1.
         21   -1    0    0  501  502 -0.00000000000E+00 -0.00000000000E+00 -0.13658232202E+04  0.13658232202E+04  0.00000000000E+00 0. -1.
         25    1    1    2    0    0 -0.37383653534E+02  0.25437981096E+03 -0.15975110205E+03  0.32749357304E+03  0.12500000000E+03 0.  0.
         25    1    1    2    0    0 -0.29698646080E+02  0.65042742972E+02 -0.23065426031E+02  0.14584094717E+03  0.12500000000E+03 0.  0.
         25    1    1    2    0    0  0.67082299614E+02 -0.31942255393E+03 -0.10083195886E+04  0.10671758035E+04  0.12500000000E+03 0.  0.
</event>
<event>
 5    0  0.6031575E-005  0.2479815E+03  0.7546771E-02  0.1114587E+00
         21   -1    0    0  502  501  0.00000000000E+00  0.00000000000E+00  0.44550318809E+03  0.44550318809E+03  0.00000000000E+00 0.  1.
         21   -1    0    0  501  502 -0.00000000000E+00 -0.00000000000E+00 -0.13803453799E+03  0.13803453799E+03  0.00000000000E+00 0.  1.
         25    1    1    2    0    0 -0.77452192093E+01 -0.13934549612E+02  0.12802296317E+03  0.17963585163E+03  0.12500000000E+03 0.  0.
         25    1    1    2    0    0  0.82645571836E+02  0.75719282344E+02  0.44631753408E+01  0.16795422054E+03  0.12500000000E+03 0.  0.
         25    1    1    2    0    0 -0.74900352627E+02 -0.61784732732E+02  0.17498251159E+03  0.23594765391E+03  0.12500000000E+03 0.  0.
</event>
<event>
 5    0  0.5670250E-005  0.2292587E+03  0.7546771E-02  0.1127163E+00
         21   -1    0    0  502  501  0.00000000000E+00  0.00000000000E+00  0.29828888360E+03  0.29828888360E+03  0.00000000000E+00 0.  1.
         21   -1    0    0  501  502 -0.00000000000E+00 -0.00000000000E+00 -0.17620351472E+03  0.17620351472E+03  0.00000000000E+00 0.  1.
         25    1    1    2    0    0 -0.16566060876E+02 -0.80605183638E+02  0.95938810743E+02  0.17776637874E+03  0.12500000000E+03 0.  0.
         25    1    1    2    0    0 -0.47459545182E+02  0.59441826352E+02  0.45844729565E+02  0.15333779175E+03  0.12500000000E+03 0.  0.
         25    1    1    2    0    0  0.64025606059E+02  0.21163357287E+02 -0.19698171430E+02  0.14338822783E+03  0.12500000000E+03 0.  0.
</event>
<event>
 5    0  0.5670250E-005  0.2388022E+03  0.7546771E-02  0.1120593E+00
         21   -1    0    0  502  501  0.00000000000E+00  0.00000000000E+00  0.76905297339E+02  0.76905297339E+02  0.00000000000E+00 0. -1.
         21   -1    0    0  501  502 -0.00000000000E+00 -0.00000000000E+00 -0.74151568042E+03  0.74151568042E+03  0.00000000000E+00 0. -1.
         25    1    1    2    0    0  0.95300282396E+02  0.30156232351E+02 -0.14688247967E+03  0.21723490744E+03  0.12500000000E+03 0.  0.
         25    1    1    2    0    0 -0.10847219871E+03  0.36176153209E+00 -0.20998818972E+03  0.26736938603E+03  0.12500000000E+03 0.  0.
         25    1    1    2    0    0  0.13171916314E+02 -0.30517993883E+02 -0.30773971369E+03  0.33381668430E+03  0.12500000000E+03 0.  0.
</event>
<event>
 5    0  0.5670250E-005  0.2418837E+03  0.7546771E-02  0.1118544E+00
         21   -1    0    0  502  501  0.00000000000E+00  0.00000000000E+00  0.65455287781E+03  0.65455287781E+03  0.00000000000E+00 0.  1.
         21   -1    0    0  501  502 -0.00000000000E+00 -0.00000000000E+00 -0.89385820504E+02  0.89385820504E+02  0.00000000000E+00 0.  1.
         25    1    1    2    0    0 -0.93197599250E+02  0.43342769698E+02  0.31213733402E+03  0.35159508455E+03  0.12500000000E+03 0.  0.
         25    1    1    2    0    0  0.70090612211E+02 -0.98640103445E+01  0.20921145058E+03  0.25378026652E+03  0.12500000000E+03 0.  0.
         25    1    1    2    0    0  0.23106987039E+02 -0.33478759354E+02  0.43818272713E+02  0.13856334725E+03  0.12500000000E+03 0.  0.
</event>
<event>
 5    0  0.5670250E-005  0.3127169E+03  0.7546771E-02  0.1079051E+00
         21   -1    0    0  502  501  0.00000000000E+00  0.00000000000E+00  0.30560830856E+03  0.30560830856E+03  0.00000000000E+00 0. -1.
         21   -1    0    0  501  502 -0.00000000000E+00 -0.00000000000E+00 -0.31999082149E+03  0.31999082149E+03  0.00000000000E+00 0. -1.
         25    1    1    2    0    0  0.47150086214E+01 -0.15952782026E+02 -0.73482136060E+02  0.14594980946E+03  0.12500000000E+03 0.  0.
         25    1    1    2    0    0 -0.67553014128E+02 -0.12383738525E+03 -0.11104522847E+03  0.21875820092E+03  0.12500000000E+03 0.  0.
         25    1    1    2    0    0  0.62838005507E+02  0.13979016728E+03  0.17014485160E+03  0.26089111968E+03  0.12500000000E+03 0.  0.
</event>
<event>
 5    0  0.5670250E-005  0.2792050E+03  0.7546771E-02  0.1096124E+00
         21   -1    0    0  502  501  0.00000000000E+00  0.00000000000E+00  0.13961602794E+04  0.13961602794E+04  0.00000000000E+00 0. -1.
         21   -1    0    0  501  502 -0.00000000000E+00 -0.00000000000E+00 -0.55835604544E+02  0.55835604544E+02  0.00000000000E+00 0.  1.
         25    1    1    2    0    0  0.12304052343E+03 -0.60854834511E+02  0.58844484134E+03  0.61703696209E+03  0.12500000000E+03 0.  0.
         25    1    1    2    0    0 -0.17317217354E+03  0.60510260211E+02  0.38880615039E+03  0.44771119694E+03  0.12500000000E+03 0.  0.
         25    1    1    2    0    0  0.50131650112E+02  0.34457430010E+00  0.36307368315E+03  0.38724772494E+03  0.12500000000E+03 0.  0.
</event>
<event>
 5    0  0.5670250E-005  0.2652770E+03  0.7546771E-02  0.1104014E+00
         21   -1    0    0  502  501  0.00000000000E+00  0.00000000000E+00  0.26487632401E+03  0.26487632401E+03  0.00000000000E+00 0. -1.
         21   -1    0    0  501  502 -0.00000000000E+00 -0.00000000000E+00 -0.26567820219E+03  0.26567820219E+03  0.00000000000E+00 0. -1.
         25    1    1    2    0    0  0.11245249665E+03 -0.61744970581E+02  0.11439576678E+03  0.21253093152E+03  0.12500000000E+03 0.  0.
         25    1    1    2    0    0 -0.13475098475E+02  0.41201129912E+02 -0.28355469261E+02  0.13530759041E+03  0.12500000000E+03 0.  0.
         25    1    1    2    0    0 -0.98977398170E+02  0.20543840669E+02 -0.86842175695E+02  0.18271600427E+03  0.12500000000E+03 0.  0.
</event>
<event>
 5    0  0.5670250E-005  0.2589330E+03  0.7546771E-02  0.1107786E+00
         21   -1    0    0  502  501  0.00000000000E+00  0.00000000000E+00  0.97505466224E+03  0.97505466224E+03  0.00000000000E+00 0.  1.
         21   -1    0    0  501  502 -0.00000000000E+00 -0.00000000000E+00 -0.68761597409E+02  0.68761597409E+02  0.00000000000E+00 0.  1.
         25    1    1    2    0    0  0.64080367561E+02  0.10464612554E+03  0.31047279218E+03  0.35647645053E+03  0.12500000000E+03 0.  0.
         25    1    1    2    0    0  0.51902441876E+02 -0.77393748896E+02  0.18651117222E+03  0.24309478235E+03  0.12500000000E+03 0.  0.
         25    1    1    2    0    0 -0.11598280944E+03 -0.27252376648E+02  0.40930910043E+03  0.44424502678E+03  0.12500000000E+03 0.  0.
</event>
<event>
 5    0  0.5670250E-005  0.4315145E+03  0.7546771E-02  0.1033383E+00
         21   -1    0    0  502  501  0.00000000000E+00  0.00000000000E+00  0.22144563094E+04  0.22144563094E+04  0.00000000000E+00 0.  1.
         21   -1    0    0  501  502 -0.00000000000E+00 -0.00000000000E+00 -0.84085996742E+02  0.84085996742E+02  0.00000000000E+00 0.  1.
         25    1    1    2    0    0  0.45249612277E+02  0.11044371163E+03  0.25630460817E+03  0.30913167586E+03  0.12500000000E+03 0.  0.
         25    1    1    2    0    0  0.94082512803E+02 -0.29321190563E+03  0.57387476753E+03  0.66316060620E+03  0.12500000000E+03 0.  0.
         25    1    1    2    0    0 -0.13933212508E+03  0.18276819400E+03  0.13001909370E+04  0.13262500241E+04  0.12500000000E+03 0.  0.
</event>
<event>
 5    0  0.5670250E-005  0.2292683E+03  0.7546771E-02  0.1127156E+00
         21   -1    0    0  502  501  0.00000000000E+00  0.00000000000E+00  0.10707207743E+03  0.10707207743E+03  0.00000000000E+00 0. -1.
         21   -1    0    0  501  502 -0.00000000000E+00 -0.00000000000E+00 -0.49092138507E+03  0.49092138507E+03  0.00000000000E+00 0. -1.
         25    1    1    2    0    0 -0.25605007373E+02 -0.15226374014E+02 -0.90007195707E+02  0.15688771191E+03  0.12500000000E+03 0.  0.
         25    1    1    2    0    0 -0.55554235090E+02 -0.12234032575E+02 -0.35915816884E+02  0.14195383226E+03  0.12500000000E+03 0.  0.
         25    1    1    2    0    0  0.81159242463E+02  0.27460406589E+02 -0.25792629505E+03  0.29915191834E+03  0.12500000000E+03 0.  0.
</event>
<event>
 5    0  0.5670250E-005  0.2575703E+03  0.7546771E-02  0.1108612E+00
         21   -1    0    0  502  501  0.00000000000E+00  0.00000000000E+00  0.17911694228E+04  0.17911694228E+04  0.00000000000E+00 0.  1.
         21   -1    0    0  501  502 -0.00000000000E+00 -0.00000000000E+00 -0.37038615879E+02  0.37038615879E+02  0.00000000000E+00 0.  1.
         25    1    1    2    0    0 -0.64284606559E+01  0.59908381937E+02  0.81669799056E+03  0.82840264794E+03  0.12500000000E+03 0.  0.
         25    1    1    2    0    0 -0.74093816288E+02  0.55014157930E+01  0.21652148227E+03  0.26081930809E+03  0.12500000000E+03 0.  0.
         25    1    1    2    0    0  0.80522276944E+02 -0.65409797730E+02  0.72091133406E+03  0.73898608261E+03  0.12500000000E+03 0.  0.
</event>
<event>
 5    0  0.6238199E-005  0.3253287E+03  0.7546771E-02  0.1073223E+00
         21   -1    0    0  502  501  0.00000000000E+00  0.00000000000E+00  0.76721218394E+03  0.76721218394E+03  0.00000000000E+00 0.  1.
         21   -1    0    0  501  502 -0.00000000000E+00 -0.00000000000E+00 -0.13795239562E+03  0.13795239562E+03  0.00000000000E+00 0.  1.
         25    1    1    2    0    0  0.50383693666E+02 -0.23501444878E+02  0.23257118342E+03  0.26982436854E+03  0.12500000000E+03 0.  0.
         25    1    1    2    0    0  0.13697725151E+03  0.11540194964E+03  0.30550944722E+03  0.37555478929E+03  0.12500000000E+03 0.  0.
         25    1    1    2    0    0 -0.18736094518E+03 -0.91900504763E+02  0.91179157671E+02  0.25978542174E+03  0.12500000000E+03 0.  0.
</event>
<event>
 5    0  0.5670250E-005  0.2305836E+03  0.7546771E-02  0.1126230E+00
         21   -1    0    0  502  501  0.00000000000E+00  0.00000000000E+00  0.39238769729E+02  0.39238769729E+02  0.00000000000E+00 0. -1.
         21   -1    0    0  501  502 -0.00000000000E+00 -0.00000000000E+00 -0.13550067053E+04  0.13550067053E+04  0.00000000000E+00 0. -1.
         25    1    1    2    0    0 -0.66195858638E+02 -0.10300796218E+02 -0.25832946291E+03  0.29469833646E+03  0.12500000000E+03 0.  0.
         25    1    1    2    0    0 -0.99624741616E+01 -0.56029884476E+02 -0.40693439305E+03  0.42948713496E+03  0.12500000000E+03 0.  0.
         25    1    1    2    0    0  0.76158332799E+02  0.66330680694E+02 -0.65050407965E+03  0.67006000365E+03  0.12500000000E+03 0.  0.
</event>
<event>
 5    0  0.5670250E-005  0.3334951E+03  0.7546771E-02  0.1069601E+00
         21   -1    0    0  502  501  0.00000000000E+00  0.00000000000E+00  0.26974055415E+03  0.26974055415E+03  0.00000000000E+00 0.  1.
         21   -1    0    0  501  502 -0.00000000000E+00 -0.00000000000E+00 -0.41231830863E+03  0.41231830863E+03  0.00000000000E+00 0.  1.
         25    1    1    2    0    0  0.99828696802E+02 -0.41488289555E+02  0.38094315625E+02  0.16959723983E+03  0.12500000000E+03 0.  0.
         25    1    1    2    0    0  0.12333532607E+03  0.11086906792E+03 -0.12253745949E+03  0.24113063235E+03  0.12500000000E+03 0.  0.
         25    1    1    2    0    0 -0.22316402287E+03 -0.69380778364E+02 -0.58134610613E+02  0.27133099061E+03  0.12500000000E+03 0.  0.
</event>
<event>
 5    0  0.5670250E-005  0.2943883E+03  0.7546771E-02  0.1088080E+00
         21   -1    0    0  502  501  0.00000000000E+00  0.00000000000E+00  0.78795829784E+02  0.78795829784E+02  0.00000000000E+00 0.  1.
         21   -1    0    0  501  502 -0.00000000000E+00 -0.00000000000E+00 -0.10998614476E+04  0.10998614476E+04  0.00000000000E+00 0.  1.
         25    1    1    2    0    0 -0.41035860513E+02 -0.69123894336E+02 -0.13475456749E+03  0.20061367868E+03  0.12500000000E+03 0.  0.
         25    1    1    2    0    0  0.26242472938E+02  0.16165725193E+03 -0.72408276792E+03  0.75282307967E+03  0.12500000000E+03 0.  0.
         25    1    1    2    0    0  0.14793387575E+02 -0.92533357597E+02 -0.16222828245E+03  0.22522051907E+03  0.12500000000E+03 0.  0.
</event>
<event>
 5    0  0.5670250E-005  0.3262738E+03  0.7546771E-02  0.1072798E+00
         21   -1    0    0  502  501  0.00000000000E+00  0.00000000000E+00  0.22228473037E+03  0.22228473037E+03  0.00000000000E+00 0.  1.
         21   -1    0    0  501  502 -0.00000000000E+00 -0.00000000000E+00 -0.47891106935E+03  0.47891106935E+03  0.00000000000E+00 0.  1.
         25    1    1    2    0    0 -0.21314065597E+03 -0.55617826991E+02 -0.21376277410E+03  0.33142390605E+03  0.12500000000E+03 0.  0.
         25    1    1    2    0    0  0.13236296441E+03  0.10361431249E+03 -0.40616547597E+02  0.21337896812E+03  0.12500000000E+03 0.  0.
         25    1    1    2    0    0  0.80777691566E+02 -0.47996485497E+02 -0.22470172921E+01  0.15639292555E+03  0.12500000000E+03 0.  0.
</event>
<event>
 5    0  0.6196477E-005  0.3110749E+03  0.7546771E-02  0.1079832E+00
         21   -1    0    0  502  501  0.00000000000E+00  0.00000000000E+00  0.36930421346E+03  0.36930421346E+03  0.00000000000E+00 0.  1.
         21   -1    0    0  501  502 -0.00000000000E+00 -0.00000000000E+00 -0.26202678083E+03  0.26202678083E+03  0.00000000000E+00 0.  1.
         25    1    1    2    0    0  0.40665365888E+02 -0.19437127846E+01 -0.95805158715E+02  0.16266861541E+03  0.12500000000E+03 0.  0.
         25    1    1    2    0    0  0.88555140380E+02  0.59057165043E+02  0.22524068187E+03  0.27872589833E+03  0.12500000000E+03 0.  0.
         25    1    1    2    0    0 -0.12922050627E+03 -0.57113452259E+02 -0.22158090527E+02  0.18993648055E+03  0.12500000000E+03 0.  0.
</event>
<event>
 5    0  0.5670250E-005  0.2341726E+03  0.7546771E-02  0.1123737E+00
         21   -1    0    0  502  501  0.00000000000E+00  0.00000000000E+00  0.12108600088E+03  0.12108600088E+03  0.00000000000E+00 0.  1.
         21   -1    0    0  501  502 -0.00000000000E+00 -0.00000000000E+00 -0.45287478441E+03  0.45287478441E+03  0.00000000000E+00 0.  1.
         25    1    1    2    0    0  0.34211184788E+02  0.50324485485E+02 -0.18951734555E+03  0.23504208829E+03  0.12500000000E+03 0.  0.
         25    1    1    2    0    0 -0.75829639161E+02 -0.87886840951E+02 -0.81250990440E+02  0.18894696196E+03  0.12500000000E+03 0.  0.
         25    1    1    2    0    0  0.41618454372E+02  0.37562355466E+02 -0.61020447539E+02  0.14997173504E+03  0.12500000000E+03 0.  0.
</event>
<event>
 5    0  0.6618509E-005  0.3261541E+03  0.7546771E-02  0.1072851E+00
         21   -1    0    0  502  501  0.00000000000E+00  0.00000000000E+00  0.16659633040E+03  0.16659633040E+03  0.00000000000E+00 0. -1.
         21   -1    0    0  501  502 -0.00000000000E+00 -0.00000000000E+00 -0.63852826485E+03  0.63852826485E+03  0.00000000000E+00 0. -1.
         25    1    1    2    0    0 -0.87996406675E+02  0.10064579181E+03 -0.20082772999E+03  0.27171624929E+03  0.12500000000E+03 0.  0.
         25    1    1    2    0    0  0.44409856840E+02 -0.17178475596E+03 -0.30976083930E+03  0.37823143091E+03  0.12500000000E+03 0.  0.
         25    1    1    2    0    0  0.43586549835E+02  0.71138964149E+02  0.38656634842E+02  0.15517691505E+03  0.12500000000E+03 0.  0.
</event>
<event>
 5    0  0.6047582E-005  0.3062233E+03  0.7546771E-02  0.1082170E+00
         21   -1    0    0  502  501  0.00000000000E+00  0.00000000000E+00  0.38548220059E+03  0.38548220059E+03  0.00000000000E+00 0.  1.
         21   -1    0    0  501  502 -0.00000000000E+00 -0.00000000000E+00 -0.24326079203E+03  0.24326079203E+03  0.00000000000E+00 0.  1.
         25    1    1    2    0    0 -0.56209860463E+02  0.10293152257E+03  0.24092485491E+03  0.29567589091E+03  0.12500000000E+03 0.  0.
         25    1    1    2    0    0  0.30001057331E+02 -0.12110614243E+03 -0.10762534557E+02  0.17693951884E+03  0.12500000000E+03 0.  0.
         25    1    1    2    0    0  0.26208803131E+02  0.18174619858E+02 -0.87940911790E+02  0.15612758288E+03  0.12500000000E+03 0.  0.
</event>
<event>
 5    0  0.5670250E-005  0.3344157E+03  0.7546771E-02  0.1069200E+00
         21   -1    0    0  502  501  0.00000000000E+00  0.00000000000E+00  0.78797304657E+03  0.78797304657E+03  0.00000000000E+00 0.  1.
         21   -1    0    0  501  502 -0.00000000000E+00 -0.00000000000E+00 -0.14192601487E+03  0.14192601487E+03  0.00000000000E+00 0.  1.
         25    1    1    2    0    0 -0.11705457289E+03  0.24670620453E+02 -0.41032583109E+02  0.17781756219E+03  0.12500000000E+03 0.  0.
         25    1    1    2    0    0 -0.39344903827E+01 -0.39566165312E+02  0.30353745992E+03  0.33066743297E+03  0.12500000000E+03 0.  0.
         25    1    1    2    0    0  0.12098906327E+03  0.14895544859E+02  0.38354215488E+03  0.42141406628E+03  0.12500000000E+03 0.  0.
</event>
<event>
 5    0  0.5670250E-005  0.3140544E+03  0.7546771E-02  0.1078419E+00
         21   -1    0    0  502  501  0.00000000000E+00  0.00000000000E+00  0.67698506853E+03  0.67698506853E+03  0.00000000000E+00 0. -1.
         21   -1    0    0  501  502 -0.00000000000E+00 -0.00000000000E+00 -0.14569030253E+03  0.14569030253E+03  0.00000000000E+00 0. -1.
         25    1    1    2    0    0 -0.19297000364E+03 -0.63637070036E+02  0.12008152786E+03  0.26707989875E+03  0.12500000000E+03 0.  0.
         25    1    1    2    0    0  0.17637122759E+03 -0.82904918681E+01  0.17461904465E+03  0.27801502285E+03  0.12500000000E+03 0.  0.
         25    1    1    2    0    0  0.16598776042E+02  0.71927561904E+02  0.23659419349E+03  0.27758044946E+03  0.12500000000E+03 0.  0.
</event>
<event>
 5    0  0.5670250E-005  0.2291370E+03  0.7546771E-02  0.1127249E+00
         21   -1    0    0  502  501  0.00000000000E+00  0.00000000000E+00  0.32650019903E+02  0.32650019903E+02  0.00000000000E+00 0.  1.
         21   -1    0    0  501  502 -0.00000000000E+00 -0.00000000000E+00 -0.16080776165E+04  0.16080776165E+04  0.00000000000E+00 0.  1.
         25    1    1    2    0    0 -0.53020128814E+02 -0.40875771279E+02 -0.53825334618E+03  0.55661802649E+03  0.12500000000E+03 0.  0.
         25    1    1    2    0    0  0.50035651149E+02 -0.14711096377E+02 -0.24268245990E+03  0.27792041862E+03  0.12500000000E+03 0.  0.
         25    1    1    2    0    0  0.29844776654E+01  0.55586867655E+02 -0.79449179049E+03  0.80618919126E+03  0.12500000000E+03 0.  0.
</event>
<event>
 5    0  0.5670250E-005  0.3696876E+03  0.7546771E-02  0.1054812E+00
         21   -1    0    0  502  501  0.00000000000E+00  0.00000000000E+00  0.18656113380E+03  0.18656113380E+03  0.00000000000E+00 0. -1.
         21   -1    0    0  501  502 -0.00000000000E+00 -0.00000000000E+00 -0.73256911358E+03  0.73256911358E+03  0.00000000000E+00 0. -1.
         25    1    1    2    0    0 -0.57564624062E+02 -0.17471172461E+03 -0.30015875882E+03  0.37357482939E+03  0.12500000000E+03 0.  0.
         25    1    1    2    0    0  0.62511743696E+02  0.22447535341E+03  0.94233047023E+00  0.26442917838E+03  0.12500000000E+03 0.  0.
         25    1    1    2    0    0 -0.49471196337E+01 -0.49763628805E+02 -0.24679155143E+03  0.28112623962E+03  0.12500000000E+03 0.  0.
</event>
<event>
 5    0  0.5670250E-005  0.4801237E+03  0.7546771E-02  0.1019101E+00
         21   -1    0    0  502  501  0.00000000000E+00  0.00000000000E+00  0.19768797419E+03  0.19768797419E+03  0.00000000000E+00 0.  1.
         21   -1    0    0  501  502 -0.00000000000E+00 -0.00000000000E+00 -0.11660739350E+04  0.11660739350E+04  0.00000000000E+00 0.  1.
         25    1    1    2    0    0 -0.40490333244E+02  0.47517009895E+02 -0.44044315906E+02  0.14649994908E+03  0.12500000000E+03 0.  0.
         25    1    1    2    0    0  0.18079632280E+03  0.28086400097E+03 -0.67713202717E+03  0.76531345186E+03  0.12500000000E+03 0.  0.
         25    1    1    2    0    0 -0.14030598956E+03 -0.32838101086E+03 -0.24720961770E+03  0.45194850822E+03  0.12500000000E+03 0.  0.
</event>
<event>
 5    0  0.5670250E-005  0.2994757E+03  0.7546771E-02  0.1085503E+00
         21   -1    0    0  502  501  0.00000000000E+00  0.00000000000E+00  0.11084983922E+03  0.11084983922E+03  0.00000000000E+00 0.  1.
         21   -1    0    0  501  502 -0.00000000000E+00 -0.00000000000E+00 -0.80907361485E+03  0.80907361485E+03  0.00000000000E+00 0.  1.
         25    1    1    2    0    0  0.52511639662E+01  0.16809465431E+03 -0.41771102557E+03  0.46732310922E+03  0.12500000000E+03 0.  0.
         25    1    1    2    0    0 -0.94094288689E+02 -0.63136246391E+02 -0.14707049821E+03  0.22381834647E+03  0.12500000000E+03 0.  0.
         25    1    1    2    0    0  0.88843124723E+02 -0.10495840792E+03 -0.13344225184E+03  0.22878199838E+03  0.12500000000E+03 0.  0.
</event>
<event>
 5    0  0.5670250E-005  0.2688059E+03  0.7546771E-02  0.1101965E+00
         21   -1    0    0  502  501  0.00000000000E+00  0.00000000000E+00  0.20354906185E+04  0.20354906185E+04  0.00000000000E+00 0.  1.
         21   -1    0    0  501  502 -0.00000000000E+00 -0.00000000000E+00 -0.35498364444E+02  0.35498364444E+02  0.00000000000E+00 0.  1.
         25    1    1    2    0    0  0.27242853954E+02  0.22599199325E+02  0.27262049837E+03  0.30199310097E+03  0.12500000000E+03 0.  0.
         25    1    1    2    0    0 -0.11092453169E+03 -0.80517130877E+02  0.54541824037E+03  0.57610182869E+03  0.12500000000E+03 0.  0.
         25    1    1    2    0    0  0.83681677737E+02  0.57917931552E+02  0.11819535153E+04  0.11928940533E+04  0.12500000000E+03 0.  0.
</event>
<event>
 5    0  0.5670250E-005  0.3105134E+03  0.7546771E-02  0.1080100E+00
         21   -1    0    0  502  501  0.00000000000E+00  0.00000000000E+00  0.10407037124E+04  0.10407037124E+04  0.00000000000E+00 0.  1.
         21   -1    0    0  501  502 -0.00000000000E+00 -0.00000000000E+00 -0.92647458597E+02  0.92647458597E+02  0.00000000000E+00 0.  1.
         25    1    1    2    0    0 -0.10082010638E+02 -0.17810856115E+02  0.51839733379E+03  0.53364751401E+03  0.12500000000E+03 0.  0.
         25    1    1    2    0    0  0.14735569415E+03  0.50504977959E+02  0.33187291204E+03  0.38733587898E+03  0.12500000000E+03 0.  0.
         25    1    1    2    0    0 -0.13727368351E+03 -0.32694121844E+02  0.97786008014E+02  0.21236777805E+03  0.12500000000E+03 0.  0.
</event>
<event>
 5    0  0.5670250E-005  0.2590500E+03  0.7546771E-02  0.1107715E+00
         21   -1    0    0  502  501  0.00000000000E+00  0.00000000000E+00  0.38969610990E+03  0.38969610990E+03  0.00000000000E+00 0. -1.
         21   -1    0    0  501  502 -0.00000000000E+00 -0.00000000000E+00 -0.17220321444E+03  0.17220321444E+03  0.00000000000E+00 0. -1.
         25    1    1    2    0    0  0.62724918967E+02 -0.25003554425E+00 -0.60748904526E+02  0.15247920310E+03  0.12500000000E+03 0.  0.
         25    1    1    2    0    0 -0.38073497674E+02 -0.73106925121E+02  0.17194628323E+03  0.22800161851E+03  0.12500000000E+03 0.  0.
         25    1    1    2    0    0 -0.24651421293E+02  0.73356960665E+02  0.10629551676E+03  0.18141850273E+03  0.12500000000E+03 0.  0.
</event>
<event>
 5    0  0.5670250E-005  0.2562333E+03  0.7546771E-02  0.1109428E+00
         21   -1    0    0  502  501  0.00000000000E+00  0.00000000000E+00  0.46857909163E+03  0.46857909163E+03  0.00000000000E+00 0.  1.
         21   -1    0    0  501  502 -0.00000000000E+00 -0.00000000000E+00 -0.14011616863E+03  0.14011616863E+03  0.00000000000E+00 0.  1.
         25    1    1    2    0    0  0.39720449361E+02  0.89610275915E+02  0.20990040323E+03  0.26323163739E+03  0.12500000000E+03 0.  0.
         25    1    1    2    0    0 -0.63907410270E+02  0.33617967748E+02  0.30273218094E+02  0.14749844940E+03  0.12500000000E+03 0.  0.
         25    1    1    2    0    0  0.24186960908E+02 -0.12322824366E+03  0.88289301671E+02  0.19796517346E+03  0.12500000000E+03 0.  0.
</event>
<event>
 5    0  0.5670250E-005  0.2782774E+03  0.7546771E-02  0.1096634E+00
         21   -1    0    0  502  501  0.00000000000E+00  0.00000000000E+00  0.86703413126E+02  0.86703413126E+02  0.00000000000E+00 0.  1.
         21   -1    0    0  501  502 -0.00000000000E+00 -0.00000000000E+00 -0.89314039817E+03  0.89314039817E+03  0.00000000000E+00 0.  1.
         25    1    1    2    0    0 -0.24823422091E+02 -0.40005913144E+02 -0.58234262581E+03  0.59746515313E+03  0.12500000000E+03 0.  0.
         25    1    1    2    0    0 -0.16634865859E+02  0.61801266635E+02 -0.24944878320E+02  0.14263015906E+03  0.12500000000E+03 0.  0.
         25    1    1    2    0    0  0.41458287949E+02 -0.21795353490E+02 -0.19914948091E+03  0.23974849910E+03  0.12500000000E+03 0.  0.
</event>
<event>
 5    0  0.5670250E-005  0.2028476E+03  0.7546771E-02  0.1147358E+00
         21   -1    0    0  502  501  0.00000000000E+00  0.00000000000E+00  0.33751611396E+03  0.33751611396E+03  0.00000000000E+00 0.  1.
         21   -1    0    0  501  502 -0.00000000000E+00 -0.00000000000E+00 -0.12191170552E+03  0.12191170552E+03  0.00000000000E+00 0.  1.
         25    1    1    2    0    0  0.46677685345E+01 -0.35683806053E+02  0.13956588926E+03  0.19078458932E+03  0.12500000000E+03 0.  0.
         25    1    1    2    0    0 -0.25941456160E+02  0.25473765790E+02  0.32316181834E+02  0.13413130693E+03  0.12500000000E+03 0.  0.
         25    1    1    2    0    0  0.21273687625E+02  0.10210040262E+02  0.43722337354E+02  0.13451192323E+03  0.12500000000E+03 0.  0.
</event>
<event>
 5    0  0.6124590E-005  0.3505905E+03  0.7546771E-02  0.1062373E+00
         21   -1    0    0  502  501  0.00000000000E+00  0.00000000000E+00  0.27750791566E+03  0.27750791566E+03  0.00000000000E+00 0.  1.
         21   -1    0    0  501  502 -0.00000000000E+00 -0.00000000000E+00 -0.44291949934E+03  0.44291949934E+03  0.00000000000E+00 0.  1.
         25    1    1    2    0    0  0.12535619370E+03  0.68593406701E+02 -0.97467649904E+02  0.21341080928E+03  0.12500000000E+03 0.  0.
         25    1    1    2    0    0 -0.15766971098E+03 -0.12397459809E+03 -0.20343939353E+03  0.31183653662E+03  0.12500000000E+03 0.  0.
         25    1    1    2    0    0  0.32313517287E+02  0.55381191389E+02  0.13549545975E+03  0.19518006909E+03  0.12500000000E+03 0.  0.
</event>
<event>
 5    0  0.5670250E-005  0.3335100E+03  0.7546771E-02  0.1069594E+00
         21   -1    0    0  502  501  0.00000000000E+00  0.00000000000E+00  0.25212733461E+04  0.25212733461E+04  0.00000000000E+00 0. -1.
         21   -1    0    0  501  502 -0.00000000000E+00 -0.00000000000E+00 -0.44116160121E+02  0.44116160121E+02  0.00000000000E+00 0. -1.
         25    1    1    2    0    0 -0.19418784339E+03  0.58009886921E+02  0.13981934557E+04  0.14183243652E+04  0.12500000000E+03 0.  0.
         25    1    1    2    0    0  0.14802250403E+03  0.18853780480E+02  0.84448270099E+03  0.86662688569E+03  0.12500000000E+03 0.  0.
         25    1    1    2    0    0  0.46165339359E+02 -0.76863667401E+02  0.23448102928E+03  0.28043825526E+03  0.12500000000E+03 0.  0.
</event>
<event>
 5    0  0.5670250E-005  0.2660210E+03  0.7546771E-02  0.1103579E+00
         21   -1    0    0  502  501  0.00000000000E+00  0.00000000000E+00  0.47891276189E+03  0.47891276189E+03  0.00000000000E+00 0.  1.
         21   -1    0    0  501  502 -0.00000000000E+00 -0.00000000000E+00 -0.14776633789E+03  0.14776633789E+03  0.00000000000E+00 0.  1.
         25    1    1    2    0    0 -0.34022155874E+02 -0.74353657030E+01  0.14786361728E+03  0.19672681837E+03  0.12500000000E+03 0.  0.
         25    1    1    2    0    0 -0.57200624872E+02  0.74269029897E+02  0.20740532086E+03  0.25967242327E+03  0.12500000000E+03 0.  0.
         25    1    1    2    0    0  0.91222780746E+02 -0.66833664194E+02 -0.24122514134E+02  0.17027985813E+03  0.12500000000E+03 0.  0.
</event>
<event>
 5    0  0.5670250E-005  0.2709796E+03  0.7546771E-02  0.1100720E+00
         21   -1    0    0  502  501  0.00000000000E+00  0.00000000000E+00  0.83469587604E+02  0.83469587604E+02  0.00000000000E+00 0. -1.
         21   -1    0    0  501  502 -0.00000000000E+00 -0.00000000000E+00 -0.87972078734E+03  0.87972078734E+03  0.00000000000E+00 0. -1.
         25    1    1    2    0    0 -0.16286031962E+03  0.66390959008E+02 -0.31562125630E+03  0.38232580422E+03  0.12500000000E+03 0.  0.
         25    1    1    2    0    0  0.53908490599E+02 -0.17208791509E+02 -0.12592152278E+03  0.18623506051E+03  0.12500000000E+03 0.  0.
         25    1    1    2    0    0  0.10895182902E+03 -0.49182167500E+02 -0.35470842065E+03  0.39462951021E+03  0.12500000000E+03 0.  0.
</event>
<event>
 5    0  0.5670250E-005  0.3368490E+03  0.7546771E-02  0.1068146E+00
         21   -1    0    0  502  501  0.00000000000E+00  0.00000000000E+00  0.15149817343E+03  0.15149817343E+03  0.00000000000E+00 0. -1.
         21   -1    0    0  501  502 -0.00000000000E+00 -0.00000000000E+00 -0.74896763485E+03  0.74896763485E+03  0.00000000000E+00 0. -1.
         25    1    1    2    0    0  0.19330350923E+03  0.15813959378E+02 -0.38966896809E+03  0.45286116270E+03  0.12500000000E+03 0.  0.
         25    1    1    2    0    0 -0.17041204442E+03 -0.93526695593E+02 -0.62263655981E+02  0.23935177152E+03  0.12500000000E+03 0.  0.
         25    1    1    2    0    0 -0.22891464806E+02  0.77712736215E+02 -0.14553683734E+03  0.20825287406E+03  0.12500000000E+03 0.  0.
</event>
<event>
 5    0  0.5670250E-005  0.2326318E+03  0.7546771E-02  0.1124801E+00
         21   -1    0    0  502  501  0.00000000000E+00  0.00000000000E+00  0.14245297413E+03  0.14245297413E+03  0.00000000000E+00 0. -1.
         21   -1    0    0  501  502 -0.00000000000E+00 -0.00000000000E+00 -0.37989752123E+03  0.37989752123E+03  0.00000000000E+00 0. -1.
         25    1    1    2    0    0  0.20043378534E+02  0.16090352015E+02 -0.33836198597E+02  0.13202471279E+03  0.12500000000E+03 0.  0.
         25    1    1    2    0    0  0.10879510714E+02 -0.11224229028E+03 -0.74123199117E+02  0.18394549228E+03  0.12500000000E+03 0.  0.
         25    1    1    2    0    0 -0.30922889247E+02  0.96151938266E+02 -0.12948514939E+03  0.20638029030E+03  0.12500000000E+03 0.  0.
</event>
<event>
 5    0  0.5670250E-005  0.3759554E+03  0.7546771E-02  0.1052439E+00
         21   -1    0    0  502  501  0.00000000000E+00  0.00000000000E+00  0.11790970576E+04  0.11790970576E+04  0.00000000000E+00 0.  1.
         21   -1    0    0  501  502 -0.00000000000E+00 -0.00000000000E+00 -0.11987346958E+03  0.11987346958E+03  0.00000000000E+00 0.  1.
         25    1    1    2    0    0 -0.19400597089E+03  0.46707867177E+02  0.12508376841E+03  0.26662875073E+03  0.12500000000E+03 0.  0.
         25    1    1    2    0    0  0.40296394437E+01  0.84408714584E+02  0.52483174146E+03  0.54609012620E+03  0.12500000000E+03 0.  0.
         25    1    1    2    0    0  0.18997633145E+03 -0.13111658176E+03  0.40930807819E+03  0.48625165027E+03  0.12500000000E+03 0.  0.
</event>
<event>
 5    0  0.5670250E-005  0.3266215E+03  0.7546771E-02  0.1072642E+00
         21   -1    0    0  502  501  0.00000000000E+00  0.00000000000E+00  0.21708449285E+03  0.21708449285E+03  0.00000000000E+00 0. -1.
         21   -1    0    0  501  502 -0.00000000000E+00 -0.00000000000E+00 -0.49142908586E+03  0.49142908586E+03  0.00000000000E+00 0. -1.
         25    1    1    2    0    0 -0.15890862153E+03  0.66548158568E+02 -0.89876101929E+02  0.23104830903E+03  0.12500000000E+03 0.  0.
         25    1    1    2    0    0  0.12924229890E+03 -0.41773385291E+02 -0.26565035331E+03  0.32348678143E+03  0.12500000000E+03 0.  0.
         25    1    1    2    0    0  0.29666322631E+02 -0.24774773277E+02  0.81181862236E+02  0.15397848826E+03  0.12500000000E+03 0.  0.
</event>
<event>
 5    0  0.5670250E-005  0.4831194E+03  0.7546771E-02  0.1018281E+00
         21   -1    0    0  502  501  0.00000000000E+00  0.00000000000E+00  0.18504478651E+03  0.18504478651E+03  0.00000000000E+00 0. -1.
         21   -1    0    0  501  502 -0.00000000000E+00 -0.00000000000E+00 -0.12613400530E+04  0.12613400530E+04  0.00000000000E+00 0. -1.
         25    1    1    2    0    0  0.30539578275E+03 -0.41136641315E+02 -0.83579490219E+03  0.89952038660E+03  0.12500000000E+03 0.  0.
         25    1    1    2    0    0 -0.97707524817E+02 -0.88478746626E+02 -0.52990045261E-01  0.18165971435E+03  0.12500000000E+03 0.  0.
         25    1    1    2    0    0 -0.20768825794E+03  0.12961538794E+03 -0.24044737427E+03  0.36520473856E+03  0.12500000000E+03 0.  0.
</event>
<event>
 5    0  0.5670250E-005  0.3460379E+03  0.7546771E-02  0.1064253E+00
         21   -1    0    0  502  501  0.00000000000E+00  0.00000000000E+00  0.13651689986E+04  0.13651689986E+04  0.00000000000E+00 0. -1.
         21   -1    0    0  501  502 -0.00000000000E+00 -0.00000000000E+00 -0.87712394837E+02  0.87712394837E+02  0.00000000000E+00 0. -1.
         25    1    1    2    0    0  0.10301399429E+03  0.10429033256E+02  0.62465984631E+03  0.64540341752E+03  0.12500000000E+03 0.  0.
         25    1    1    2    0    0  0.75497018727E+02  0.58426797954E+01  0.32368730239E+02  0.14968858153E+03  0.12500000000E+03 0.  0.
         25    1    1    2    0    0 -0.17851101302E+03 -0.16271713052E+02  0.62042802721E+03  0.65778939438E+03  0.12500000000E+03 0.  0.
</event>
<event>
 5    0  0.5687402E-005  0.3000805E+03  0.7546771E-02  0.1085200E+00
         21   -1    0    0  502  501  0.00000000000E+00  0.00000000000E+00  0.14777986218E+03  0.14777986218E+03  0.00000000000E+00 0. -1.
         21   -1    0    0  501  502 -0.00000000000E+00 -0.00000000000E+00 -0.60934071810E+03  0.60934071810E+03  0.00000000000E+00 0. -1.
         25    1    1    2    0    0  0.89443181146E+02  0.45038760059E+02 -0.26045190580E+03  0.30575932986E+03  0.12500000000E+03 0.  0.
         25    1    1    2    0    0 -0.15692027909E+03 -0.12918939441E+03 -0.12818073924E+03  0.27086745011E+03  0.12500000000E+03 0.  0.
         25    1    1    2    0    0  0.67477097941E+02  0.84150634350E+02 -0.72928210878E+02  0.18049380031E+03  0.12500000000E+03 0.  0.
</event>
<event>
 5    0  0.5670250E-005  0.3047194E+03  0.7546771E-02  0.1082905E+00
         21   -1    0    0  502  501  0.00000000000E+00  0.00000000000E+00  0.18994418938E+03  0.18994418938E+03  0.00000000000E+00 0.  1.
         21   -1    0    0  501  502 -0.00000000000E+00 -0.00000000000E+00 -0.48884833032E+03  0.48884833032E+03  0.00000000000E+00 0.  1.
         25    1    1    2    0    0  0.40620881752E+02  0.10403820141E+03 -0.68581269364E+02  0.18111431168E+03  0.12500000000E+03 0.  0.
         25    1    1    2    0    0 -0.17001416341E+03 -0.60843623710E+02 -0.24598161399E+02  0.22099056960E+03  0.12500000000E+03 0.  0.
         25    1    1    2    0    0  0.12939328166E+03 -0.43194577700E+02 -0.20572471017E+03  0.27668763842E+03  0.12500000000E+03 0.  0.
</event>
<event>
 5    0  0.5670250E-005  0.3626868E+03  0.7546771E-02  0.1057525E+00
         21   -1    0    0  502  501  0.00000000000E+00  0.00000000000E+00  0.98038877199E+03  0.98038877199E+03  0.00000000000E+00 0.  1.
         21   -1    0    0  501  502 -0.00000000000E+00 -0.00000000000E+00 -0.13417301551E+03  0.13417301551E+03  0.00000000000E+00 0.  1.
         25    1    1    2    0    0 -0.22535170755E+03  0.10533163378E+03  0.40532826649E+03  0.49172568449E+03  0.12500000000E+03 0.  0.
         25    1    1    2    0    0  0.12333049321E+03  0.50737879811E+02  0.31834313819E+03  0.36708595266E+03  0.12500000000E+03 0.  0.
         25    1    1    2    0    0  0.10202121435E+03 -0.15606951359E+03  0.12254435180E+03  0.25575015036E+03  0.12500000000E+03 0.  0.
</event>
<event>
 5    0  0.5670250E-005  0.2947733E+03  0.7546771E-02  0.1087883E+00
         21   -1    0    0  502  501  0.00000000000E+00  0.00000000000E+00  0.47131675508E+02  0.47131675508E+02  0.00000000000E+00 0. -1.
         21   -1    0    0  501  502 -0.00000000000E+00 -0.00000000000E+00 -0.18435857226E+04  0.18435857226E+04  0.00000000000E+00 0. -1.
         25    1    1    2    0    0  0.66834060820E+01 -0.64086629255E+02 -0.34622367067E+03  0.37369451976E+03  0.12500000000E+03 0.  0.
         25    1    1    2    0    0 -0.15921791068E+03 -0.23330317187E+02 -0.45284737756E+03  0.49657868877E+03  0.12500000000E+03 0.  0.
         25    1    1    2    0    0  0.15253450460E+03  0.87416946442E+02 -0.99738299887E+03  0.10204441896E+04  0.12500000000E+03 0.  0.
</event>
<event>
 5    0  0.6004710E-005  0.3001172E+03  0.7546771E-02  0.1085182E+00
         21   -1    0    0  502  501  0.00000000000E+00  0.00000000000E+00  0.62007424280E+03  0.62007424280E+03  0.00000000000E+00 0. -1.
         21   -1    0    0  501  502 -0.00000000000E+00 -0.00000000000E+00 -0.14525736799E+03  0.14525736799E+03  0.00000000000E+00 0. -1.
         25    1    1    2    0    0 -0.72238331084E+02  0.43549811348E+02  0.43362521755E+02  0.15690847918E+03  0.12500000000E+03 0.  0.
         25    1    1    2    0    0 -0.10204571503E+03  0.47461543009E+02  0.29174577296E+03  0.33675884853E+03  0.12500000000E+03 0.  0.
         25    1    1    2    0    0  0.17428404611E+03 -0.91011354357E+02  0.13970858008E+03  0.27166428308E+03  0.12500000000E+03 0.  0.
</event>
<event>
 5    0  0.5670250E-005  0.2466463E+03  0.7546771E-02  0.1115443E+00
         21   -1    0    0  502  501  0.00000000000E+00  0.00000000000E+00  0.64913232397E+03  0.64913232397E+03  0.00000000000E+00 0. -1.
         21   -1    0    0  501  502 -0.00000000000E+00 -0.00000000000E+00 -0.93716505013E+02  0.93716505013E+02  0.00000000000E+00 0. -1.
         25    1    1    2    0    0 -0.11573529583E+03 -0.16087717012E+02  0.28743160590E+03  0.33450770007E+03  0.12500000000E+03 0.  0.
         25    1    1    2    0    0  0.10351834734E+03  0.57761708213E+02  0.12073011641E+03  0.21036450314E+03  0.12500000000E+03 0.  0.
         25    1    1    2    0    0  0.12216948492E+02 -0.41673991201E+02  0.14725409665E+03  0.19797662578E+03  0.12500000000E+03 0.  0.
</event>
<event>
 5    0  0.5670250E-005  0.4160874E+03  0.7546771E-02  0.1038347E+00
         21   -1    0    0  502  501  0.00000000000E+00  0.00000000000E+00  0.25848315507E+03  0.25848315507E+03  0.00000000000E+00 0.  1.
         21   -1    0    0  501  502 -0.00000000000E+00 -0.00000000000E+00 -0.66978738688E+03  0.66978738688E+03  0.00000000000E+00 0.  1.
         25    1    1    2    0    0 -0.60372832662E+02 -0.24797963843E+03 -0.33055429354E+02  0.28610564728E+03  0.12500000000E+03 0.  0.
         25    1    1    2    0    0  0.16519688813E+03  0.23372023401E+03 -0.36123569960E+03  0.47752632420E+03  0.12500000000E+03 0.  0.
         25    1    1    2    0    0 -0.10482405547E+03  0.14259404418E+02 -0.17013102851E+02  0.16463857048E+03  0.12500000000E+03 0.  0.
</event>
<event>
 5    0  0.5670250E-005  0.2380824E+03  0.7546771E-02  0.1121077E+00
         21   -1    0    0  502  501  0.00000000000E+00  0.00000000000E+00  0.18725138580E+03  0.18725138580E+03  0.00000000000E+00 0. -1.
         21   -1    0    0  501  502 -0.00000000000E+00 -0.00000000000E+00 -0.30271202052E+03  0.30271202052E+03  0.00000000000E+00 0. -1.
         25    1    1    2    0    0 -0.66992591106E+02 -0.83097304192E+02 -0.57373019794E+02  0.17409719305E+03  0.12500000000E+03 0.  0.
         25    1    1    2    0    0  0.31221450196E+02 -0.20674603257E+02 -0.71820666573E+02  0.14894773016E+03  0.12500000000E+03 0.  0.
         25    1    1    2    0    0  0.35771140911E+02  0.10377190745E+03  0.13733051650E+02  0.16691848311E+03  0.12500000000E+03 0.  0.
</event>
<event>
 5    0  0.5670250E-005  0.2412700E+03  0.7546771E-02  0.1118950E+00
         21   -1    0    0  502  501  0.00000000000E+00  0.00000000000E+00  0.10524391929E+03  0.10524391929E+03  0.00000000000E+00 0.  1.
         21   -1    0    0  501  502 -0.00000000000E+00 -0.00000000000E+00 -0.55310747470E+03  0.55310747470E+03  0.00000000000E+00 0.  1.
         25    1    1    2    0    0  0.65454171179E+02  0.15508965032E+02 -0.95778098676E+02  0.17124024266E+03  0.12500000000E+03 0.  0.
         25    1    1    2    0    0 -0.99795756274E+02  0.75791330062E+02 -0.20498854036E+03  0.27082987346E+03  0.12500000000E+03 0.  0.
         25    1    1    2    0    0  0.34341585095E+02 -0.91300295094E+02 -0.14709691638E+03  0.21628127787E+03  0.12500000000E+03 0.  0.
</event>
<event>
 5    0  0.5670250E-005  0.2428017E+03  0.7546771E-02  0.1117940E+00
         21   -1    0    0  502  501  0.00000000000E+00  0.00000000000E+00  0.48215599833E+03  0.48215599833E+03  0.00000000000E+00 0.  1.
         21   -1    0    0  501  502 -0.00000000000E+00 -0.00000000000E+00 -0.12226881750E+03  0.12226881750E+03  0.00000000000E+00 0.  1.
         25    1    1    2    0    0 -0.80203598508E+02 -0.10194820063E+03  0.79929654223E+02  0.19707816330E+03  0.12500000000E+03 0.  0.
         25    1    1    2    0    0  0.70023621978E+02  0.75854178465E+02  0.11631183794E+03  0.19952595739E+03  0.12500000000E+03 0.  0.
         25    1    1    2    0    0  0.10179976530E+02  0.26094022167E+02  0.16364568866E+03  0.20782069515E+03  0.12500000000E+03 0.  0.
</event>
<event>
 5    0  0.5848664E-005  0.2756776E+03  0.7546771E-02  0.1098073E+00
         21   -1    0    0  502  501  0.00000000000E+00  0.00000000000E+00  0.11040373852E+03  0.11040373852E+03  0.00000000000E+00 0. -1.
         21   -1    0    0  501  502 -0.00000000000E+00 -0.00000000000E+00 -0.68836566530E+03  0.68836566530E+03  0.00000000000E+00 0.  1.
         25    1    1    2    0    0 -0.10762186127E+03 -0.14542715853E+03 -0.26252536928E+03  0.34245597231E+03  0.12500000000E+03 0.  0.
         25    1    1    2    0    0  0.99395934534E+02  0.65101809493E+02 -0.21995150565E+03  0.27950216858E+03  0.12500000000E+03 0.  0.
         25    1    1    2    0    0  0.82259267322E+01  0.80325349036E+02 -0.95485051857E+02  0.17681126292E+03  0.12500000000E+03 0.  0.
</event>
<event>
 5    0  0.6008809E-005  0.4980066E+03  0.7546771E-02  0.1014301E+00
         21   -1    0    0  502  501  0.00000000000E+00  0.00000000000E+00  0.61474989484E+03  0.61474989484E+03  0.00000000000E+00 0.  1.
         21   -1    0    0  501  502 -0.00000000000E+00 -0.00000000000E+00 -0.40343330758E+03  0.40343330758E+03  0.00000000000E+00 0.  1.
         25    1    1    2    0    0 -0.10967971153E+03  0.83420030764E+02 -0.17218509302E+03  0.25349802152E+03  0.12500000000E+03 0.  0.
         25    1    1    2    0    0 -0.21279152827E+03  0.40430131071E+02  0.29515355504E+03  0.38685326812E+03  0.12500000000E+03 0.  0.
         25    1    1    2    0    0  0.32247123980E+03 -0.12385016184E+03  0.88348125250E+02  0.37783191279E+03  0.12500000000E+03 0.  0.
</event>
<event>
 5    0  0.5670250E-005  0.1949868E+03  0.7546771E-02  0.1154039E+00
         21   -1    0    0  502  501  0.00000000000E+00  0.00000000000E+00  0.74326387608E+02  0.74326387608E+02  0.00000000000E+00 0.  1.
         21   -1    0    0  501  502 -0.00000000000E+00 -0.00000000000E+00 -0.51152572808E+03  0.51152572808E+03  0.00000000000E+00 0.  1.
         25    1    1    2    0    0  0.25619882143E+02 -0.30673420334E+02 -0.17163806244E+03  0.21605985641E+03  0.12500000000E+03 0.  0.
         25    1    1    2    0    0 -0.50184459112E+01  0.36512806546E+02 -0.12732935572E+03  0.18219806439E+03  0.12500000000E+03 0.  0.
         25    1    1    2    0    0 -0.20601436232E+02 -0.58393862117E+01 -0.13823192232E+03  0.18759419489E+03  0.12500000000E+03 0.  0.
</event>
<event>
 5    0  0.5670250E-005  0.2887610E+03  0.7546771E-02  0.1090998E+00
         21   -1    0    0  502  501  0.00000000000E+00  0.00000000000E+00  0.85266398190E+03  0.85266398190E+03  0.00000000000E+00 0.  1.
         21   -1    0    0  501  502 -0.00000000000E+00 -0.00000000000E+00 -0.97791044805E+02  0.97791044805E+02  0.00000000000E+00 0.  1.
         25    1    1    2    0    0  0.77194270114E+01  0.89931208417E+02  0.39562806425E+03  0.42461014711E+03  0.12500000000E+03 0.  0.
         25    1    1    2    0    0 -0.27395602596E+02 -0.50033739179E+02 -0.57111875848E+01  0.13751913235E+03  0.12500000000E+03 0.  0.
         25    1    1    2    0    0  0.19676175584E+02 -0.39897469238E+02  0.36495606043E+03  0.38832574725E+03  0.12500000000E+03 0.  0.
</event>
<event>
 5    0  0.5670250E-005  0.2241527E+03  0.7546771E-02  0.1130824E+00
         21   -1    0    0  502  501  0.00000000000E+00  0.00000000000E+00  0.31965287676E+03  0.31965287676E+03  0.00000000000E+00 0. -1.
         21   -1    0    0  501  502 -0.00000000000E+00 -0.00000000000E+00 -0.15718429343E+03  0.15718429343E+03  0.00000000000E+00 0. -1.
         25    1    1    2    0    0  0.60542936183E+02  0.77872932160E+01  0.13707251593E+03  0.19529455620E+03  0.12500000000E+03 0.  0.
         25    1    1    2    0    0 -0.80189455734E+02 -0.14376288012E+02  0.38695076269E+02  0.15414063512E+03  0.12500000000E+03 0.  0.
         25    1    1    2    0    0  0.19646519551E+02  0.65889947962E+01 -0.13299008871E+02  0.12740197887E+03  0.12500000000E+03 0.  0.
</event>
<event>
 5    0  0.5670250E-005  0.3254040E+03  0.7546771E-02  0.1073189E+00
         21   -1    0    0  502  501  0.00000000000E+00  0.00000000000E+00  0.12827974825E+03  0.12827974825E+03  0.00000000000E+00 0.  1.
         21   -1    0    0  501  502 -0.00000000000E+00 -0.00000000000E+00 -0.82544424616E+03  0.82544424616E+03  0.00000000000E+00 0.  1.
         25    1    1    2    0    0  0.24132264818E+02  0.85276588746E+02 -0.49260885088E+03  0.51589043678E+03  0.12500000000E+03 0.  0.
         25    1    1    2    0    0 -0.76376808802E+02 -0.91587613783E+02  0.21621182083E+02  0.17410968794E+03  0.12500000000E+03 0.  0.
         25    1    1    2    0    0  0.52244543984E+02  0.63110250365E+01 -0.22617682912E+03  0.26372386969E+03  0.12500000000E+03 0.  0.
</event>
<event>
 5    0  0.5670250E-005  0.2411394E+03  0.7546771E-02  0.1119036E+00
         21   -1    0    0  502  501  0.00000000000E+00  0.00000000000E+00  0.10663043932E+03  0.10663043932E+03  0.00000000000E+00 0. -1.
         21   -1    0    0  501  502 -0.00000000000E+00 -0.00000000000E+00 -0.54532471656E+03  0.54532471656E+03  0.00000000000E+00 0. -1.
         25    1    1    2    0    0 -0.71842483751E+02 -0.74911698848E+02 -0.21178468015E+03  0.26692855943E+03  0.12500000000E+03 0.  0.
         25    1    1    2    0    0  0.78936076773E+00  0.20733858767E+02 -0.21521551337E+02  0.12852506822E+03  0.12500000000E+03 0.  0.
         25    1    1    2    0    0  0.71053122983E+02  0.54177840081E+02 -0.20538804576E+03  0.25650152822E+03  0.12500000000E+03 0.  0.
</event>
<event>
 5    0  0.5670250E-005  0.3902963E+03  0.7546771E-02  0.1047192E+00
         21   -1    0    0  502  501  0.00000000000E+00  0.00000000000E+00  0.10348284203E+03  0.10348284203E+03  0.00000000000E+00 0.  1.
         21   -1    0    0  501  502 -0.00000000000E+00 -0.00000000000E+00 -0.14720431056E+04  0.14720431056E+04  0.00000000000E+00 0.  1.
         25    1    1    2    0    0  0.11644275110E+03 -0.70826266471E+02 -0.15876390748E+03  0.24373397922E+03  0.12500000000E+03 0.  0.
         25    1    1    2    0    0 -0.12606474290E+03 -0.63831108909E+02 -0.11030836166E+04  0.11191001721E+04  0.12500000000E+03 0.  0.
         25    1    1    2    0    0  0.96219918002E+01  0.13465737538E+03 -0.10671273949E+03  0.21269179636E+03  0.12500000000E+03 0.  0.
</event>
<event>
 5    0  0.5670250E-005  0.6237736E+03  0.7546771E-02  0.9857275E-01
         21   -1    0    0  502  501  0.00000000000E+00  0.00000000000E+00  0.77700718678E+03  0.77700718678E+03  0.00000000000E+00 0. -1.
         21   -1    0    0  501  502 -0.00000000000E+00 -0.00000000000E+00 -0.50075913828E+03  0.50075913828E+03  0.00000000000E+00 0. -1.
         25    1    1    2    0    0  0.41375713801E+03  0.21438627419E+03 -0.16237992337E+03  0.50906648222E+03  0.12500000000E+03 0.  0.
         25    1    1    2    0    0 -0.80778940017E+02  0.78669332924E+02  0.90387887836E+02  0.19107347111E+03  0.12500000000E+03 0.  0.
         25    1    1    2    0    0 -0.33297819799E+03 -0.29305560711E+03  0.34824008403E+03  0.57762637173E+03  0.12500000000E+03 0.  0.
</event>
<event>
 5    0  0.5670250E-005  0.3866086E+03  0.7546771E-02  0.1048518E+00
         21   -1    0    0  502  501  0.00000000000E+00  0.00000000000E+00  0.26595933272E+03  0.26595933272E+03  0.00000000000E+00 0.  1.
         21   -1    0    0  501  502 -0.00000000000E+00 -0.00000000000E+00 -0.56198895201E+03  0.56198895201E+03  0.00000000000E+00 0.  1.
         25    1    1    2    0    0  0.72647681293E+02 -0.72228218341E+00  0.25192744029E+02  0.14675790146E+03  0.12500000000E+03 0.  0.
         25    1    1    2    0    0 -0.35928012410E+02  0.10237182916E+03  0.12366030813E+03  0.20660998351E+03  0.12500000000E+03 0.  0.
         25    1    1    2    0    0 -0.36719668883E+02 -0.10164954697E+03 -0.44488267145E+03  0.47458039976E+03  0.12500000000E+03 0.  0.
</event>
<event>
 5    0  0.5670250E-005  0.2896820E+03  0.7546771E-02  0.1090515E+00
         21   -1    0    0  502  501  0.00000000000E+00  0.00000000000E+00  0.21940158787E+02  0.21940158787E+02  0.00000000000E+00 0. -1.
         21   -1    0    0  501  502 -0.00000000000E+00 -0.00000000000E+00 -0.38247519482E+04  0.38247519482E+04  0.00000000000E+00 0. -1.
         25    1    1    2    0    0  0.57404894531E+02 -0.68665917937E+02 -0.19271695161E+04  0.19332919268E+04  0.12500000000E+03 0.  0.
         25    1    1    2    0    0 -0.85447462651E+01  0.11760978627E+03 -0.15268023557E+04  0.15364424844E+04  0.12500000000E+03 0.  0.
         25    1    1    2    0    0 -0.48860148266E+02 -0.48943868331E+02 -0.34883991761E+03  0.37695769584E+03  0.12500000000E+03 0.  0.
</event>
<event>
 5    0  0.5670250E-005  0.3348887E+03  0.7546771E-02  0.1068994E+00
         21   -1    0    0  502  501  0.00000000000E+00  0.00000000000E+00  0.13693743614E+03  0.13693743614E+03  0.00000000000E+00 0.  1.
         21   -1    0    0  501  502 -0.00000000000E+00 -0.00000000000E+00 -0.81899061215E+03  0.81899061215E+03  0.00000000000E+00 0.  1.
         25    1    1    2    0    0  0.74134710888E+02 -0.77518268894E+02 -0.14302347388E+03  0.21814158579E+03  0.12500000000E+03 0.  0.
         25    1    1    2    0    0 -0.29451686422E+02  0.13667196621E+03 -0.85240008067E+01  0.18773461793E+03  0.12500000000E+03 0.  0.
         25    1    1    2    0    0 -0.44683024466E+02 -0.59153697315E+02 -0.53050570133E+03  0.55005184458E+03  0.12500000000E+03 0.  0.
</event>
<event>
 5    0  0.5670250E-005  0.2754089E+03  0.7546771E-02  0.1098223E+00
         21   -1    0    0  502  501  0.00000000000E+00  0.00000000000E+00  0.24493072922E+03  0.24493072922E+03  0.00000000000E+00 0. -1.
         21   -1    0    0  501  502 -0.00000000000E+00 -0.00000000000E+00 -0.30967963326E+03  0.30967963326E+03  0.00000000000E+00 0. -1.
         25    1    1    2    0    0  0.67684580168E+02 -0.77560552017E+02 -0.45450792199E+02  0.16818922716E+03  0.12500000000E+03 0.  0.
         25    1    1    2    0    0 -0.14886911526E+02  0.17646751980E+03  0.46014358773E+01  0.21681461872E+03  0.12500000000E+03 0.  0.
         25    1    1    2    0    0 -0.52797668641E+02 -0.98906967781E+02 -0.23899547719E+02  0.16960651659E+03  0.12500000000E+03 0.  0.
</event>
<event>
 5    0  0.5670250E-005  0.5417890E+03  0.7546771E-02  0.1003413E+00
         21   -1    0    0  502  501  0.00000000000E+00  0.00000000000E+00  0.30435843138E+03  0.30435843138E+03  0.00000000000E+00 0. -1.
         21   -1    0    0  501  502 -0.00000000000E+00 -0.00000000000E+00 -0.96443944287E+03  0.96443944287E+03  0.00000000000E+00 0. -1.
         25    1    1    2    0    0 -0.84899099678E+02 -0.21473272512E+03  0.16880663337E+03  0.31215169363E+03  0.12500000000E+03 0.  0.
         25    1    1    2    0    0  0.51891349221E+02  0.24786612779E+03 -0.30348834396E+03  0.41456061602E+03  0.12500000000E+03 0.  0.
         25    1    1    2    0    0  0.33007750457E+02 -0.33133402675E+02 -0.52539930091E+03  0.54208556461E+03  0.12500000000E+03 0.  0.
</event>
<event>
 5    0  0.5670250E-005  0.3134939E+03  0.7546771E-02  0.1078683E+00
         21   -1    0    0  502  501  0.00000000000E+00  0.00000000000E+00  0.17273368718E+03  0.17273368718E+03  0.00000000000E+00 0. -1.
         21   -1    0    0  501  502 -0.00000000000E+00 -0.00000000000E+00 -0.56895916608E+03  0.56895916608E+03  0.00000000000E+00 0. -1.
         25    1    1    2    0    0 -0.59196820535E+02 -0.77096041647E+00 -0.17037780171E+03  0.21945034349E+03  0.12500000000E+03 0.  0.
         25    1    1    2    0    0  0.21838562215E+01 -0.12497431717E+03  0.55107114415E+02  0.18516247794E+03  0.12500000000E+03 0.  0.
         25    1    1    2    0    0  0.57012964313E+02  0.12574527758E+03 -0.28095479160E+03  0.33708003183E+03  0.12500000000E+03 0.  0.
</event>
<event>
 5    0  0.5670250E-005  0.2114301E+03  0.7546771E-02  0.1140438E+00
         21   -1    0    0  502  501  0.00000000000E+00  0.00000000000E+00  0.29185862279E+02  0.29185862279E+02  0.00000000000E+00 0.  1.
         21   -1    0    0  501  502 -0.00000000000E+00 -0.00000000000E+00 -0.15316552626E+04  0.15316552626E+04  0.00000000000E+00 0.  1.
         25    1    1    2    0    0 -0.68857943668E+00 -0.53426852311E+02 -0.38842365239E+03  0.41152501312E+03  0.12500000000E+03 0.  0.
         25    1    1    2    0    0 -0.56437132474E+02  0.26054741125E+02 -0.63674759017E+03  0.65187153108E+03  0.12500000000E+03 0.  0.
         25    1    1    2    0    0  0.57125711911E+02  0.27372111186E+02 -0.47729815776E+03  0.49744458066E+03  0.12500000000E+03 0.  0.
</event>
<event>
 5    0  0.5670250E-005  0.3363210E+03  0.7546771E-02  0.1068374E+00
         21   -1    0    0  502  501  0.00000000000E+00  0.00000000000E+00  0.49315325707E+02  0.49315325707E+02  0.00000000000E+00 0.  1.
         21   -1    0    0  501  502 -0.00000000000E+00 -0.00000000000E+00 -0.22936442973E+04  0.22936442973E+04  0.00000000000E+00 0.  1.
         25    1    1    2    0    0  0.10381518664E+03  0.21157811606E+03 -0.62745181012E+03  0.68180911272E+03  0.12500000000E+03 0.  0.
         25    1    1    2    0    0 -0.13535443191E+03 -0.97656073360E+02 -0.84823217749E+03  0.87348746861E+03  0.12500000000E+03 0.  0.
         25    1    1    2    0    0  0.31539245269E+02 -0.11392204270E+03 -0.76864498402E+03  0.78766304170E+03  0.12500000000E+03 0.  0.
</event>
<event>
 5    0  0.5670250E-005  0.2912827E+03  0.7546771E-02  0.1089681E+00
         21   -1    0    0  502  501  0.00000000000E+00  0.00000000000E+00  0.11869939758E+03  0.11869939758E+03  0.00000000000E+00 0.  1.
         21   -1    0    0  501  502 -0.00000000000E+00 -0.00000000000E+00 -0.71479371230E+03  0.71479371230E+03  0.00000000000E+00 0.  1.
         25    1    1    2    0    0 -0.71765552911E+02  0.56365411305E+02 -0.24085163206E+03  0.28628982315E+03  0.12500000000E+03 0.  0.
         25    1    1    2    0    0  0.17084361618E+03  0.48877372241E+02 -0.13576218603E+03  0.25618920715E+03  0.12500000000E+03 0.  0.
         25    1    1    2    0    0 -0.99078063269E+02 -0.10524278355E+03 -0.21948049664E+03  0.29101407958E+03  0.12500000000E+03 0.  0.
</event>
<event>
 5    0  0.5670250E-005  0.2192795E+03  0.7546771E-02  0.1134421E+00
         21   -1    0    0  502  501  0.00000000000E+00  0.00000000000E+00  0.22583803176E+03  0.22583803176E+03  0.00000000000E+00 0. -1.
         21   -1    0    0  501  502 -0.00000000000E+00 -0.00000000000E+00 -0.21291135999E+03  0.21291135999E+03  0.00000000000E+00 0. -1.
         25    1    1    2    0    0  0.39843665981E+02 -0.70605844521E+02  0.37346606105E+02  0.15359841141E+03  0.12500000000E+03 0.  0.
         25    1    1    2    0    0 -0.32678985934E+02  0.44740016058E+02  0.39353543409E+02  0.14227890405E+03  0.12500000000E+03 0.  0.
         25    1    1    2    0    0 -0.71646800467E+01  0.25865828462E+02 -0.63773477741E+02  0.14287207630E+03  0.12500000000E+03 0.  0.
</event>
<event>
 5    0  0.5670250E-005  0.3034312E+03  0.7546771E-02  0.1083538E+00
         21   -1    0    0  502  501  0.00000000000E+00  0.00000000000E+00  0.33574755325E+03  0.33574755325E+03  0.00000000000E+00 0. -1.
         21   -1    0    0  501  502 -0.00000000000E+00 -0.00000000000E+00 -0.27422532405E+03  0.27422532405E+03  0.00000000000E+00 0. -1.
         25    1    1    2    0    0 -0.95653972774E+02 -0.15625844806E+03 -0.51702349132E+02  0.22773782734E+03  0.12500000000E+03 0.  0.
         25    1    1    2    0    0 -0.46587541098E+02  0.59451996813E+02  0.11535558338E+02  0.14650258707E+03  0.12500000000E+03 0.  0.
         25    1    1    2    0    0  0.14224151387E+03  0.96806451246E+02  0.10168902000E+03  0.23573246289E+03  0.12500000000E+03 0.  0.
</event>
<event>
 5    0  0.5670250E-005  0.3384679E+03  0.7546771E-02  0.1067450E+00
         21   -1    0    0  502  501  0.00000000000E+00  0.00000000000E+00  0.37415402525E+03  0.37415402525E+03  0.00000000000E+00 0. -1.
         21   -1    0    0  501  502 -0.00000000000E+00 -0.00000000000E+00 -0.30618540822E+03  0.30618540822E+03  0.00000000000E+00 0. -1.
         25    1    1    2    0    0  0.19073829475E+03 -0.13578279213E+03  0.14175537839E+03  0.30089475074E+03  0.12500000000E+03 0.  0.
         25    1    1    2    0    0 -0.12451244100E+03  0.14762772405E+03 -0.51632570983E+02  0.23577153191E+03  0.12500000000E+03 0.  0.
         25    1    1    2    0    0 -0.66225853746E+02 -0.11844931924E+02 -0.22154190371E+02  0.14367315082E+03  0.12500000000E+03 0.  0.
</event>
<event>
 5    0  0.5670250E-005  0.4086252E+03  0.7546771E-02  0.1040833E+00
         21   -1    0    0  502  501  0.00000000000E+00  0.00000000000E+00  0.11114312327E+04  0.11114312327E+04  0.00000000000E+00 0.  1.
         21   -1    0    0  501  502 -0.00000000000E+00 -0.00000000000E+00 -0.15023381545E+03  0.15023381545E+03  0.00000000000E+00 0.  1.
         25    1    1    2    0    0 -0.15772443386E+03  0.11206726107E+03  0.85411324047E+03  0.88463014621E+03  0.12500000000E+03 0.  0.
         25    1    1    2    0    0  0.16382357994E+03 -0.10851729155E+03  0.44659938189E+02  0.23713641219E+03  0.12500000000E+03 0.  0.
         25    1    1    2    0    0 -0.60991460777E+01 -0.35499695232E+01  0.62424238570E+02  0.13989848973E+03  0.12500000000E+03 0.  0.
</event>
<event>
 5    0  0.5670250E-005  0.2350294E+03  0.7546771E-02  0.1123149E+00
         21   -1    0    0  502  501  0.00000000000E+00  0.00000000000E+00  0.15853121529E+03  0.15853121529E+03  0.00000000000E+00 0. -1.
         21   -1    0    0  501  502 -0.00000000000E+00 -0.00000000000E+00 -0.34844125121E+03  0.34844125121E+03  0.00000000000E+00 0. -1.
         25    1    1    2    0    0 -0.30730480406E+02 -0.59892075606E+02 -0.16996011076E+03  0.22145623133E+03  0.12500000000E+03 0.  0.
         25    1    1    2    0    0  0.60850493245E+02  0.44990906159E+02  0.25497929115E+02  0.14833107751E+03  0.12500000000E+03 0.  0.
         25    1    1    2    0    0 -0.30120012839E+02  0.14901169447E+02 -0.45447854282E+02  0.13718515766E+03  0.12500000000E+03 0.  0.
</event>
<event>
 5    0  0.5670250E-005  0.4081815E+03  0.7546771E-02  0.1040983E+00
         21   -1    0    0  502  501  0.00000000000E+00  0.00000000000E+00  0.51803283777E+03  0.51803283777E+03  0.00000000000E+00 0.  1.
         21   -1    0    0  501  502 -0.00000000000E+00 -0.00000000000E+00 -0.32162466288E+03  0.32162466288E+03  0.00000000000E+00 0.  1.
         25    1    1    2    0    0  0.11930657070E+03  0.10602367799E+03 -0.61927461180E+02  0.21197898140E+03  0.12500000000E+03 0.  0.
         25    1    1    2    0    0  0.49708258283E+02 -0.26696258606E+03  0.19014510585E+03  0.35428815190E+03  0.12500000000E+03 0.  0.
         25    1    1    2    0    0 -0.16901482898E+03  0.16093890807E+03  0.68190530220E+02  0.27339036735E+03  0.12500000000E+03 0.  0.
</event>
<event>
 5    0  0.5670250E-005  0.3498787E+03  0.7546771E-02  0.1062665E+00
         21   -1    0    0  502  501  0.00000000000E+00  0.00000000000E+00  0.12289446188E+03  0.12289446188E+03  0.00000000000E+00 0. -1.
         21   -1    0    0  501  502 -0.00000000000E+00 -0.00000000000E+00 -0.99609964810E+03  0.99609964810E+03  0.00000000000E+00 0. -1.
         25    1    1    2    0    0 -0.36647097697E+02  0.84643127454E+02 -0.53839476824E+03  0.56035827402E+03  0.12500000000E+03 0.  0.
         25    1    1    2    0    0 -0.12317563142E+03 -0.19303408592E+02 -0.29199150252E+03  0.34121678637E+03  0.12500000000E+03 0.  0.
         25    1    1    2    0    0  0.15982272912E+03 -0.65339718862E+02 -0.42818915463E+02  0.21741904959E+03  0.12500000000E+03 0.  0.
</event>
<event>
 5    0  0.5670250E-005  0.3718862E+03  0.7546771E-02  0.1053974E+00
         21   -1    0    0  502  501  0.00000000000E+00  0.00000000000E+00  0.23945676886E+03  0.23945676886E+03  0.00000000000E+00 0. -1.
         21   -1    0    0  501  502 -0.00000000000E+00 -0.00000000000E+00 -0.57755459028E+03  0.57755459028E+03  0.00000000000E+00 0. -1.
         25    1    1    2    0    0 -0.18472913445E+03 -0.26093590625E+01  0.47838513324E+02  0.22813413867E+03  0.12500000000E+03 0.  0.
         25    1    1    2    0    0  0.58612061755E+02  0.13992883190E+03 -0.86793255776E+02  0.21488024811E+03  0.12500000000E+03 0.  0.
         25    1    1    2    0    0  0.12611707269E+03 -0.13731947284E+03 -0.29914307896E+03  0.37399697236E+03  0.12500000000E+03 0.  0.
</event>
<event>
 5    0  0.5670250E-005  0.3663130E+03  0.7546771E-02  0.1056112E+00
         21   -1    0    0  502  501  0.00000000000E+00  0.00000000000E+00  0.40132517658E+03  0.40132517658E+03  0.00000000000E+00 0.  1.
         21   -1    0    0  501  502 -0.00000000000E+00 -0.00000000000E+00 -0.33435538564E+03  0.33435538564E+03  0.00000000000E+00 0.  1.
         25    1    1    2    0    0 -0.18283324366E+03 -0.12873304870E+03 -0.15858313892E+02  0.25666452605E+03  0.12500000000E+03 0.  0.
         25    1    1    2    0    0  0.67145930737E+02 -0.73507433807E+02  0.13538077187E+03  0.20943942377E+03  0.12500000000E+03 0.  0.
         25    1    1    2    0    0  0.11568731293E+03  0.20224048250E+03 -0.52552667035E+02  0.26957661239E+03  0.12500000000E+03 0.  0.
</event>
<event>
 5    0  0.5670250E-005  0.3951873E+03  0.7546771E-02  0.1045459E+00
         21   -1    0    0  502  501  0.00000000000E+00  0.00000000000E+00  0.91479301769E+03  0.91479301769E+03  0.00000000000E+00 0.  1.
         21   -1    0    0  501  502 -0.00000000000E+00 -0.00000000000E+00 -0.17071951953E+03  0.17071951953E+03  0.00000000000E+00 0.  1.
         25    1    1    2    0    0 -0.22074082387E+01  0.19888551226E+03  0.23469476725E+03  0.33206468257E+03  0.12500000000E+03 0.  0.
         25    1    1    2    0    0 -0.16714220596E+03 -0.51952026947E+02  0.43648641721E+03  0.48660140005E+03  0.12500000000E+03 0.  0.
         25    1    1    2    0    0  0.16934961420E+03 -0.14693348531E+03  0.72892313706E+02  0.26684645460E+03  0.12500000000E+03 0.  0.
</event>
<event>
 5    0  0.5670250E-005  0.3519403E+03  0.7546771E-02  0.1061821E+00
         21   -1    0    0  502  501  0.00000000000E+00  0.00000000000E+00  0.52999070543E+03  0.52999070543E+03  0.00000000000E+00 0.  1.
         21   -1    0    0  501  502 -0.00000000000E+00 -0.00000000000E+00 -0.23370589851E+03  0.23370589851E+03  0.00000000000E+00 0.  1.
         25    1    1    2    0    0 -0.46368095029E+02  0.13194981290E+03 -0.61726228542E+02  0.19747374674E+03  0.12500000000E+03 0.  0.
         25    1    1    2    0    0 -0.83220573375E+02  0.55266194772E+02  0.59982173656E+02  0.17088849368E+03  0.12500000000E+03 0.  0.
         25    1    1    2    0    0  0.12958866840E+03 -0.18721600767E+03  0.29802886180E+03  0.39533436351E+03  0.12500000000E+03 0.  0.
</event>
<event>
 5    0  0.5670250E-005  0.3404521E+03  0.7546771E-02  0.1066604E+00
         21   -1    0    0  502  501  0.00000000000E+00  0.00000000000E+00  0.12594614621E+03  0.12594614621E+03  0.00000000000E+00 0. -1.
         21   -1    0    0  501  502 -0.00000000000E+00 -0.00000000000E+00 -0.92029504753E+03  0.92029504753E+03  0.00000000000E+00 0. -1.
         25    1    1    2    0    0 -0.11883180670E+03  0.77125684436E+02 -0.71085108090E+02  0.20186000613E+03  0.12500000000E+03 0.  0.
         25    1    1    2    0    0  0.11191544594E+03 -0.62932435624E+02 -0.69164488360E+03  0.71448107288E+03  0.12500000000E+03 0.  0.
         25    1    1    2    0    0  0.69163607618E+01 -0.14193248811E+02 -0.31618909631E+02  0.12990011472E+03  0.12500000000E+03 0.  0.
</event>
<event>
 5    0  0.5670250E-005  0.3252182E+03  0.7546771E-02  0.1073272E+00
         21   -1    0    0  502  501  0.00000000000E+00  0.00000000000E+00  0.11034023901E+03  0.11034023901E+03  0.00000000000E+00 0. -1.
         21   -1    0    0  501  502 -0.00000000000E+00 -0.00000000000E+00 -0.95855199648E+03  0.95855199648E+03  0.00000000000E+00 0. -1.
         25    1    1    2    0    0  0.10221807948E+03 -0.14709987399E+03 -0.18592659392E+03  0.28684596393E+03  0.12500000000E+03 0.  0.
         25    1    1    2    0    0 -0.55956035883E+02  0.27469270015E+02 -0.57074240978E+02  0.15089104589E+03  0.12500000000E+03 0.  0.
         25    1    1    2    0    0 -0.46262043596E+02  0.11963060397E+03 -0.60521092257E+03  0.63115522567E+03  0.12500000000E+03 0.  0.
</event>
<event>
 5    0  0.5670250E-005  0.2813683E+03  0.7546771E-02  0.1094944E+00
         21   -1    0    0  502  501  0.00000000000E+00  0.00000000000E+00  0.69627042128E+03  0.69627042128E+03  0.00000000000E+00 0.  1.
         21   -1    0    0  501  502 -0.00000000000E+00 -0.00000000000E+00 -0.11370311348E+03  0.11370311348E+03  0.00000000000E+00 0.  1.
         25    1    1    2    0    0 -0.15428566609E+03  0.17124830553E+02  0.15523836182E+03  0.25262873068E+03  0.12500000000E+03 0.  0.
         25    1    1    2    0    0  0.10105903586E+03 -0.42116319918E+02  0.37402845737E+03  0.40927863377E+03  0.12500000000E+03 0.  0.
         25    1    1    2    0    0  0.53226630230E+02  0.24991489365E+02  0.53300488604E+02  0.14806617031E+03  0.12500000000E+03 0.  0.
</event>
<event>
 5    0  0.5670250E-005  0.2266249E+03  0.7546771E-02  0.1129038E+00
         21   -1    0    0  502  501  0.00000000000E+00  0.00000000000E+00  0.63623103224E+02  0.63623103224E+02  0.00000000000E+00 0.  1.
         21   -1    0    0  501  502 -0.00000000000E+00 -0.00000000000E+00 -0.80723595805E+03  0.80723595805E+03  0.00000000000E+00 0.  1.
         25    1    1    2    0    0 -0.22882037623E+02  0.11578703803E+02 -0.42117962134E+03  0.44008513661E+03  0.12500000000E+03 0.  0.
         25    1    1    2    0    0  0.12916193287E+02  0.49318841566E+02 -0.98949916922E+02  0.16737760376E+03  0.12500000000E+03 0.  0.
         25    1    1    2    0    0  0.99658443363E+01 -0.60897545369E+02 -0.22348331656E+03  0.26339632090E+03  0.12500000000E+03 0.  0.
</event>
<event>
 5    0  0.5670250E-005  0.3909116E+03  0.7546771E-02  0.1046973E+00
         21   -1    0    0  502  501  0.00000000000E+00  0.00000000000E+00  0.62053999852E+03  0.62053999852E+03  0.00000000000E+00 0.  1.
         21   -1    0    0  501  502 -0.00000000000E+00 -0.00000000000E+00 -0.24625632661E+03  0.24625632661E+03  0.00000000000E+00 0.  1.
         25    1    1    2    0    0 -0.28565784147E+03 -0.26357159725E+02  0.19071144708E+03  0.36645730762E+03  0.12500000000E+03 0.  0.
         25    1    1    2    0    0  0.25505574269E+03 -0.23095263480E+02  0.18941164916E+02  0.28560565612E+03  0.12500000000E+03 0.  0.
         25    1    1    2    0    0  0.30602098772E+02  0.49452423205E+02  0.16463105991E+03  0.21473336140E+03  0.12500000000E+03 0.  0.
</event>
<event>
 5    0  0.5670250E-005  0.4537000E+03  0.7546771E-02  0.1026624E+00
         21   -1    0    0  502  501  0.00000000000E+00  0.00000000000E+00  0.15489012897E+04  0.15489012897E+04  0.00000000000E+00 0.  1.
         21   -1    0    0  501  502 -0.00000000000E+00 -0.00000000000E+00 -0.13289658552E+03  0.13289658552E+03  0.00000000000E+00 0.  1.
         25    1    1    2    0    0  0.28801085334E+02 -0.13367595299E+02  0.59213337017E+02  0.14191340459E+03  0.12500000000E+03 0.  0.
         25    1    1    2    0    0 -0.15766010618E+03 -0.22189658352E+03  0.23788509764E+03  0.38250375494E+03  0.12500000000E+03 0.  0.
         25    1    1    2    0    0  0.12885902085E+03  0.23526417882E+03  0.11189062695E+04  0.11573807157E+04  0.12500000000E+03 0.  0.
</event>
<event>
 5    0  0.5670250E-005  0.3941792E+03  0.7546771E-02  0.1045814E+00
         21   -1    0    0  502  501  0.00000000000E+00  0.00000000000E+00  0.12756358645E+04  0.12756358645E+04  0.00000000000E+00 0.  1.
         21   -1    0    0  501  502 -0.00000000000E+00 -0.00000000000E+00 -0.12180377413E+03  0.12180377413E+03  0.00000000000E+00 0.  1.
         25    1    1    2    0    0 -0.14539451611E+03  0.21921230328E+02  0.75704337914E+03  0.78125526146E+03  0.12500000000E+03 0.  0.
         25    1    1    2    0    0  0.20112742735E+03  0.86442647483E+02  0.35717771648E+03  0.43717901881E+03  0.12500000000E+03 0.  0.
         25    1    1    2    0    0 -0.55732911238E+02 -0.10836387781E+03  0.39610994713E+02  0.17900535833E+03  0.12500000000E+03 0.  0.
</event>
<event>
 5    0  0.5670250E-005  0.3426618E+03  0.7546771E-02  0.1065668E+00
         21   -1    0    0  502  501  0.00000000000E+00  0.00000000000E+00  0.15711820560E+03  0.15711820560E+03  0.00000000000E+00 0. -1.
         21   -1    0    0  501  502 -0.00000000000E+00 -0.00000000000E+00 -0.74731698120E+03  0.74731698120E+03  0.00000000000E+00 0. -1.
         25    1    1    2    0    0  0.13622391029E+03 -0.10595333104E+03 -0.24264052111E+02  0.21446866045E+03  0.12500000000E+03 0.  0.
         25    1    1    2    0    0 -0.51377363421E+02  0.17359729976E+03 -0.39426073516E+03  0.45148885174E+03  0.12500000000E+03 0.  0.
         25    1    1    2    0    0 -0.84846546869E+02 -0.67643968723E+02 -0.17167398832E+03  0.23847767461E+03  0.12500000000E+03 0.  0.
</event>
<event>
 5    0  0.5670250E-005  0.3449038E+03  0.7546771E-02  0.1064726E+00
         21   -1    0    0  502  501  0.00000000000E+00  0.00000000000E+00  0.98557670739E+03  0.98557670739E+03  0.00000000000E+00 0. -1.
         21   -1    0    0  501  502 -0.00000000000E+00 -0.00000000000E+00 -0.12069955018E+03  0.12069955018E+03  0.00000000000E+00 0. -1.
         25    1    1    2    0    0  0.15980679196E+03 -0.45664723613E+02  0.21908167392E+02  0.20911347526E+03  0.12500000000E+03 0.  0.
         25    1    1    2    0    0 -0.65369819639E+02 -0.48183143473E+01  0.43134097142E+03  0.45384629898E+03  0.12500000000E+03 0.  0.
         25    1    1    2    0    0 -0.94436972316E+02  0.50483037960E+02  0.41162801839E+03  0.44331648332E+03  0.12500000000E+03 0.  0.
</event>
<event>
 5    0  0.5670250E-005  0.3120705E+03  0.7546771E-02  0.1079358E+00
         21   -1    0    0  502  501  0.00000000000E+00  0.00000000000E+00  0.39178026726E+03  0.39178026726E+03  0.00000000000E+00 0. -1.
         21   -1    0    0  501  502 -0.00000000000E+00 -0.00000000000E+00 -0.24857810461E+03  0.24857810461E+03  0.00000000000E+00 0. -1.
         25    1    1    2    0    0 -0.38040468937E+02 -0.20613772970E+03  0.14395116052E+03  0.28334921475E+03  0.12500000000E+03 0.  0.
         25    1    1    2    0    0  0.11280891650E+02  0.11786783785E+03 -0.71344924592E+02  0.18637377493E+03  0.12500000000E+03 0.  0.
         25    1    1    2    0    0  0.26759577288E+02  0.88269891856E+02  0.70595926725E+02  0.17063538219E+03  0.12500000000E+03 0.  0.
</event>
<event>
 5    0  0.5670250E-005  0.3179671E+03  0.7546771E-02  0.1076589E+00
         21   -1    0    0  502  501  0.00000000000E+00  0.00000000000E+00  0.40341151642E+03  0.40341151642E+03  0.00000000000E+00 0. -1.
         21   -1    0    0  501  502 -0.00000000000E+00 -0.00000000000E+00 -0.25062021128E+03  0.25062021128E+03  0.00000000000E+00 0. -1.
         25    1    1    2    0    0  0.46300542971E+02 -0.19204491453E+03  0.17030096164E+03  0.28922725841E+03  0.12500000000E+03 0.  0.
         25    1    1    2    0    0 -0.90549133336E+02  0.33974836366E+02 -0.59236562619E+01  0.15815664626E+03  0.12500000000E+03 0.  0.
         25    1    1    2    0    0  0.44248590366E+02  0.15807007816E+03 -0.11586000228E+02  0.20664782302E+03  0.12500000000E+03 0.  0.
</event>
<event>
 5    0  0.5670250E-005  0.3017981E+03  0.7546771E-02  0.1084345E+00
         21   -1    0    0  502  501  0.00000000000E+00  0.00000000000E+00  0.15854078050E+03  0.15854078050E+03  0.00000000000E+00 0. -1.
         21   -1    0    0  501  502 -0.00000000000E+00 -0.00000000000E+00 -0.57450259735E+03  0.57450259735E+03  0.00000000000E+00 0. -1.
         25    1    1    2    0    0  0.14157597249E+03  0.83249027526E+02 -0.12135780897E+03  0.23943031213E+03  0.12500000000E+03 0.  0.
         25    1    1    2    0    0 -0.17278198526E+03 -0.93142511799E+02 -0.85726153912E+02  0.24799821653E+03  0.12500000000E+03 0.  0.
         25    1    1    2    0    0  0.31206012769E+02  0.98934842728E+01 -0.20887785397E+03  0.24561484919E+03  0.12500000000E+03 0.  0.
</event>
<event>
 5    0  0.5670250E-005  0.3819459E+03  0.7546771E-02  0.1050217E+00
         21   -1    0    0  502  501  0.00000000000E+00  0.00000000000E+00  0.49578676400E+03  0.49578676400E+03  0.00000000000E+00 0.  1.
         21   -1    0    0  501  502 -0.00000000000E+00 -0.00000000000E+00 -0.29424484582E+03  0.29424484582E+03  0.00000000000E+00 0.  1.
         25    1    1    2    0    0  0.16827876033E+03 -0.12576099914E+03 -0.20065825119E+01  0.24446389602E+03  0.12500000000E+03 0.  0.
         25    1    1    2    0    0 -0.16086313933E+03 -0.22452902431E+02  0.27133140799E+03  0.34003943210E+03  0.12500000000E+03 0.  0.
         25    1    1    2    0    0 -0.74156210068E+01  0.14821390157E+03 -0.67782907305E+02  0.20552828170E+03  0.12500000000E+03 0.  0.
</event>
<event>
 5    0  0.5670250E-005  0.2746237E+03  0.7546771E-02  0.1098662E+00
         21   -1    0    0  502  501  0.00000000000E+00  0.00000000000E+00  0.19305111255E+04  0.19305111255E+04  0.00000000000E+00 0.  1.
         21   -1    0    0  501  502 -0.00000000000E+00 -0.00000000000E+00 -0.39066431127E+02  0.39066431127E+02  0.00000000000E+00 0.  1.
         25    1    1    2    0    0 -0.62576594684E+02 -0.14172191271E+01  0.89685671341E+03  0.90768651147E+03  0.12500000000E+03 0.  0.
         25    1    1    2    0    0  0.58522127430E+02 -0.11296511062E+03  0.69666257711E+03  0.71913121332E+03  0.12500000000E+03 0.  0.
         25    1    1    2    0    0  0.40544672539E+01  0.11438232974E+03  0.29792540381E+03  0.34275983180E+03  0.12500000000E+03 0.  0.
</event>
<event>
 5    0  0.5670250E-005  0.2058924E+03  0.7546771E-02  0.1144861E+00
         21   -1    0    0  502  501  0.00000000000E+00  0.00000000000E+00  0.31848393666E+03  0.31848393666E+03  0.00000000000E+00 0.  1.
         21   -1    0    0  501  502 -0.00000000000E+00 -0.00000000000E+00 -0.13310458669E+03  0.13310458669E+03  0.00000000000E+00 0.  1.
         25    1    1    2    0    0 -0.65764585397E+02  0.10348302545E+02  0.67383163012E+02  0.15683608869E+03  0.12500000000E+03 0.  0.
         25    1    1    2    0    0  0.43186502120E+02 -0.11049531313E+02  0.10062400555E+03  0.16654535899E+03  0.12500000000E+03 0.  0.
         25    1    1    2    0    0  0.22578083276E+02  0.70122876828E+00  0.17372181418E+02  0.12820707568E+03  0.12500000000E+03 0.  0.
</event>
<event>
 5    0  0.6080254E-005  0.2768934E+03  0.7546771E-02  0.1097398E+00
         21   -1    0    0  502  501  0.00000000000E+00  0.00000000000E+00  0.48691535523E+03  0.48691535523E+03  0.00000000000E+00 0. -1.
         21   -1    0    0  501  502 -0.00000000000E+00 -0.00000000000E+00 -0.15746056664E+03  0.15746056664E+03  0.00000000000E+00 0. -1.
         25    1    1    2    0    0 -0.65765200035E+02  0.13089560611E+03  0.27509846045E+03  0.33580185255E+03  0.12500000000E+03 0.  0.
         25    1    1    2    0    0 -0.44352571516E+01 -0.71552640984E+02  0.52615228332E+02  0.15340408792E+03  0.12500000000E+03 0.  0.
         25    1    1    2    0    0  0.70200457187E+02 -0.59342965127E+02  0.17410997985E+01  0.15516998140E+03  0.12500000000E+03 0.  0.
</event>
<event>
 5    0  0.5670250E-005  0.3262185E+03  0.7546771E-02  0.1072822E+00
         21   -1    0    0  502  501  0.00000000000E+00  0.00000000000E+00  0.47299519002E+03  0.47299519002E+03  0.00000000000E+00 0.  1.
         21   -1    0    0  501  502 -0.00000000000E+00 -0.00000000000E+00 -0.22498861493E+03  0.22498861493E+03  0.00000000000E+00 0.  1.
         25    1    1    2    0    0 -0.89702381615E+00  0.19318912824E+03  0.28805667421E+03  0.36867938847E+03  0.12500000000E+03 0.  0.
         25    1    1    2    0    0  0.28353425013E+02 -0.92501228974E+02 -0.51013435166E+02  0.16609564907E+03  0.12500000000E+03 0.  0.
         25    1    1    2    0    0 -0.27456401197E+02 -0.10068789927E+03  0.10963336036E+02  0.16320876742E+03  0.12500000000E+03 0.  0.
</event>
<event>
 5    0  0.5670250E-005  0.3001862E+03  0.7546771E-02  0.1085148E+00
         21   -1    0    0  502  501  0.00000000000E+00  0.00000000000E+00  0.10583286804E+04  0.10583286804E+04  0.00000000000E+00 0. -1.
         21   -1    0    0  501  502 -0.00000000000E+00 -0.00000000000E+00 -0.85145321275E+02  0.85145321275E+02  0.00000000000E+00 0. -1.
         25    1    1    2    0    0  0.11614209443E+03  0.55354390420E+02  0.13193435283E+03  0.22267637525E+03  0.12500000000E+03 0.  0.
         25    1    1    2    0    0 -0.16545070058E+03 -0.18660898105E+02  0.66090548062E+03  0.69292367383E+03  0.12500000000E+03 0.  0.
         25    1    1    2    0    0  0.49308606147E+02 -0.36693492315E+02  0.18034352567E+03  0.22787395259E+03  0.12500000000E+03 0.  0.
</event>
<event>
 5    0  0.5670250E-005  0.5521569E+03  0.7546771E-02  0.1000996E+00
         21   -1    0    0  502  501  0.00000000000E+00  0.00000000000E+00  0.68949138411E+03  0.68949138411E+03  0.00000000000E+00 0.  1.
         21   -1    0    0  501  502 -0.00000000000E+00 -0.00000000000E+00 -0.44217700185E+03  0.44217700185E+03  0.00000000000E+00 0.  1.
         25    1    1    2    0    0 -0.15857911677E+03  0.59736296723E+02 -0.54403226582E+02  0.21748671795E+03  0.12500000000E+03 0.  0.
         25    1    1    2    0    0 -0.18830473996E+03  0.27761710758E+03  0.76759175879E+02  0.36612416554E+03  0.12500000000E+03 0.  0.
         25    1    1    2    0    0  0.34688385672E+03 -0.33735340431E+03  0.22495843297E+03  0.54805750247E+03  0.12500000000E+03 0.  0.
</event>
<event>
 5    0  0.5670250E-005  0.3560714E+03  0.7546771E-02  0.1060150E+00
         21   -1    0    0  502  501  0.00000000000E+00  0.00000000000E+00  0.12294035289E+03  0.12294035289E+03  0.00000000000E+00 0. -1.
         21   -1    0    0  501  502 -0.00000000000E+00 -0.00000000000E+00 -0.10312871844E+04  0.10312871844E+04  0.00000000000E+00 0. -1.
         25    1    1    2    0    0  0.10498028191E+03  0.43093062378E+01 -0.22212090363E+03  0.27568483009E+03  0.12500000000E+03 0.  0.
         25    1    1    2    0    0  0.12598898069E+03  0.12508384575E+03 -0.45960244156E+03  0.50830954743E+03  0.12500000000E+03 0.  0.
         25    1    1    2    0    0 -0.23096926260E+03 -0.12939315199E+03 -0.22662348631E+03  0.37023315977E+03  0.12500000000E+03 0.  0.
</event>
<event>
 5    0  0.5670250E-005  0.3343222E+03  0.7546771E-02  0.1069240E+00
         21   -1    0    0  502  501  0.00000000000E+00  0.00000000000E+00  0.25538657101E+03  0.25538657101E+03  0.00000000000E+00 0. -1.
         21   -1    0    0  501  502 -0.00000000000E+00 -0.00000000000E+00 -0.43765550190E+03  0.43765550190E+03  0.00000000000E+00 0. -1.
         25    1    1    2    0    0 -0.87943471126E+02  0.84230759542E+02  0.10307599187E+03  0.20267840306E+03  0.12500000000E+03 0.  0.
         25    1    1    2    0    0  0.11463703749E+03 -0.12522253346E+02 -0.29815136549E+03  0.34324582144E+03  0.12500000000E+03 0.  0.
         25    1    1    2    0    0 -0.26693566368E+02 -0.71708506197E+02  0.12806442732E+02  0.14711784841E+03  0.12500000000E+03 0.  0.
</event>
<event>
 5    0  0.5670250E-005  0.3524847E+03  0.7546771E-02  0.1061600E+00
         21   -1    0    0  502  501  0.00000000000E+00  0.00000000000E+00  0.18068091585E+04  0.18068091585E+04  0.00000000000E+00 0. -1.
         21   -1    0    0  501  502 -0.00000000000E+00 -0.00000000000E+00 -0.68765117926E+02  0.68765117926E+02  0.00000000000E+00 0. -1.
         25    1    1    2    0    0  0.62387249768E+02  0.15623756647E+03  0.49083100095E+03  0.53370630276E+03  0.12500000000E+03 0.  0.
         25    1    1    2    0    0 -0.82213407082E+02  0.26729479116E+01  0.10434878100E+04  0.10541622259E+04  0.12500000000E+03 0.  0.
         25    1    1    2    0    0  0.19826157314E+02 -0.15891051438E+03  0.20372522961E+03  0.28770574773E+03  0.12500000000E+03 0.  0.
</event>
<event>
 5    0  0.5670250E-005  0.2186327E+03  0.7546771E-02  0.1134907E+00
         21   -1    0    0  502  501  0.00000000000E+00  0.00000000000E+00  0.17914253088E+02  0.17914253088E+02  0.00000000000E+00 0. -1.
         21   -1    0    0  501  502 -0.00000000000E+00 -0.00000000000E+00 -0.26682799427E+04  0.26682799427E+04  0.00000000000E+00 0. -1.
         25    1    1    2    0    0  0.69185000905E+02 -0.24742014944E+02 -0.10325043295E+04  0.10426355654E+04  0.12500000000E+03 0.  0.
         25    1    1    2    0    0 -0.43577343527E+02 -0.49819485792E+02 -0.82684716515E+03  0.83885767598E+03  0.12500000000E+03 0.  0.
         25    1    1    2    0    0 -0.25607657378E+02  0.74561500736E+02 -0.79101419492E+03  0.80470095444E+03  0.12500000000E+03 0.  0.
</event>
<event>
 5    0  0.5670250E-005  0.3609320E+03  0.7546771E-02  0.1058215E+00
         21   -1    0    0  502  501  0.00000000000E+00  0.00000000000E+00  0.10997367274E+04  0.10997367274E+04  0.00000000000E+00 0.  1.
         21   -1    0    0  501  502 -0.00000000000E+00 -0.00000000000E+00 -0.11845735289E+03  0.11845735289E+03  0.00000000000E+00 0. -1.
         25    1    1    2    0    0  0.12484129448E+03  0.12166006549E+02  0.19703023894E+03  0.26491371346E+03  0.12500000000E+03 0.  0.
         25    1    1    2    0    0 -0.12236199973E+03 -0.18298314712E+03  0.17351201429E+03  0.30689853406E+03  0.12500000000E+03 0.  0.
         25    1    1    2    0    0 -0.24792947536E+01  0.17081714057E+03  0.61073712125E+03  0.64638183273E+03  0.12500000000E+03 0.  0.
</event>
<event>
 5    0  0.5670250E-005  0.2753911E+03  0.7546771E-02  0.1098233E+00
         21   -1    0    0  502  501  0.00000000000E+00  0.00000000000E+00  0.39962887185E+02  0.39962887185E+02  0.00000000000E+00 0.  1.
         21   -1    0    0  501  502 -0.00000000000E+00 -0.00000000000E+00 -0.18977676007E+04  0.18977676007E+04  0.00000000000E+00 0.  1.
         25    1    1    2    0    0 -0.75818473369E+02  0.14302957884E+03 -0.97265048182E+03  0.99392145621E+03  0.12500000000E+03 0.  0.
         25    1    1    2    0    0  0.36900395583E+02  0.22061177994E+01 -0.40128203642E+03  0.42192271675E+03  0.12500000000E+03 0.  0.
         25    1    1    2    0    0  0.38918077786E+02 -0.14523569664E+03 -0.48387219531E+03  0.52188631497E+03  0.12500000000E+03 0.  0.
</event>
<event>
 5    0  0.5670250E-005  0.3271509E+03  0.7546771E-02  0.1072405E+00
         21   -1    0    0  502  501  0.00000000000E+00  0.00000000000E+00  0.77343509271E+03  0.77343509271E+03  0.00000000000E+00 0. -1.
         21   -1    0    0  501  502 -0.00000000000E+00 -0.00000000000E+00 -0.13837967675E+03  0.13837967675E+03  0.00000000000E+00 0. -1.
         25    1    1    2    0    0  0.78091085235E+02  0.48060010173E+02  0.19968082321E+03  0.25279520037E+03  0.12500000000E+03 0.  0.
         25    1    1    2    0    0 -0.11725770067E+03  0.11898369106E+03  0.38946719949E+03  0.44183275862E+03  0.12500000000E+03 0.  0.
         25    1    1    2    0    0  0.39166615433E+02 -0.16704370124E+03  0.45907393255E+02  0.21718681047E+03  0.12500000000E+03 0.  0.
</event>
<event>
 5    0  0.5670250E-005  0.3314922E+03  0.7546771E-02  0.1070479E+00
         21   -1    0    0  502  501  0.00000000000E+00  0.00000000000E+00  0.15895264802E+03  0.15895264802E+03  0.00000000000E+00 0.  1.
         21   -1    0    0  501  502 -0.00000000000E+00 -0.00000000000E+00 -0.69131949795E+03  0.69131949795E+03  0.00000000000E+00 0.  1.
         25    1    1    2    0    0 -0.30635834187E+02 -0.35538628512E+02 -0.11436362177E+03  0.17579984766E+03  0.12500000000E+03 0.  0.
         25    1    1    2    0    0  0.19096999031E+03  0.12451997728E+03 -0.83559903285E+02  0.27309708782E+03  0.12500000000E+03 0.  0.
         25    1    1    2    0    0 -0.16033415612E+03 -0.88981348769E+02 -0.33444332488E+03  0.40137521050E+03  0.12500000000E+03 0.  0.
</event>
<event>
 5    0  0.5670250E-005  0.3127466E+03  0.7546771E-02  0.1079037E+00
         21   -1    0    0  502  501  0.00000000000E+00  0.00000000000E+00  0.37120627400E+03  0.37120627400E+03  0.00000000000E+00 0. -1.
         21   -1    0    0  501  502 -0.00000000000E+00 -0.00000000000E+00 -0.26349349441E+03  0.26349349441E+03  0.00000000000E+00 0. -1.
         25    1    1    2    0    0 -0.18110180286E+02 -0.22774121425E+02 -0.14697022021E+03  0.19512018057E+03  0.12500000000E+03 0.  0.
         25    1    1    2    0    0 -0.84722154138E+02  0.77180509004E+02  0.19561207572E+03  0.25888947167E+03  0.12500000000E+03 0.  0.
         25    1    1    2    0    0  0.10283233442E+03 -0.54406387579E+02  0.59070924069E+02  0.18069011617E+03  0.12500000000E+03 0.  0.
</event>
<event>
 5    0  0.5670250E-005  0.3031041E+03  0.7546771E-02  0.1083699E+00
         21   -1    0    0  502  501  0.00000000000E+00  0.00000000000E+00  0.48515171344E+02  0.48515171344E+02  0.00000000000E+00 0. -1.
         21   -1    0    0  501  502 -0.00000000000E+00 -0.00000000000E+00 -0.18936773739E+04  0.18936773739E+04  0.00000000000E+00 0. -1.
         25    1    1    2    0    0  0.83646199292E+02 -0.18583408681E+03 -0.75654016417E+03  0.79341604123E+03  0.12500000000E+03 0.  0.
         25    1    1    2    0    0 -0.25221288393E+01  0.17807344985E+03 -0.63515770435E+03  0.67139170688E+03  0.12500000000E+03 0.  0.
         25    1    1    2    0    0 -0.81124070453E+02  0.77606369571E+01 -0.45346433407E+03  0.47738479717E+03  0.12500000000E+03 0.  0.
</event>
<event>
 5    0  0.5670250E-005  0.4081255E+03  0.7546771E-02  0.1041002E+00
         21   -1    0    0  502  501  0.00000000000E+00  0.00000000000E+00  0.77566046778E+03  0.77566046778E+03  0.00000000000E+00 0. -1.
         21   -1    0    0  501  502 -0.00000000000E+00 -0.00000000000E+00 -0.21474145529E+03  0.21474145529E+03  0.00000000000E+00 0. -1.
         25    1    1    2    0    0 -0.14677581321E+03  0.13793941196E+02  0.39728586334E+03  0.44180818164E+03  0.12500000000E+03 0.  0.
         25    1    1    2    0    0  0.93704961475E+02 -0.18150487343E+03 -0.50324430377E+02  0.24470837170E+03  0.12500000000E+03 0.  0.
         25    1    1    2    0    0  0.53070851737E+02  0.16771093224E+03  0.21395757954E+03  0.30388536973E+03  0.12500000000E+03 0.  0.
</event>
<event>
 5    0  0.5670250E-005  0.3407475E+03  0.7546771E-02  0.1066478E+00
         21   -1    0    0  502  501  0.00000000000E+00  0.00000000000E+00  0.16214575499E+03  0.16214575499E+03  0.00000000000E+00 0.  1.
         21   -1    0    0  501  502 -0.00000000000E+00 -0.00000000000E+00 -0.71607713188E+03  0.71607713188E+03  0.00000000000E+00 0.  1.
         25    1    1    2    0    0  0.88231452137E+02 -0.36015922692E+02 -0.15003645268E+02  0.15789884485E+03  0.12500000000E+03 0.  0.
         25    1    1    2    0    0 -0.11466703107E+03  0.89055209637E+02 -0.31224597417E+02  0.19411165308E+03  0.12500000000E+03 0.  0.
         25    1    1    2    0    0  0.26435578936E+02 -0.53039286946E+02 -0.50770313420E+03  0.52621238893E+03  0.12500000000E+03 0.  0.
</event>
<event>
 5    0  0.5670250E-005  0.3538753E+03  0.7546771E-02  0.1061036E+00
         21   -1    0    0  502  501  0.00000000000E+00  0.00000000000E+00  0.50413664625E+03  0.50413664625E+03  0.00000000000E+00 0. -1.
         21   -1    0    0  501  502 -0.00000000000E+00 -0.00000000000E+00 -0.24840033312E+03  0.24840033312E+03  0.00000000000E+00 0. -1.
         25    1    1    2    0    0 -0.12485750521E+02  0.86706540775E+01  0.11455460467E+03  0.17023169992E+03  0.12500000000E+03 0.  0.
         25    1    1    2    0    0  0.10249985356E+02  0.19839237608E+02  0.33026964665E+03  0.35383851832E+03  0.12500000000E+03 0.  0.
         25    1    1    2    0    0  0.22357651646E+01 -0.28509891686E+02 -0.18908793819E+03  0.22846676112E+03  0.12500000000E+03 0.  0.
</event>
<event>
 5    0  0.5670250E-005  0.4088117E+03  0.7546771E-02  0.1040771E+00
         21   -1    0    0  502  501  0.00000000000E+00  0.00000000000E+00  0.33212312062E+03  0.33212312062E+03  0.00000000000E+00 0.  1.
         21   -1    0    0  501  502 -0.00000000000E+00 -0.00000000000E+00 -0.50320793539E+03  0.50320793539E+03  0.00000000000E+00 0.  1.
         25    1    1    2    0    0  0.64131649279E+02 -0.23589195889E+03 -0.18140166863E+03  0.32907362412E+03  0.12500000000E+03 0.  0.
         25    1    1    2    0    0 -0.10318336044E+03  0.23861576904E+03 -0.12815603622E+03  0.31564736768E+03  0.12500000000E+03 0.  0.
         25    1    1    2    0    0  0.39051711158E+02 -0.27238101461E+01  0.13847289009E+03  0.19061006421E+03  0.12500000000E+03 0.  0.
</event>
<event>
 5    0  0.5670250E-005  0.3279288E+03  0.7546771E-02  0.1072057E+00
         21   -1    0    0  502  501  0.00000000000E+00  0.00000000000E+00  0.70503406369E+03  0.70503406369E+03  0.00000000000E+00 0.  1.
         21   -1    0    0  501  502 -0.00000000000E+00 -0.00000000000E+00 -0.15252777864E+03  0.15252777864E+03  0.00000000000E+00 0.  1.
         25    1    1    2    0    0 -0.19660498550E+02  0.95459087111E+02  0.45424376861E+03  0.48110432740E+03  0.12500000000E+03 0.  0.
         25    1    1    2    0    0 -0.42649154385E+02  0.54545102288E+02 -0.12574460981E+02  0.14344767556E+03  0.12500000000E+03 0.  0.
         25    1    1    2    0    0  0.62309652936E+02 -0.15000418940E+03  0.11083697741E+03  0.23300983938E+03  0.12500000000E+03 0.  0.
</event>
<event>
 5    0  0.5670250E-005  0.4809466E+03  0.7546771E-02  0.1018875E+00
         21   -1    0    0  502  501  0.00000000000E+00  0.00000000000E+00  0.10955466423E+03  0.10955466423E+03  0.00000000000E+00 0. -1.
         21   -1    0    0  501  502 -0.00000000000E+00 -0.00000000000E+00 -0.21113628933E+04  0.21113628933E+04  0.00000000000E+00 0. -1.
         25    1    1    2    0    0 -0.10039129877E+03  0.15749243393E+03 -0.10830623754E+03  0.24947448909E+03  0.12500000000E+03 0.  0.
         25    1    1    2    0    0 -0.12347155542E+03 -0.12517523614E+03 -0.38816366633E+03  0.44408343428E+03  0.12500000000E+03 0.  0.
         25    1    1    2    0    0  0.22386285420E+03 -0.32317197791E+02 -0.15053383252E+04  0.15273596341E+04  0.12500000000E+03 0.  0.
</event>
<event>
 5    0  0.5670250E-005  0.2429165E+03  0.7546771E-02  0.1117865E+00
         21   -1    0    0  502  501  0.00000000000E+00  0.00000000000E+00  0.14152472520E+03  0.14152472520E+03  0.00000000000E+00 0.  1.
         21   -1    0    0  501  502 -0.00000000000E+00 -0.00000000000E+00 -0.41694789439E+03  0.41694789439E+03  0.00000000000E+00 0.  1.
         25    1    1    2    0    0 -0.76473629825E+02 -0.97225935208E+01  0.19184498670E+02  0.14810735928E+03  0.12500000000E+03 0.  0.
         25    1    1    2    0    0  0.48046254968E+02  0.50253763536E+02 -0.20035160525E+03  0.24616995977E+03  0.12500000000E+03 0.  0.
         25    1    1    2    0    0  0.28427374857E+02 -0.40531170015E+02 -0.94256062611E+02  0.16419530055E+03  0.12500000000E+03 0.  0.
</event>
<event>
 5    0  0.5670250E-005  0.2377406E+03  0.7546771E-02  0.1121307E+00
         21   -1    0    0  502  501  0.00000000000E+00  0.00000000000E+00  0.64880703009E+03  0.64880703009E+03  0.00000000000E+00 0.  1.
         21   -1    0    0  501  502 -0.00000000000E+00 -0.00000000000E+00 -0.87114613919E+02  0.87114613919E+02  0.00000000000E+00 0.  1.
         25    1    1    2    0    0  0.36771362072E+02  0.10517480443E+02  0.34405300907E+03  0.36804921344E+03  0.12500000000E+03 0.  0.
         25    1    1    2    0    0  0.95264239308E+01  0.43855740715E+02  0.38949684456E+02  0.13840576818E+03  0.12500000000E+03 0.  0.
         25    1    1    2    0    0 -0.46297786002E+02 -0.54373221159E+02  0.17868972264E+03  0.22946666238E+03  0.12500000000E+03 0.  0.
</event>
<event>
 5    0  0.5670250E-005  0.2952786E+03  0.7546771E-02  0.1087625E+00
         21   -1    0    0  502  501  0.00000000000E+00  0.00000000000E+00  0.13977030640E+03  0.13977030640E+03  0.00000000000E+00 0.  1.
         21   -1    0    0  501  502 -0.00000000000E+00 -0.00000000000E+00 -0.62380540291E+03  0.62380540291E+03  0.00000000000E+00 0.  1.
         25    1    1    2    0    0  0.16953350362E+03  0.38128278765E+02 -0.17106482810E+03  0.27401377685E+03  0.12500000000E+03 0.  0.
         25    1    1    2    0    0  0.29662971900E+02 -0.75126138427E+01 -0.16793888902E+03  0.21157694041E+03  0.12500000000E+03 0.  0.
         25    1    1    2    0    0 -0.19919647552E+03 -0.30615664922E+02 -0.14503137939E+03  0.27798499205E+03  0.12500000000E+03 0.  0.
</event>
<event>
 5    0  0.5670250E-005  0.3950012E+03  0.7546771E-02  0.1045524E+00
         21   -1    0    0  502  501  0.00000000000E+00  0.00000000000E+00  0.88050319394E+03  0.88050319394E+03  0.00000000000E+00 0. -1.
         21   -1    0    0  501  502 -0.00000000000E+00 -0.00000000000E+00 -0.17720091224E+03  0.17720091224E+03  0.00000000000E+00 0. -1.
         25    1    1    2    0    0 -0.95164706554E+02 -0.26602296348E+03  0.27624214721E+03  0.41443849046E+03  0.12500000000E+03 0.  0.
         25    1    1    2    0    0  0.18464432171E+03  0.18886850174E+03  0.34669045346E+03  0.45341383636E+03  0.12500000000E+03 0.  0.
         25    1    1    2    0    0 -0.89479615155E+02  0.77154461745E+02  0.80369681041E+02  0.18985177936E+03  0.12500000000E+03 0.  0.
</event>
<event>
 5    0  0.5670250E-005  0.6172027E+03  0.7546771E-02  0.9870345E-01
         21   -1    0    0  502  501  0.00000000000E+00  0.00000000000E+00  0.32009111717E+03  0.32009111717E+03  0.00000000000E+00 0.  1.
         21   -1    0    0  501  502 -0.00000000000E+00 -0.00000000000E+00 -0.11900961814E+04  0.11900961814E+04  0.00000000000E+00 0.  1.
         25    1    1    2    0    0 -0.10887237953E+03  0.10794405473E+03 -0.23411082952E+03  0.30649305779E+03  0.12500000000E+03 0.  0.
         25    1    1    2    0    0  0.28200653901E+03 -0.49300755253E+03 -0.37201425190E+03  0.69036493140E+03  0.12500000000E+03 0.  0.
         25    1    1    2    0    0 -0.17313415949E+03  0.38506349779E+03 -0.26387998278E+03  0.51332930933E+03  0.12500000000E+03 0.  0.
</event>
<event>
 5    0  0.5670250E-005  0.4633283E+03  0.7546771E-02  0.1023820E+00
         21   -1    0    0  502  501  0.00000000000E+00  0.00000000000E+00  0.10126376644E+03  0.10126376644E+03  0.00000000000E+00 0. -1.
         21   -1    0    0  501  502 -0.00000000000E+00 -0.00000000000E+00 -0.21199404635E+04  0.21199404635E+04  0.00000000000E+00 0. -1.
         25    1    1    2    0    0 -0.12762776607E+03 -0.89638581673E+02 -0.47280967038E+03  0.51332047144E+03  0.12500000000E+03 0.  0.
         25    1    1    2    0    0  0.33917737863E+03 -0.13013900613E+03 -0.67454715747E+03  0.77628366126E+03  0.12500000000E+03 0.  0.
         25    1    1    2    0    0 -0.21154961256E+03  0.21977758781E+03 -0.87131986921E+03  0.93160009723E+03  0.12500000000E+03 0.  0.
</event>
<event>
 5    0  0.5670250E-005  0.3911615E+03  0.7546771E-02  0.1046884E+00
         21   -1    0    0  502  501  0.00000000000E+00  0.00000000000E+00  0.39785070288E+03  0.39785070288E+03  0.00000000000E+00 0.  1.
         21   -1    0    0  501  502 -0.00000000000E+00 -0.00000000000E+00 -0.38458471585E+03  0.38458471585E+03  0.00000000000E+00 0.  1.
         25    1    1    2    0    0  0.20737508657E+03 -0.52227131819E+02  0.17669544482E+02  0.24833306794E+03  0.12500000000E+03 0.  0.
         25    1    1    2    0    0 -0.21889430795E+03  0.19445320167E+03 -0.82630059438E+02  0.32890651014E+03  0.12500000000E+03 0.  0.
         25    1    1    2    0    0  0.11519221378E+02 -0.14222606985E+03  0.78226501985E+02  0.20519584064E+03  0.12500000000E+03 0.  0.
</event>
<event>
 5    0  0.5670250E-005  0.3973489E+03  0.7546771E-02  0.1044702E+00
         21   -1    0    0  502  501  0.00000000000E+00  0.00000000000E+00  0.58358941296E+03  0.58358941296E+03  0.00000000000E+00 0. -1.
         21   -1    0    0  501  502 -0.00000000000E+00 -0.00000000000E+00 -0.27054316512E+03  0.27054316512E+03  0.00000000000E+00 0. -1.
         25    1    1    2    0    0 -0.62703129633E+02 -0.31422131104E+03  0.20064389854E+03  0.39818298406E+03  0.12500000000E+03 0.  0.
         25    1    1    2    0    0  0.21482278183E+02  0.27767645982E+03  0.76598668725E+02  0.31473490538E+03  0.12500000000E+03 0.  0.
         25    1    1    2    0    0  0.41220851449E+02  0.36544851219E+02  0.35803680566E+02  0.14121468864E+03  0.12500000000E+03 0.  0.
</event>
<event>
 5    0  0.5670250E-005  0.2926330E+03  0.7546771E-02  0.1088982E+00
         21   -1    0    0  502  501  0.00000000000E+00  0.00000000000E+00  0.82006873231E+03  0.82006873231E+03  0.00000000000E+00 0.  1.
         21   -1    0    0  501  502 -0.00000000000E+00 -0.00000000000E+00 -0.10442305920E+03  0.10442305920E+03  0.00000000000E+00 0.  1.
         25    1    1    2    0    0 -0.10081198916E+02 -0.17038573159E+03  0.26517955493E+03  0.33923166782E+03  0.12500000000E+03 0.  0.
         25    1    1    2    0    0  0.56899629358E+02  0.16447064812E+03  0.16625119186E+03  0.27120586407E+03  0.12500000000E+03 0.  0.
         25    1    1    2    0    0 -0.46818430442E+02  0.59150834707E+01  0.28421492632E+03  0.31405425962E+03  0.12500000000E+03 0.  0.
</event>
<event>
 5    0  0.6516376E-005  0.5524540E+03  0.7546771E-02  0.1000928E+00
         21   -1    0    0  502  501  0.00000000000E+00  0.00000000000E+00  0.89001064430E+03  0.89001064430E+03  0.00000000000E+00 0. -1.
         21   -1    0    0  501  502 -0.00000000000E+00 -0.00000000000E+00 -0.34292335044E+03  0.34292335044E+03  0.00000000000E+00 0. -1.
         25    1    1    2    0    0 -0.20491152388E+03 -0.20928598846E+03  0.38419311183E+03  0.49901773993E+03  0.12500000000E+03 0.  0.
         25    1    1    2    0    0 -0.39004159769E+02  0.30540816611E+03 -0.94881902181E+02  0.34557639932E+03  0.12500000000E+03 0.  0.
         25    1    1    2    0    0  0.24391568365E+03 -0.96122177652E+02  0.25777608421E+03  0.38833985549E+03  0.12500000000E+03 0.  0.
</event>
<event>
 5    0  0.6051926E-005  0.6074823E+03  0.7546771E-02  0.9890003E-01
         21   -1    0    0  502  501  0.00000000000E+00  0.00000000000E+00  0.31667688158E+03  0.31667688158E+03  0.00000000000E+00 0.  1.
         21   -1    0    0  501  502 -0.00000000000E+00 -0.00000000000E+00 -0.11653354601E+04  0.11653354601E+04  0.00000000000E+00 0.  1.
         25    1    1    2    0    0  0.20220479336E+03 -0.35187925420E+03 -0.36596548661E+02  0.42622775058E+03  0.12500000000E+03 0.  0.
         25    1    1    2    0    0 -0.51616169908E+01  0.22701698561E+03 -0.73616047944E+03  0.78046178993E+03  0.12500000000E+03 0.  0.
         25    1    1    2    0    0 -0.19704317637E+03  0.12486226859E+03 -0.75901550383E+02  0.27532280113E+03  0.12500000000E+03 0.  0.
</event>
<event>
 5    0  0.5670250E-005  0.3826276E+03  0.7546771E-02  0.1049967E+00
         21   -1    0    0  502  501  0.00000000000E+00  0.00000000000E+00  0.98876511742E+02  0.98876511742E+02  0.00000000000E+00 0. -1.
         21   -1    0    0  501  502 -0.00000000000E+00 -0.00000000000E+00 -0.14806742742E+04  0.14806742742E+04  0.00000000000E+00 0. -1.
         25    1    1    2    0    0  0.26645582843E+02  0.19107715305E+03 -0.55571733151E+03  0.60138774351E+03  0.12500000000E+03 0.  0.
         25    1    1    2    0    0 -0.48748690829E+02 -0.18044048900E+03 -0.82039566230E+03  0.85065224837E+03  0.12500000000E+03 0.  0.
         25    1    1    2    0    0  0.22103107986E+02 -0.10636664056E+02 -0.56847686298E+01  0.12751079405E+03  0.12500000000E+03 0.  0.
</event>
<event>
 5    0  0.5670250E-005  0.3856533E+03  0.7546771E-02  0.1048864E+00
         21   -1    0    0  502  501  0.00000000000E+00  0.00000000000E+00  0.72441780568E+03  0.72441780568E+03  0.00000000000E+00 0. -1.
         21   -1    0    0  501  502 -0.00000000000E+00 -0.00000000000E+00 -0.20530760624E+03  0.20530760624E+03  0.00000000000E+00 0. -1.
         25    1    1    2    0    0 -0.71743433169E+01 -0.14001408396E+03  0.14617206294E+03  0.23800564467E+03  0.12500000000E+03 0.  0.
         25    1    1    2    0    0 -0.89423070828E+02  0.30191055200E+03  0.30418389987E+03  0.45530134191E+03  0.12500000000E+03 0.  0.
         25    1    1    2    0    0  0.96597414145E+02 -0.16189646804E+03  0.68754236635E+02  0.23641842534E+03  0.12500000000E+03 0.  0.
</event>
<event>
 5    0  0.5670250E-005  0.2205341E+03  0.7546771E-02  0.1133485E+00
         21   -1    0    0  502  501  0.00000000000E+00  0.00000000000E+00  0.11738298217E+03  0.11738298217E+03  0.00000000000E+00 0.  1.
         21   -1    0    0  501  502 -0.00000000000E+00 -0.00000000000E+00 -0.41432998873E+03  0.41432998873E+03  0.00000000000E+00 0.  1.
         25    1    1    2    0    0  0.26053612854E+02  0.34337643559E+02 -0.19376497541E+03  0.23457990154E+03  0.12500000000E+03 0.  0.
         25    1    1    2    0    0 -0.70189142589E+02 -0.12435686789E+02 -0.45543319253E+02  0.15093162681E+03  0.12500000000E+03 0.  0.
         25    1    1    2    0    0  0.44135529734E+02 -0.21901956770E+02 -0.57638711894E+02  0.14620144255E+03  0.12500000000E+03 0.  0.
</event>
<event>
 5    0  0.5826023E-005  0.4262638E+03  0.7546771E-02  0.1035047E+00
         21   -1    0    0  502  501  0.00000000000E+00  0.00000000000E+00  0.33532924191E+03  0.33532924191E+03  0.00000000000E+00 0. -1.
         21   -1    0    0  501  502 -0.00000000000E+00 -0.00000000000E+00 -0.54185808505E+03  0.54185808505E+03  0.00000000000E+00 0. -1.
         25    1    1    2    0    0 -0.68911012404E+02 -0.25146241560E+03 -0.16707921547E+03  0.33394990392E+03  0.12500000000E+03 0.  0.
         25    1    1    2    0    0  0.20901555261E+03  0.82459246336E+02  0.72167846328E+02  0.26705847035E+03  0.12500000000E+03 0.  0.
         25    1    1    2    0    0 -0.14010454021E+03  0.16900316926E+03 -0.11161747400E+03  0.27617895269E+03  0.12500000000E+03 0.  0.
</event>
<event>
 5    0  0.5670250E-005  0.2524588E+03  0.7546771E-02  0.1111761E+00
         21   -1    0    0  502  501  0.00000000000E+00  0.00000000000E+00  0.43257079338E+02  0.43257079338E+02  0.00000000000E+00 0.  1.
         21   -1    0    0  501  502 -0.00000000000E+00 -0.00000000000E+00 -0.14734110814E+04  0.14734110814E+04  0.00000000000E+00 0.  1.
         25    1    1    2    0    0 -0.74790845940E+02  0.19623300631E+02 -0.24720840114E+03  0.28760343906E+03  0.12500000000E+03 0.  0.
         25    1    1    2    0    0  0.39647564255E+02  0.83791416920E+02 -0.41105839809E+03  0.43953036020E+03  0.12500000000E+03 0.  0.
         25    1    1    2    0    0  0.35143281685E+02 -0.10341471755E+03 -0.77188720283E+03  0.78953436148E+03  0.12500000000E+03 0.  0.
</event>
<event>
 5    0  0.5670250E-005  0.2193740E+03  0.7546771E-02  0.1134351E+00
         21   -1    0    0  502  501  0.00000000000E+00  0.00000000000E+00  0.90862932242E+03  0.90862932242E+03  0.00000000000E+00 0. -1.
         21   -1    0    0  501  502 -0.00000000000E+00 -0.00000000000E+00 -0.52964337770E+02  0.52964337770E+02  0.00000000000E+00 0. -1.
         25    1    1    2    0    0  0.33535265154E+02  0.30205549391E+02  0.23530381159E+03  0.27024039848E+03  0.12500000000E+03 0.  0.
         25    1    1    2    0    0 -0.86525681497E+02  0.25640190629E+02  0.37457201396E+03  0.40505963336E+03  0.12500000000E+03 0.  0.
         25    1    1    2    0    0  0.52990416343E+02 -0.55845740019E+02  0.24578915910E+03  0.28629362835E+03  0.12500000000E+03 0.  0.
</event>
<event>
 5    0  0.5670250E-005  0.1981209E+03  0.7546771E-02  0.1151334E+00
         21   -1    0    0  502  501  0.00000000000E+00  0.00000000000E+00  0.63308546437E+03  0.63308546437E+03  0.00000000000E+00 0.  1.
         21   -1    0    0  501  502 -0.00000000000E+00 -0.00000000000E+00 -0.62000939521E+02  0.62000939521E+02  0.00000000000E+00 0.  1.
         25    1    1    2    0    0 -0.49908630107E+02  0.88725344645E+01  0.14234825061E+03  0.19610613881E+03  0.12500000000E+03 0.  0.
         25    1    1    2    0    0  0.24762506805E+02  0.48414937985E+00  0.21370333106E+03  0.24881223815E+03  0.12500000000E+03 0.  0.
         25    1    1    2    0    0  0.25146123303E+02 -0.93566838444E+01  0.21503294318E+03  0.25016802694E+03  0.12500000000E+03 0.  0.
</event>
<event>
 5    0  0.5670250E-005  0.3263151E+03  0.7546771E-02  0.1072779E+00
         21   -1    0    0  502  501  0.00000000000E+00  0.00000000000E+00  0.49592177937E+02  0.49592177937E+02  0.00000000000E+00 0. -1.
         21   -1    0    0  501  502 -0.00000000000E+00 -0.00000000000E+00 -0.21471436720E+04  0.21471436720E+04  0.00000000000E+00 0. -1.
         25    1    1    2    0    0  0.79901503712E+02  0.15715044395E+02 -0.27477619128E+03  0.31266302661E+03  0.12500000000E+03 0.  0.
         25    1    1    2    0    0 -0.19303366388E+03 -0.11832701146E+03 -0.12956460294E+04  0.13212066116E+04  0.12500000000E+03 0.  0.
         25    1    1    2    0    0  0.11313216017E+03  0.10261196706E+03 -0.52712927339E+03  0.56286621173E+03  0.12500000000E+03 0.  0.
</event>
<event>
 5    0  0.5670250E-005  0.2525072E+03  0.7546771E-02  0.1111730E+00
         21   -1    0    0  502  501  0.00000000000E+00  0.00000000000E+00  0.20902732374E+03  0.20902732374E+03  0.00000000000E+00 0. -1.
         21   -1    0    0  501  502 -0.00000000000E+00 -0.00000000000E+00 -0.30503142946E+03  0.30503142946E+03  0.00000000000E+00 0. -1.
         25    1    1    2    0    0 -0.45888614385E+02  0.50289965786E+02 -0.70968483120E+02  0.15904832972E+03  0.12500000000E+03 0.  0.
         25    1    1    2    0    0  0.77754736108E+02  0.72268949025E+02  0.34109354050E+02  0.16750238211E+03  0.12500000000E+03 0.  0.
         25    1    1    2    0    0 -0.31866121723E+02 -0.12255891481E+03 -0.59144976650E+02  0.18750804136E+03  0.12500000000E+03 0.  0.
</event>
<event>
 5    0  0.5670250E-005  0.3457029E+03  0.7546771E-02  0.1064393E+00
         21   -1    0    0  502  501  0.00000000000E+00  0.00000000000E+00  0.24803780711E+03  0.24803780711E+03  0.00000000000E+00 0. -1.
         21   -1    0    0  501  502 -0.00000000000E+00 -0.00000000000E+00 -0.48182375261E+03  0.48182375261E+03  0.00000000000E+00 0. -1.
         25    1    1    2    0    0  0.56855349294E+02 -0.11851845551E+03 -0.72515932492E+01  0.18153991474E+03  0.12500000000E+03 0.  0.
         25    1    1    2    0    0  0.17712581291E+03  0.35367934008E+02 -0.77780882611E+02  0.23302212353E+03  0.12500000000E+03 0.  0.
         25    1    1    2    0    0 -0.23398116220E+03  0.83150521498E+02 -0.14875346964E+03  0.31529952144E+03  0.12500000000E+03 0.  0.
</event>
<event>
 5    0  0.5670250E-005  0.2413091E+03  0.7546771E-02  0.1118924E+00
         21   -1    0    0  502  501  0.00000000000E+00  0.00000000000E+00  0.51899988315E+03  0.51899988315E+03  0.00000000000E+00 0.  1.
         21   -1    0    0  501  502 -0.00000000000E+00 -0.00000000000E+00 -0.11219668232E+03  0.11219668232E+03  0.00000000000E+00 0.  1.
         25    1    1    2    0    0 -0.39042273123E+02  0.86229339322E+02  0.26773780812E+03  0.31027138435E+03  0.12500000000E+03 0.  0.
         25    1    1    2    0    0 -0.11788456874E+02 -0.79948070107E+02  0.42249053569E+02  0.15472764510E+03  0.12500000000E+03 0.  0.
         25    1    1    2    0    0  0.50830729996E+02 -0.62812692150E+01  0.96816339146E+02  0.16619753602E+03  0.12500000000E+03 0.  0.
</event>
<event>
 5    0  0.5670250E-005  0.3201849E+03  0.7546771E-02  0.1075564E+00
         21   -1    0    0  502  501  0.00000000000E+00  0.00000000000E+00  0.21125776340E+03  0.21125776340E+03  0.00000000000E+00 0.  1.
         21   -1    0    0  501  502 -0.00000000000E+00 -0.00000000000E+00 -0.48527614890E+03  0.48527614890E+03  0.00000000000E+00 0.  1.
         25    1    1    2    0    0  0.66767124281E+02  0.10878161111E+03 -0.70716770497E+02  0.19213836012E+03  0.12500000000E+03 0.  0.
         25    1    1    2    0    0  0.49702338816E+02  0.10288058611E+03 -0.80149186636E+01  0.16954048603E+03  0.12500000000E+03 0.  0.
         25    1    1    2    0    0 -0.11646946310E+03 -0.21166219722E+03 -0.19528669634E+03  0.33485506616E+03  0.12500000000E+03 0.  0.
</event>
<event>
 5    0  0.5670250E-005  0.3308525E+03  0.7546771E-02  0.1070760E+00
         21   -1    0    0  502  501  0.00000000000E+00  0.00000000000E+00  0.54497422325E+03  0.54497422325E+03  0.00000000000E+00 0. -1.
         21   -1    0    0  501  502 -0.00000000000E+00 -0.00000000000E+00 -0.20085970224E+03  0.20085970224E+03  0.00000000000E+00 0. -1.
         25    1    1    2    0    0  0.69486772394E+02  0.28128440733E+02  0.18923390399E+03  0.23885998228E+03  0.12500000000E+03 0.  0.
         25    1    1    2    0    0  0.58917574415E+02 -0.19349282487E+03  0.93754615941E+02  0.25558889229E+03  0.12500000000E+03 0.  0.
         25    1    1    2    0    0 -0.12840434681E+03  0.16536438413E+03  0.61126001086E+02  0.25138505092E+03  0.12500000000E+03 0.  0.
</event>
<event>
 5    0  0.5670250E-005  0.5208042E+03  0.7546771E-02  0.1008487E+00
         21   -1    0    0  502  501  0.00000000000E+00  0.00000000000E+00  0.22922807571E+03  0.22922807571E+03  0.00000000000E+00 0. -1.
         21   -1    0    0  501  502 -0.00000000000E+00 -0.00000000000E+00 -0.11832626388E+04  0.11832626388E+04  0.00000000000E+00 0. -1.
         25    1    1    2    0    0  0.55163809027E+02 -0.41800749227E+03 -0.22016008380E+03  0.49180155745E+03  0.12500000000E+03 0.  0.
         25    1    1    2    0    0  0.46596143525E+01  0.30546007429E+03 -0.27956113195E+03  0.43255866133E+03  0.12500000000E+03 0.  0.
         25    1    1    2    0    0 -0.59823423380E+02  0.11254741798E+03 -0.45431334733E+03  0.48813049571E+03  0.12500000000E+03 0.  0.
</event>
<event>
 5    0  0.5947735E-005  0.3394239E+03  0.7546771E-02  0.1067042E+00
         21   -1    0    0  502  501  0.00000000000E+00  0.00000000000E+00  0.53825956223E+03  0.53825956223E+03  0.00000000000E+00 0.  1.
         21   -1    0    0  501  502 -0.00000000000E+00 -0.00000000000E+00 -0.21403905768E+03  0.21403905768E+03  0.00000000000E+00 0.  1.
         25    1    1    2    0    0 -0.11238838324E+03  0.49750371485E+02 -0.64953681310E+02  0.18694980306E+03  0.12500000000E+03 0.  0.
         25    1    1    2    0    0  0.25791253180E+02  0.11796054853E+03  0.23144364587E+03  0.28943227354E+03  0.12500000000E+03 0.  0.
         25    1    1    2    0    0  0.86597130060E+02 -0.16771092002E+03  0.15773053999E+03  0.27591654331E+03  0.12500000000E+03 0.  0.
</event>
<event>
 5    0  0.5670250E-005  0.4076474E+03  0.7546771E-02  0.1041163E+00
         21   -1    0    0  502  501  0.00000000000E+00  0.00000000000E+00  0.10834333483E+03  0.10834333483E+03  0.00000000000E+00 0.  1.
         21   -1    0    0  501  502 -0.00000000000E+00 -0.00000000000E+00 -0.15337944663E+04  0.15337944663E+04  0.00000000000E+00 0.  1.
         25    1    1    2    0    0  0.14377520321E+03 -0.14317964247E+02 -0.59635188406E+03  0.62620833816E+03  0.12500000000E+03 0.  0.
         25    1    1    2    0    0  0.11257520629E+03  0.18538228651E+03 -0.29672304387E+03  0.38821300080E+03  0.12500000000E+03 0.  0.
         25    1    1    2    0    0 -0.25635040950E+03 -0.17106432226E+03 -0.53237620352E+03  0.62771646216E+03  0.12500000000E+03 0.  0.
</event>
<event>
 5    0  0.5670250E-005  0.3102505E+03  0.7546771E-02  0.1080226E+00
         21   -1    0    0  502  501  0.00000000000E+00  0.00000000000E+00  0.74856706165E+03  0.74856706165E+03  0.00000000000E+00 0.  1.
         21   -1    0    0  501  502 -0.00000000000E+00 -0.00000000000E+00 -0.12858618387E+03  0.12858618387E+03  0.00000000000E+00 0.  1.
         25    1    1    2    0    0 -0.19581666213E+03  0.73917690754E+02  0.18392644160E+03  0.30538815644E+03  0.12500000000E+03 0.  0.
         25    1    1    2    0    0  0.19221628742E+03 -0.42620450041E+02  0.22254522464E+03  0.32235846650E+03  0.12500000000E+03 0.  0.
         25    1    1    2    0    0  0.36003747120E+01 -0.31297240712E+02  0.21350921154E+03  0.24940662258E+03  0.12500000000E+03 0.  0.
</event>
<event>
 5    0  0.5670250E-005  0.2550764E+03  0.7546771E-02  0.1110138E+00
         21   -1    0    0  502  501  0.00000000000E+00  0.00000000000E+00  0.67348276415E+02  0.67348276415E+02  0.00000000000E+00 0.  1.
         21   -1    0    0  501  502 -0.00000000000E+00 -0.00000000000E+00 -0.96608244916E+03  0.96608244916E+03  0.00000000000E+00 0.  1.
         25    1    1    2    0    0  0.80125263682E+02  0.22564205111E+02 -0.35868225186E+03  0.38885364732E+03  0.12500000000E+03 0.  0.
         25    1    1    2    0    0  0.86548588993E+00  0.96002842090E+02 -0.29278472370E+03  0.33251344212E+03  0.12500000000E+03 0.  0.
         25    1    1    2    0    0 -0.80990749572E+02 -0.11856704720E+03 -0.24726719718E+03  0.31206363614E+03  0.12500000000E+03 0.  0.
</event>
<event>
 5    0  0.5670250E-005  0.4482771E+03  0.7546771E-02  0.1028237E+00
         21   -1    0    0  502  501  0.00000000000E+00  0.00000000000E+00  0.10265991569E+04  0.10265991569E+04  0.00000000000E+00 0.  1.
         21   -1    0    0  501  502 -0.00000000000E+00 -0.00000000000E+00 -0.19574572325E+03  0.19574572325E+03  0.00000000000E+00 0.  1.
         25    1    1    2    0    0 -0.12559293121E+03  0.33474508686E+03  0.20440354164E+03  0.43038780812E+03  0.12500000000E+03 0.  0.
         25    1    1    2    0    0  0.16780426103E+03 -0.15281219026E+03  0.35627910712E+03  0.44053335592E+03  0.12500000000E+03 0.  0.
         25    1    1    2    0    0 -0.42211329819E+02 -0.18193289660E+03  0.27017078486E+03  0.35142371608E+03  0.12500000000E+03 0.  0.
</event>
<event>
 5    0  0.5670250E-005  0.3375163E+03  0.7546771E-02  0.1067859E+00
         21   -1    0    0  502  501  0.00000000000E+00  0.00000000000E+00  0.31953525999E+03  0.31953525999E+03  0.00000000000E+00 0. -1.
         21   -1    0    0  501  502 -0.00000000000E+00 -0.00000000000E+00 -0.35650924796E+03  0.35650924796E+03  0.00000000000E+00 0. -1.
         25    1    1    2    0    0 -0.12558703064E+02  0.10730757759E+03 -0.99244985508E+02  0.19273610036E+03  0.12500000000E+03 0.  0.
         25    1    1    2    0    0  0.67221341353E+02  0.43947480308E+01 -0.15053882317E+03  0.20694192380E+03  0.12500000000E+03 0.  0.
         25    1    1    2    0    0 -0.54662638289E+02 -0.11170232562E+03  0.21280982071E+03  0.27636648380E+03  0.12500000000E+03 0.  0.
</event>
<event>
 5    0  0.5670250E-005  0.3040275E+03  0.7546771E-02  0.1083244E+00
         21   -1    0    0  502  501  0.00000000000E+00  0.00000000000E+00  0.74245833997E+02  0.74245833997E+02  0.00000000000E+00 0.  1.
         21   -1    0    0  501  502 -0.00000000000E+00 -0.00000000000E+00 -0.12449549798E+04  0.12449549798E+04  0.00000000000E+00 0.  1.
         25    1    1    2    0    0  0.77573335237E+02  0.43031861412E+02 -0.11280497730E+03  0.19031375762E+03  0.12500000000E+03 0.  0.
         25    1    1    2    0    0 -0.79758572415E+02 -0.14578182887E+03 -0.78057472844E+03  0.80779680501E+03  0.12500000000E+03 0.  0.
         25    1    1    2    0    0  0.21852371780E+01  0.10274996746E+03 -0.27732944011E+03  0.32109025122E+03  0.12500000000E+03 0.  0.
</event>
<event>
 5    0  0.5670250E-005  0.3679843E+03  0.7546771E-02  0.1055466E+00
         21   -1    0    0  502  501  0.00000000000E+00  0.00000000000E+00  0.12017070238E+04  0.12017070238E+04  0.00000000000E+00 0. -1.
         21   -1    0    0  501  502 -0.00000000000E+00 -0.00000000000E+00 -0.11268343864E+03  0.11268343864E+03  0.00000000000E+00 0. -1.
         25    1    1    2    0    0 -0.20773698433E+02 -0.16098883444E+03  0.16950597312E+03  0.26590642393E+03  0.12500000000E+03 0.  0.
         25    1    1    2    0    0 -0.89783843670E+02  0.11831705111E+03  0.83377635203E+03  0.85607713926E+03  0.12500000000E+03 0.  0.
         25    1    1    2    0    0  0.11055754210E+03  0.42671783322E+02  0.85741260002E+02  0.19240689924E+03  0.12500000000E+03 0.  0.
</event>
<event>
 5    0  0.5670250E-005  0.2986475E+03  0.7546771E-02  0.1085919E+00
         21   -1    0    0  502  501  0.00000000000E+00  0.00000000000E+00  0.68975292136E+03  0.68975292136E+03  0.00000000000E+00 0.  1.
         21   -1    0    0  501  502 -0.00000000000E+00 -0.00000000000E+00 -0.12930766533E+03  0.12930766533E+03  0.00000000000E+00 0.  1.
         25    1    1    2    0    0 -0.13725309290E+01 -0.11738047744E+01  0.51582029126E+03  0.53075308246E+03  0.12500000000E+03 0.  0.
         25    1    1    2    0    0 -0.37074006649E+02  0.15541399126E+02 -0.33213077734E+02  0.13544048726E+03  0.12500000000E+03 0.  0.
         25    1    1    2    0    0  0.38446537578E+02 -0.14367594352E+02  0.77838042508E+02  0.15286701698E+03  0.12500000000E+03 0.  0.
</event>
<event>
 5    0  0.5670250E-005  0.2712807E+03  0.7546771E-02  0.1100549E+00
         21   -1    0    0  502  501  0.00000000000E+00  0.00000000000E+00  0.86248374129E+03  0.86248374129E+03  0.00000000000E+00 0. -1.
         21   -1    0    0  501  502 -0.00000000000E+00 -0.00000000000E+00 -0.85327063295E+02  0.85327063295E+02  0.00000000000E+00 0. -1.
         25    1    1    2    0    0 -0.11316126821E+03 -0.33439151903E+02  0.14211202593E+03  0.22303470002E+03  0.12500000000E+03 0.  0.
         25    1    1    2    0    0  0.43916461745E+02 -0.73691612694E+02  0.41219478024E+03  0.43919089955E+03  0.12500000000E+03 0.  0.
         25    1    1    2    0    0  0.69244806461E+02  0.10713076460E+03  0.22284987183E+03  0.28558520501E+03  0.12500000000E+03 0.  0.
</event>
<event>
 5    0  0.5670250E-005  0.2446403E+03  0.7546771E-02  0.1116740E+00
         21   -1    0    0  502  501  0.00000000000E+00  0.00000000000E+00  0.34889448729E+03  0.34889448729E+03  0.00000000000E+00 0.  1.
         21   -1    0    0  501  502 -0.00000000000E+00 -0.00000000000E+00 -0.17153858771E+03  0.17153858771E+03  0.00000000000E+00 0.  1.
         25    1    1    2    0    0 -0.87720430795E+02  0.41121894341E+01  0.16971304859E+03  0.22834032264E+03  0.12500000000E+03 0.  0.
         25    1    1    2    0    0  0.93782334900E+02  0.17734573160E+02  0.37305052729E+02  0.16163634611E+03  0.12500000000E+03 0.  0.
         25    1    1    2    0    0 -0.60619041048E+01 -0.21846762594E+02 -0.29662201746E+02  0.13045640624E+03  0.12500000000E+03 0.  0.
</event>
<event>
 5    0  0.5670250E-005  0.2781610E+03  0.7546771E-02  0.1096698E+00
         21   -1    0    0  502  501  0.00000000000E+00  0.00000000000E+00  0.25264217904E+04  0.25264217904E+04  0.00000000000E+00 0. -1.
         21   -1    0    0  501  502 -0.00000000000E+00 -0.00000000000E+00 -0.30625741111E+02  0.30625741111E+02  0.00000000000E+00 0. -1.
         25    1    1    2    0    0  0.12866445657E+03 -0.78391440155E+01  0.95738154191E+03  0.97407413032E+03  0.12500000000E+03 0.  0.
         25    1    1    2    0    0 -0.82075079191E+02 -0.11370538432E+03  0.66012647911E+03  0.68633607036E+03  0.12500000000E+03 0.  0.
         25    1    1    2    0    0 -0.46589377375E+02  0.12154452834E+03  0.87828802827E+03  0.89663733084E+03  0.12500000000E+03 0.  0.
</event>
<event>
 5    0  0.5670250E-005  0.4198851E+03  0.7546771E-02  0.1037104E+00
         21   -1    0    0  502  501  0.00000000000E+00  0.00000000000E+00  0.33979143603E+03  0.33979143603E+03  0.00000000000E+00 0.  1.
         21   -1    0    0  501  502 -0.00000000000E+00 -0.00000000000E+00 -0.51885788612E+03  0.51885788612E+03  0.00000000000E+00 0.  1.
         25    1    1    2    0    0 -0.18854357948E+03  0.11281243857E+03 -0.16789845728E+03  0.30346370395E+03  0.12500000000E+03 0.  0.
         25    1    1    2    0    0  0.13115070982E+03  0.16119542152E+03  0.35398133655E+02  0.24507651963E+03  0.12500000000E+03 0.  0.
         25    1    1    2    0    0  0.57392869663E+02 -0.27400786009E+03 -0.46566126464E+02  0.31010909857E+03  0.12500000000E+03 0.  0.
</event>
<event>
 5    0  0.5670250E-005  0.2482581E+03  0.7546771E-02  0.1114411E+00
         21   -1    0    0  502  501  0.00000000000E+00  0.00000000000E+00  0.67725738819E+02  0.67725738819E+02  0.00000000000E+00 0. -1.
         21   -1    0    0  501  502 -0.00000000000E+00 -0.00000000000E+00 -0.91002472119E+03  0.91002472119E+03  0.00000000000E+00 0. -1.
         25    1    1    2    0    0  0.10456043514E+03 -0.50562194059E+02 -0.40881744701E+03  0.44299675512E+03  0.12500000000E+03 0.  0.
         25    1    1    2    0    0 -0.45760389570E+02  0.90106178217E+02 -0.16569480358E+03  0.23085256018E+03  0.12500000000E+03 0.  0.
         25    1    1    2    0    0 -0.58800045568E+02 -0.39543984158E+02 -0.26778673177E+03  0.30390114471E+03  0.12500000000E+03 0.  0.
</event>
<event>
 5    0  0.5670250E-005  0.6655796E+03  0.7546771E-02  0.9777976E-01
         21   -1    0    0  502  501  0.00000000000E+00  0.00000000000E+00  0.16901339651E+04  0.16901339651E+04  0.00000000000E+00 0. -1.
         21   -1    0    0  501  502 -0.00000000000E+00 -0.00000000000E+00 -0.26210719030E+03  0.26210719030E+03  0.00000000000E+00 0. -1.
         25    1    1    2    0    0  0.51801047487E+03 -0.12363978119E+03  0.27608992064E+03  0.61275793903E+03  0.12500000000E+03 0.  0.
         25    1    1    2    0    0 -0.30098322721E+03 -0.91079358442E+01  0.30532545194E+03  0.44667940311E+03  0.12500000000E+03 0.  0.
         25    1    1    2    0    0 -0.21702724766E+03  0.13274771704E+03  0.84661140220E+03  0.89280381324E+03  0.12500000000E+03 0.  0.
</event>
<event>
 5    0  0.5670250E-005  0.4690732E+03  0.7546771E-02  0.1022182E+00
         21   -1    0    0  502  501  0.00000000000E+00  0.00000000000E+00  0.96695327762E+03  0.96695327762E+03  0.00000000000E+00 0. -1.
         21   -1    0    0  501  502 -0.00000000000E+00 -0.00000000000E+00 -0.22754941045E+03  0.22754941045E+03  0.00000000000E+00 0. -1.
         25    1    1    2    0    0  0.30756050041E+03  0.11642900824E+03  0.27591964221E+03  0.44710829151E+03  0.12500000000E+03 0.  0.
         25    1    1    2    0    0  0.82694219047E+02 -0.71517142549E+02  0.79859859807E+02  0.18427054228E+03  0.12500000000E+03 0.  0.
         25    1    1    2    0    0 -0.39025471946E+03 -0.44911865690E+02  0.38362436515E+03  0.56312385430E+03  0.12500000000E+03 0.  0.
</event>
<event>
 5    0  0.5670250E-005  0.7236972E+03  0.7546771E-02  0.9677544E-01
         21   -1    0    0  502  501  0.00000000000E+00  0.00000000000E+00  0.23726624226E+04  0.23726624226E+04  0.00000000000E+00 0. -1.
         21   -1    0    0  501  502 -0.00000000000E+00 -0.00000000000E+00 -0.22073839107E+03  0.22073839107E+03  0.00000000000E+00 0. -1.
         25    1    1    2    0    0 -0.34576575119E+03  0.17635331430E+03  0.25680826297E+03  0.48190240723E+03  0.12500000000E+03 0.  0.
         25    1    1    2    0    0  0.24969192901E+03  0.19623768001E+02  0.97566746016E+02  0.29643788829E+03  0.12500000000E+03 0.  0.
         25    1    1    2    0    0  0.96073822182E+02 -0.19597708230E+03  0.17975490225E+04  0.18150605181E+04  0.12500000000E+03 0.  0.
</event>
<event>
 5    0  0.6416727E-005  0.3522072E+03  0.7546771E-02  0.1061713E+00
         21   -1    0    0  502  501  0.00000000000E+00  0.00000000000E+00  0.39872223861E+03  0.39872223861E+03  0.00000000000E+00 0. -1.
         21   -1    0    0  501  502 -0.00000000000E+00 -0.00000000000E+00 -0.31111862516E+03  0.31111862516E+03  0.00000000000E+00 0. -1.
         25    1    1    2    0    0  0.20230532316E+03  0.96837224105E+02  0.18036872571E+03  0.31378777695E+03  0.12500000000E+03 0.  0.
         25    1    1    2    0    0 -0.14526216479E+03 -0.90898303332E+02  0.26832467468E+02  0.21379564864E+03  0.12500000000E+03 0.  0.
         25    1    1    2    0    0 -0.57043158371E+02 -0.59389207737E+01 -0.11959757973E+03  0.18225743818E+03  0.12500000000E+03 0.  0.
</event>
<event>
 5    0  0.5670250E-005  0.3322126E+03  0.7546771E-02  0.1070162E+00
         21   -1    0    0  502  501  0.00000000000E+00  0.00000000000E+00  0.19352611502E+04  0.19352611502E+04  0.00000000000E+00 0.  1.
         21   -1    0    0  501  502 -0.00000000000E+00 -0.00000000000E+00 -0.57028605303E+02  0.57028605303E+02  0.00000000000E+00 0.  1.
         25    1    1    2    0    0 -0.78458407654E+00  0.99829989541E+02  0.39072641864E+03  0.42220703050E+03  0.12500000000E+03 0.  0.
         25    1    1    2    0    0  0.38814741218E+02  0.15871643094E+03  0.75060424808E+03  0.77828608289E+03  0.12500000000E+03 0.  0.
         25    1    1    2    0    0 -0.38030157142E+02 -0.25854642048E+03  0.73690187819E+03  0.79179664212E+03  0.12500000000E+03 0.  0.
</event>
<event>
 5    0  0.5670250E-005  0.3275315E+03  0.7546771E-02  0.1072234E+00
         21   -1    0    0  502  501  0.00000000000E+00  0.00000000000E+00  0.77988597061E+03  0.77988597061E+03  0.00000000000E+00 0.  1.
         21   -1    0    0  501  502 -0.00000000000E+00 -0.00000000000E+00 -0.13755460057E+03  0.13755460057E+03  0.00000000000E+00 0.  1.
         25    1    1    2    0    0  0.20776066324E+02 -0.22956011114E+03  0.41893452386E+03  0.49422730078E+03  0.12500000000E+03 0.  0.
         25    1    1    2    0    0  0.62608032757E+00  0.79506782772E+02  0.37677821376E+02  0.15286052043E+03  0.12500000000E+03 0.  0.
         25    1    1    2    0    0 -0.21402146652E+02  0.15005332837E+03  0.18571902481E+03  0.27035274996E+03  0.12500000000E+03 0.  0.
</event>
<event>
 5    0  0.5670250E-005  0.3320891E+03  0.7546771E-02  0.1070216E+00
         21   -1    0    0  502  501  0.00000000000E+00  0.00000000000E+00  0.53608228071E+02  0.53608228071E+02  0.00000000000E+00 0. -1.
         21   -1    0    0  501  502 -0.00000000000E+00 -0.00000000000E+00 -0.20572054626E+04  0.20572054626E+04  0.00000000000E+00 0. -1.
         25    1    1    2    0    0  0.92744488035E+02 -0.72336733311E+02 -0.25262910827E+03  0.30541874433E+03  0.12500000000E+03 0.  0.
         25    1    1    2    0    0 -0.58680772308E+02  0.20862622859E+03 -0.91956377942E+03  0.95299049351E+03  0.12500000000E+03 0.  0.
         25    1    1    2    0    0 -0.34063715726E+02 -0.13628949528E+03 -0.83140434681E+03  0.85240445280E+03  0.12500000000E+03 0.  0.
</event>
<event>
 5    0  0.5670250E-005  0.4286845E+03  0.7546771E-02  0.1034276E+00
         21   -1    0    0  502  501  0.00000000000E+00  0.00000000000E+00  0.64943500995E+03  0.64943500995E+03  0.00000000000E+00 0.  1.
         21   -1    0    0  501  502 -0.00000000000E+00 -0.00000000000E+00 -0.28296965032E+03  0.28296965032E+03  0.00000000000E+00 0.  1.
         25    1    1    2    0    0 -0.54568473136E+02 -0.10825967598E+02  0.17509758843E+03  0.22221405291E+03  0.12500000000E+03 0.  0.
         25    1    1    2    0    0 -0.95853112156E+02 -0.28710597599E+03  0.95963599411E+02  0.34125016186E+03  0.12500000000E+03 0.  0.
         25    1    1    2    0    0  0.15042158529E+03  0.29793194358E+03  0.95404171793E+02  0.36894044550E+03  0.12500000000E+03 0.  0.
</event>
<event>
 5    0  0.5670250E-005  0.2304286E+03  0.7546771E-02  0.1126338E+00
         21   -1    0    0  502  501  0.00000000000E+00  0.00000000000E+00  0.12967743006E+03  0.12967743006E+03  0.00000000000E+00 0.  1.
         21   -1    0    0  501  502 -0.00000000000E+00 -0.00000000000E+00 -0.40945701912E+03  0.40945701912E+03  0.00000000000E+00 0.  1.
         25    1    1    2    0    0  0.64285769736E+02  0.50560165606E+02 -0.19810777166E+03  0.24811424733E+03  0.12500000000E+03 0.  0.
         25    1    1    2    0    0 -0.62147963895E+01 -0.20704825652E+02 -0.80017333483E+02  0.14998362296E+03  0.12500000000E+03 0.  0.
         25    1    1    2    0    0 -0.58070973346E+02 -0.29855339955E+02 -0.16544839234E+01  0.14103657889E+03  0.12500000000E+03 0.  0.
</event>
<event>
 5    0  0.5670250E-005  0.2848095E+03  0.7546771E-02  0.1093091E+00
         21   -1    0    0  502  501  0.00000000000E+00  0.00000000000E+00  0.42241491217E+03  0.42241491217E+03  0.00000000000E+00 0.  1.
         21   -1    0    0  501  502 -0.00000000000E+00 -0.00000000000E+00 -0.19203022740E+03  0.19203022740E+03  0.00000000000E+00 0.  1.
         25    1    1    2    0    0 -0.78510469006E+02 -0.10932533801E+03  0.25285630118E+03  0.31253356991E+03  0.12500000000E+03 0.  0.
         25    1    1    2    0    0  0.61813804509E+02  0.32581651376E+02  0.27961602021E+02  0.14590874416E+03  0.12500000000E+03 0.  0.
         25    1    1    2    0    0  0.16696664498E+02  0.76743686638E+02 -0.50433218433E+02  0.15600282551E+03  0.12500000000E+03 0.  0.
</event>
<event>
 5    0  0.5670250E-005  0.3029183E+03  0.7546771E-02  0.1083791E+00
         21   -1    0    0  502  501  0.00000000000E+00  0.00000000000E+00  0.25080801757E+03  0.25080801757E+03  0.00000000000E+00 0.  1.
         21   -1    0    0  501  502 -0.00000000000E+00 -0.00000000000E+00 -0.36585559788E+03  0.36585559788E+03  0.00000000000E+00 0.  1.
         25    1    1    2    0    0 -0.19619863552E+02 -0.19308720462E+03 -0.62727120539E+02  0.23922228008E+03  0.12500000000E+03 0.  0.
         25    1    1    2    0    0 -0.66540773318E+02  0.71408800542E+02  0.37777358130E+02  0.16303073359E+03  0.12500000000E+03 0.  0.
         25    1    1    2    0    0  0.86160636870E+02  0.12167840408E+03 -0.90097817902E+02  0.21441060178E+03  0.12500000000E+03 0.  0.
</event>
<event>
 5    0  0.6797654E-005  0.4677257E+03  0.7546771E-02  0.1022564E+00
         21   -1    0    0  502  501  0.00000000000E+00  0.00000000000E+00  0.24299305034E+03  0.24299305034E+03  0.00000000000E+00 0. -1.
         21   -1    0    0  501  502 -0.00000000000E+00 -0.00000000000E+00 -0.90030285446E+03  0.90030285446E+03  0.00000000000E+00 0. -1.
         25    1    1    2    0    0  0.25962136496E+03 -0.10514644414E+03 -0.37008801865E+02  0.30895578854E+03  0.12500000000E+03 0.  0.
         25    1    1    2    0    0 -0.12159870776E+03 -0.10410374534E+03 -0.47970222553E+03  0.52092519684E+03  0.12500000000E+03 0.  0.
         25    1    1    2    0    0 -0.13802265720E+03  0.20925018949E+03 -0.14059877672E+03  0.31341491942E+03  0.12500000000E+03 0.  0.
</event>
<event>
 5    0  0.5670250E-005  0.5117242E+03  0.7546771E-02  0.1010763E+00
         21   -1    0    0  502  501  0.00000000000E+00  0.00000000000E+00  0.45014441569E+03  0.45014441569E+03  0.00000000000E+00 0. -1.
         21   -1    0    0  501  502 -0.00000000000E+00 -0.00000000000E+00 -0.58172813537E+03  0.58172813537E+03  0.00000000000E+00 0. -1.
         25    1    1    2    0    0 -0.32732572718E+03  0.22581400039E+02  0.25286000774E+03  0.43268375844E+03  0.12500000000E+03 0.  0.
         25    1    1    2    0    0  0.20318506774E+03 -0.98829753473E+02 -0.27907137807E+03  0.38020695152E+03  0.12500000000E+03 0.  0.
         25    1    1    2    0    0  0.12414065944E+03  0.76248353434E+02 -0.10537234934E+03  0.21898184111E+03  0.12500000000E+03 0.  0.
</event>
<event>
 5    0  0.5670250E-005  0.2566827E+03  0.7546771E-02  0.1109153E+00
         21   -1    0    0  502  501  0.00000000000E+00  0.00000000000E+00  0.15270991394E+03  0.15270991394E+03  0.00000000000E+00 0.  1.
         21   -1    0    0  501  502 -0.00000000000E+00 -0.00000000000E+00 -0.43144551592E+03  0.43144551592E+03  0.00000000000E+00 0.  1.
         25    1    1    2    0    0  0.76369905725E+02  0.87837588763E+02  0.10499582704E+02  0.17112289659E+03  0.12500000000E+03 0.  0.
         25    1    1    2    0    0  0.89772261096E+01 -0.64944354424E+02 -0.12535413473E+03  0.18877769692E+03  0.12500000000E+03 0.  0.
         25    1    1    2    0    0 -0.85347131835E+02 -0.22893234339E+02 -0.16388104995E+03  0.22425483634E+03  0.12500000000E+03 0.  0.
</event>
<event>
 5    0  0.5670250E-005  0.7440566E+03  0.7546771E-02  0.9644721E-01
         21   -1    0    0  502  501  0.00000000000E+00  0.00000000000E+00  0.31544718541E+03  0.31544718541E+03  0.00000000000E+00 0.  1.
         21   -1    0    0  501  502 -0.00000000000E+00 -0.00000000000E+00 -0.17550331209E+04  0.17550331209E+04  0.00000000000E+00 0.  1.
         25    1    1    2    0    0 -0.19829294977E+03 -0.38179732213E+03 -0.60795629953E+03  0.75519874950E+03  0.12500000000E+03 0.  0.
         25    1    1    2    0    0  0.49192509770E+03  0.41598916345E+03 -0.37099515989E+03  0.75385654770E+03  0.12500000000E+03 0.  0.
         25    1    1    2    0    0 -0.29363214792E+03 -0.34191841323E+02 -0.46063447606E+03  0.56142500910E+03  0.12500000000E+03 0.  0.
</event>
<event>
 5    0  0.5670250E-005  0.2315643E+03  0.7546771E-02  0.1125544E+00
         21   -1    0    0  502  501  0.00000000000E+00  0.00000000000E+00  0.44811590389E+03  0.44811590389E+03  0.00000000000E+00 0. -1.
         21   -1    0    0  501  502 -0.00000000000E+00 -0.00000000000E+00 -0.11966101820E+03  0.11966101820E+03  0.00000000000E+00 0. -1.
         25    1    1    2    0    0 -0.39143341128E+02 -0.46454269783E+02  0.57884918659E+02  0.15055186530E+03  0.12500000000E+03 0.  0.
         25    1    1    2    0    0 -0.44896569839E+02  0.71600226437E+02  0.19579953872E+03  0.24719375755E+03  0.12500000000E+03 0.  0.
         25    1    1    2    0    0  0.84039910967E+02 -0.25145956654E+02  0.74770428316E+02  0.17003129924E+03  0.12500000000E+03 0.  0.
</event>
<event>
 5    0  0.5670250E-005  0.4851716E+03  0.7546771E-02  0.1017723E+00
         21   -1    0    0  502  501  0.00000000000E+00  0.00000000000E+00  0.59122674189E+03  0.59122674189E+03  0.00000000000E+00 0.  1.
         21   -1    0    0  501  502 -0.00000000000E+00 -0.00000000000E+00 -0.39814073868E+03  0.39814073868E+03  0.00000000000E+00 0.  1.
         25    1    1    2    0    0 -0.25570662909E+01  0.18479071587E+02 -0.63716929287E+01  0.12654490565E+03  0.12500000000E+03 0.  0.
         25    1    1    2    0    0 -0.34079917317E+03  0.18521762348E+02 -0.11298885742E+03  0.38062923432E+03  0.12500000000E+03 0.  0.
         25    1    1    2    0    0  0.34335623946E+03 -0.37000833934E+02  0.31244655357E+03  0.48219334061E+03  0.12500000000E+03 0.  0.
</event>
<event>
 5    0  0.5670250E-005  0.4523949E+03  0.7546771E-02  0.1027010E+00
         21   -1    0    0  502  501  0.00000000000E+00  0.00000000000E+00  0.35555384966E+03  0.35555384966E+03  0.00000000000E+00 0. -1.
         21   -1    0    0  501  502 -0.00000000000E+00 -0.00000000000E+00 -0.57561218126E+03  0.57561218126E+03  0.00000000000E+00 0. -1.
         25    1    1    2    0    0 -0.37357726564E+03 -0.10534082141E+03 -0.44931635690E+02  0.41024445632E+03  0.12500000000E+03 0.  0.
         25    1    1    2    0    0  0.21420241559E+03 -0.36845202163E+01 -0.14917085760E+03  0.28943599515E+03  0.12500000000E+03 0.  0.
         25    1    1    2    0    0  0.15937485005E+03  0.10902534163E+03 -0.25955838314E+02  0.23148557944E+03  0.12500000000E+03 0.  0.
</event>
<event>
 5    0  0.5670250E-005  0.2768023E+03  0.7546771E-02  0.1097448E+00
         21   -1    0    0  502  501  0.00000000000E+00  0.00000000000E+00  0.43812900899E+03  0.43812900899E+03  0.00000000000E+00 0. -1.
         21   -1    0    0  501  502 -0.00000000000E+00 -0.00000000000E+00 -0.17487890165E+03  0.17487890165E+03  0.00000000000E+00 0. -1.
         25    1    1    2    0    0  0.57327629450E+02 -0.29329689410E+02 -0.43992299408E+02  0.14733299083E+03  0.12500000000E+03 0.  0.
         25    1    1    2    0    0  0.59569641154E+02  0.71383777603E+02  0.71682813350E+02  0.17148647638E+03  0.12500000000E+03 0.  0.
         25    1    1    2    0    0 -0.11689727060E+03 -0.42054088194E+02  0.23555959340E+03  0.29418844343E+03  0.12500000000E+03 0.  0.
</event>
<event>
 5    0  0.5670250E-005  0.2710973E+03  0.7546771E-02  0.1100653E+00
         21   -1    0    0  502  501  0.00000000000E+00  0.00000000000E+00  0.20449990747E+03  0.20449990747E+03  0.00000000000E+00 0.  1.
         21   -1    0    0  501  502 -0.00000000000E+00 -0.00000000000E+00 -0.35938272183E+03  0.35938272183E+03  0.00000000000E+00 0.  1.
         25    1    1    2    0    0 -0.34274775905E+02  0.50023556118E+02 -0.36972741349E+01  0.13898124430E+03  0.12500000000E+03 0.  0.
         25    1    1    2    0    0  0.10693277462E+03 -0.98571169142E+02 -0.18741428493E+03  0.26814176823E+03  0.12500000000E+03 0.  0.
         25    1    1    2    0    0 -0.72657998715E+02  0.48547613024E+02  0.36228744706E+02  0.15675961677E+03  0.12500000000E+03 0.  0.
</event>
<event>
 5    0  0.5670250E-005  0.4862339E+03  0.7546771E-02  0.1017436E+00
         21   -1    0    0  502  501  0.00000000000E+00  0.00000000000E+00  0.26264447978E+03  0.26264447978E+03  0.00000000000E+00 0.  1.
         21   -1    0    0  501  502 -0.00000000000E+00 -0.00000000000E+00 -0.90016525166E+03  0.90016525166E+03  0.00000000000E+00 0.  1.
         25    1    1    2    0    0 -0.20487376009E+03 -0.44176183887E+02 -0.23537174427E+03  0.33904225518E+03  0.12500000000E+03 0.  0.
         25    1    1    2    0    0 -0.20338153157E+03  0.14232055543E+03 -0.12036937932E+03  0.30287452082E+03  0.12500000000E+03 0.  0.
         25    1    1    2    0    0  0.40825529167E+03 -0.98144371539E+02 -0.28177964829E+03  0.52089295544E+03  0.12500000000E+03 0.  0.
</event>
<event>
 5    0  0.5670250E-005  0.3890913E+03  0.7546771E-02  0.1047624E+00
         21   -1    0    0  502  501  0.00000000000E+00  0.00000000000E+00  0.22688304268E+04  0.22688304268E+04  0.00000000000E+00 0. -1.
         21   -1    0    0  501  502 -0.00000000000E+00 -0.00000000000E+00 -0.66726895166E+02  0.66726895166E+02  0.00000000000E+00 0. -1.
         25    1    1    2    0    0 -0.11150284565E+03 -0.99806818222E+01  0.11919026317E+03  0.20582472503E+03  0.12500000000E+03 0.  0.
         25    1    1    2    0    0  0.67884737275E+02  0.15958495513E+03  0.14600308541E+04  0.14755984516E+04  0.12500000000E+03 0.  0.
         25    1    1    2    0    0  0.43618108372E+02 -0.14960427331E+03  0.62288241435E+03  0.65413414532E+03  0.12500000000E+03 0.  0.
</event>
<event>
 5    0  0.5670250E-005  0.3216849E+03  0.7546771E-02  0.1074876E+00
         21   -1    0    0  502  501  0.00000000000E+00  0.00000000000E+00  0.98445250981E+02  0.98445250981E+02  0.00000000000E+00 0. -1.
         21   -1    0    0  501  502 -0.00000000000E+00 -0.00000000000E+00 -0.10511544274E+04  0.10511544274E+04  0.00000000000E+00 0. -1.
         25    1    1    2    0    0  0.16303864618E+02  0.11401014100E+03 -0.20197064148E+03  0.26397209752E+03  0.12500000000E+03 0.  0.
         25    1    1    2    0    0 -0.14361916597E+03 -0.15578398860E+03 -0.59956218568E+03  0.64807015858E+03  0.12500000000E+03 0.  0.
         25    1    1    2    0    0  0.12731530135E+03  0.41773847597E+02 -0.15117634924E+03  0.23755742226E+03  0.12500000000E+03 0.  0.
</event>
<event>
 5    0  0.5670250E-005  0.4616593E+03  0.7546771E-02  0.1024301E+00
         21   -1    0    0  502  501  0.00000000000E+00  0.00000000000E+00  0.24767774627E+03  0.24767774627E+03  0.00000000000E+00 0.  1.
         21   -1    0    0  501  502 -0.00000000000E+00 -0.00000000000E+00 -0.86051067822E+03  0.86051067822E+03  0.00000000000E+00 0.  1.
         25    1    1    2    0    0  0.85161575510E+02 -0.26002131862E+03 -0.19235727566E+03  0.35705728053E+03  0.12500000000E+03 0.  0.
         25    1    1    2    0    0  0.17151582626E+03  0.67384294193E+02 -0.32458509012E+03  0.39362266511E+03  0.12500000000E+03 0.  0.
         25    1    1    2    0    0 -0.25667740177E+03  0.19263702443E+03 -0.95890566168E+02  0.35750847884E+03  0.12500000000E+03 0.  0.
</event>
<event>
 5    0  0.6116226E-005  0.3274690E+03  0.7546771E-02  0.1072262E+00
         21   -1    0    0  502  501  0.00000000000E+00  0.00000000000E+00  0.50302483853E+03  0.50302483853E+03  0.00000000000E+00 0. -1.
         21   -1    0    0  501  502 -0.00000000000E+00 -0.00000000000E+00 -0.21318218353E+03  0.21318218353E+03  0.00000000000E+00 0. -1.
         25    1    1    2    0    0  0.45126050407E+02  0.16372379069E+03  0.38646046477E+02  0.21438366769E+03  0.12500000000E+03 0.  0.
         25    1    1    2    0    0 -0.11347506672E+03 -0.47857387319E+02 -0.17525831264E+02  0.17634929841E+03  0.12500000000E+03 0.  0.
         25    1    1    2    0    0  0.68349016310E+02 -0.11586640338E+03  0.26872243978E+03  0.32547405596E+03  0.12500000000E+03 0.  0.
</event>
<event>
 5    0  0.5670250E-005  0.3976598E+03  0.7546771E-02  0.1044593E+00
         21   -1    0    0  502  501  0.00000000000E+00  0.00000000000E+00  0.70690653524E+03  0.70690653524E+03  0.00000000000E+00 0. -1.
         21   -1    0    0  501  502 -0.00000000000E+00 -0.00000000000E+00 -0.22369762010E+03  0.22369762010E+03  0.00000000000E+00 0. -1.
         25    1    1    2    0    0  0.23515181093E+03 -0.93721900823E+02  0.83890130673E+02  0.29452117564E+03  0.12500000000E+03 0.  0.
         25    1    1    2    0    0 -0.39710733065E+02 -0.22239078867E+02 -0.28253738427E+02  0.13599556127E+03  0.12500000000E+03 0.  0.
         25    1    1    2    0    0 -0.19544107787E+03  0.11596097969E+03  0.42757252289E+03  0.50008741842E+03  0.12500000000E+03 0.  0.
</event>
<event>
 5    0  0.5670250E-005  0.3282685E+03  0.7546771E-02  0.1071906E+00
         21   -1    0    0  502  501  0.00000000000E+00  0.00000000000E+00  0.15492752172E+03  0.15492752172E+03  0.00000000000E+00 0. -1.
         21   -1    0    0  501  502 -0.00000000000E+00 -0.00000000000E+00 -0.69555234007E+03  0.69555234007E+03  0.00000000000E+00 0. -1.
         25    1    1    2    0    0 -0.74013159708E+02 -0.81318403661E+02 -0.27426565666E+03  0.32083840326E+03  0.12500000000E+03 0.  0.
         25    1    1    2    0    0 -0.70917066726E+02  0.18614387527E+03 -0.17469932752E+03  0.29295669934E+03  0.12500000000E+03 0.  0.
         25    1    1    2    0    0  0.14493022643E+03 -0.10482547161E+03 -0.91659834176E+02  0.23668475919E+03  0.12500000000E+03 0.  0.
</event>
<event>
 5    0  0.5670250E-005  0.2728107E+03  0.7546771E-02  0.1099682E+00
         21   -1    0    0  502  501  0.00000000000E+00  0.00000000000E+00  0.17554256457E+03  0.17554256457E+03  0.00000000000E+00 0.  1.
         21   -1    0    0  501  502 -0.00000000000E+00 -0.00000000000E+00 -0.42397506832E+03  0.42397506832E+03  0.00000000000E+00 0.  1.
         25    1    1    2    0    0  0.63224649806E+02 -0.96755285468E+02 -0.11510695929E+03  0.20550803801E+03  0.12500000000E+03 0.  0.
         25    1    1    2    0    0 -0.86902410734E+02  0.12147744198E+03  0.17026494189E+02  0.19550882181E+03  0.12500000000E+03 0.  0.
         25    1    1    2    0    0  0.23677760929E+02 -0.24722156509E+02 -0.15035203864E+03  0.19850077307E+03  0.12500000000E+03 0.  0.
</event>
<event>
 5    0  0.5670250E-005  0.2986926E+03  0.7546771E-02  0.1085896E+00
         21   -1    0    0  502  501  0.00000000000E+00  0.00000000000E+00  0.71188912212E+03  0.71188912212E+03  0.00000000000E+00 0.  1.
         21   -1    0    0  501  502 -0.00000000000E+00 -0.00000000000E+00 -0.12532463869E+03  0.12532463869E+03  0.00000000000E+00 0.  1.
         25    1    1    2    0    0 -0.39374501494E+02  0.14702881859E+02  0.12910031756E+03  0.18454922946E+03  0.12500000000E+03 0.  0.
         25    1    1    2    0    0  0.45720654514E+01  0.11932093527E+02 -0.44668169748E+02  0.13335488003E+03  0.12500000000E+03 0.  0.
         25    1    1    2    0    0  0.34802436042E+02 -0.26634975386E+02  0.50213233563E+03  0.51930965132E+03  0.12500000000E+03 0.  0.
</event>
<event>
 5    0  0.5670250E-005  0.4204563E+03  0.7546771E-02  0.1036918E+00
         21   -1    0    0  502  501  0.00000000000E+00  0.00000000000E+00  0.74355385549E+03  0.74355385549E+03  0.00000000000E+00 0.  1.
         21   -1    0    0  501  502 -0.00000000000E+00 -0.00000000000E+00 -0.23775482631E+03  0.23775482631E+03  0.00000000000E+00 0.  1.
         25    1    1    2    0    0  0.24425736770E+03 -0.42404506520E+02 -0.75301847807E+02  0.28767198705E+03  0.12500000000E+03 0.  0.
         25    1    1    2    0    0 -0.21057330676E+03  0.22716568924E+02  0.41115305795E+03  0.47909184619E+03  0.12500000000E+03 0.  0.
         25    1    1    2    0    0 -0.33684060939E+02  0.19687937596E+02  0.16994781904E+03  0.21454484857E+03  0.12500000000E+03 0.  0.
</event>
<event>
 5    0  0.5670250E-005  0.3604031E+03  0.7546771E-02  0.1058424E+00
         21   -1    0    0  502  501  0.00000000000E+00  0.00000000000E+00  0.75386340840E+02  0.75386340840E+02  0.00000000000E+00 0.  1.
         21   -1    0    0  501  502 -0.00000000000E+00 -0.00000000000E+00 -0.17229962751E+04  0.17229962751E+04  0.00000000000E+00 0.  1.
         25    1    1    2    0    0 -0.29250002297E+02  0.26102598909E+03 -0.95283045848E+03  0.99624345027E+03  0.12500000000E+03 0.  0.
         25    1    1    2    0    0  0.94141003193E+01 -0.23988862145E+03 -0.50663540609E+03  0.57440370010E+03  0.12500000000E+03 0.  0.
         25    1    1    2    0    0  0.19835901978E+02 -0.21137367642E+02 -0.18814406974E+03  0.22773546561E+03  0.12500000000E+03 0.  0.
</event>
<event>
 5    0  0.5670250E-005  0.3447707E+03  0.7546771E-02  0.1064782E+00
         21   -1    0    0  502  501  0.00000000000E+00  0.00000000000E+00  0.98143404203E+03  0.98143404203E+03  0.00000000000E+00 0. -1.
         21   -1    0    0  501  502 -0.00000000000E+00 -0.00000000000E+00 -0.12111543645E+03  0.12111543645E+03  0.00000000000E+00 0. -1.
         25    1    1    2    0    0  0.19679707992E+03 -0.45349884332E+02  0.31092940333E+03  0.39126435632E+03  0.12500000000E+03 0.  0.
         25    1    1    2    0    0 -0.12526818127E+02 -0.12026329066E+03  0.19799589476E+03  0.26352903938E+03  0.12500000000E+03 0.  0.
         25    1    1    2    0    0 -0.18427026179E+03  0.16561317499E+03  0.35139330749E+03  0.44775608277E+03  0.12500000000E+03 0.  0.
</event>
<event>
 5    0  0.5670250E-005  0.3204440E+03  0.7546771E-02  0.1075445E+00
         21   -1    0    0  502  501  0.00000000000E+00  0.00000000000E+00  0.80659208128E+03  0.80659208128E+03  0.00000000000E+00 0. -1.
         21   -1    0    0  501  502 -0.00000000000E+00 -0.00000000000E+00 -0.12730646430E+03  0.12730646430E+03  0.00000000000E+00 0. -1.
         25    1    1    2    0    0  0.12909250322E+02 -0.12599605671E+03  0.35358274587E+02  0.18143004887E+03  0.12500000000E+03 0.  0.
         25    1    1    2    0    0  0.12292294698E+03  0.30453516851E+02  0.24711278749E+03  0.30451140754E+03  0.12500000000E+03 0.  0.
         25    1    1    2    0    0 -0.13583219730E+03  0.95542539862E+02  0.39681455490E+03  0.44795708916E+03  0.12500000000E+03 0.  0.
</event>
<event>
 5    0  0.5670250E-005  0.4071138E+03  0.7546771E-02  0.1041344E+00
         21   -1    0    0  502  501  0.00000000000E+00  0.00000000000E+00  0.82978027846E+02  0.82978027846E+02  0.00000000000E+00 0.  1.
         21   -1    0    0  501  502 -0.00000000000E+00 -0.00000000000E+00 -0.19974156478E+04  0.19974156478E+04  0.00000000000E+00 0.  1.
         25    1    1    2    0    0  0.39890488085E+02 -0.12593453736E+03 -0.13966615139E+04  0.14084527479E+04  0.12500000000E+03 0.  0.
         25    1    1    2    0    0 -0.15048072761E+03  0.14744387811E+02 -0.38298329483E+03  0.43030576393E+03  0.12500000000E+03 0.  0.
         25    1    1    2    0    0  0.11059023953E+03  0.11119014955E+03 -0.13479281129E+03  0.24163516385E+03  0.12500000000E+03 0.  0.
</event>
<event>
 5    0  0.6488030E-005  0.3998766E+03  0.7546771E-02  0.1043822E+00
         21   -1    0    0  502  501  0.00000000000E+00  0.00000000000E+00  0.84759653338E+03  0.84759653338E+03  0.00000000000E+00 0. -1.
         21   -1    0    0  501  502 -0.00000000000E+00 -0.00000000000E+00 -0.18865256685E+03  0.18865256685E+03  0.00000000000E+00 0. -1.
         25    1    1    2    0    0  0.28920957439E+02 -0.22448828764E+03  0.24145667774E+03  0.35377639872E+03  0.12500000000E+03 0.  0.
         25    1    1    2    0    0  0.15327926473E+03 -0.84215435597E+00  0.62369142431E+02  0.20738889109E+03  0.12500000000E+03 0.  0.
         25    1    1    2    0    0 -0.18220022217E+03  0.22533044200E+03  0.35511814636E+03  0.47508381042E+03  0.12500000000E+03 0.  0.
</event>
<event>
 5    0  0.5670250E-005  0.3258473E+03  0.7546771E-02  0.1072989E+00
         21   -1    0    0  502  501  0.00000000000E+00  0.00000000000E+00  0.26723078828E+03  0.26723078828E+03  0.00000000000E+00 0. -1.
         21   -1    0    0  501  502 -0.00000000000E+00 -0.00000000000E+00 -0.39732126490E+03  0.39732126490E+03  0.00000000000E+00 0. -1.
         25    1    1    2    0    0 -0.10618218532E+03 -0.14197670515E+03 -0.15561673070E+03  0.26697117477E+03  0.12500000000E+03 0.  0.
         25    1    1    2    0    0  0.60444956181E+02 -0.61045890992E+02  0.30745028007E+02  0.15475933019E+03  0.12500000000E+03 0.  0.
         25    1    1    2    0    0  0.45737229138E+02  0.20302259614E+03 -0.52187739263E+01  0.24282154821E+03  0.12500000000E+03 0.  0.
</event>
<event>
 5    0  0.5670250E-005  0.3535165E+03  0.7546771E-02  0.1061181E+00
         21   -1    0    0  502  501  0.00000000000E+00  0.00000000000E+00  0.27759516234E+03  0.27759516234E+03  0.00000000000E+00 0.  1.
         21   -1    0    0  501  502 -0.00000000000E+00 -0.00000000000E+00 -0.45020218817E+03  0.45020218817E+03  0.00000000000E+00 0.  1.
         25    1    1    2    0    0  0.11122026096E+03  0.10666002634E+03  0.31167879477E+02  0.20085503324E+03  0.12500000000E+03 0.  0.
         25    1    1    2    0    0 -0.17643304367E+03  0.39464266102E+02 -0.23469767016E+03  0.32154944189E+03  0.12500000000E+03 0.  0.
         25    1    1    2    0    0  0.65212782709E+02 -0.14612429244E+03  0.30922764856E+02  0.20539287538E+03  0.12500000000E+03 0.  0.
</event>
<event>
 5    0  0.5670250E-005  0.3233767E+03  0.7546771E-02  0.1074106E+00
         21   -1    0    0  502  501  0.00000000000E+00  0.00000000000E+00  0.13492026198E+04  0.13492026198E+04  0.00000000000E+00 0. -1.
         21   -1    0    0  501  502 -0.00000000000E+00 -0.00000000000E+00 -0.77506874117E+02  0.77506874117E+02  0.00000000000E+00 0. -1.
         25    1    1    2    0    0 -0.89064983481E+02  0.18955025835E+03  0.84069435757E+03  0.87535928314E+03  0.12500000000E+03 0.  0.
         25    1    1    2    0    0  0.83526775078E+01 -0.13457545549E+03  0.25561121909E+03  0.31486888663E+03  0.12500000000E+03 0.  0.
         25    1    1    2    0    0  0.80712305973E+02 -0.54974802854E+02  0.17539016904E+03  0.23648132417E+03  0.12500000000E+03 0.  0.
</event>
<event>
 5    0  0.5670250E-005  0.3995612E+03  0.7546771E-02  0.1043932E+00
         21   -1    0    0  502  501  0.00000000000E+00  0.00000000000E+00  0.14445950851E+03  0.14445950851E+03  0.00000000000E+00 0.  1.
         21   -1    0    0  501  502 -0.00000000000E+00 -0.00000000000E+00 -0.11051480250E+04  0.11051480250E+04  0.00000000000E+00 0.  1.
         25    1    1    2    0    0 -0.14054477646E+03  0.18187325103E+03 -0.28423588910E+03  0.38632338045E+03  0.12500000000E+03 0.  0.
         25    1    1    2    0    0  0.24615729436E+03 -0.33997493158E+02 -0.21409577408E+03  0.35101459170E+03  0.12500000000E+03 0.  0.
         25    1    1    2    0    0 -0.10561251790E+03 -0.14787575787E+03 -0.46235685332E+03  0.51226956138E+03  0.12500000000E+03 0.  0.
</event>
<event>
 5    0  0.5670250E-005  0.2165151E+03  0.7546771E-02  0.1136508E+00
         21   -1    0    0  502  501  0.00000000000E+00  0.00000000000E+00  0.27642505713E+03  0.27642505713E+03  0.00000000000E+00 0. -1.
         21   -1    0    0  501  502 -0.00000000000E+00 -0.00000000000E+00 -0.16958950999E+03  0.16958950999E+03  0.00000000000E+00 0. -1.
         25    1    1    2    0    0  0.14190511031E+02  0.31896479471E+02  0.75478253298E+02  0.15013568106E+03  0.12500000000E+03 0.  0.
         25    1    1    2    0    0  0.38641303852E+02 -0.67861307453E+02 -0.14715486746E+02  0.14812107535E+03  0.12500000000E+03 0.  0.
         25    1    1    2    0    0 -0.52831814883E+02  0.35964827982E+02  0.46072780590E+02  0.14775781071E+03  0.12500000000E+03 0.  0.
</event>
<event>
 5    0  0.5670250E-005  0.2528006E+03  0.7546771E-02  0.1111548E+00
         21   -1    0    0  502  501  0.00000000000E+00  0.00000000000E+00  0.21025299219E+03  0.21025299219E+03  0.00000000000E+00 0.  1.
         21   -1    0    0  501  502 -0.00000000000E+00 -0.00000000000E+00 -0.30395832326E+03  0.30395832326E+03  0.00000000000E+00 0.  1.
         25    1    1    2    0    0  0.11299194846E+03 -0.17295064673E+02  0.70668372290E+02  0.18353560559E+03  0.12500000000E+03 0.  0.
         25    1    1    2    0    0 -0.40925340498E+02 -0.42941113044E+01 -0.12022832146E+03  0.17825030762E+03  0.12500000000E+03 0.  0.
         25    1    1    2    0    0 -0.72066607961E+02  0.21589175977E+02 -0.44145381907E+02  0.15242540223E+03  0.12500000000E+03 0.  0.
</event>
<event>
 5    0  0.5670250E-005  0.3486071E+03  0.7546771E-02  0.1063188E+00
         21   -1    0    0  502  501  0.00000000000E+00  0.00000000000E+00  0.11383641565E+03  0.11383641565E+03  0.00000000000E+00 0.  1.
         21   -1    0    0  501  502 -0.00000000000E+00 -0.00000000000E+00 -0.10675571538E+04  0.10675571538E+04  0.00000000000E+00 0.  1.
         25    1    1    2    0    0  0.33590557898E+02 -0.22763638391E+03 -0.31133890301E+03  0.40682128925E+03  0.12500000000E+03 0.  0.
         25    1    1    2    0    0  0.89927308910E+02  0.18927967732E+03 -0.44515188955E+03  0.50764054399E+03  0.12500000000E+03 0.  0.
         25    1    1    2    0    0 -0.12351786681E+03  0.38356706582E+02 -0.19722994562E+03  0.26693173624E+03  0.12500000000E+03 0.  0.
</event>
<event>
 5    0  0.5670250E-005  0.2550049E+03  0.7546771E-02  0.1110182E+00
         21   -1    0    0  502  501  0.00000000000E+00  0.00000000000E+00  0.22607187572E+04  0.22607187572E+04  0.00000000000E+00 0. -1.
         21   -1    0    0  501  502 -0.00000000000E+00 -0.00000000000E+00 -0.28764073659E+02  0.28764073659E+02  0.00000000000E+00 0. -1.
         25    1    1    2    0    0 -0.11754091622E+03 -0.19987454885E+01  0.55307920193E+03  0.57908675134E+03  0.12500000000E+03 0.  0.
         25    1    1    2    0    0  0.12904864170E+03  0.58664379870E+02  0.94742655929E+03  0.96609375665E+03  0.12500000000E+03 0.  0.
         25    1    1    2    0    0 -0.11507725476E+02 -0.56665634381E+02  0.73144892235E+03  0.74430232290E+03  0.12500000000E+03 0.  0.
</event>
<event>
 5    0  0.5670250E-005  0.3760670E+03  0.7546771E-02  0.1052397E+00
         21   -1    0    0  502  501  0.00000000000E+00  0.00000000000E+00  0.26477262322E+04  0.26477262322E+04  0.00000000000E+00 0.  1.
         21   -1    0    0  501  502 -0.00000000000E+00 -0.00000000000E+00 -0.53414265225E+02  0.53414265225E+02  0.00000000000E+00 0.  1.
         25    1    1    2    0    0 -0.67156515915E+02 -0.30666448179E+03  0.12047815066E+04  0.12512699871E+04  0.12500000000E+03 0.  0.
         25    1    1    2    0    0  0.53853329355E+02  0.15748530090E+03  0.87973376719E+03  0.90402339694E+03  0.12500000000E+03 0.  0.
         25    1    1    2    0    0  0.13303186560E+02  0.14917918089E+03  0.50979669320E+03  0.54584711337E+03  0.12500000000E+03 0.  0.
</event>
<event>
 5    0  0.5670250E-005  0.3216771E+03  0.7546771E-02  0.1074880E+00
         21   -1    0    0  502  501  0.00000000000E+00  0.00000000000E+00  0.45746445311E+03  0.45746445311E+03  0.00000000000E+00 0. -1.
         21   -1    0    0  501  502 -0.00000000000E+00 -0.00000000000E+00 -0.22619493755E+03  0.22619493755E+03  0.00000000000E+00 0. -1.
         25    1    1    2    0    0  0.95284183650E+02 -0.89446367304E+02  0.22776871645E+03  0.29083211045E+03  0.12500000000E+03 0.  0.
         25    1    1    2    0    0 -0.18828266769E+03  0.43358643632E+02 -0.43849681406E+01  0.23016203613E+03  0.12500000000E+03 0.  0.
         25    1    1    2    0    0  0.92998484035E+02  0.46087723672E+02  0.78857672494E+01  0.16266524408E+03  0.12500000000E+03 0.  0.
</event>
<event>
 5    0  0.5670250E-005  0.2831202E+03  0.7546771E-02  0.1093997E+00
         21   -1    0    0  502  501  0.00000000000E+00  0.00000000000E+00  0.15939760508E+04  0.15939760508E+04  0.00000000000E+00 0.  1.
         21   -1    0    0  501  502 -0.00000000000E+00 -0.00000000000E+00 -0.50287499379E+02  0.50287499379E+02  0.00000000000E+00 0.  1.
         25    1    1    2    0    0 -0.74858426393E+02  0.13498052432E+03  0.48954503227E+03  0.52830186879E+03  0.12500000000E+03 0.  0.
         25    1    1    2    0    0 -0.52749620632E+02  0.70406605454E+01  0.45410427849E+03  0.47399133866E+03  0.12500000000E+03 0.  0.
         25    1    1    2    0    0  0.12760804702E+03 -0.14202118487E+03  0.60003924068E+03  0.64197034275E+03  0.12500000000E+03 0.  0.
</event>
<event>
 5    0  0.5670250E-005  0.3354622E+03  0.7546771E-02  0.1068745E+00
         21   -1    0    0  502  501  0.00000000000E+00  0.00000000000E+00  0.44840779507E+02  0.44840779507E+02  0.00000000000E+00 0.  1.
         21   -1    0    0  501  502 -0.00000000000E+00 -0.00000000000E+00 -0.25096547038E+04  0.25096547038E+04  0.00000000000E+00 0.  1.
         25    1    1    2    0    0  0.21012590309E+03 -0.83534784631E+02 -0.11711184124E+04  0.11992807391E+04  0.12500000000E+03 0.  0.
         25    1    1    2    0    0 -0.74975503526E+02 -0.31987238104E+02 -0.82748348977E+03  0.84083198998E+03  0.12500000000E+03 0.  0.
         25    1    1    2    0    0 -0.13515039956E+03  0.11552202273E+03 -0.46621202210E+03  0.51438275417E+03  0.12500000000E+03 0.  0.
</event>
<event>
 5    0  0.5670250E-005  0.2546255E+03  0.7546771E-02  0.1110416E+00
         21   -1    0    0  502  501  0.00000000000E+00  0.00000000000E+00  0.51136561826E+03  0.51136561826E+03  0.00000000000E+00 0. -1.
         21   -1    0    0  501  502 -0.00000000000E+00 -0.00000000000E+00 -0.12678627550E+03  0.12678627550E+03  0.00000000000E+00 0. -1.
         25    1    1    2    0    0 -0.65601029521E+02 -0.50399412573E+02  0.43249022839E+02  0.15600985174E+03  0.12500000000E+03 0.  0.
         25    1    1    2    0    0  0.10169940351E+03  0.11196979893E+03  0.20768867792E+03  0.28572642769E+03  0.12500000000E+03 0.  0.
         25    1    1    2    0    0 -0.36098373984E+02 -0.61570386355E+02  0.13364164200E+03  0.19641561434E+03  0.12500000000E+03 0.  0.
</event>
<event>
 5    0  0.5670250E-005  0.3982654E+03  0.7546771E-02  0.1044382E+00
         21   -1    0    0  502  501  0.00000000000E+00  0.00000000000E+00  0.10845686669E+03  0.10845686669E+03  0.00000000000E+00 0.  1.
         21   -1    0    0  501  502 -0.00000000000E+00 -0.00000000000E+00 -0.14624741256E+04  0.14624741256E+04  0.00000000000E+00 0.  1.
         25    1    1    2    0    0  0.13420258855E+03 -0.29788114533E+03 -0.60184060566E+03  0.69611825585E+03  0.12500000000E+03 0.  0.
         25    1    1    2    0    0 -0.81180717213E+02  0.22219701035E+03 -0.60149977285E+03  0.65832271493E+03  0.12500000000E+03 0.  0.
         25    1    1    2    0    0 -0.53021871333E+02  0.75684134984E+02 -0.15067688043E+03  0.21649002153E+03  0.12500000000E+03 0.  0.
</event>
<event>
 5    0  0.5670250E-005  0.3017717E+03  0.7546771E-02  0.1084358E+00
         21   -1    0    0  502  501  0.00000000000E+00  0.00000000000E+00  0.68279564118E+03  0.68279564118E+03  0.00000000000E+00 0.  1.
         21   -1    0    0  501  502 -0.00000000000E+00 -0.00000000000E+00 -0.13337252654E+03  0.13337252654E+03  0.00000000000E+00 0.  1.
         25    1    1    2    0    0  0.76294029046E+02  0.37877185065E+02  0.31641395812E+03  0.35071106756E+03  0.12500000000E+03 0.  0.
         25    1    1    2    0    0  0.85947868990E+01 -0.16371793723E+03  0.11323297556E+03  0.23521084177E+03  0.12500000000E+03 0.  0.
         25    1    1    2    0    0 -0.84888815945E+02  0.12584075217E+03  0.11977618096E+03  0.23024625839E+03  0.12500000000E+03 0.  0.
</event>
<event>
 5    0  0.5670250E-005  0.5046032E+03  0.7546771E-02  0.1012584E+00
         21   -1    0    0  502  501  0.00000000000E+00  0.00000000000E+00  0.40531166358E+03  0.40531166358E+03  0.00000000000E+00 0. -1.
         21   -1    0    0  501  502 -0.00000000000E+00 -0.00000000000E+00 -0.62821881095E+03  0.62821881095E+03  0.00000000000E+00 0. -1.
         25    1    1    2    0    0  0.19603564643E+03  0.14835554437E+03 -0.23457135634E+03  0.36206085598E+03  0.12500000000E+03 0.  0.
         25    1    1    2    0    0 -0.27293941084E+03 -0.29821409074E+03  0.11378421979E+03  0.43817737798E+03  0.12500000000E+03 0.  0.
         25    1    1    2    0    0  0.76903764404E+02  0.14985854636E+03 -0.10212001082E+03  0.23329224057E+03  0.12500000000E+03 0.  0.
</event>
<event>
 5    0  0.5670250E-005  0.2447361E+03  0.7546771E-02  0.1116677E+00
         21   -1    0    0  502  501  0.00000000000E+00  0.00000000000E+00  0.91496139504E+02  0.91496139504E+02  0.00000000000E+00 0. -1.
         21   -1    0    0  501  502 -0.00000000000E+00 -0.00000000000E+00 -0.65462593376E+03  0.65462593376E+03  0.00000000000E+00 0. -1.
         25    1    1    2    0    0  0.70763996936E+02 -0.22566284005E+02 -0.74460742709E+02  0.16335906048E+03  0.12500000000E+03 0.  0.
         25    1    1    2    0    0 -0.75899536451E+02  0.33639174059E+02 -0.40485726565E+03  0.43177162854E+03  0.12500000000E+03 0.  0.
         25    1    1    2    0    0  0.51355395157E+01 -0.11072890055E+02 -0.83811785900E+02  0.15099138424E+03  0.12500000000E+03 0.  0.
</event>
<event>
 5    0  0.5670250E-005  0.2226722E+03  0.7546771E-02  0.1131906E+00
         21   -1    0    0  502  501  0.00000000000E+00  0.00000000000E+00  0.23561348170E+03  0.23561348170E+03  0.00000000000E+00 0. -1.
         21   -1    0    0  501  502 -0.00000000000E+00 -0.00000000000E+00 -0.21044174507E+03  0.21044174507E+03  0.00000000000E+00 0. -1.
         25    1    1    2    0    0  0.27855800599E+02  0.41741279558E+02  0.22153871773E+02  0.13650668145E+03  0.12500000000E+03 0.  0.
         25    1    1    2    0    0 -0.40097810476E+02 -0.10562018135E+03  0.62120661503E+01  0.16860322322E+03  0.12500000000E+03 0.  0.
         25    1    1    2    0    0  0.12242009877E+02  0.63878901794E+02 -0.31942012844E+01  0.14094532210E+03  0.12500000000E+03 0.  0.
</event>
<event>
 5    0  0.5670250E-005  0.4245078E+03  0.7546771E-02  0.1035609E+00
         21   -1    0    0  502  501  0.00000000000E+00  0.00000000000E+00  0.39515356791E+03  0.39515356791E+03  0.00000000000E+00 0. -1.
         21   -1    0    0  501  502 -0.00000000000E+00 -0.00000000000E+00 -0.45604264301E+03  0.45604264301E+03  0.00000000000E+00 0. -1.
         25    1    1    2    0    0  0.71329226196E+02 -0.28683098918E+03  0.11023269849E+03  0.33931714174E+03  0.12500000000E+03 0.  0.
         25    1    1    2    0    0 -0.12865563038E+02  0.95687781582E+02 -0.22028355237E+03  0.27105629988E+03  0.12500000000E+03 0.  0.
         25    1    1    2    0    0 -0.58463663158E+02  0.19114320760E+03  0.49161778785E+02  0.24082276930E+03  0.12500000000E+03 0.  0.
</event>
<event>
 5    0  0.5670250E-005  0.4480354E+03  0.7546771E-02  0.1028310E+00
         21   -1    0    0  502  501  0.00000000000E+00  0.00000000000E+00  0.12504966400E+04  0.12504966400E+04  0.00000000000E+00 0.  1.
         21   -1    0    0  501  502 -0.00000000000E+00 -0.00000000000E+00 -0.16052479368E+03  0.16052479368E+03  0.00000000000E+00 0.  1.
         25    1    1    2    0    0 -0.16703549904E+03  0.40551717119E+02  0.48130777490E+03  0.52614396687E+03  0.12500000000E+03 0.  0.
         25    1    1    2    0    0  0.31363257577E+03 -0.11817734862E+03  0.16281380519E+03  0.39301986396E+03  0.12500000000E+03 0.  0.
         25    1    1    2    0    0 -0.14659707673E+03  0.77625631500E+02  0.44585026627E+03  0.49185760288E+03  0.12500000000E+03 0.  0.
</event>
<event>
 5    0  0.5670250E-005  0.2503383E+03  0.7546771E-02  0.1113091E+00
         21   -1    0    0  502  501  0.00000000000E+00  0.00000000000E+00  0.76645700624E+02  0.76645700624E+02  0.00000000000E+00 0. -1.
         21   -1    0    0  501  502 -0.00000000000E+00 -0.00000000000E+00 -0.81764875457E+03  0.81764875457E+03  0.00000000000E+00 0. -1.
         25    1    1    2    0    0  0.77033027547E+02 -0.85526622884E+02 -0.15879258197E+03  0.23257036493E+03  0.12500000000E+03 0.  0.
         25    1    1    2    0    0 -0.74618011024E+01  0.10833233126E+03 -0.25717749442E+03  0.30587061989E+03  0.12500000000E+03 0.  0.
         25    1    1    2    0    0 -0.69571226445E+02 -0.22805708374E+02 -0.32503297755E+03  0.35585347038E+03  0.12500000000E+03 0.  0.
</event>
<event>
 5    0  0.5670250E-005  0.2508894E+03  0.7546771E-02  0.1112744E+00
         21   -1    0    0  502  501  0.00000000000E+00  0.00000000000E+00  0.23667273579E+03  0.23667273579E+03  0.00000000000E+00 0.  1.
         21   -1    0    0  501  502 -0.00000000000E+00 -0.00000000000E+00 -0.26596009702E+03  0.26596009702E+03  0.00000000000E+00 0.  1.
         25    1    1    2    0    0 -0.10482406665E+03  0.60963084421E+02 -0.35391264656E+02  0.17771360169E+03  0.12500000000E+03 0.  0.
         25    1    1    2    0    0  0.69983216941E+02  0.19452354029E+02  0.68524295943E+02  0.15998944923E+03  0.12500000000E+03 0.  0.
         25    1    1    2    0    0  0.34840849708E+02 -0.80415438450E+02 -0.62420392518E+02  0.16492978188E+03  0.12500000000E+03 0.  0.
</event>
<event>
 5    0  0.5670250E-005  0.3872754E+03  0.7546771E-02  0.1048277E+00
         21   -1    0    0  502  501  0.00000000000E+00  0.00000000000E+00  0.37791380170E+03  0.37791380170E+03  0.00000000000E+00 0. -1.
         21   -1    0    0  501  502 -0.00000000000E+00 -0.00000000000E+00 -0.39686885241E+03  0.39686885241E+03  0.00000000000E+00 0. -1.
         25    1    1    2    0    0  0.11104230780E+03  0.90033680734E+02 -0.28529190411E+03  0.34271406207E+03  0.12500000000E+03 0.  0.
         25    1    1    2    0    0  0.30637070282E+02 -0.65798574744E+02  0.15269119906E+03  0.21025623602E+03  0.12500000000E+03 0.  0.
         25    1    1    2    0    0 -0.14167937808E+03 -0.24235105991E+02  0.11364565433E+03  0.22181235602E+03  0.12500000000E+03 0.  0.
</event>
<event>
 5    0  0.5670250E-005  0.2957535E+03  0.7546771E-02  0.1087383E+00
         21   -1    0    0  502  501  0.00000000000E+00  0.00000000000E+00  0.33563647697E+03  0.33563647697E+03  0.00000000000E+00 0. -1.
         21   -1    0    0  501  502 -0.00000000000E+00 -0.00000000000E+00 -0.26060971897E+03  0.26060971897E+03  0.00000000000E+00 0. -1.
         25    1    1    2    0    0  0.96448588627E+02 -0.10237289622E+03 -0.74760614684E+02  0.20247639279E+03  0.12500000000E+03 0.  0.
         25    1    1    2    0    0  0.31744850494E+02 -0.21455374769E+02  0.21976724999E+01  0.13075893241E+03  0.12500000000E+03 0.  0.
         25    1    1    2    0    0 -0.12819343912E+03  0.12382827099E+03  0.14758970019E+03  0.26301087075E+03  0.12500000000E+03 0.  0.
</event>
<event>
 5    0  0.5670250E-005  0.2416618E+03  0.7546771E-02  0.1118691E+00
         21   -1    0    0  502  501  0.00000000000E+00  0.00000000000E+00  0.66346720081E+03  0.66346720081E+03  0.00000000000E+00 0. -1.
         21   -1    0    0  501  502 -0.00000000000E+00 -0.00000000000E+00 -0.88023114327E+02  0.88023114327E+02  0.00000000000E+00 0. -1.
         25    1    1    2    0    0  0.79290778216E+02 -0.47875718904E+02  0.33530447711E+03  0.36963928950E+03  0.12500000000E+03 0.  0.
         25    1    1    2    0    0 -0.77375327869E+02  0.45479813925E+02  0.19613164781E+03  0.24929496206E+03  0.12500000000E+03 0.  0.
         25    1    1    2    0    0 -0.19154503469E+01  0.23959049786E+01  0.44007961568E+02  0.13255606358E+03  0.12500000000E+03 0.  0.
</event>
<event>
 5    0  0.5670250E-005  0.3348697E+03  0.7546771E-02  0.1069002E+00
         21   -1    0    0  502  501  0.00000000000E+00  0.00000000000E+00  0.25686924419E+03  0.25686924419E+03  0.00000000000E+00 0. -1.
         21   -1    0    0  501  502 -0.00000000000E+00 -0.00000000000E+00 -0.43655575789E+03  0.43655575789E+03  0.00000000000E+00 0. -1.
         25    1    1    2    0    0 -0.89236774343E+02  0.10045193392E+03 -0.12573928200E+03  0.22246159211E+03  0.12500000000E+03 0.  0.
         25    1    1    2    0    0 -0.10550692220E+03  0.72064226454E+02 -0.10280089013E+02  0.17904089923E+03  0.12500000000E+03 0.  0.
         25    1    1    2    0    0  0.19474369654E+03 -0.17251616037E+03 -0.43667142678E+02  0.29192251075E+03  0.12500000000E+03 0.  0.
</event>
<event>
 5    0  0.5670250E-005  0.2603716E+03  0.7546771E-02  0.1106920E+00
         21   -1    0    0  502  501  0.00000000000E+00  0.00000000000E+00  0.23218478896E+03  0.23218478896E+03  0.00000000000E+00 0.  1.
         21   -1    0    0  501  502 -0.00000000000E+00 -0.00000000000E+00 -0.29198023133E+03  0.29198023133E+03  0.00000000000E+00 0.  1.
         25    1    1    2    0    0  0.13554893890E+03 -0.17594941410E+02 -0.78444219353E+02  0.20115067077E+03  0.12500000000E+03 0.  0.
         25    1    1    2    0    0 -0.26543309378E+02  0.59436026481E+01  0.73993122373E+02  0.14778313789E+03  0.12500000000E+03 0.  0.
         25    1    1    2    0    0 -0.10900562953E+03  0.11651338762E+02 -0.55344345386E+02  0.17523121163E+03  0.12500000000E+03 0.  0.
</event>
<event>
 5    0  0.5670250E-005  0.4617591E+03  0.7546771E-02  0.1024272E+00
         21   -1    0    0  502  501  0.00000000000E+00  0.00000000000E+00  0.77458439435E+03  0.77458439435E+03  0.00000000000E+00 0. -1.
         21   -1    0    0  501  502 -0.00000000000E+00 -0.00000000000E+00 -0.27527209239E+03  0.27527209239E+03  0.00000000000E+00 0. -1.
         25    1    1    2    0    0  0.36820375059E+03  0.71349308468E+02  0.28452199951E+03  0.48707544998E+03  0.12500000000E+03 0.  0.
         25    1    1    2    0    0 -0.25574294588E+03  0.11698300716E+02  0.24133731498E+03  0.37337649124E+03  0.12500000000E+03 0.  0.
         25    1    1    2    0    0 -0.11246080471E+03 -0.83047609184E+02 -0.26547012530E+02  0.18940454552E+03  0.12500000000E+03 0.  0.
</event>
<event>
 5    0  0.5670250E-005  0.4146180E+03  0.7546771E-02  0.1038832E+00
         21   -1    0    0  502  501  0.00000000000E+00  0.00000000000E+00  0.11178019841E+03  0.11178019841E+03  0.00000000000E+00 0. -1.
         21   -1    0    0  501  502 -0.00000000000E+00 -0.00000000000E+00 -0.15379117737E+04  0.15379117737E+04  0.00000000000E+00 0. -1.
         25    1    1    2    0    0 -0.17466330008E+03 -0.12767994729E+03 -0.61574907591E+03  0.66451588530E+03  0.12500000000E+03 0.  0.
         25    1    1    2    0    0 -0.13105895132E+03 -0.28814718832E+02 -0.36943674176E+03  0.41245029143E+03  0.12500000000E+03 0.  0.
         25    1    1    2    0    0  0.30572225140E+03  0.15649466612E+03 -0.44094575766E+03  0.57272579541E+03  0.12500000000E+03 0.  0.
</event>
<event>
 5    0  0.6064140E-005  0.2922312E+03  0.7546771E-02  0.1089190E+00
         21   -1    0    0  502  501  0.00000000000E+00  0.00000000000E+00  0.92167284507E+03  0.92167284507E+03  0.00000000000E+00 0.  1.
         21   -1    0    0  501  502 -0.00000000000E+00 -0.00000000000E+00 -0.92656629149E+02  0.92656629149E+02  0.00000000000E+00 0.  1.
         25    1    1    2    0    0  0.14912753844E+03 -0.65246038070E+02  0.14154978183E+03  0.24931387635E+03  0.12500000000E+03 0.  0.
         25    1    1    2    0    0 -0.42532593418E+02  0.30185356587E+02  0.47631315313E+03  0.49519632178E+03  0.12500000000E+03 0.  0.
         25    1    1    2    0    0 -0.10659494502E+03  0.35060681483E+02  0.21115328095E+03  0.26981927609E+03  0.12500000000E+03 0.  0.
</event>
<event>
 5    0  0.5670250E-005  0.3263395E+03  0.7546771E-02  0.1072768E+00
         21   -1    0    0  502  501  0.00000000000E+00  0.00000000000E+00  0.14906219370E+04  0.14906219370E+04  0.00000000000E+00 0.  1.
         21   -1    0    0  501  502 -0.00000000000E+00 -0.00000000000E+00 -0.71444986523E+02  0.71444986523E+02  0.00000000000E+00 0.  1.
         25    1    1    2    0    0 -0.11619816015E+02  0.25994356617E+02  0.29931501526E+02  0.13164961635E+03  0.12500000000E+03 0.  0.
         25    1    1    2    0    0  0.92790168240E+02  0.62069108577E+02  0.67726094591E+03  0.69768902702E+03  0.12500000000E+03 0.  0.
         25    1    1    2    0    0 -0.81170352224E+02 -0.88063465195E+02  0.71198450304E+03  0.73272828016E+03  0.12500000000E+03 0.  0.
</event>
<event>
 5    0  0.5670250E-005  0.3557106E+03  0.7546771E-02  0.1060295E+00
         21   -1    0    0  502  501  0.00000000000E+00  0.00000000000E+00  0.52546812651E+03  0.52546812651E+03  0.00000000000E+00 0.  1.
         21   -1    0    0  501  502 -0.00000000000E+00 -0.00000000000E+00 -0.24079483894E+03  0.24079483894E+03  0.00000000000E+00 0.  1.
         25    1    1    2    0    0 -0.26495562018E+02 -0.62321495165E+02 -0.36481674587E+02  0.14677157813E+03  0.12500000000E+03 0.  0.
         25    1    1    2    0    0 -0.21105073456E+03  0.86743819449E+02  0.16112311124E+03  0.30602705721E+03  0.12500000000E+03 0.  0.
         25    1    1    2    0    0  0.23754629658E+03 -0.24422324284E+02  0.16003185091E+03  0.31346433011E+03  0.12500000000E+03 0.  0.
</event>
<event>
 5    0  0.5670250E-005  0.3958062E+03  0.7546771E-02  0.1045242E+00
         21   -1    0    0  502  501  0.00000000000E+00  0.00000000000E+00  0.32289289521E+03  0.32289289521E+03  0.00000000000E+00 0.  1.
         21   -1    0    0  501  502 -0.00000000000E+00 -0.00000000000E+00 -0.48518414743E+03  0.48518414743E+03  0.00000000000E+00 0.  1.
         25    1    1    2    0    0 -0.17036467368E+03  0.18866989111E+03  0.38817295010E+01  0.28330287268E+03  0.12500000000E+03 0.  0.
         25    1    1    2    0    0  0.25369648995E+03 -0.19293628497E+03 -0.14943693426E+03  0.37355416795E+03  0.12500000000E+03 0.  0.
         25    1    1    2    0    0 -0.83331816275E+02  0.42663938632E+01 -0.16736047460E+02  0.15122000200E+03  0.12500000000E+03 0.  0.
</event>
<event>
 5    0  0.5670250E-005  0.3248079E+03  0.7546771E-02  0.1073458E+00
         21   -1    0    0  502  501  0.00000000000E+00  0.00000000000E+00  0.45380144420E+03  0.45380144420E+03  0.00000000000E+00 0.  1.
         21   -1    0    0  501  502 -0.00000000000E+00 -0.00000000000E+00 -0.23248086468E+03  0.23248086468E+03  0.00000000000E+00 0.  1.
         25    1    1    2    0    0 -0.22233725555E+03 -0.22615693459E+02  0.43943130433E+02  0.25981016822E+03  0.12500000000E+03 0.  0.
         25    1    1    2    0    0  0.10732090526E+03  0.10867213264E+03  0.93761607113E+02  0.21850319926E+03  0.12500000000E+03 0.  0.
         25    1    1    2    0    0  0.11501635029E+03 -0.86056439179E+02  0.83615841969E+02  0.20796894140E+03  0.12500000000E+03 0.  0.
</event>
<event>
 5    0  0.5670250E-005  0.2633022E+03  0.7546771E-02  0.1105175E+00
         21   -1    0    0  502  501  0.00000000000E+00  0.00000000000E+00  0.23598287867E+03  0.23598287867E+03  0.00000000000E+00 0. -1.
         21   -1    0    0  501  502 -0.00000000000E+00 -0.00000000000E+00 -0.29378412598E+03  0.29378412598E+03  0.00000000000E+00 0. -1.
         25    1    1    2    0    0  0.51587069662E+02  0.76922289615E+02 -0.94723768853E+02  0.18214240797E+03  0.12500000000E+03 0.  0.
         25    1    1    2    0    0  0.30173513224E+02 -0.28504689348E+02  0.11263739982E+03  0.17330649743E+03  0.12500000000E+03 0.  0.
         25    1    1    2    0    0 -0.81760582886E+02 -0.48417600267E+02 -0.75714878279E+02  0.17431809924E+03  0.12500000000E+03 0.  0.
</event>
<event>
 5    0  0.6512979E-005  0.3306014E+03  0.7546771E-02  0.1070871E+00
         21   -1    0    0  502  501  0.00000000000E+00  0.00000000000E+00  0.52247991586E+03  0.52247991586E+03  0.00000000000E+00 0. -1.
         21   -1    0    0  501  502 -0.00000000000E+00 -0.00000000000E+00 -0.20918943833E+03  0.20918943833E+03  0.00000000000E+00 0. -1.
         25    1    1    2    0    0  0.13029615191E+03  0.20634907004E+03  0.61558216855E+02  0.28101857585E+03  0.12500000000E+03 0.  0.
         25    1    1    2    0    0 -0.21204633859E+02 -0.15364321260E+03  0.14601571515E+03  0.24698474112E+03  0.12500000000E+03 0.  0.
         25    1    1    2    0    0 -0.10909151805E+03 -0.52705857436E+02  0.10571654552E+03  0.20366603722E+03  0.12500000000E+03 0.  0.
</event>
<event>
 5    0  0.5670250E-005  0.3097855E+03  0.7546771E-02  0.1080449E+00
         21   -1    0    0  502  501  0.00000000000E+00  0.00000000000E+00  0.97112167267E+02  0.97112167267E+02  0.00000000000E+00 0.  1.
         21   -1    0    0  501  502 -0.00000000000E+00 -0.00000000000E+00 -0.98820837900E+03  0.98820837900E+03  0.00000000000E+00 0.  1.
         25    1    1    2    0    0  0.26704278017E+02  0.67041202538E+02 -0.34787742664E+03  0.37663157763E+03  0.12500000000E+03 0.  0.
         25    1    1    2    0    0 -0.10470319499E+03 -0.35562747011E+02 -0.53205068920E+03  0.55761133767E+03  0.12500000000E+03 0.  0.
         25    1    1    2    0    0  0.77998916972E+02 -0.31478455527E+02 -0.11168095883E+02  0.15107763096E+03  0.12500000000E+03 0.  0.
</event>
<event>
 5    0  0.5670250E-005  0.2469638E+03  0.7546771E-02  0.1115239E+00
         21   -1    0    0  502  501  0.00000000000E+00  0.00000000000E+00  0.24627041559E+03  0.24627041559E+03  0.00000000000E+00 0. -1.
         21   -1    0    0  501  502 -0.00000000000E+00 -0.00000000000E+00 -0.24765916464E+03  0.24765916464E+03  0.00000000000E+00 0. -1.
         25    1    1    2    0    0 -0.11578450406E+03 -0.44686275780E+02  0.96037410959E+01  0.17640903171E+03  0.12500000000E+03 0.  0.
         25    1    1    2    0    0  0.73622371711E+02  0.38429592671E+02  0.66773420086E+02  0.16425826262E+03  0.12500000000E+03 0.  0.
         25    1    1    2    0    0  0.42162132353E+02  0.62566831087E+01 -0.77765910232E+02  0.15326228591E+03  0.12500000000E+03 0.  0.
</event>
<event>
 5    0  0.5670250E-005  0.3078148E+03  0.7546771E-02  0.1081398E+00
         21   -1    0    0  502  501  0.00000000000E+00  0.00000000000E+00  0.27751287418E+03  0.27751287418E+03  0.00000000000E+00 0. -1.
         21   -1    0    0  501  502 -0.00000000000E+00 -0.00000000000E+00 -0.34142539541E+03  0.34142539541E+03  0.00000000000E+00 0. -1.
         25    1    1    2    0    0  0.13172553334E+02 -0.54077720597E+02  0.18641444133E+02  0.13809568953E+03  0.12500000000E+03 0.  0.
         25    1    1    2    0    0 -0.17634492885E+03  0.39636064688E+02 -0.14764593259E+03  0.26475058634E+03  0.12500000000E+03 0.  0.
         25    1    1    2    0    0  0.16317237552E+03  0.14441655909E+02  0.65091967222E+02  0.21609199373E+03  0.12500000000E+03 0.  0.
</event>
<event>
 5    0  0.5670250E-005  0.3000488E+03  0.7546771E-02  0.1085216E+00
         21   -1    0    0  502  501  0.00000000000E+00  0.00000000000E+00  0.15904113737E+03  0.15904113737E+03  0.00000000000E+00 0.  1.
         21   -1    0    0  501  502 -0.00000000000E+00 -0.00000000000E+00 -0.56607527150E+03  0.56607527150E+03  0.00000000000E+00 0.  1.
         25    1    1    2    0    0 -0.12922295266E+03 -0.79647608817E+02 -0.34761633853E+03  0.39938005946E+03  0.12500000000E+03 0.  0.
         25    1    1    2    0    0  0.31483973972E+02  0.47868249755E+02 -0.85357346422E+02  0.16184401917E+03  0.12500000000E+03 0.  0.
         25    1    1    2    0    0  0.97738978685E+02  0.31779359062E+02  0.25939550820E+02  0.16389233025E+03  0.12500000000E+03 0.  0.
</event>
<event>
 5    0  0.5670250E-005  0.3131367E+03  0.7546771E-02  0.1078852E+00
         21   -1    0    0  502  501  0.00000000000E+00  0.00000000000E+00  0.79199864296E+03  0.79199864296E+03  0.00000000000E+00 0.  1.
         21   -1    0    0  501  502 -0.00000000000E+00 -0.00000000000E+00 -0.12380653091E+03  0.12380653091E+03  0.00000000000E+00 0.  1.
         25    1    1    2    0    0 -0.20789496376E+02  0.11944989544E+03  0.24807741303E+01  0.17415979708E+03  0.12500000000E+03 0.  0.
         25    1    1    2    0    0 -0.74013216785E+02 -0.74893843280E+02  0.31539391764E+03  0.35522579763E+03  0.12500000000E+03 0.  0.
         25    1    1    2    0    0  0.94802713161E+02 -0.44556052158E+02  0.35031742028E+03  0.38641957916E+03  0.12500000000E+03 0.  0.
</event>
<event>
 5    0  0.5670250E-005  0.4048509E+03  0.7546771E-02  0.1042113E+00
         21   -1    0    0  502  501  0.00000000000E+00  0.00000000000E+00  0.16896661150E+03  0.16896661150E+03  0.00000000000E+00 0.  1.
         21   -1    0    0  501  502 -0.00000000000E+00 -0.00000000000E+00 -0.97003942742E+03  0.97003942742E+03  0.00000000000E+00 0.  1.
         25    1    1    2    0    0 -0.77440553952E+02 -0.22306696698E+03 -0.12418613854E+03  0.29462367209E+03  0.12500000000E+03 0.  0.
         25    1    1    2    0    0 -0.96866322661E+01  0.12907966769E+03 -0.42060043620E+02  0.18479566749E+03  0.12500000000E+03 0.  0.
         25    1    1    2    0    0  0.87127186218E+02  0.93987299287E+02 -0.63482663375E+03  0.65958669933E+03  0.12500000000E+03 0.  0.
</event>
<event>
 5    0  0.5670250E-005  0.2767751E+03  0.7546771E-02  0.1097463E+00
         21   -1    0    0  502  501  0.00000000000E+00  0.00000000000E+00  0.74301143889E+02  0.74301143889E+02  0.00000000000E+00 0.  1.
         21   -1    0    0  501  502 -0.00000000000E+00 -0.00000000000E+00 -0.10309997481E+04  0.10309997481E+04  0.00000000000E+00 0.  1.
         25    1    1    2    0    0  0.33036824634E+02  0.12926135794E+03 -0.38739695318E+03  0.42837055194E+03  0.12500000000E+03 0.  0.
         25    1    1    2    0    0  0.16620328432E+02 -0.69841336678E+02 -0.48813273748E+03  0.50897211813E+03  0.12500000000E+03 0.  0.
         25    1    1    2    0    0 -0.49657153067E+02 -0.59420021261E+02 -0.81168913506E+02  0.16795822188E+03  0.12500000000E+03 0.  0.
</event>
<event>
 5    0  0.5670250E-005  0.3530553E+03  0.7546771E-02  0.1061368E+00
         21   -1    0    0  502  501  0.00000000000E+00  0.00000000000E+00  0.43679575477E+03  0.43679575477E+03  0.00000000000E+00 0. -1.
         21   -1    0    0  501  502 -0.00000000000E+00 -0.00000000000E+00 -0.28536924617E+03  0.28536924617E+03  0.00000000000E+00 0. -1.
         25    1    1    2    0    0  0.27430493182E+03 -0.53570922821E+01  0.52354653259E+02  0.30600311073E+03  0.12500000000E+03 0.  0.
         25    1    1    2    0    0 -0.39522800747E+02 -0.30993016337E+02  0.47179515339E+02  0.14273585922E+03  0.12500000000E+03 0.  0.
         25    1    1    2    0    0 -0.23478213107E+03  0.36350108619E+02  0.51892340007E+02  0.27342603098E+03  0.12500000000E+03 0.  0.
</event>
<event>
 5    0  0.5670250E-005  0.4297103E+03  0.7546771E-02  0.1033952E+00
         21   -1    0    0  502  501  0.00000000000E+00  0.00000000000E+00  0.10659840293E+04  0.10659840293E+04  0.00000000000E+00 0.  1.
         21   -1    0    0  501  502 -0.00000000000E+00 -0.00000000000E+00 -0.17322112572E+03  0.17322112572E+03  0.00000000000E+00 0.  1.
         25    1    1    2    0    0 -0.11594602418E+03  0.46602945531E+02  0.30931349437E+03  0.35625153032E+03  0.12500000000E+03 0.  0.
         25    1    1    2    0    0 -0.11805092831E+03  0.69163070028E+02  0.56307389508E+03  0.59278728331E+03  0.12500000000E+03 0.  0.
         25    1    1    2    0    0  0.23399695249E+03 -0.11576601556E+03  0.20375514172E+02  0.29016634145E+03  0.12500000000E+03 0.  0.
</event>
<event>
 5    0  0.5933196E-005  0.3377794E+03  0.7546771E-02  0.1067746E+00
         21   -1    0    0  502  501  0.00000000000E+00  0.00000000000E+00  0.46693413664E+03  0.46693413664E+03  0.00000000000E+00 0.  1.
         21   -1    0    0  501  502 -0.00000000000E+00 -0.00000000000E+00 -0.24434907154E+03  0.24434907154E+03  0.00000000000E+00 0.  1.
         25    1    1    2    0    0  0.12672756534E+03 -0.45956100614E+02 -0.44834985619E+02  0.18922741592E+03  0.12500000000E+03 0.  0.
         25    1    1    2    0    0  0.78306347600E+01  0.16524679773E+03  0.21116619711E+03  0.29594591702E+03  0.12500000000E+03 0.  0.
         25    1    1    2    0    0 -0.13455820010E+03 -0.11929069711E+03  0.56253853621E+02  0.22610987524E+03  0.12500000000E+03 0.  0.
</event>
<event>
 5    0  0.5670250E-005  0.2677083E+03  0.7546771E-02  0.1102598E+00
         21   -1    0    0  502  501  0.00000000000E+00  0.00000000000E+00  0.51236380995E+02  0.51236380995E+02  0.00000000000E+00 0.  1.
         21   -1    0    0  501  502 -0.00000000000E+00 -0.00000000000E+00 -0.13987664521E+04  0.13987664521E+04  0.00000000000E+00 0.  1.
         25    1    1    2    0    0 -0.10208776713E+03  0.22740295493E+02 -0.49644646409E+03  0.52251614802E+03  0.12500000000E+03 0.  0.
         25    1    1    2    0    0  0.17077560289E+03  0.32315964787E+01 -0.38460935543E+03  0.43900353761E+03  0.12500000000E+03 0.  0.
         25    1    1    2    0    0 -0.68687835759E+02 -0.25971891971E+02 -0.46647425156E+03  0.48848314743E+03  0.12500000000E+03 0.  0.
</event>
<event>
 5    0  0.5670250E-005  0.4820381E+03  0.7546771E-02  0.1018577E+00
         21   -1    0    0  502  501  0.00000000000E+00  0.00000000000E+00  0.22555817856E+03  0.22555817856E+03  0.00000000000E+00 0.  1.
         21   -1    0    0  501  502 -0.00000000000E+00 -0.00000000000E+00 -0.10301586662E+04  0.10301586662E+04  0.00000000000E+00 0.  1.
         25    1    1    2    0    0 -0.29424268755E+03 -0.14907225247E+03 -0.54871461289E+03  0.65231435829E+03  0.12500000000E+03 0.  0.
         25    1    1    2    0    0  0.54194362762E+01  0.10713515580E+03 -0.23265087272E+03  0.28505918767E+03  0.12500000000E+03 0.  0.
         25    1    1    2    0    0  0.28882325128E+03  0.41937096665E+02 -0.23235002007E+02  0.31834329877E+03  0.12500000000E+03 0.  0.
</event>
<event>
 5    0  0.5670250E-005  0.3363763E+03  0.7546771E-02  0.1068350E+00
         21   -1    0    0  502  501  0.00000000000E+00  0.00000000000E+00  0.21819630022E+03  0.21819630022E+03  0.00000000000E+00 0.  1.
         21   -1    0    0  501  502 -0.00000000000E+00 -0.00000000000E+00 -0.51856536138E+03  0.51856536138E+03  0.00000000000E+00 0.  1.
         25    1    1    2    0    0 -0.21125467062E+03 -0.54350179727E+02 -0.22652443956E+03  0.33840921916E+03  0.12500000000E+03 0.  0.
         25    1    1    2    0    0  0.15791460496E+03 -0.45474563201E+02 -0.97039782217E+02  0.22813740967E+03  0.12500000000E+03 0.  0.
         25    1    1    2    0    0  0.53340065656E+02  0.99824742928E+02  0.23195160612E+02  0.17021503277E+03  0.12500000000E+03 0.  0.
</event>
<event>
 5    0  0.5670250E-005  0.3095158E+03  0.7546771E-02  0.1080578E+00
         21   -1    0    0  502  501  0.00000000000E+00  0.00000000000E+00  0.15670052473E+03  0.15670052473E+03  0.00000000000E+00 0.  1.
         21   -1    0    0  501  502 -0.00000000000E+00 -0.00000000000E+00 -0.61135760461E+03  0.61135760461E+03  0.00000000000E+00 0.  1.
         25    1    1    2    0    0 -0.73713916070E+02 -0.19692648973E+03 -0.72790601292E+02  0.25522001375E+03  0.12500000000E+03 0.  0.
         25    1    1    2    0    0  0.30804279361E+01  0.11052154136E+03 -0.13590878898E+03  0.21522244089E+03  0.12500000000E+03 0.  0.
         25    1    1    2    0    0  0.70633488134E+02  0.86404948370E+02 -0.24595768961E+03  0.29761567470E+03  0.12500000000E+03 0.  0.
</event>
<event>
 5    0  0.5670250E-005  0.3348620E+03  0.7546771E-02  0.1069006E+00
         21   -1    0    0  502  501  0.00000000000E+00  0.00000000000E+00  0.43528809075E+03  0.43528809075E+03  0.00000000000E+00 0. -1.
         21   -1    0    0  501  502 -0.00000000000E+00 -0.00000000000E+00 -0.25760538200E+03  0.25760538200E+03  0.00000000000E+00 0. -1.
         25    1    1    2    0    0 -0.12400301170E+03  0.15610962581E+03  0.83009919504E+02  0.24952476614E+03  0.12500000000E+03 0.  0.
         25    1    1    2    0    0  0.81580186528E+02 -0.44779528789E+02 -0.98427387286E+02  0.18431897244E+03  0.12500000000E+03 0.  0.
         25    1    1    2    0    0  0.42422825172E+02 -0.11133009702E+03  0.19310017653E+03  0.25904973418E+03  0.12500000000E+03 0.  0.
</event>
<event>
 5    0  0.5670250E-005  0.2798424E+03  0.7546771E-02  0.1095775E+00
         21   -1    0    0  502  501  0.00000000000E+00  0.00000000000E+00  0.25795889966E+03  0.25795889966E+03  0.00000000000E+00 0. -1.
         21   -1    0    0  501  502 -0.00000000000E+00 -0.00000000000E+00 -0.30358229167E+03  0.30358229167E+03  0.00000000000E+00 0. -1.
         25    1    1    2    0    0 -0.15734280587E+02  0.30782470658E+02 -0.72908205769E+02  0.14878082724E+03  0.12500000000E+03 0.  0.
         25    1    1    2    0    0  0.59197501045E+02  0.49356651541E+02 -0.12708430056E+03  0.19420567095E+03  0.12500000000E+03 0.  0.
         25    1    1    2    0    0 -0.43463220458E+02 -0.80139122200E+02  0.15436911432E+03  0.21855469314E+03  0.12500000000E+03 0.  0.
</event>
<event>
 5    0  0.5670250E-005  0.3930676E+03  0.7546771E-02  0.1046207E+00
         21   -1    0    0  502  501  0.00000000000E+00  0.00000000000E+00  0.13967804559E+03  0.13967804559E+03  0.00000000000E+00 0. -1.
         21   -1    0    0  501  502 -0.00000000000E+00 -0.00000000000E+00 -0.11061304699E+04  0.11061304699E+04  0.00000000000E+00 0. -1.
         25    1    1    2    0    0 -0.12270791949E+03  0.73477902267E+02 -0.45033374176E+03  0.48875527066E+03  0.12500000000E+03 0.  0.
         25    1    1    2    0    0 -0.16955114130E+03 -0.79189195317E+02 -0.14199802032E+03  0.26609576462E+03  0.12500000000E+03 0.  0.
         25    1    1    2    0    0  0.29225906079E+03  0.57112930502E+01 -0.37412066227E+03  0.49095748025E+03  0.12500000000E+03 0.  0.
</event>
<event>
 5    0  0.5670250E-005  0.3176675E+03  0.7546771E-02  0.1076728E+00
         21   -1    0    0  502  501  0.00000000000E+00  0.00000000000E+00  0.26535367245E+03  0.26535367245E+03  0.00000000000E+00 0.  1.
         21   -1    0    0  501  502 -0.00000000000E+00 -0.00000000000E+00 -0.38029487953E+03  0.38029487953E+03  0.00000000000E+00 0.  1.
         25    1    1    2    0    0 -0.99328663683E+02 -0.81538880715E+02 -0.87725558613E+01  0.17949019537E+03  0.12500000000E+03 0.  0.
         25    1    1    2    0    0  0.10084223941E+03 -0.51376557414E+02  0.95829161895E+02  0.19395086020E+03  0.12500000000E+03 0.  0.
         25    1    1    2    0    0 -0.15135757307E+01  0.13291543813E+03 -0.20199781312E+03  0.27220749642E+03  0.12500000000E+03 0.  0.
</event>
<event>
 5    0  0.5670250E-005  0.2456447E+03  0.7546771E-02  0.1116089E+00
         21   -1    0    0  502  501  0.00000000000E+00  0.00000000000E+00  0.33075323470E+03  0.33075323470E+03  0.00000000000E+00 0.  1.
         21   -1    0    0  501  502 -0.00000000000E+00 -0.00000000000E+00 -0.18243609625E+03  0.18243609625E+03  0.00000000000E+00 0.  1.
         25    1    1    2    0    0  0.19933211835E+02  0.11914563938E+03  0.55695843164E+02  0.18253778585E+03  0.12500000000E+03 0.  0.
         25    1    1    2    0    0  0.28638636137E+02  0.13184689191E+02  0.33623371768E+02  0.13322739447E+03  0.12500000000E+03 0.  0.
         25    1    1    2    0    0 -0.48571847972E+02 -0.13233032857E+03  0.58997923516E+02  0.19742415063E+03  0.12500000000E+03 0.  0.
</event>
<event>
 5    0  0.5670250E-005  0.2946468E+03  0.7546771E-02  0.1087948E+00
         21   -1    0    0  502  501  0.00000000000E+00  0.00000000000E+00  0.34965025647E+02  0.34965025647E+02  0.00000000000E+00 0.  1.
         21   -1    0    0  501  502 -0.00000000000E+00 -0.00000000000E+00 -0.24829585915E+04  0.24829585915E+04  0.00000000000E+00 0.  1.
         25    1    1    2    0    0 -0.13018456036E+03 -0.33308171246E+02 -0.52315054693E+03  0.55440864783E+03  0.12500000000E+03 0.  0.
         25    1    1    2    0    0 -0.15849803745E+02  0.83035215919E+02 -0.12781560529E+04  0.12870330062E+04  0.12500000000E+03 0.  0.
         25    1    1    2    0    0  0.14603436410E+03 -0.49727044674E+02 -0.64668696600E+03  0.67648196315E+03  0.12500000000E+03 0.  0.
</event>
<event>
 5    0  0.5670250E-005  0.4025941E+03  0.7546771E-02  0.1042885E+00
         21   -1    0    0  502  501  0.00000000000E+00  0.00000000000E+00  0.17287131471E+03  0.17287131471E+03  0.00000000000E+00 0.  1.
         21   -1    0    0  501  502 -0.00000000000E+00 -0.00000000000E+00 -0.93758777990E+03  0.93758777990E+03  0.00000000000E+00 0.  1.
         25    1    1    2    0    0  0.97610743494E+02 -0.10637244640E+03 -0.16529282322E+03  0.25256617352E+03  0.12500000000E+03 0.  0.
         25    1    1    2    0    0  0.18512631951E+03 -0.87207190195E+02 -0.31203630443E+03  0.39353335751E+03  0.12500000000E+03 0.  0.
         25    1    1    2    0    0 -0.28273706300E+03  0.19357963659E+03 -0.28738733754E+03  0.46435956357E+03  0.12500000000E+03 0.  0.
</event>
<event>
 5    0  0.5670250E-005  0.3431036E+03  0.7546771E-02  0.1065482E+00
         21   -1    0    0  502  501  0.00000000000E+00  0.00000000000E+00  0.11208003434E+04  0.11208003434E+04  0.00000000000E+00 0. -1.
         21   -1    0    0  501  502 -0.00000000000E+00 -0.00000000000E+00 -0.10503217022E+03  0.10503217022E+03  0.00000000000E+00 0. -1.
         25    1    1    2    0    0 -0.90927263212E+02 -0.39845043009E+02  0.29200208226E+03  0.33278463110E+03  0.12500000000E+03 0.  0.
         25    1    1    2    0    0  0.78627619924E+02  0.17675166518E+03  0.65603648019E+03  0.69529297214E+03  0.12500000000E+03 0.  0.
         25    1    1    2    0    0  0.12299643288E+02 -0.13690662218E+03  0.67729610740E+02  0.19775491041E+03  0.12500000000E+03 0.  0.
</event>
<event>
 5    0  0.5965608E-005  0.4196942E+03  0.7546771E-02  0.1037166E+00
         21   -1    0    0  502  501  0.00000000000E+00  0.00000000000E+00  0.52360927075E+03  0.52360927075E+03  0.00000000000E+00 0.  1.
         21   -1    0    0  501  502 -0.00000000000E+00 -0.00000000000E+00 -0.33640207389E+03  0.33640207389E+03  0.00000000000E+00 0.  1.
         25    1    1    2    0    0 -0.24062081452E+03  0.93115988060E+02  0.86185664649E+02  0.29936922421E+03  0.12500000000E+03 0.  0.
         25    1    1    2    0    0  0.77580186781E+02 -0.17714700700E+03  0.21153703453E+03  0.31268620764E+03  0.12500000000E+03 0.  0.
         25    1    1    2    0    0  0.16304062774E+03  0.84031018938E+02 -0.11051550232E+03  0.24795591279E+03  0.12500000000E+03 0.  0.
</event>
<event>
 5    0  0.5670250E-005  0.2468311E+03  0.7546771E-02  0.1115324E+00
         21   -1    0    0  502  501  0.00000000000E+00  0.00000000000E+00  0.25292671194E+03  0.25292671194E+03  0.00000000000E+00 0. -1.
         21   -1    0    0  501  502 -0.00000000000E+00 -0.00000000000E+00 -0.24088239577E+03  0.24088239577E+03  0.00000000000E+00 0. -1.
         25    1    1    2    0    0  0.35107654772E+02 -0.10271886851E+02 -0.28481998072E+02  0.13332022839E+03  0.12500000000E+03 0.  0.
         25    1    1    2    0    0  0.48147037419E+02  0.47163046744E+02  0.12062276478E+03  0.18632590151E+03  0.12500000000E+03 0.  0.
         25    1    1    2    0    0 -0.83254692190E+02 -0.36891159893E+02 -0.80096450547E+02  0.17416297781E+03  0.12500000000E+03 0.  0.
</event>
<event>
 5    0  0.5670250E-005  0.2661219E+03  0.7546771E-02  0.1103520E+00
         21   -1    0    0  502  501  0.00000000000E+00  0.00000000000E+00  0.58011514190E+03  0.58011514190E+03  0.00000000000E+00 0.  1.
         21   -1    0    0  501  502 -0.00000000000E+00 -0.00000000000E+00 -0.12208071141E+03  0.12208071141E+03  0.00000000000E+00 0.  1.
         25    1    1    2    0    0 -0.90789785491E+01 -0.43866448699E+02  0.70514069179E+02  0.15034602464E+03  0.12500000000E+03 0.  0.
         25    1    1    2    0    0  0.84299450987E+02  0.14676273112E+03  0.17035334881E+03  0.27072303215E+03  0.12500000000E+03 0.  0.
         25    1    1    2    0    0 -0.75220472438E+02 -0.10289628242E+03  0.21716701249E+03  0.28112679652E+03  0.12500000000E+03 0.  0.
</event>
<event>
 5    0  0.5670250E-005  0.2591230E+03  0.7546771E-02  0.1107671E+00
         21   -1    0    0  502  501  0.00000000000E+00  0.00000000000E+00  0.22733641078E+03  0.22733641078E+03  0.00000000000E+00 0.  1.
         21   -1    0    0  501  502 -0.00000000000E+00 -0.00000000000E+00 -0.29535394143E+03  0.29535394143E+03  0.00000000000E+00 0.  1.
         25    1    1    2    0    0 -0.46690128744E+02  0.11437553612E+03  0.43502393498E+02  0.18105024061E+03  0.12500000000E+03 0.  0.
         25    1    1    2    0    0  0.45422585952E+02 -0.58195977002E+02 -0.13997953102E+03  0.20166618992E+03  0.12500000000E+03 0.  0.
         25    1    1    2    0    0  0.12675427920E+01 -0.56179559116E+02  0.28459606876E+02  0.13997392168E+03  0.12500000000E+03 0.  0.
</event>
<event>
 5    0  0.5670250E-005  0.3803987E+03  0.7546771E-02  0.1050787E+00
         21   -1    0    0  502  501  0.00000000000E+00  0.00000000000E+00  0.87134602606E+02  0.87134602606E+02  0.00000000000E+00 0.  1.
         21   -1    0    0  501  502 -0.00000000000E+00 -0.00000000000E+00 -0.16606852814E+04  0.16606852814E+04  0.00000000000E+00 0.  1.
         25    1    1    2    0    0 -0.34244612306E+02 -0.28953531523E+03 -0.45510944383E+03  0.55475489912E+03  0.12500000000E+03 0.  0.
         25    1    1    2    0    0  0.54820743307E+02  0.24485371733E+03 -0.72391317934E+03  0.77629501351E+03  0.12500000000E+03 0.  0.
         25    1    1    2    0    0 -0.20576131002E+02  0.44681597902E+02 -0.39452805561E+03  0.41676997135E+03  0.12500000000E+03 0.  0.
</event>
<event>
 5    0  0.5670250E-005  0.3644662E+03  0.7546771E-02  0.1056829E+00
         21   -1    0    0  502  501  0.00000000000E+00  0.00000000000E+00  0.13975109888E+03  0.13975109888E+03  0.00000000000E+00 0.  1.
         21   -1    0    0  501  502 -0.00000000000E+00 -0.00000000000E+00 -0.95051592036E+03  0.95051592036E+03  0.00000000000E+00 0.  1.
         25    1    1    2    0    0 -0.45951390338E+01  0.11522388797E+03 -0.50949807128E+03  0.53713214789E+03  0.12500000000E+03 0.  0.
         25    1    1    2    0    0  0.87932816034E+02 -0.22869158347E+03 -0.16536502008E+03  0.32094019747E+03  0.12500000000E+03 0.  0.
         25    1    1    2    0    0 -0.83337677000E+02  0.11346769550E+03 -0.13590173012E+03  0.23219467389E+03  0.12500000000E+03 0.  0.
</event>
<event>
 5    0  0.5670250E-005  0.2730527E+03  0.7546771E-02  0.1099545E+00
         21   -1    0    0  502  501  0.00000000000E+00  0.00000000000E+00  0.80682743484E+02  0.80682743484E+02  0.00000000000E+00 0.  1.
         21   -1    0    0  501  502 -0.00000000000E+00 -0.00000000000E+00 -0.92408600983E+03  0.92408600983E+03  0.00000000000E+00 0.  1.
         25    1    1    2    0    0  0.34211776453E+02 -0.80933808384E+01 -0.42943687619E+02  0.13676662154E+03  0.12500000000E+03 0.  0.
         25    1    1    2    0    0 -0.11959091899E+03  0.38231815720E+02 -0.49522790446E+03  0.52596514808E+03  0.12500000000E+03 0.  0.
         25    1    1    2    0    0  0.85379142538E+02 -0.30138434881E+02 -0.30523167426E+03  0.34203698369E+03  0.12500000000E+03 0.  0.
</event>
<event>
 5    0  0.6431197E-005  0.3752810E+03  0.7546771E-02  0.1052692E+00
         21   -1    0    0  502  501  0.00000000000E+00  0.00000000000E+00  0.24233857072E+03  0.24233857072E+03  0.00000000000E+00 0. -1.
         21   -1    0    0  501  502 -0.00000000000E+00 -0.00000000000E+00 -0.58115328350E+03  0.58115328350E+03  0.00000000000E+00 0. -1.
         25    1    1    2    0    0  0.18578180465E+03 -0.10562266951E+03 -0.96441506231E+02  0.26570094350E+03  0.12500000000E+03 0.  0.
         25    1    1    2    0    0 -0.13169947398E+03  0.19432149203E+03  0.15799224391E-01  0.26595224000E+03  0.12500000000E+03 0.  0.
         25    1    1    2    0    0 -0.54082330669E+02 -0.88698822517E+02 -0.24238900577E+03  0.29183867071E+03  0.12500000000E+03 0.  0.
</event>
<event>
 5    0  0.5670250E-005  0.3235870E+03  0.7546771E-02  0.1074010E+00
         21   -1    0    0  502  501  0.00000000000E+00  0.00000000000E+00  0.87114869337E+02  0.87114869337E+02  0.00000000000E+00 0. -1.
         21   -1    0    0  501  502 -0.00000000000E+00 -0.00000000000E+00 -0.12019596490E+04  0.12019596490E+04  0.00000000000E+00 0. -1.
         25    1    1    2    0    0  0.94835450352E+02  0.16946339516E+02 -0.42766526514E+03  0.45585471378E+03  0.12500000000E+03 0.  0.
         25    1    1    2    0    0 -0.13041094547E+01  0.17772009055E+03 -0.26366407353E+03  0.34165754047E+03  0.12500000000E+03 0.  0.
         25    1    1    2    0    0 -0.93531340897E+02 -0.19466643006E+03 -0.42351544100E+03  0.49156226410E+03  0.12500000000E+03 0.  0.
</event>
<event>
 5    0  0.5670250E-005  0.2129018E+03  0.7546771E-02  0.1139288E+00
         21   -1    0    0  502  501  0.00000000000E+00  0.00000000000E+00  0.19724979782E+03  0.19724979782E+03  0.00000000000E+00 0. -1.
         21   -1    0    0  501  502 -0.00000000000E+00 -0.00000000000E+00 -0.22979575409E+03  0.22979575409E+03  0.00000000000E+00 0. -1.
         25    1    1    2    0    0 -0.29760757101E+02  0.33536400278E+02 -0.72908968174E+00  0.13280031769E+03  0.12500000000E+03 0.  0.
         25    1    1    2    0    0  0.55812566406E+02 -0.10431147375E+02 -0.76305100482E+02  0.15707106597E+03  0.12500000000E+03 0.  0.
         25    1    1    2    0    0 -0.26051809305E+02 -0.23105252903E+02  0.44488233894E+02  0.13717416825E+03  0.12500000000E+03 0.  0.
</event>
<event>
 5    0  0.5670250E-005  0.5009945E+03  0.7546771E-02  0.1013520E+00
         21   -1    0    0  502  501  0.00000000000E+00  0.00000000000E+00  0.96548886117E+03  0.96548886117E+03  0.00000000000E+00 0. -1.
         21   -1    0    0  501  502 -0.00000000000E+00 -0.00000000000E+00 -0.25996720700E+03  0.25996720700E+03  0.00000000000E+00 0. -1.
         25    1    1    2    0    0  0.10783002547E+03 -0.27986684823E+02  0.10259267612E+03  0.19636910682E+03  0.12500000000E+03 0.  0.
         25    1    1    2    0    0  0.20314581516E+03 -0.25820249203E+03  0.43063387170E+03  0.55588423306E+03  0.12500000000E+03 0.  0.
         25    1    1    2    0    0 -0.31097584063E+03  0.28618917685E+03  0.17229510635E+03  0.47320272830E+03  0.12500000000E+03 0.  0.
</event>
<event>
 5    0  0.5670250E-005  0.2137886E+03  0.7546771E-02  0.1138600E+00
         21   -1    0    0  502  501  0.00000000000E+00  0.00000000000E+00  0.35635470828E+03  0.35635470828E+03  0.00000000000E+00 0.  1.
         21   -1    0    0  501  502 -0.00000000000E+00 -0.00000000000E+00 -0.12825857761E+03  0.12825857761E+03  0.00000000000E+00 0.  1.
         25    1    1    2    0    0  0.16220941244E+02 -0.76327978540E+01  0.13261944006E+03  0.18312371343E+03  0.12500000000E+03 0.  0.
         25    1    1    2    0    0 -0.14796262925E+02  0.71656636061E+02  0.58879198305E+02  0.15635012914E+03  0.12500000000E+03 0.  0.
         25    1    1    2    0    0 -0.14246783186E+01 -0.64023838207E+02  0.36597492311E+02  0.14513944333E+03  0.12500000000E+03 0.  0.
</event>
<event>
 5    0  0.5670250E-005  0.2691169E+03  0.7546771E-02  0.1101786E+00
         21   -1    0    0  502  501  0.00000000000E+00  0.00000000000E+00  0.47832170387E+02  0.47832170387E+02  0.00000000000E+00 0. -1.
         21   -1    0    0  501  502 -0.00000000000E+00 -0.00000000000E+00 -0.15141252477E+04  0.15141252477E+04  0.00000000000E+00 0. -1.
         25    1    1    2    0    0  0.45744757936E+02  0.22058761712E+02 -0.67242162117E+03  0.68582432769E+03  0.12500000000E+03 0.  0.
         25    1    1    2    0    0  0.88632948373E+02 -0.49933028834E+02 -0.52667649303E+03  0.55078329242E+03  0.12500000000E+03 0.  0.
         25    1    1    2    0    0 -0.13437770631E+03  0.27874267123E+02 -0.26719496312E+03  0.32534979797E+03  0.12500000000E+03 0.  0.
</event>
<event>
 5    0  0.5670250E-005  0.2186412E+03  0.7546771E-02  0.1134900E+00
         21   -1    0    0  502  501  0.00000000000E+00  0.00000000000E+00  0.15477611803E+03  0.15477611803E+03  0.00000000000E+00 0. -1.
         21   -1    0    0  501  502 -0.00000000000E+00 -0.00000000000E+00 -0.30885873886E+03  0.30885873886E+03  0.00000000000E+00 0. -1.
         25    1    1    2    0    0 -0.17419630681E+02 -0.71799719065E+02 -0.86878617500E+02  0.16920856175E+03  0.12500000000E+03 0.  0.
         25    1    1    2    0    0 -0.20713938654E+01  0.23278023699E+02 -0.91638669509E+02  0.15674438685E+03  0.12500000000E+03 0.  0.
         25    1    1    2    0    0  0.19491024547E+02  0.48521695366E+02  0.24434666184E+02  0.13768190829E+03  0.12500000000E+03 0.  0.
</event>
<event>
 5    0  0.5670250E-005  0.3864073E+03  0.7546771E-02  0.1048591E+00
         21   -1    0    0  502  501  0.00000000000E+00  0.00000000000E+00  0.57064537565E+03  0.57064537565E+03  0.00000000000E+00 0.  1.
         21   -1    0    0  501  502 -0.00000000000E+00 -0.00000000000E+00 -0.26165216459E+03  0.26165216459E+03  0.00000000000E+00 0.  1.
         25    1    1    2    0    0 -0.15640781444E+03 -0.64564798229E+02 -0.53937092530E+02  0.21717787074E+03  0.12500000000E+03 0.  0.
         25    1    1    2    0    0 -0.90499737185E+02 -0.38887873539E+02  0.16784385815E+02  0.16002869976E+03  0.12500000000E+03 0.  0.
         25    1    1    2    0    0  0.24690755162E+03  0.10345267177E+03  0.34614591778E+03  0.45509096974E+03  0.12500000000E+03 0.  0.
</event>
<event>
 5    0  0.5670250E-005  0.2897027E+03  0.7546771E-02  0.1090504E+00
         21   -1    0    0  502  501  0.00000000000E+00  0.00000000000E+00  0.57959843235E+02  0.57959843235E+02  0.00000000000E+00 0. -1.
         21   -1    0    0  501  502 -0.00000000000E+00 -0.00000000000E+00 -0.14480309043E+04  0.14480309043E+04  0.00000000000E+00 0. -1.
         25    1    1    2    0    0  0.35105459245E+02  0.17249486995E+03 -0.43861935753E+03  0.48887504971E+03  0.12500000000E+03 0.  0.
         25    1    1    2    0    0 -0.86057183846E+02 -0.29288601958E+02 -0.31401536881E+03  0.34999187555E+03  0.12500000000E+03 0.  0.
         25    1    1    2    0    0  0.50951724601E+02 -0.14320626799E+03 -0.63743633475E+03  0.66712382231E+03  0.12500000000E+03 0.  0.
</event>
<event>
 5    0  0.5670250E-005  0.2771826E+03  0.7546771E-02  0.1097238E+00
         21   -1    0    0  502  501  0.00000000000E+00  0.00000000000E+00  0.68984345144E+03  0.68984345144E+03  0.00000000000E+00 0. -1.
         21   -1    0    0  501  502 -0.00000000000E+00 -0.00000000000E+00 -0.11137333800E+03  0.11137333800E+03  0.00000000000E+00 0. -1.
         25    1    1    2    0    0 -0.17919333039E+03 -0.12888732276E+02  0.27970370601E+03  0.35515564508E+03  0.12500000000E+03 0.  0.
         25    1    1    2    0    0  0.15525678028E+03  0.19464713465E+02  0.15028387612E+03  0.25038727267E+03  0.12500000000E+03 0.  0.
         25    1    1    2    0    0  0.23936550111E+02 -0.65759811881E+01  0.14848253131E+03  0.19567387169E+03  0.12500000000E+03 0.  0.
</event>
<event>
 5    0  0.5670250E-005  0.2548615E+03  0.7546771E-02  0.1110270E+00
         21   -1    0    0  502  501  0.00000000000E+00  0.00000000000E+00  0.11994830787E+04  0.11994830787E+04  0.00000000000E+00 0.  1.
         21   -1    0    0  501  502 -0.00000000000E+00 -0.00000000000E+00 -0.54151986035E+02  0.54151986035E+02  0.00000000000E+00 0.  1.
         25    1    1    2    0    0 -0.30671687799E+02 -0.16978287169E+02  0.19442241628E+03  0.23378214350E+03  0.12500000000E+03 0.  0.
         25    1    1    2    0    0  0.11694910142E+03 -0.67012780891E+02  0.36348692124E+03  0.40732732174E+03  0.12500000000E+03 0.  0.
         25    1    1    2    0    0 -0.86277413621E+02  0.83991068060E+02  0.58742175515E+03  0.61252559949E+03  0.12500000000E+03 0.  0.
</event>
<event>
 5    0  0.5670250E-005  0.3838192E+03  0.7546771E-02  0.1049531E+00
         21   -1    0    0  502  501  0.00000000000E+00  0.00000000000E+00  0.15842113135E+03  0.15842113135E+03  0.00000000000E+00 0.  1.
         21   -1    0    0  501  502 -0.00000000000E+00 -0.00000000000E+00 -0.92990886527E+03  0.92990886527E+03  0.00000000000E+00 0.  1.
         25    1    1    2    0    0  0.17843616088E+02 -0.64697464128E+02 -0.16074146567E+03  0.21439910281E+03  0.12500000000E+03 0.  0.
         25    1    1    2    0    0 -0.11162117097E+03  0.28243531133E+03 -0.20331170023E+03  0.38625074543E+03  0.12500000000E+03 0.  0.
         25    1    1    2    0    0  0.93777554885E+02 -0.21773784720E+03 -0.40743456803E+03  0.48768014838E+03  0.12500000000E+03 0.  0.
</event>
<event>
 5    0  0.5670250E-005  0.3339169E+03  0.7546771E-02  0.1069417E+00
         21   -1    0    0  502  501  0.00000000000E+00  0.00000000000E+00  0.95649565520E+02  0.95649565520E+02  0.00000000000E+00 0.  1.
         21   -1    0    0  501  502 -0.00000000000E+00 -0.00000000000E+00 -0.11657184634E+04  0.11657184634E+04  0.00000000000E+00 0.  1.
         25    1    1    2    0    0  0.67932787124E+02 -0.93198888003E+02 -0.70283291301E+02  0.18402618653E+03  0.12500000000E+03 0.  0.
         25    1    1    2    0    0 -0.62600144164E+01  0.18172021787E+03 -0.71363644130E+03  0.74696947442E+03  0.12500000000E+03 0.  0.
         25    1    1    2    0    0 -0.61672772708E+02 -0.88521329866E+02 -0.28614916531E+03  0.33037236801E+03  0.12500000000E+03 0.  0.
</event>
<event>
 5    0  0.5670250E-005  0.3558752E+03  0.7546771E-02  0.1060229E+00
         21   -1    0    0  502  501  0.00000000000E+00  0.00000000000E+00  0.48868016281E+03  0.48868016281E+03  0.00000000000E+00 0. -1.
         21   -1    0    0  501  502 -0.00000000000E+00 -0.00000000000E+00 -0.25916167513E+03  0.25916167513E+03  0.00000000000E+00 0. -1.
         25    1    1    2    0    0 -0.13855077829E+03 -0.21087513908E+03  0.80549789666E+02  0.29287866269E+03  0.12500000000E+03 0.  0.
         25    1    1    2    0    0 -0.47607297496E+02  0.38195407359E+02  0.90549568687E+02  0.16598062630E+03  0.12500000000E+03 0.  0.
         25    1    1    2    0    0  0.18615807578E+03  0.17267973172E+03  0.58419129327E+02  0.28898254895E+03  0.12500000000E+03 0.  0.
</event>
<event>
 5    0  0.6696866E-005  0.2884369E+03  0.7546771E-02  0.1091168E+00
         21   -1    0    0  502  501  0.00000000000E+00  0.00000000000E+00  0.52080566976E+03  0.52080566976E+03  0.00000000000E+00 0.  1.
         21   -1    0    0  501  502 -0.00000000000E+00 -0.00000000000E+00 -0.15974453597E+03  0.15974453597E+03  0.00000000000E+00 0.  1.
         25    1    1    2    0    0  0.23827133001E+00 -0.35667251117E+02  0.19483133255E+03  0.23421455488E+03  0.12500000000E+03 0.  0.
         25    1    1    2    0    0  0.42195400559E+02 -0.13976499217E+03  0.10198613137E+03  0.21757958511E+03  0.12500000000E+03 0.  0.
         25    1    1    2    0    0 -0.42433671889E+02  0.17543224328E+03  0.64243669874E+02  0.22875606574E+03  0.12500000000E+03 0.  0.
</event>
<event>
 5    0  0.5670250E-005  0.2656164E+03  0.7546771E-02  0.1103815E+00
         21   -1    0    0  502  501  0.00000000000E+00  0.00000000000E+00  0.12594247393E+03  0.12594247393E+03  0.00000000000E+00 0. -1.
         21   -1    0    0  501  502 -0.00000000000E+00 -0.00000000000E+00 -0.56019295419E+03  0.56019295419E+03  0.00000000000E+00 0. -1.
         25    1    1    2    0    0 -0.58188650280E+02  0.80624580207E+02 -0.29555304876E+03  0.33595066094E+03  0.12500000000E+03 0.  0.
         25    1    1    2    0    0 -0.44860337651E+02 -0.72467798186E+02 -0.28142372518E+02  0.15388640226E+03  0.12500000000E+03 0.  0.
         25    1    1    2    0    0  0.10304898793E+03 -0.81567820208E+01 -0.11055505898E+03  0.19629836492E+03  0.12500000000E+03 0.  0.
</event>
<event>
 5    0  0.6191034E-005  0.3914393E+03  0.7546771E-02  0.1046785E+00
         21   -1    0    0  502  501  0.00000000000E+00  0.00000000000E+00  0.50427431900E+03  0.50427431900E+03  0.00000000000E+00 0.  1.
         21   -1    0    0  501  502 -0.00000000000E+00 -0.00000000000E+00 -0.30385194715E+03  0.30385194715E+03  0.00000000000E+00 0.  1.
         25    1    1    2    0    0  0.20048109112E+03 -0.16362741937E+03  0.94003109869E+02  0.30237093930E+03  0.12500000000E+03 0.  0.
         25    1    1    2    0    0 -0.16474560530E+02  0.65676214618E+02  0.19993750287E+03  0.24532586771E+03  0.12500000000E+03 0.  0.
         25    1    1    2    0    0 -0.18400653059E+03  0.97951204751E+02 -0.93518240896E+02  0.26042945915E+03  0.12500000000E+03 0.  0.
</event>
<event>
 5    0  0.5670250E-005  0.2998746E+03  0.7546771E-02  0.1085303E+00
         21   -1    0    0  502  501  0.00000000000E+00  0.00000000000E+00  0.39830945164E+03  0.39830945164E+03  0.00000000000E+00 0. -1.
         21   -1    0    0  501  502 -0.00000000000E+00 -0.00000000000E+00 -0.22576603679E+03  0.22576603679E+03  0.00000000000E+00 0. -1.
         25    1    1    2    0    0 -0.78194522008E+02  0.14461969937E+03  0.12303388980E+03  0.24039879109E+03  0.12500000000E+03 0.  0.
         25    1    1    2    0    0  0.10428657756E+03  0.27615904375E+02  0.34951290032E+02  0.16877476443E+03  0.12500000000E+03 0.  0.
         25    1    1    2    0    0 -0.26092055549E+02 -0.17223560375E+03  0.14558235021E+02  0.21490193291E+03  0.12500000000E+03 0.  0.
</event>
<event>
 5    0  0.5670250E-005  0.3233673E+03  0.7546771E-02  0.1074110E+00
         21   -1    0    0  502  501  0.00000000000E+00  0.00000000000E+00  0.53613529959E+03  0.53613529959E+03  0.00000000000E+00 0. -1.
         21   -1    0    0  501  502 -0.00000000000E+00 -0.00000000000E+00 -0.19503731601E+03  0.19503731601E+03  0.00000000000E+00 0. -1.
         25    1    1    2    0    0  0.11511047564E+03  0.21249376835E+03  0.16027199339E+03  0.31577861716E+03  0.12500000000E+03 0.  0.
         25    1    1    2    0    0  0.57779332432E+01 -0.13223219333E+03  0.78599108440E+02  0.19829663969E+03  0.12500000000E+03 0.  0.
         25    1    1    2    0    0 -0.12088840888E+03 -0.80261575014E+02  0.10222688175E+03  0.21709735876E+03  0.12500000000E+03 0.  0.
</event>
<event>
 5    0  0.5670250E-005  0.3164755E+03  0.7546771E-02  0.1077283E+00
         21   -1    0    0  502  501  0.00000000000E+00  0.00000000000E+00  0.15300135184E+03  0.15300135184E+03  0.00000000000E+00 0.  1.
         21   -1    0    0  501  502 -0.00000000000E+00 -0.00000000000E+00 -0.65461362443E+03  0.65461362443E+03  0.00000000000E+00 0.  1.
         25    1    1    2    0    0  0.33049809980E+02  0.34496327081E+02 -0.32493778255E+03  0.35141407065E+03  0.12500000000E+03 0.  0.
         25    1    1    2    0    0 -0.80938208078E+02 -0.82147964345E+02  0.59836636725E+02  0.18029061170E+03  0.12500000000E+03 0.  0.
         25    1    1    2    0    0  0.47888398098E+02  0.47651637264E+02 -0.23651112676E+03  0.27591029392E+03  0.12500000000E+03 0.  0.
</event>
<event>
 5    0  0.5670250E-005  0.2522154E+03  0.7546771E-02  0.1111913E+00
         21   -1    0    0  502  501  0.00000000000E+00  0.00000000000E+00  0.86433417259E+02  0.86433417259E+02  0.00000000000E+00 0. -1.
         21   -1    0    0  501  502 -0.00000000000E+00 -0.00000000000E+00 -0.73597236486E+03  0.73597236486E+03  0.00000000000E+00 0. -1.
         25    1    1    2    0    0 -0.11897443537E+03  0.50314374350E+02 -0.37181936492E+03  0.41299042685E+03  0.12500000000E+03 0.  0.
         25    1    1    2    0    0  0.98380873364E+02 -0.57150689342E+02 -0.12147777545E+03  0.20815102081E+03  0.12500000000E+03 0.  0.
         25    1    1    2    0    0  0.20593562008E+02  0.68363149923E+01 -0.15624180723E+03  0.20126433446E+03  0.12500000000E+03 0.  0.
</event>
<event>
 5    0  0.5670250E-005  0.2510658E+03  0.7546771E-02  0.1112633E+00
         21   -1    0    0  502  501  0.00000000000E+00  0.00000000000E+00  0.41254539646E+02  0.41254539646E+02  0.00000000000E+00 0. -1.
         21   -1    0    0  501  502 -0.00000000000E+00 -0.00000000000E+00 -0.15279290897E+04  0.15279290897E+04  0.00000000000E+00 0. -1.
         25    1    1    2    0    0  0.61510680039E+02 -0.85352775482E+02 -0.35149332370E+03  0.38760961888E+03  0.12500000000E+03 0.  0.
         25    1    1    2    0    0  0.55227871778E+02  0.75474643599E+02 -0.57076286239E+03  0.59172779614E+03  0.12500000000E+03 0.  0.
         25    1    1    2    0    0 -0.11673855182E+03  0.98781318821E+01 -0.56441836395E+03  0.58984621431E+03  0.12500000000E+03 0.  0.
</event>
<event>
 5    0  0.5670250E-005  0.3108498E+03  0.7546771E-02  0.1079939E+00
         21   -1    0    0  502  501  0.00000000000E+00  0.00000000000E+00  0.15715078444E+03  0.15715078444E+03  0.00000000000E+00 0.  1.
         21   -1    0    0  501  502 -0.00000000000E+00 -0.00000000000E+00 -0.61487179407E+03  0.61487179407E+03  0.00000000000E+00 0.  1.
         25    1    1    2    0    0  0.41411652959E+02  0.34453140023E+02  0.63502002968E+02  0.15019803008E+03  0.12500000000E+03 0.  0.
         25    1    1    2    0    0 -0.12860266778E+03  0.11851346573E+02 -0.26926025243E+03  0.32373628792E+03  0.12500000000E+03 0.  0.
         25    1    1    2    0    0  0.87191014821E+02 -0.46304486596E+02 -0.25196276017E+03  0.29808826052E+03  0.12500000000E+03 0.  0.
</event>
<event>
 5    0  0.5670250E-005  0.2449927E+03  0.7546771E-02  0.1116511E+00
         21   -1    0    0  502  501  0.00000000000E+00  0.00000000000E+00  0.34454218480E+03  0.34454218480E+03  0.00000000000E+00 0. -1.
         21   -1    0    0  501  502 -0.00000000000E+00 -0.00000000000E+00 -0.17420633104E+03  0.17420633104E+03  0.00000000000E+00 0. -1.
         25    1    1    2    0    0  0.12057705315E+02  0.31082627844E+02  0.14384504759E+03  0.19346295699E+03  0.12500000000E+03 0.  0.
         25    1    1    2    0    0  0.76839267272E+02  0.30362908612E+01  0.69478598707E+02  0.16237539141E+03  0.12500000000E+03 0.  0.
         25    1    1    2    0    0 -0.88896972586E+02 -0.34118918706E+02 -0.42987792533E+02  0.16291016744E+03  0.12500000000E+03 0.  0.
</event>
<event>
 5    0  0.5670250E-005  0.2451690E+03  0.7546771E-02  0.1116396E+00
         21   -1    0    0  502  501  0.00000000000E+00  0.00000000000E+00  0.98366796942E+02  0.98366796942E+02  0.00000000000E+00 0.  1.
         21   -1    0    0  501  502 -0.00000000000E+00 -0.00000000000E+00 -0.61105837331E+03  0.61105837331E+03  0.00000000000E+00 0.  1.
         25    1    1    2    0    0  0.23472073624E+02 -0.70119033163E+01 -0.14018937838E+02  0.12814692991E+03  0.12500000000E+03 0.  0.
         25    1    1    2    0    0 -0.34446254040E+02  0.81034217680E+02 -0.24805212575E+03  0.29138968057E+03  0.12500000000E+03 0.  0.
         25    1    1    2    0    0  0.10974180416E+02 -0.74022314363E+02 -0.25062051278E+03  0.28988855977E+03  0.12500000000E+03 0.  0.
</event>
<event>
 5    0  0.5670250E-005  0.2589298E+03  0.7546771E-02  0.1107788E+00
         21   -1    0    0  502  501  0.00000000000E+00  0.00000000000E+00  0.79337305853E+03  0.79337305853E+03  0.00000000000E+00 0. -1.
         21   -1    0    0  501  502 -0.00000000000E+00 -0.00000000000E+00 -0.84505789691E+02  0.84505789691E+02  0.00000000000E+00 0. -1.
         25    1    1    2    0    0  0.87692452314E+02 -0.80612567020E+02  0.22175866003E+03  0.28105205114E+03  0.12500000000E+03 0.  0.
         25    1    1    2    0    0 -0.27071388096E+02  0.10131256303E+03  0.11647342606E+03  0.20046983429E+03  0.12500000000E+03 0.  0.
         25    1    1    2    0    0 -0.60621064218E+02 -0.20699996007E+02  0.37063518274E+03  0.39635696278E+03  0.12500000000E+03 0.  0.
</event>
<event>
 5    0  0.5670250E-005  0.2422134E+03  0.7546771E-02  0.1118327E+00
         21   -1    0    0  502  501  0.00000000000E+00  0.00000000000E+00  0.43006865913E+02  0.43006865913E+02  0.00000000000E+00 0. -1.
         21   -1    0    0  501  502 -0.00000000000E+00 -0.00000000000E+00 -0.13641390939E+04  0.13641390939E+04  0.00000000000E+00 0. -1.
         25    1    1    2    0    0 -0.42425769542E+02 -0.75838227327E+02 -0.55734554821E+03  0.57776331033E+03  0.12500000000E+03 0.  0.
         25    1    1    2    0    0 -0.64723079858E+02  0.43737964732E+02 -0.45072411981E+03  0.47421442281E+03  0.12500000000E+03 0.  0.
         25    1    1    2    0    0  0.10714884940E+03  0.32100262595E+02 -0.31306255994E+03  0.35516822665E+03  0.12500000000E+03 0.  0.
</event>
<event>
 5    0  0.5670250E-005  0.3099584E+03  0.7546771E-02  0.1080366E+00
         21   -1    0    0  502  501  0.00000000000E+00  0.00000000000E+00  0.27463882531E+03  0.27463882531E+03  0.00000000000E+00 0. -1.
         21   -1    0    0  501  502 -0.00000000000E+00 -0.00000000000E+00 -0.34982014764E+03  0.34982014764E+03  0.00000000000E+00 0. -1.
         25    1    1    2    0    0  0.67077713203E+02 -0.57928400551E+02  0.18137565377E+02  0.15430194580E+03  0.12500000000E+03 0.  0.
         25    1    1    2    0    0 -0.16800273759E+03 -0.73731182726E+02  0.36826752041E+02  0.22503870070E+03  0.12500000000E+03 0.  0.
         25    1    1    2    0    0  0.10092502439E+03  0.13165958328E+03 -0.13014563974E+03  0.24511832645E+03  0.12500000000E+03 0.  0.
</event>
<event>
 5    0  0.5670250E-005  0.3506025E+03  0.7546771E-02  0.1062368E+00
         21   -1    0    0  502  501  0.00000000000E+00  0.00000000000E+00  0.31167001861E+03  0.31167001861E+03  0.00000000000E+00 0. -1.
         21   -1    0    0  501  502 -0.00000000000E+00 -0.00000000000E+00 -0.39439820671E+03  0.39439820671E+03  0.00000000000E+00 0. -1.
         25    1    1    2    0    0  0.15024432974E+03  0.68669112828E+02  0.98792831490E+02  0.22950779775E+03  0.12500000000E+03 0.  0.
         25    1    1    2    0    0 -0.13105019591E+03 -0.40185545514E+02 -0.26418605835E+03  0.32281311210E+03  0.12500000000E+03 0.  0.
         25    1    1    2    0    0 -0.19194133825E+02 -0.28483567314E+02  0.82665038759E+02  0.15374731547E+03  0.12500000000E+03 0.  0.
</event>
<event>
 5    0  0.5670250E-005  0.3607786E+03  0.7546771E-02  0.1058276E+00
         21   -1    0    0  502  501  0.00000000000E+00  0.00000000000E+00  0.12581340486E+03  0.12581340486E+03  0.00000000000E+00 0.  1.
         21   -1    0    0  501  502 -0.00000000000E+00 -0.00000000000E+00 -0.10345574032E+04  0.10345574032E+04  0.00000000000E+00 0.  1.
         25    1    1    2    0    0 -0.10815772181E+03 -0.52462647892E+01 -0.47260314912E+03  0.50070385723E+03  0.12500000000E+03 0.  0.
         25    1    1    2    0    0 -0.22357732117E+02  0.17853512830E+03 -0.30919425145E+03  0.37894688988E+03  0.12500000000E+03 0.  0.
         25    1    1    2    0    0  0.13051545392E+03 -0.17328886351E+03 -0.12694659774E+03  0.28072006093E+03  0.12500000000E+03 0.  0.
</event>
<event>
 5    0  0.5670250E-005  0.2777440E+03  0.7546771E-02  0.1096928E+00
         21   -1    0    0  502  501  0.00000000000E+00  0.00000000000E+00  0.84370998890E+03  0.84370998890E+03  0.00000000000E+00 0.  1.
         21   -1    0    0  501  502 -0.00000000000E+00 -0.00000000000E+00 -0.91431544550E+02  0.91431544550E+02  0.00000000000E+00 0.  1.
         25    1    1    2    0    0  0.28682909889E+02  0.43063957157E+02  0.15664617503E+03  0.20697883437E+03  0.12500000000E+03 0.  0.
         25    1    1    2    0    0 -0.50544955752E+02  0.13784329973E+03  0.33433745815E+03  0.38595609045E+03  0.12500000000E+03 0.  0.
         25    1    1    2    0    0  0.21862045863E+02 -0.18090725689E+03  0.26129481117E+03  0.34220660863E+03  0.12500000000E+03 0.  0.
</event>
<event>
 5    0  0.5670250E-005  0.2817391E+03  0.7546771E-02  0.1094743E+00
         21   -1    0    0  502  501  0.00000000000E+00  0.00000000000E+00  0.84175433657E+03  0.84175433657E+03  0.00000000000E+00 0.  1.
         21   -1    0    0  501  502 -0.00000000000E+00 -0.00000000000E+00 -0.94299379949E+02  0.94299379949E+02  0.00000000000E+00 0.  1.
         25    1    1    2    0    0  0.17391664146E+02  0.13295615620E+03  0.91699109302E+02  0.20497203736E+03  0.12500000000E+03 0.  0.
         25    1    1    2    0    0 -0.44078723096E+02  0.79708737951E+01  0.25795024767E+03  0.29012031802E+03  0.12500000000E+03 0.  0.
         25    1    1    2    0    0  0.26687058950E+02 -0.14092703000E+03  0.39780559965E+03  0.44096136113E+03  0.12500000000E+03 0.  0.
</event>
<event>
 5    0  0.5670250E-005  0.5017207E+03  0.7546771E-02  0.1013331E+00
         21   -1    0    0  502  501  0.00000000000E+00  0.00000000000E+00  0.19464717475E+04  0.19464717475E+04  0.00000000000E+00 0. -1.
         21   -1    0    0  501  502 -0.00000000000E+00 -0.00000000000E+00 -0.12932302731E+03  0.12932302731E+03  0.00000000000E+00 0. -1.
         25    1    1    2    0    0 -0.20604326937E+03  0.91401107391E+02  0.34777964332E+02  0.26008171425E+03  0.12500000000E+03 0.  0.
         25    1    1    2    0    0  0.65742446980E+02 -0.10756119257E+02  0.69642874524E+03  0.71068682317E+03  0.12500000000E+03 0.  0.
         25    1    1    2    0    0  0.14030082239E+03 -0.80644988134E+02  0.10859420106E+04  0.11050262373E+04  0.12500000000E+03 0.  0.
</event>
<event>
 5    0  0.5670250E-005  0.3908654E+03  0.7546771E-02  0.1046989E+00
         21   -1    0    0  502  501  0.00000000000E+00  0.00000000000E+00  0.12562757495E+04  0.12562757495E+04  0.00000000000E+00 0.  1.
         21   -1    0    0  501  502 -0.00000000000E+00 -0.00000000000E+00 -0.12161004350E+03  0.12161004350E+03  0.00000000000E+00 0.  1.
         25    1    1    2    0    0 -0.99825431364E+02  0.97929204190E+02  0.10751814256E+03  0.21619527460E+03  0.12500000000E+03 0.  0.
         25    1    1    2    0    0  0.20325267857E+03 -0.22866373336E+03  0.56129063090E+03  0.65136082676E+03  0.12500000000E+03 0.  0.
         25    1    1    2    0    0 -0.10342724721E+03  0.13073452917E+03  0.46585693257E+03  0.51032969167E+03  0.12500000000E+03 0.  0.
</event>
<event>
 5    0  0.5670250E-005  0.2667807E+03  0.7546771E-02  0.1103136E+00
         21   -1    0    0  502  501  0.00000000000E+00  0.00000000000E+00  0.92770115569E+02  0.92770115569E+02  0.00000000000E+00 0.  1.
         21   -1    0    0  501  502 -0.00000000000E+00 -0.00000000000E+00 -0.76718594560E+03  0.76718594560E+03  0.00000000000E+00 0.  1.
         25    1    1    2    0    0  0.14123812118E+03  0.18450244231E+01 -0.43131947591E+03  0.47075800714E+03  0.12500000000E+03 0.  0.
         25    1    1    2    0    0 -0.10750003815E+03  0.35650285604E+02 -0.14581480270E+03  0.22296671894E+03  0.12500000000E+03 0.  0.
         25    1    1    2    0    0 -0.33738083025E+02 -0.37495310027E+02 -0.97281551418E+02  0.16623133509E+03  0.12500000000E+03 0.  0.
</event>
<event>
 5    0  0.5670250E-005  0.3183741E+03  0.7546771E-02  0.1076400E+00
         21   -1    0    0  502  501  0.00000000000E+00  0.00000000000E+00  0.20338717961E+03  0.20338717961E+03  0.00000000000E+00 0.  1.
         21   -1    0    0  501  502 -0.00000000000E+00 -0.00000000000E+00 -0.49837011018E+03  0.49837011018E+03  0.00000000000E+00 0.  1.
         25    1    1    2    0    0  0.85997206776E+02  0.12768986227E+02 -0.56151573347E+02  0.16228544535E+03  0.12500000000E+03 0.  0.
         25    1    1    2    0    0 -0.57968319572E+02 -0.18085724036E+03 -0.23657649181E+03  0.32812056312E+03  0.12500000000E+03 0.  0.
         25    1    1    2    0    0 -0.28028887204E+02  0.16808825413E+03 -0.22548654133E+01  0.21135128132E+03  0.12500000000E+03 0.  0.
</event>
<event>
 5    0  0.5670250E-005  0.2691749E+03  0.7546771E-02  0.1101753E+00
         21   -1    0    0  502  501  0.00000000000E+00  0.00000000000E+00  0.43158600158E+03  0.43158600158E+03  0.00000000000E+00 0.  1.
         21   -1    0    0  501  502 -0.00000000000E+00 -0.00000000000E+00 -0.16788110801E+03  0.16788110801E+03  0.00000000000E+00 0.  1.
         25    1    1    2    0    0 -0.91338671692E+02  0.49641502206E+02  0.18710174171E+03  0.24786910545E+03  0.12500000000E+03 0.  0.
         25    1    1    2    0    0  0.41179938920E+02  0.74654534482E+02 -0.40446386901E+01  0.15136197009E+03  0.12500000000E+03 0.  0.
         25    1    1    2    0    0  0.50158732772E+02 -0.12429603669E+03  0.80647790545E+02  0.20023603404E+03  0.12500000000E+03 0.  0.
</event>
<event>
 5    0  0.5670250E-005  0.2873792E+03  0.7546771E-02  0.1091725E+00
         21   -1    0    0  502  501  0.00000000000E+00  0.00000000000E+00  0.26033882478E+03  0.26033882478E+03  0.00000000000E+00 0. -1.
         21   -1    0    0  501  502 -0.00000000000E+00 -0.00000000000E+00 -0.31722817059E+03  0.31722817059E+03  0.00000000000E+00 0. -1.
         25    1    1    2    0    0 -0.99322870991E+02  0.11245038524E+03  0.61178843871E+02  0.20464108282E+03  0.12500000000E+03 0.  0.
         25    1    1    2    0    0 -0.13090451710E+02  0.29783319408E+02 -0.72257699630E+02  0.14800196349E+03  0.12500000000E+03 0.  0.
         25    1    1    2    0    0  0.11241332270E+03 -0.14223370465E+03 -0.45810490057E+02  0.22492394905E+03  0.12500000000E+03 0.  0.
</event>
<event>
 5    0  0.5670250E-005  0.4760253E+03  0.7546771E-02  0.1020233E+00
         21   -1    0    0  502  501  0.00000000000E+00  0.00000000000E+00  0.78444872597E+03  0.78444872597E+03  0.00000000000E+00 0.  1.
         21   -1    0    0  501  502 -0.00000000000E+00 -0.00000000000E+00 -0.28886543855E+03  0.28886543855E+03  0.00000000000E+00 0.  1.
         25    1    1    2    0    0  0.16301460684E+03  0.17910421371E+03  0.40587913431E+03  0.48889155554E+03  0.12500000000E+03 0.  0.
         25    1    1    2    0    0 -0.30941842374E+03 -0.72894714941E+02 -0.12837836569E+02  0.34182336150E+03  0.12500000000E+03 0.  0.
         25    1    1    2    0    0  0.14640381691E+03 -0.10620949877E+03  0.10254198969E+03  0.24259924749E+03  0.12500000000E+03 0.  0.
</event>
<event>
 5    0  0.5670250E-005  0.2958413E+03  0.7546771E-02  0.1087338E+00
         21   -1    0    0  502  501  0.00000000000E+00  0.00000000000E+00  0.90356334064E+03  0.90356334064E+03  0.00000000000E+00 0.  1.
         21   -1    0    0  501  502 -0.00000000000E+00 -0.00000000000E+00 -0.96863271708E+02  0.96863271708E+02  0.00000000000E+00 0.  1.
         25    1    1    2    0    0 -0.15163027859E+03 -0.12009082600E+03  0.24664084109E+03  0.33744666595E+03  0.12500000000E+03 0.  0.
         25    1    1    2    0    0  0.25377932779E+02  0.69054131314E+02  0.12959716473E+03  0.19450690895E+03  0.12500000000E+03 0.  0.
         25    1    1    2    0    0  0.12625234581E+03  0.51036694684E+02  0.43046206312E+03  0.46847303745E+03  0.12500000000E+03 0.  0.
</event>
<event>
 5    0  0.5670250E-005  0.3192811E+03  0.7546771E-02  0.1075981E+00
         21   -1    0    0  502  501  0.00000000000E+00  0.00000000000E+00  0.12246848066E+03  0.12246848066E+03  0.00000000000E+00 0. -1.
         21   -1    0    0  501  502 -0.00000000000E+00 -0.00000000000E+00 -0.83238089944E+03  0.83238089944E+03  0.00000000000E+00 0. -1.
         25    1    1    2    0    0  0.67960535882E+02 -0.21778232227E+03 -0.39942324705E+03  0.47666728922E+03  0.12500000000E+03 0.  0.
         25    1    1    2    0    0 -0.77554592368E+02  0.17732887836E+03 -0.17607955820E+03  0.28998147650E+03  0.12500000000E+03 0.  0.
         25    1    1    2    0    0  0.95940564869E+01  0.40453443913E+02 -0.13440961353E+03  0.18820061438E+03  0.12500000000E+03 0.  0.
</event>
<event>
 5    0  0.5670250E-005  0.2570029E+03  0.7546771E-02  0.1108957E+00
         21   -1    0    0  502  501  0.00000000000E+00  0.00000000000E+00  0.52311271651E+03  0.52311271651E+03  0.00000000000E+00 0. -1.
         21   -1    0    0  501  502 -0.00000000000E+00 -0.00000000000E+00 -0.12626437497E+03  0.12626437497E+03  0.00000000000E+00 0. -1.
         25    1    1    2    0    0  0.53144231570E+02  0.14966107017E+03  0.11997499021E+03  0.23503562188E+03  0.12500000000E+03 0.  0.
         25    1    1    2    0    0  0.15223387216E+02 -0.58314622917E+02  0.11664599954E+03  0.18128330307E+03  0.12500000000E+03 0.  0.
         25    1    1    2    0    0 -0.68367618787E+02 -0.91346447254E+02  0.16022735179E+03  0.23305816653E+03  0.12500000000E+03 0.  0.
</event>
<event>
 5    0  0.5670250E-005  0.2870044E+03  0.7546771E-02  0.1091924E+00
         21   -1    0    0  502  501  0.00000000000E+00  0.00000000000E+00  0.12794197364E+03  0.12794197364E+03  0.00000000000E+00 0. -1.
         21   -1    0    0  501  502 -0.00000000000E+00 -0.00000000000E+00 -0.64381960099E+03  0.64381960099E+03  0.00000000000E+00 0. -1.
         25    1    1    2    0    0  0.13435504278E+02 -0.61445939568E+02 -0.13649460857E+03  0.19547862910E+03  0.12500000000E+03 0.  0.
         25    1    1    2    0    0  0.33499180310E+02  0.12127187657E+03 -0.39117017468E+03  0.42949757705E+03  0.12500000000E+03 0.  0.
         25    1    1    2    0    0 -0.46934684588E+02 -0.59825937000E+02  0.11787155914E+02  0.14678536848E+03  0.12500000000E+03 0.  0.
</event>
<event>
 5    0  0.5670250E-005  0.2264931E+03  0.7546771E-02  0.1129133E+00
         21   -1    0    0  502  501  0.00000000000E+00  0.00000000000E+00  0.85072309515E+03  0.85072309515E+03  0.00000000000E+00 0.  1.
         21   -1    0    0  501  502 -0.00000000000E+00 -0.00000000000E+00 -0.60300621733E+02  0.60300621733E+02  0.00000000000E+00 0.  1.
         25    1    1    2    0    0  0.49734410182E+01 -0.56611187496E+02  0.14078682034E+03  0.19666085133E+03  0.12500000000E+03 0.  0.
         25    1    1    2    0    0 -0.20384961368E+02  0.92307612055E+02  0.44141396143E+03  0.46840957210E+03  0.12500000000E+03 0.  0.
         25    1    1    2    0    0  0.15411520350E+02 -0.35696424559E+02  0.20822169165E+03  0.24595329345E+03  0.12500000000E+03 0.  0.
</event>
<event>
 5    0  0.5670250E-005  0.3862040E+03  0.7546771E-02  0.1048664E+00
         21   -1    0    0  502  501  0.00000000000E+00  0.00000000000E+00  0.19283362573E+03  0.19283362573E+03  0.00000000000E+00 0. -1.
         21   -1    0    0  501  502 -0.00000000000E+00 -0.00000000000E+00 -0.77348284319E+03  0.77348284319E+03  0.00000000000E+00 0. -1.
         25    1    1    2    0    0  0.24978704657E+03  0.31104823423E+02 -0.19244594522E+03  0.34061931904E+03  0.12500000000E+03 0.  0.
         25    1    1    2    0    0 -0.17851485295E+02  0.85186847827E+02 -0.27865572210E+03  0.31756808093E+03  0.12500000000E+03 0.  0.
         25    1    1    2    0    0 -0.23193556127E+03 -0.11629167125E+03 -0.10954755014E+03  0.30812906894E+03  0.12500000000E+03 0.  0.
</event>
<event>
 5    0  0.5670250E-005  0.2296162E+03  0.7546771E-02  0.1126910E+00
         21   -1    0    0  502  501  0.00000000000E+00  0.00000000000E+00  0.24449846449E+03  0.24449846449E+03  0.00000000000E+00 0. -1.
         21   -1    0    0  501  502 -0.00000000000E+00 -0.00000000000E+00 -0.21563981787E+03  0.21563981787E+03  0.00000000000E+00 0. -1.
         25    1    1    2    0    0  0.77184830596E+02  0.23535775215E+02  0.45595936317E+02  0.15561304636E+03  0.12500000000E+03 0.  0.
         25    1    1    2    0    0 -0.58769982878E+02  0.45082543466E+02 -0.55622358112E+02  0.15558018298E+03  0.12500000000E+03 0.  0.
         25    1    1    2    0    0 -0.18414847718E+02 -0.68618318681E+02  0.38885068411E+02  0.14894505302E+03  0.12500000000E+03 0.  0.
</event>
<event>
 5    0  0.5670250E-005  0.3842448E+03  0.7546771E-02  0.1049376E+00
         21   -1    0    0  502  501  0.00000000000E+00  0.00000000000E+00  0.78465224260E+03  0.78465224260E+03  0.00000000000E+00 0.  1.
         21   -1    0    0  501  502 -0.00000000000E+00 -0.00000000000E+00 -0.18816498815E+03  0.18816498815E+03  0.00000000000E+00 0.  1.
         25    1    1    2    0    0 -0.89434902251E+02 -0.25597298767E+03  0.39119886330E+03  0.49212023206E+03  0.12500000000E+03 0.  0.
         25    1    1    2    0    0  0.16140231784E+03  0.12425436455E+03  0.10350837698E+03  0.26043970399E+03  0.12500000000E+03 0.  0.
         25    1    1    2    0    0 -0.71967415584E+02  0.13171862312E+03  0.10178001416E+03  0.22025729469E+03  0.12500000000E+03 0.  0.
</event>
<event>
 5    0  0.5670250E-005  0.3757372E+03  0.7546771E-02  0.1052521E+00
         21   -1    0    0  502  501  0.00000000000E+00  0.00000000000E+00  0.13752130401E+04  0.13752130401E+04  0.00000000000E+00 0. -1.
         21   -1    0    0  501  502 -0.00000000000E+00 -0.00000000000E+00 -0.10265934289E+03  0.10265934289E+03  0.00000000000E+00 0. -1.
         25    1    1    2    0    0  0.10622588528E+03  0.12499247994E+03  0.24773751322E+03  0.32234443411E+03  0.12500000000E+03 0.  0.
         25    1    1    2    0    0  0.14627802713E+02  0.79340204887E+01  0.88911102966E+03  0.89800910038E+03  0.12500000000E+03 0.  0.
         25    1    1    2    0    0 -0.12085368799E+03 -0.13292650042E+03  0.13570515431E+03  0.25751884848E+03  0.12500000000E+03 0.  0.
</event>
<event>
 5    0  0.5670250E-005  0.3679588E+03  0.7546771E-02  0.1055476E+00
         21   -1    0    0  502  501  0.00000000000E+00  0.00000000000E+00  0.34418076840E+03  0.34418076840E+03  0.00000000000E+00 0.  1.
         21   -1    0    0  501  502 -0.00000000000E+00 -0.00000000000E+00 -0.39337960663E+03  0.39337960663E+03  0.00000000000E+00 0.  1.
         25    1    1    2    0    0  0.87276903126E+02 -0.11853190742E+03  0.22490693808E+03  0.29643751735E+03  0.12500000000E+03 0.  0.
         25    1    1    2    0    0 -0.70308363343E+02  0.65734096376E+02 -0.28937498204E+02  0.16039518754E+03  0.12500000000E+03 0.  0.
         25    1    1    2    0    0 -0.16968539783E+02  0.52797811047E+02 -0.24516827810E+03  0.28072767014E+03  0.12500000000E+03 0.  0.
</event>
<event>
 5    0  0.5670250E-005  0.2448479E+03  0.7546771E-02  0.1116605E+00
         21   -1    0    0  502  501  0.00000000000E+00  0.00000000000E+00  0.52073325680E+03  0.52073325680E+03  0.00000000000E+00 0.  1.
         21   -1    0    0  501  502 -0.00000000000E+00 -0.00000000000E+00 -0.11512711471E+03  0.11512711471E+03  0.00000000000E+00 0.  1.
         25    1    1    2    0    0  0.78479648715E+02 -0.29451950006E+01  0.25752042744E+03  0.29683244429E+03  0.12500000000E+03 0.  0.
         25    1    1    2    0    0 -0.66539681522E+02 -0.68757207847E+02  0.10066657982E+03  0.18685246356E+03  0.12500000000E+03 0.  0.
         25    1    1    2    0    0 -0.11939967193E+02  0.71702402848E+02  0.47419134833E+02  0.15217546366E+03  0.12500000000E+03 0.  0.
</event>
<event>
 5    0  0.5670250E-005  0.3919507E+03  0.7546771E-02  0.1046603E+00
         21   -1    0    0  502  501  0.00000000000E+00  0.00000000000E+00  0.11680787856E+04  0.11680787856E+04  0.00000000000E+00 0.  1.
         21   -1    0    0  501  502 -0.00000000000E+00 -0.00000000000E+00 -0.13151965970E+03  0.13151965970E+03  0.00000000000E+00 0.  1.
         25    1    1    2    0    0 -0.13153370653E+02  0.65221611680E+02  0.10126684977E+03  0.17408861150E+03  0.12500000000E+03 0.  0.
         25    1    1    2    0    0 -0.72688654404E+02 -0.23853291838E+03  0.82362960161E+03  0.86958168925E+03  0.12500000000E+03 0.  0.
         25    1    1    2    0    0  0.85842025056E+02  0.17331130670E+03  0.11166267453E+03  0.25592814457E+03  0.12500000000E+03 0.  0.
</event>
<event>
 5    0  0.5670250E-005  0.2505569E+03  0.7546771E-02  0.1112953E+00
         21   -1    0    0  502  501  0.00000000000E+00  0.00000000000E+00  0.57928355759E+03  0.57928355759E+03  0.00000000000E+00 0.  1.
         21   -1    0    0  501  502 -0.00000000000E+00 -0.00000000000E+00 -0.10837311863E+03  0.10837311863E+03  0.00000000000E+00 0.  1.
         25    1    1    2    0    0 -0.10925641044E+03  0.56556689178E+02  0.18607516047E+03  0.25570410176E+03  0.12500000000E+03 0.  0.
         25    1    1    2    0    0  0.10646663407E+03  0.19862633505E+02  0.21031263305E+03  0.26755573625E+03  0.12500000000E+03 0.  0.
         25    1    1    2    0    0  0.27897763686E+01 -0.76419322683E+02  0.74522645438E+02  0.16439683821E+03  0.12500000000E+03 0.  0.
</event>
<event>
 5    0  0.5670250E-005  0.3038157E+03  0.7546771E-02  0.1083349E+00
         21   -1    0    0  502  501  0.00000000000E+00  0.00000000000E+00  0.18385391224E+03  0.18385391224E+03  0.00000000000E+00 0.  1.
         21   -1    0    0  501  502 -0.00000000000E+00 -0.00000000000E+00 -0.50205069951E+03  0.50205069951E+03  0.00000000000E+00 0.  1.
         25    1    1    2    0    0 -0.70500446327E+02 -0.62037322428E+02 -0.11020014174E+03  0.19127993503E+03  0.12500000000E+03 0.  0.
         25    1    1    2    0    0 -0.12685717991E+02  0.11927467583E+03  0.58992144355E+02  0.18300942279E+03  0.12500000000E+03 0.  0.
         25    1    1    2    0    0  0.83186164318E+02 -0.57237353405E+02 -0.26698878989E+03  0.31161525393E+03  0.12500000000E+03 0.  0.
</event>
<event>
 5    0  0.5822893E-005  0.3149857E+03  0.7546771E-02  0.1077980E+00
         21   -1    0    0  502  501  0.00000000000E+00  0.00000000000E+00  0.79063767468E+02  0.79063767468E+02  0.00000000000E+00 0.  1.
         21   -1    0    0  501  502 -0.00000000000E+00 -0.00000000000E+00 -0.12548855908E+04  0.12548855908E+04  0.00000000000E+00 0.  1.
         25    1    1    2    0    0 -0.12351290149E+03 -0.53129497536E+02 -0.18363144558E+03  0.25966071738E+03  0.12500000000E+03 0.  0.
         25    1    1    2    0    0 -0.31762855643E+02  0.92783921333E+02 -0.70358000419E+03  0.72129574888E+03  0.12500000000E+03 0.  0.
         25    1    1    2    0    0  0.15527575714E+03 -0.39654423797E+02 -0.28861037357E+03  0.35299289201E+03  0.12500000000E+03 0.  0.
</event>
<event>
 5    0  0.5670250E-005  0.2551594E+03  0.7546771E-02  0.1110087E+00
         21   -1    0    0  502  501  0.00000000000E+00  0.00000000000E+00  0.31296538916E+03  0.31296538916E+03  0.00000000000E+00 0.  1.
         21   -1    0    0  501  502 -0.00000000000E+00 -0.00000000000E+00 -0.20803043505E+03  0.20803043505E+03  0.00000000000E+00 0.  1.
         25    1    1    2    0    0 -0.97476093513E+02  0.73377911467E+02  0.14305234731E+03  0.22577617405E+03  0.12500000000E+03 0.  0.
         25    1    1    2    0    0  0.73989989962E+02 -0.59503924566E+02 -0.54651942348E+02  0.16621392979E+03  0.12500000000E+03 0.  0.
         25    1    1    2    0    0  0.23486103551E+02 -0.13873986901E+02  0.16534549150E+02  0.12900572037E+03  0.12500000000E+03 0.  0.
</event>
<event>
 5    0  0.5670250E-005  0.4761178E+03  0.7546771E-02  0.1020208E+00
         21   -1    0    0  502  501  0.00000000000E+00  0.00000000000E+00  0.17585120223E+04  0.17585120223E+04  0.00000000000E+00 0. -1.
         21   -1    0    0  501  502 -0.00000000000E+00 -0.00000000000E+00 -0.12890909621E+03  0.12890909621E+03  0.00000000000E+00 0. -1.
         25    1    1    2    0    0 -0.23406141643E+03 -0.81985058560E+02  0.27570614441E+03  0.39133767331E+03  0.12500000000E+03 0.  0.
         25    1    1    2    0    0  0.34507572283E+03 -0.68743491050E+02  0.57739664752E+03  0.68761530714E+03  0.12500000000E+03 0.  0.
         25    1    1    2    0    0 -0.11101430640E+03  0.15072854961E+03  0.77650013412E+03  0.80846813801E+03  0.12500000000E+03 0.  0.
</event>
<event>
 5    0  0.5670250E-005  0.3639392E+03  0.7546771E-02  0.1057035E+00
         21   -1    0    0  502  501  0.00000000000E+00  0.00000000000E+00  0.38492031380E+03  0.38492031380E+03  0.00000000000E+00 0. -1.
         21   -1    0    0  501  502 -0.00000000000E+00 -0.00000000000E+00 -0.34410166893E+03  0.34410166893E+03  0.00000000000E+00 0. -1.
         25    1    1    2    0    0 -0.10376068987E+03  0.45310711740E+02  0.10386631081E+03  0.19807208759E+03  0.12500000000E+03 0.  0.
         25    1    1    2    0    0  0.21955875142E+03  0.81111037208E+02  0.77517809378E+02  0.27643996899E+03  0.12500000000E+03 0.  0.
         25    1    1    2    0    0 -0.11579806155E+03 -0.12642174895E+03 -0.14056547531E+03  0.25450992616E+03  0.12500000000E+03 0.  0.
</event>
<event>
 5    0  0.5670250E-005  0.3161049E+03  0.7546771E-02  0.1077456E+00
         21   -1    0    0  502  501  0.00000000000E+00  0.00000000000E+00  0.15998796190E+03  0.15998796190E+03  0.00000000000E+00 0.  1.
         21   -1    0    0  501  502 -0.00000000000E+00 -0.00000000000E+00 -0.62456151879E+03  0.62456151879E+03  0.00000000000E+00 0.  1.
         25    1    1    2    0    0 -0.93536169028E+02 -0.17356910931E+03 -0.25357609306E+03  0.34467533360E+03  0.12500000000E+03 0.  0.
         25    1    1    2    0    0 -0.44420698570E+02  0.18181899585E+01 -0.73643536547E+02  0.15173949635E+03  0.12500000000E+03 0.  0.
         25    1    1    2    0    0  0.13795686760E+03  0.17175091935E+03 -0.13735392729E+03  0.28813465074E+03  0.12500000000E+03 0.  0.
</event>
<event>
 5    0  0.5670250E-005  0.4864662E+03  0.7546771E-02  0.1017373E+00
         21   -1    0    0  502  501  0.00000000000E+00  0.00000000000E+00  0.17317403148E+03  0.17317403148E+03  0.00000000000E+00 0. -1.
         21   -1    0    0  501  502 -0.00000000000E+00 -0.00000000000E+00 -0.13665407534E+04  0.13665407534E+04  0.00000000000E+00 0. -1.
         25    1    1    2    0    0 -0.20906781014E+03  0.78107693037E+02 -0.63639668301E+03  0.68588329845E+03  0.12500000000E+03 0.  0.
         25    1    1    2    0    0 -0.12269232620E+03 -0.10116117118E+03 -0.11154637796E+02  0.20257446880E+03  0.12500000000E+03 0.  0.
         25    1    1    2    0    0  0.33176013634E+03  0.23053478145E+02 -0.54581540107E+03  0.65125701759E+03  0.12500000000E+03 0.  0.
</event>
<event>
 5    0  0.5670250E-005  0.2642637E+03  0.7546771E-02  0.1104608E+00
         21   -1    0    0  502  501  0.00000000000E+00  0.00000000000E+00  0.12601075616E+03  0.12601075616E+03  0.00000000000E+00 0.  1.
         21   -1    0    0  501  502 -0.00000000000E+00 -0.00000000000E+00 -0.55420124745E+03  0.55420124745E+03  0.00000000000E+00 0.  1.
         25    1    1    2    0    0 -0.31955988560E+02  0.10047639182E+03 -0.10942974295E+03  0.19676523870E+03  0.12500000000E+03 0.  0.
         25    1    1    2    0    0  0.22399416946E+02  0.60551040571E+02 -0.20839976078E+03  0.25144308041E+03  0.12500000000E+03 0.  0.
         25    1    1    2    0    0  0.95565716135E+01 -0.16102743240E+03 -0.11036098756E+03  0.23200368450E+03  0.12500000000E+03 0.  0.
</event>
<event>
 5    0  0.5945144E-005  0.2949039E+03  0.7546771E-02  0.1087816E+00
         21   -1    0    0  502  501  0.00000000000E+00  0.00000000000E+00  0.31326207979E+03  0.31326207979E+03  0.00000000000E+00 0.  1.
         21   -1    0    0  501  502 -0.00000000000E+00 -0.00000000000E+00 -0.27762164198E+03  0.27762164198E+03  0.00000000000E+00 0.  1.
         25    1    1    2    0    0 -0.13086390858E+03  0.72757595047E+02  0.50839806956E+02  0.20156566220E+03  0.12500000000E+03 0.  0.
         25    1    1    2    0    0  0.52008023428E+02  0.58868029774E+02 -0.95401124209E+02  0.17577444049E+03  0.12500000000E+03 0.  0.
         25    1    1    2    0    0  0.78855885153E+02 -0.13162562482E+03  0.80201755066E+02  0.21354361908E+03  0.12500000000E+03 0.  0.
</event>
<event>
 5    0  0.5670250E-005  0.3332726E+03  0.7546771E-02  0.1069698E+00
         21   -1    0    0  502  501  0.00000000000E+00  0.00000000000E+00  0.80143674165E+03  0.80143674165E+03  0.00000000000E+00 0. -1.
         21   -1    0    0  501  502 -0.00000000000E+00 -0.00000000000E+00 -0.13858942345E+03  0.13858942345E+03  0.00000000000E+00 0. -1.
         25    1    1    2    0    0  0.11039500204E+03 -0.12383427554E+03  0.36404600641E+03  0.41913778052E+03  0.12500000000E+03 0.  0.
         25    1    1    2    0    0 -0.50601774217E+02  0.17524084847E+03  0.42708137823E+02  0.22520852462E+03  0.12500000000E+03 0.  0.
         25    1    1    2    0    0 -0.59793227819E+02 -0.51406572925E+02  0.25609317396E+03  0.29567985995E+03  0.12500000000E+03 0.  0.
</event>
<event>
 5    0  0.5737272E-005  0.2533657E+03  0.7546771E-02  0.1111196E+00
         21   -1    0    0  502  501  0.00000000000E+00  0.00000000000E+00  0.13805351794E+03  0.13805351794E+03  0.00000000000E+00 0. -1.
         21   -1    0    0  501  502 -0.00000000000E+00 -0.00000000000E+00 -0.46499472660E+03  0.46499472660E+03  0.00000000000E+00 0. -1.
         25    1    1    2    0    0  0.28792145079E+02  0.61951170547E+02  0.27364115972E+02  0.14505423121E+03  0.12500000000E+03 0.  0.
         25    1    1    2    0    0  0.16163623783E+02 -0.44022395292E+02 -0.26557373905E+03  0.29724341017E+03  0.12500000000E+03 0.  0.
         25    1    1    2    0    0 -0.44955768862E+02 -0.17928775254E+02 -0.88731585586E+02  0.16075060316E+03  0.12500000000E+03 0.  0.
</event>
<event>
 5    0  0.5670250E-005  0.3205298E+03  0.7546771E-02  0.1075406E+00
         21   -1    0    0  502  501  0.00000000000E+00  0.00000000000E+00  0.10516347209E+03  0.10516347209E+03  0.00000000000E+00 0. -1.
         21   -1    0    0  501  502 -0.00000000000E+00 -0.00000000000E+00 -0.97694874829E+03  0.97694874829E+03  0.00000000000E+00 0. -1.
         25    1    1    2    0    0 -0.12439171439E+03 -0.50268522328E+02 -0.70018851339E+03  0.72380189087E+03  0.12500000000E+03 0.  0.
         25    1    1    2    0    0  0.67384309288E+02  0.80744352733E+02 -0.13747901011E+03  0.21350825243E+03  0.12500000000E+03 0.  0.
         25    1    1    2    0    0  0.57007405107E+02 -0.30475830405E+02 -0.34117752703E+02  0.14480207708E+03  0.12500000000E+03 0.  0.
</event>
<event>
 5    0  0.6120848E-005  0.2771960E+03  0.7546771E-02  0.1097230E+00
         21   -1    0    0  502  501  0.00000000000E+00  0.00000000000E+00  0.24972735568E+03  0.24972735568E+03  0.00000000000E+00 0.  1.
         21   -1    0    0  501  502 -0.00000000000E+00 -0.00000000000E+00 -0.30768595202E+03  0.30768595202E+03  0.00000000000E+00 0.  1.
         25    1    1    2    0    0 -0.87295891617E+02  0.15838116183E+03 -0.41682018318E+02  0.22375780604E+03  0.12500000000E+03 0.  0.
         25    1    1    2    0    0  0.20843605306E+02 -0.98408064457E+02  0.47312851731E+02  0.16727853709E+03  0.12500000000E+03 0.  0.
         25    1    1    2    0    0  0.66452286311E+02 -0.59973097370E+02 -0.63589429751E+02  0.16637696457E+03  0.12500000000E+03 0.  0.
</event>
<event>
 5    0  0.5670250E-005  0.3281424E+03  0.7546771E-02  0.1071962E+00
         21   -1    0    0  502  501  0.00000000000E+00  0.00000000000E+00  0.25144892641E+03  0.25144892641E+03  0.00000000000E+00 0. -1.
         21   -1    0    0  501  502 -0.00000000000E+00 -0.00000000000E+00 -0.42822780932E+03  0.42822780932E+03  0.00000000000E+00 0. -1.
         25    1    1    2    0    0  0.12896856141E+02  0.39294505616E+02 -0.56074312264E+02  0.14310735678E+03  0.12500000000E+03 0.  0.
         25    1    1    2    0    0  0.20852515802E+03  0.53992252666E+02 -0.29506374746E+02  0.25078582700E+03  0.12500000000E+03 0.  0.
         25    1    1    2    0    0 -0.22142201416E+03 -0.93286758282E+02 -0.91198195905E+02  0.28578355194E+03  0.12500000000E+03 0.  0.
</event>
<event>
 5    0  0.5670250E-005  0.3662381E+03  0.7546771E-02  0.1056141E+00
         21   -1    0    0  502  501  0.00000000000E+00  0.00000000000E+00  0.50461486239E+03  0.50461486239E+03  0.00000000000E+00 0. -1.
         21   -1    0    0  501  502 -0.00000000000E+00 -0.00000000000E+00 -0.26580735078E+03  0.26580735078E+03  0.00000000000E+00 0. -1.
         25    1    1    2    0    0  0.20949685974E+03  0.19233063102E+02  0.79387439187E+02  0.25726680792E+03  0.12500000000E+03 0.  0.
         25    1    1    2    0    0 -0.23661921623E+03  0.79573643008E+01 -0.44012558269E+02  0.27131914496E+03  0.12500000000E+03 0.  0.
         25    1    1    2    0    0  0.27122356491E+02 -0.27190427402E+02  0.20343263069E+03  0.24183626030E+03  0.12500000000E+03 0.  0.
</event>
<event>
 5    0  0.5670250E-005  0.4653526E+03  0.7546771E-02  0.1023240E+00
         21   -1    0    0  502  501  0.00000000000E+00  0.00000000000E+00  0.14687202430E+04  0.14687202430E+04  0.00000000000E+00 0.  1.
         21   -1    0    0  501  502 -0.00000000000E+00 -0.00000000000E+00 -0.14744334266E+03  0.14744334266E+03  0.00000000000E+00 0.  1.
         25    1    1    2    0    0  0.71742906056E+02  0.22067839153E+03  0.70456850066E+02  0.27282808649E+03  0.12500000000E+03 0.  0.
         25    1    1    2    0    0 -0.59545987774E+02  0.79095204697E+02  0.51015930842E+03  0.53449910761E+03  0.12500000000E+03 0.  0.
         25    1    1    2    0    0 -0.12196918282E+02 -0.29977359622E+03  0.74066074188E+03  0.80883639160E+03  0.12500000000E+03 0.  0.
</event>
<event>
 5    0  0.6575228E-005  0.4338216E+03  0.7546771E-02  0.1032660E+00
         21   -1    0    0  502  501  0.00000000000E+00  0.00000000000E+00  0.17487993019E+03  0.17487993019E+03  0.00000000000E+00 0. -1.
         21   -1    0    0  501  502 -0.00000000000E+00 -0.00000000000E+00 -0.10761736131E+04  0.10761736131E+04  0.00000000000E+00 0. -1.
         25    1    1    2    0    0  0.99833770601E+02  0.21676925388E+03 -0.19896467806E+03  0.33491436860E+03  0.12500000000E+03 0.  0.
         25    1    1    2    0    0  0.41267951966E+02 -0.13370760488E+03 -0.35881463247E+01  0.18766630559E+03  0.12500000000E+03 0.  0.
         25    1    1    2    0    0 -0.14110172257E+03 -0.83061649000E+02 -0.69874085851E+03  0.72847286909E+03  0.12500000000E+03 0.  0.
</event>
<event>
 5    0  0.5670250E-005  0.5817114E+03  0.7546771E-02  0.9944093E-01
         21   -1    0    0  502  501  0.00000000000E+00  0.00000000000E+00  0.65074883776E+03  0.65074883776E+03  0.00000000000E+00 0. -1.
         21   -1    0    0  501  502 -0.00000000000E+00 -0.00000000000E+00 -0.51999812416E+03  0.51999812416E+03  0.00000000000E+00 0. -1.
         25    1    1    2    0    0 -0.15813242453E+03 -0.51716310507E+03  0.93146784955E+02  0.56281867816E+03  0.12500000000E+03 0.  0.
         25    1    1    2    0    0  0.11278421980E+03  0.28086542579E+03 -0.28948098621E+02  0.32873798085E+03  0.12500000000E+03 0.  0.
         25    1    1    2    0    0  0.45348204737E+02  0.23629767928E+03  0.66552027271E+02  0.27919030292E+03  0.12500000000E+03 0.  0.
</event>
<event>
 5    0  0.5670250E-005  0.2452256E+03  0.7546771E-02  0.1116360E+00
         21   -1    0    0  502  501  0.00000000000E+00  0.00000000000E+00  0.43430552403E+03  0.43430552403E+03  0.00000000000E+00 0. -1.
         21   -1    0    0  501  502 -0.00000000000E+00 -0.00000000000E+00 -0.13846378378E+03  0.13846378378E+03  0.00000000000E+00 0. -1.
         25    1    1    2    0    0 -0.41444783946E+01  0.72234413608E+02  0.16825721123E+02  0.14540664394E+03  0.12500000000E+03 0.  0.
         25    1    1    2    0    0  0.51658086457E+02 -0.15278554711E+02  0.24155235202E+03  0.27726256671E+03  0.12500000000E+03 0.  0.
         25    1    1    2    0    0 -0.47513608063E+02 -0.56955858898E+02  0.37463667108E+02  0.15010009716E+03  0.12500000000E+03 0.  0.
</event>
<event>
 5    0  0.5670250E-005  0.2494637E+03  0.7546771E-02  0.1113644E+00
         21   -1    0    0  502  501  0.00000000000E+00  0.00000000000E+00  0.13121745169E+03  0.13121745169E+03  0.00000000000E+00 0. -1.
         21   -1    0    0  501  502 -0.00000000000E+00 -0.00000000000E+00 -0.47426708177E+03  0.47426708177E+03  0.00000000000E+00 0. -1.
         25    1    1    2    0    0  0.46619611414E+02  0.56919972332E+02 -0.26460382948E+03  0.30175065533E+03  0.12500000000E+03 0.  0.
         25    1    1    2    0    0 -0.21005235801E+02 -0.95020163930E+02 -0.25611236415E+02  0.16047114044E+03  0.12500000000E+03 0.  0.
         25    1    1    2    0    0 -0.25614375612E+02  0.38100191598E+02 -0.52834564181E+02  0.14326273769E+03  0.12500000000E+03 0.  0.
</event>
<event>
 5    0  0.5670250E-005  0.2548574E+03  0.7546771E-02  0.1110273E+00
         21   -1    0    0  502  501  0.00000000000E+00  0.00000000000E+00  0.30658933731E+02  0.30658933731E+02  0.00000000000E+00 0.  1.
         21   -1    0    0  501  502 -0.00000000000E+00 -0.00000000000E+00 -0.21185439507E+04  0.21185439507E+04  0.00000000000E+00 0.  1.
         25    1    1    2    0    0  0.68603560746E+01 -0.65171841174E+00 -0.99546707669E+03  0.10033081232E+04  0.12500000000E+03 0.  0.
         25    1    1    2    0    0  0.10944573984E+02 -0.76561056677E+02 -0.24548703900E+03  0.28612980518E+03  0.12500000000E+03 0.  0.
         25    1    1    2    0    0 -0.17804930059E+02  0.77212775089E+02 -0.84693090127E+03  0.85976495607E+03  0.12500000000E+03 0.  0.
</event>
<event>
 5    0  0.5827134E-005  0.3284279E+03  0.7546771E-02  0.1071835E+00
         21   -1    0    0  502  501  0.00000000000E+00  0.00000000000E+00  0.71249812048E+03  0.71249812048E+03  0.00000000000E+00 0.  1.
         21   -1    0    0  501  502 -0.00000000000E+00 -0.00000000000E+00 -0.15138966989E+03  0.15138966989E+03  0.00000000000E+00 0.  1.
         25    1    1    2    0    0  0.14100599975E+03 -0.33117602790E+02  0.21789190311E+02  0.19255969567E+03  0.12500000000E+03 0.  0.
         25    1    1    2    0    0 -0.45537240318E+02  0.95894497739E+01  0.28591298346E+02  0.13641136369E+03  0.12500000000E+03 0.  0.
         25    1    1    2    0    0 -0.95468759435E+02  0.23528153016E+02  0.51072796193E+03  0.53491673101E+03  0.12500000000E+03 0.  0.
</event>
<event>
 5    0  0.5670250E-005  0.3513891E+03  0.7546771E-02  0.1062046E+00
         21   -1    0    0  502  501  0.00000000000E+00  0.00000000000E+00  0.49784543368E+03  0.49784543368E+03  0.00000000000E+00 0. -1.
         21   -1    0    0  501  502 -0.00000000000E+00 -0.00000000000E+00 -0.24801736602E+03  0.24801736602E+03  0.00000000000E+00 0. -1.
         25    1    1    2    0    0 -0.55508222202E+02 -0.34387763263E+02 -0.60094104369E+02  0.15329703968E+03  0.12500000000E+03 0.  0.
         25    1    1    2    0    0  0.18966932746E+03  0.16253740800E+03  0.19832497701E+03  0.34256482494E+03  0.12500000000E+03 0.  0.
         25    1    1    2    0    0 -0.13416110526E+03 -0.12814964474E+03  0.11159719502E+03  0.25000093509E+03  0.12500000000E+03 0.  0.
</event>
<event>
 5    0  0.5670250E-005  0.3055470E+03  0.7546771E-02  0.1082500E+00
         21   -1    0    0  502  501  0.00000000000E+00  0.00000000000E+00  0.20403720297E+03  0.20403720297E+03  0.00000000000E+00 0. -1.
         21   -1    0    0  501  502 -0.00000000000E+00 -0.00000000000E+00 -0.45755848753E+03  0.45755848753E+03  0.00000000000E+00 0. -1.
         25    1    1    2    0    0 -0.62847121932E+02 -0.62585294085E+02 -0.13878907118E+03  0.20677061215E+03  0.12500000000E+03 0.  0.
         25    1    1    2    0    0  0.10468560966E+03  0.11793521615E+03 -0.20378450830E+03  0.28639294317E+03  0.12500000000E+03 0.  0.
         25    1    1    2    0    0 -0.41838487724E+02 -0.55349922067E+02  0.89052294913E+02  0.16843213517E+03  0.12500000000E+03 0.  0.
</event>
<event>
 5    0  0.5670250E-005  0.3306664E+03  0.7546771E-02  0.1070842E+00
         21   -1    0    0  502  501  0.00000000000E+00  0.00000000000E+00  0.10603025645E+04  0.10603025645E+04  0.00000000000E+00 0. -1.
         21   -1    0    0  501  502 -0.00000000000E+00 -0.00000000000E+00 -0.10312173704E+03  0.10312173704E+03  0.00000000000E+00 0. -1.
         25    1    1    2    0    0  0.13426829677E+03 -0.17163112656E+03  0.25631916870E+03  0.35890073191E+03  0.12500000000E+03 0.  0.
         25    1    1    2    0    0 -0.18651254799E+02 -0.22736843611E+02  0.31460170856E+03  0.33980004177E+03  0.12500000000E+03 0.  0.
         25    1    1    2    0    0 -0.11561704197E+03  0.19436797017E+03  0.38625995025E+03  0.46472352790E+03  0.12500000000E+03 0.  0.
</event>
<event>
 5    0  0.5670250E-005  0.2493308E+03  0.7546771E-02  0.1113728E+00
         21   -1    0    0  502  501  0.00000000000E+00  0.00000000000E+00  0.45264084734E+03  0.45264084734E+03  0.00000000000E+00 0.  1.
         21   -1    0    0  501  502 -0.00000000000E+00 -0.00000000000E+00 -0.13734029149E+03  0.13734029149E+03  0.00000000000E+00 0.  1.
         25    1    1    2    0    0 -0.63343909992E+02  0.25305895528E+02 -0.13255379832E+02  0.14301588854E+03  0.12500000000E+03 0.  0.
         25    1    1    2    0    0  0.10857394531E+03 -0.36725837887E+02  0.18630268652E+03  0.25193407823E+03  0.12500000000E+03 0.  0.
         25    1    1    2    0    0 -0.45230035321E+02  0.11419942358E+02  0.14225324916E+03  0.19503117206E+03  0.12500000000E+03 0.  0.
</event>
<event>
 5    0  0.5670250E-005  0.5464120E+03  0.7546771E-02  0.1002328E+00
         21   -1    0    0  502  501  0.00000000000E+00  0.00000000000E+00  0.22763012215E+03  0.22763012215E+03  0.00000000000E+00 0.  1.
         21   -1    0    0  501  502 -0.00000000000E+00 -0.00000000000E+00 -0.13116280236E+04  0.13116280236E+04  0.00000000000E+00 0.  1.
         25    1    1    2    0    0  0.14208772371E+03 -0.13122953148E+03 -0.75288035494E+03  0.78731438448E+03  0.12500000000E+03 0.  0.
         25    1    1    2    0    0 -0.31698306902E+03  0.22462534989E+02  0.12016292000E+01  0.34148100304E+03  0.12500000000E+03 0.  0.
         25    1    1    2    0    0  0.17489534531E+03  0.10876699649E+03 -0.33231917570E+03  0.41046275821E+03  0.12500000000E+03 0.  0.
</event>
<event>
 5    0  0.5670250E-005  0.4290961E+03  0.7546771E-02  0.1034146E+00
         21   -1    0    0  502  501  0.00000000000E+00  0.00000000000E+00  0.12906965913E+03  0.12906965913E+03  0.00000000000E+00 0.  1.
         21   -1    0    0  501  502 -0.00000000000E+00 -0.00000000000E+00 -0.14265433802E+04  0.14265433802E+04  0.00000000000E+00 0.  1.
         25    1    1    2    0    0 -0.24395588337E+03  0.10823082742E+03 -0.50887320254E+03  0.58805214165E+03  0.12500000000E+03 0.  0.
         25    1    1    2    0    0  0.11134536174E+03 -0.24410211277E+03 -0.26715854282E+03  0.39872586829E+03  0.12500000000E+03 0.  0.
         25    1    1    2    0    0  0.13261052163E+03  0.13587128536E+03 -0.52144197577E+03  0.56883502944E+03  0.12500000000E+03 0.  0.
</event>
<event>
 5    0  0.5670250E-005  0.3922703E+03  0.7546771E-02  0.1046490E+00
         21   -1    0    0  502  501  0.00000000000E+00  0.00000000000E+00  0.84302027066E+03  0.84302027066E+03  0.00000000000E+00 0. -1.
         21   -1    0    0  501  502 -0.00000000000E+00 -0.00000000000E+00 -0.18252943528E+03  0.18252943528E+03  0.00000000000E+00 0. -1.
         25    1    1    2    0    0 -0.24649667539E+03  0.71925338654E+02  0.21113992105E+03  0.35516043076E+03  0.12500000000E+03 0.  0.
         25    1    1    2    0    0  0.20223242747E+03 -0.19684401067E+03  0.22815725349E+03  0.38383101956E+03  0.12500000000E+03 0.  0.
         25    1    1    2    0    0  0.44264247925E+02  0.12491867202E+03  0.22119366084E+03  0.28655825561E+03  0.12500000000E+03 0.  0.
</event>
<event>
 5    0  0.5670250E-005  0.3109445E+03  0.7546771E-02  0.1079894E+00
         21   -1    0    0  502  501  0.00000000000E+00  0.00000000000E+00  0.10988474188E+03  0.10988474188E+03  0.00000000000E+00 0.  1.
         21   -1    0    0  501  502 -0.00000000000E+00 -0.00000000000E+00 -0.87989015161E+03  0.87989015161E+03  0.00000000000E+00 0.  1.
         25    1    1    2    0    0  0.40510940318E+02 -0.14263336718E+03 -0.35155770970E+02  0.19709475373E+03  0.12500000000E+03 0.  0.
         25    1    1    2    0    0 -0.15200554514E+02  0.10416913564E+03 -0.42937268880E+03  0.45942156192E+03  0.12500000000E+03 0.  0.
         25    1    1    2    0    0 -0.25310385804E+02  0.38464231538E+02 -0.30547694996E+03  0.33325857783E+03  0.12500000000E+03 0.  0.
</event>
<event>
 5    0  0.5670250E-005  0.2264695E+03  0.7546771E-02  0.1129150E+00
         21   -1    0    0  502  501  0.00000000000E+00  0.00000000000E+00  0.36355363824E+02  0.36355363824E+02  0.00000000000E+00 0. -1.
         21   -1    0    0  501  502 -0.00000000000E+00 -0.00000000000E+00 -0.14107530438E+04  0.14107530438E+04  0.00000000000E+00 0. -1.
         25    1    1    2    0    0  0.12533214734E+01  0.61495861534E+02 -0.60940261732E+03  0.62512387716E+03  0.12500000000E+03 0.  0.
         25    1    1    2    0    0  0.67403527336E+02 -0.48445106935E+02 -0.29994820758E+03  0.33538648022E+03  0.12500000000E+03 0.  0.
         25    1    1    2    0    0 -0.68656848810E+02 -0.13050754599E+02 -0.46504685503E+03  0.48659805020E+03  0.12500000000E+03 0.  0.
</event>
<event>
 5    0  0.5670250E-005  0.5382236E+03  0.7546771E-02  0.1004257E+00
         21   -1    0    0  502  501  0.00000000000E+00  0.00000000000E+00  0.19409077299E+04  0.19409077299E+04  0.00000000000E+00 0. -1.
         21   -1    0    0  501  502 -0.00000000000E+00 -0.00000000000E+00 -0.14925214574E+03  0.14925214574E+03  0.00000000000E+00 0. -1.
         25    1    1    2    0    0  0.44795580198E+02 -0.21103724315E+03  0.11326479770E+04  0.11597671326E+04  0.12500000000E+03 0.  0.
         25    1    1    2    0    0  0.11340360280E+02  0.29527303214E+03  0.69507468513E+03  0.76555116432E+03  0.12500000000E+03 0.  0.
         25    1    1    2    0    0 -0.56135940478E+02 -0.84235788993E+02 -0.36067077997E+02  0.16484157872E+03  0.12500000000E+03 0.  0.
</event>
<event>
 5    0  0.5670250E-005  0.2552865E+03  0.7546771E-02  0.1110009E+00
         21   -1    0    0  502  501  0.00000000000E+00  0.00000000000E+00  0.29567929504E+03  0.29567929504E+03  0.00000000000E+00 0.  1.
         21   -1    0    0  501  502 -0.00000000000E+00 -0.00000000000E+00 -0.22041173798E+03  0.22041173798E+03  0.00000000000E+00 0.  1.
         25    1    1    2    0    0  0.12242800229E+02  0.68721715171E+02 -0.40799886567E+02  0.14886971162E+03  0.12500000000E+03 0.  0.
         25    1    1    2    0    0 -0.53412204783E+02 -0.13711325119E+03  0.29005744944E+02  0.19524149280E+03  0.12500000000E+03 0.  0.
         25    1    1    2    0    0  0.41169404554E+02  0.68391536015E+02  0.87061698686E+02  0.17197982861E+03  0.12500000000E+03 0.  0.
</event>
<event>
 5    0  0.5670250E-005  0.3623560E+03  0.7546771E-02  0.1057655E+00
         21   -1    0    0  502  501  0.00000000000E+00  0.00000000000E+00  0.10881184129E+04  0.10881184129E+04  0.00000000000E+00 0. -1.
         21   -1    0    0  501  502 -0.00000000000E+00 -0.00000000000E+00 -0.12066871130E+03  0.12066871130E+03  0.00000000000E+00 0. -1.
         25    1    1    2    0    0  0.72735223535E+02 -0.63847729236E+02  0.59123657653E+03  0.61200705445E+03  0.12500000000E+03 0.  0.
         25    1    1    2    0    0 -0.13920701680E+03 -0.10602872871E+03  0.85271722929E+02  0.23133731123E+03  0.12500000000E+03 0.  0.
         25    1    1    2    0    0  0.66471793261E+02  0.16987645795E+03  0.29094140211E+03  0.36544275848E+03  0.12500000000E+03 0.  0.
</event>
<event>
 5    0  0.5670250E-005  0.5325887E+03  0.7546771E-02  0.1005606E+00
         21   -1    0    0  502  501  0.00000000000E+00  0.00000000000E+00  0.44475519095E+03  0.44475519095E+03  0.00000000000E+00 0.  1.
         21   -1    0    0  501  502 -0.00000000000E+00 -0.00000000000E+00 -0.63776813883E+03  0.63776813883E+03  0.00000000000E+00 0.  1.
         25    1    1    2    0    0  0.11511650033E+03  0.14162518092E+03 -0.65290505370E+02  0.23064550854E+03  0.12500000000E+03 0.  0.
         25    1    1    2    0    0 -0.32417824354E+03  0.19812163082E+03  0.38909445778E+02  0.40184905021E+03  0.12500000000E+03 0.  0.
         25    1    1    2    0    0  0.20906174321E+03 -0.33974681174E+03 -0.16663188828E+03  0.45002877103E+03  0.12500000000E+03 0.  0.
</event>
<event>
 5    0  0.5670250E-005  0.3165537E+03  0.7546771E-02  0.1077246E+00
         21   -1    0    0  502  501  0.00000000000E+00  0.00000000000E+00  0.67429960332E+02  0.67429960332E+02  0.00000000000E+00 0.  1.
         21   -1    0    0  501  502 -0.00000000000E+00 -0.00000000000E+00 -0.14860786081E+04  0.14860786081E+04  0.00000000000E+00 0.  1.
         25    1    1    2    0    0 -0.46831971329E+02  0.62232390828E+02 -0.69355528938E+03  0.70902048167E+03  0.12500000000E+03 0.  0.
         25    1    1    2    0    0 -0.10162886958E+03 -0.13190335250E+03 -0.48621828287E+03  0.52892356738E+03  0.12500000000E+03 0.  0.
         25    1    1    2    0    0  0.14846084091E+03  0.69670961675E+02 -0.23887507551E+03  0.31556451937E+03  0.12500000000E+03 0.  0.
</event>
<event>
 5    0  0.5670250E-005  0.4670489E+03  0.7546771E-02  0.1022756E+00
         21   -1    0    0  502  501  0.00000000000E+00  0.00000000000E+00  0.32313107433E+04  0.32313107433E+04  0.00000000000E+00 0.  1.
         21   -1    0    0  501  502 -0.00000000000E+00 -0.00000000000E+00 -0.67506561116E+02  0.67506561116E+02  0.00000000000E+00 0.  1.
         25    1    1    2    0    0  0.26011257227E+03  0.77641174813E+02  0.10639108083E+04  0.11050872863E+04  0.12500000000E+03 0.  0.
         25    1    1    2    0    0 -0.11776754875E+03  0.20952768217E+03  0.12028155444E+04  0.12329482061E+04  0.12500000000E+03 0.  0.
         25    1    1    2    0    0 -0.14234502352E+03 -0.28716885699E+03  0.89707782951E+03  0.96078181204E+03  0.12500000000E+03 0.  0.
</event>
<event>
 5    0  0.5670250E-005  0.3977639E+03  0.7546771E-02  0.1044557E+00
         21   -1    0    0  502  501  0.00000000000E+00  0.00000000000E+00  0.74170614553E+03  0.74170614553E+03  0.00000000000E+00 0. -1.
         21   -1    0    0  501  502 -0.00000000000E+00 -0.00000000000E+00 -0.21331371252E+03  0.21331371252E+03  0.00000000000E+00 0. -1.
         25    1    1    2    0    0  0.12631593805E+03  0.59394730751E+02  0.34695023908E+02  0.19055758954E+03  0.12500000000E+03 0.  0.
         25    1    1    2    0    0  0.11768867574E+03  0.15239353535E+03  0.13757140287E+03  0.26762904346E+03  0.12500000000E+03 0.  0.
         25    1    1    2    0    0 -0.24400461379E+03 -0.21178826611E+03  0.35612600622E+03  0.49683322505E+03  0.12500000000E+03 0.  0.
</event>
<event>
 5    0  0.5670250E-005  0.4438530E+03  0.7546771E-02  0.1029571E+00
         21   -1    0    0  502  501  0.00000000000E+00  0.00000000000E+00  0.17105278046E+03  0.17105278046E+03  0.00000000000E+00 0. -1.
         21   -1    0    0  501  502 -0.00000000000E+00 -0.00000000000E+00 -0.11517232922E+04  0.11517232922E+04  0.00000000000E+00 0. -1.
         25    1    1    2    0    0  0.18867510769E+03 -0.15025137713E+03 -0.29143564955E+03  0.39841374276E+03  0.12500000000E+03 0.  0.
         25    1    1    2    0    0 -0.33383425404E+03  0.71551859101E+01 -0.52368949699E+03  0.63353941876E+03  0.12500000000E+03 0.  0.
         25    1    1    2    0    0  0.14515914635E+03  0.14309619122E+03 -0.16554536520E+03  0.29082291115E+03  0.12500000000E+03 0.  0.
</event>
<event>
 5    0  0.5670250E-005  0.2928360E+03  0.7546771E-02  0.1088878E+00
         21   -1    0    0  502  501  0.00000000000E+00  0.00000000000E+00  0.14491018540E+04  0.14491018540E+04  0.00000000000E+00 0. -1.
         21   -1    0    0  501  502 -0.00000000000E+00 -0.00000000000E+00 -0.59176606286E+02  0.59176606286E+02  0.00000000000E+00 0. -1.
         25    1    1    2    0    0 -0.84814162044E+02  0.54965771135E+02  0.16540292580E+03  0.23064649562E+03  0.12500000000E+03 0.  0.
         25    1    1    2    0    0  0.30515884070E+02  0.82504912148E+02  0.74487535854E+03  0.76039633052E+03  0.12500000000E+03 0.  0.
         25    1    1    2    0    0  0.54298277974E+02 -0.13747068328E+03  0.47964696337E+03  0.51723563414E+03  0.12500000000E+03 0.  0.
</event>
<event>
 5    0  0.5670250E-005  0.2299902E+03  0.7546771E-02  0.1126647E+00
         21   -1    0    0  502  501  0.00000000000E+00  0.00000000000E+00  0.36372146544E+03  0.36372146544E+03  0.00000000000E+00 0.  1.
         21   -1    0    0  501  502 -0.00000000000E+00 -0.00000000000E+00 -0.14542863051E+03  0.14542863051E+03  0.00000000000E+00 0.  1.
         25    1    1    2    0    0 -0.51620315246E+02  0.83341803905E+02  0.73460451383E+02  0.17501985928E+03  0.12500000000E+03 0.  0.
         25    1    1    2    0    0  0.61346285541E+02 -0.35907364269E+02  0.10226138753E+02  0.14416060305E+03  0.12500000000E+03 0.  0.
         25    1    1    2    0    0 -0.97259702952E+01 -0.47434439636E+02  0.13460624479E+03  0.18996963362E+03  0.12500000000E+03 0.  0.
</event>
<event>
 5    0  0.5670250E-005  0.2915615E+03  0.7546771E-02  0.1089537E+00
         21   -1    0    0  502  501  0.00000000000E+00  0.00000000000E+00  0.22787352791E+03  0.22787352791E+03  0.00000000000E+00 0.  1.
         21   -1    0    0  501  502 -0.00000000000E+00 -0.00000000000E+00 -0.37304957507E+03  0.37304957507E+03  0.00000000000E+00 0.  1.
         25    1    1    2    0    0 -0.80500740934E+02 -0.26613031503E+02 -0.48707379879E+02  0.15870107621E+03  0.12500000000E+03 0.  0.
         25    1    1    2    0    0  0.12975616855E+03 -0.12020326927E+03 -0.10967056467E+03  0.24277174872E+03  0.12500000000E+03 0.  0.
         25    1    1    2    0    0 -0.49255427620E+02  0.14681630077E+03  0.13201897385E+02  0.19945027805E+03  0.12500000000E+03 0.  0.
</event>
<event>
 5    0  0.5670250E-005  0.3797747E+03  0.7546771E-02  0.1051017E+00
         21   -1    0    0  502  501  0.00000000000E+00  0.00000000000E+00  0.18733935635E+04  0.18733935635E+04  0.00000000000E+00 0. -1.
         21   -1    0    0  501  502 -0.00000000000E+00 -0.00000000000E+00 -0.76987986515E+02  0.76987986515E+02  0.00000000000E+00 0. -1.
         25    1    1    2    0    0 -0.32561530727E+02 -0.16125278600E+03  0.45811743055E+03  0.50255277777E+03  0.12500000000E+03 0.  0.
         25    1    1    2    0    0 -0.18867526502E+03 -0.58178937844E+01  0.37881487024E+03  0.44131384460E+03  0.12500000000E+03 0.  0.
         25    1    1    2    0    0  0.22123679575E+03  0.16707067978E+03  0.95947327622E+03  0.10065149277E+04  0.12500000000E+03 0.  0.
</event>
<event>
 5    0  0.5670250E-005  0.2691693E+03  0.7546771E-02  0.1101756E+00
         21   -1    0    0  502  501  0.00000000000E+00  0.00000000000E+00  0.17918215406E+03  0.17918215406E+03  0.00000000000E+00 0. -1.
         21   -1    0    0  501  502 -0.00000000000E+00 -0.00000000000E+00 -0.40434881866E+03  0.40434881866E+03  0.00000000000E+00 0. -1.
         25    1    1    2    0    0 -0.77724128865E+02 -0.19642180766E+01  0.77687495110E+01  0.14741184426E+03  0.12500000000E+03 0.  0.
         25    1    1    2    0    0  0.57307211163E+02  0.10992256027E+03 -0.20004371365E+03  0.26647621485E+03  0.12500000000E+03 0.  0.
         25    1    1    2    0    0  0.20416917702E+02 -0.10795834220E+03 -0.32891700459E+02  0.16964291361E+03  0.12500000000E+03 0.  0.
</event>
<event>
 5    0  0.5670250E-005  0.3012935E+03  0.7546771E-02  0.1084596E+00
         21   -1    0    0  502  501  0.00000000000E+00  0.00000000000E+00  0.50379471077E+02  0.50379471077E+02  0.00000000000E+00 0. -1.
         21   -1    0    0  501  502 -0.00000000000E+00 -0.00000000000E+00 -0.18018798976E+04  0.18018798976E+04  0.00000000000E+00 0. -1.
         25    1    1    2    0    0 -0.35474143082E+02 -0.15623552630E+02 -0.25337299068E+03  0.28517605550E+03  0.12500000000E+03 0.  0.
         25    1    1    2    0    0 -0.11660329845E+02  0.46497242738E+02 -0.11301457463E+03  0.17520060203E+03  0.12500000000E+03 0.  0.
         25    1    1    2    0    0  0.47134472928E+02 -0.30873690108E+02 -0.13851128613E+04  0.13918827112E+04  0.12500000000E+03 0.  0.
</event>
<event>
 5    0  0.5670250E-005  0.3823828E+03  0.7546771E-02  0.1050057E+00
         21   -1    0    0  502  501  0.00000000000E+00  0.00000000000E+00  0.41707369513E+03  0.41707369513E+03  0.00000000000E+00 0.  1.
         21   -1    0    0  501  502 -0.00000000000E+00 -0.00000000000E+00 -0.35057729700E+03  0.35057729700E+03  0.00000000000E+00 0.  1.
         25    1    1    2    0    0 -0.37689436559E+02 -0.36357643118E+02  0.18485556727E+03  0.22921377052E+03  0.12500000000E+03 0.  0.
         25    1    1    2    0    0  0.20000809968E+03 -0.49002156617E+02 -0.18827768624E+03  0.30574162037E+03  0.12500000000E+03 0.  0.
         25    1    1    2    0    0 -0.16231866312E+03  0.85359799736E+02  0.69918517083E+02  0.23269560125E+03  0.12500000000E+03 0.  0.
</event>
<event>
 5    0  0.5670250E-005  0.3769270E+03  0.7546771E-02  0.1052075E+00
         21   -1    0    0  502  501  0.00000000000E+00  0.00000000000E+00  0.15881207798E+03  0.15881207798E+03  0.00000000000E+00 0. -1.
         21   -1    0    0  501  502 -0.00000000000E+00 -0.00000000000E+00 -0.89460406104E+03  0.89460406104E+03  0.00000000000E+00 0. -1.
         25    1    1    2    0    0 -0.65039670126E+02 -0.25854307841E+01 -0.54947828074E+03  0.56726380472E+03  0.12500000000E+03 0.  0.
         25    1    1    2    0    0  0.63886769873E+02 -0.16671350118E+03 -0.16748080261E+03  0.27486311154E+03  0.12500000000E+03 0.  0.
         25    1    1    2    0    0  0.11529002536E+01  0.16929893197E+03 -0.18832899713E+02  0.21128922276E+03  0.12500000000E+03 0.  0.
</event>
<event>
 5    0  0.5670250E-005  0.3018342E+03  0.7546771E-02  0.1084327E+00
         21   -1    0    0  502  501  0.00000000000E+00  0.00000000000E+00  0.84916882597E+03  0.84916882597E+03  0.00000000000E+00 0.  1.
         21   -1    0    0  501  502 -0.00000000000E+00 -0.00000000000E+00 -0.10728594732E+03  0.10728594732E+03  0.00000000000E+00 0.  1.
         25    1    1    2    0    0  0.57734119260E+02  0.14249933792E+03  0.23515890274E+03  0.30751260034E+03  0.12500000000E+03 0.  0.
         25    1    1    2    0    0 -0.16177688298E+03 -0.12862708031E+03  0.32016955077E+03  0.40106137547E+03  0.12500000000E+03 0.  0.
         25    1    1    2    0    0  0.10404276372E+03 -0.13872257604E+02  0.18655442514E+03  0.24788079747E+03  0.12500000000E+03 0.  0.
</event>
<event>
 5    0  0.5670250E-005  0.3167017E+03  0.7546771E-02  0.1077177E+00
         21   -1    0    0  502  501  0.00000000000E+00  0.00000000000E+00  0.36395562843E+03  0.36395562843E+03  0.00000000000E+00 0.  1.
         21   -1    0    0  501  502 -0.00000000000E+00 -0.00000000000E+00 -0.27558300179E+03  0.27558300179E+03  0.00000000000E+00 0.  1.
         25    1    1    2    0    0  0.14382763156E+01  0.10943524854E+03  0.65186051281E+02  0.17847230470E+03  0.12500000000E+03 0.  0.
         25    1    1    2    0    0 -0.11705723268E+03 -0.28260408026E+01 -0.12448623870E+03  0.21173617040E+03  0.12500000000E+03 0.  0.
         25    1    1    2    0    0  0.11561895637E+03 -0.10660920774E+03  0.14767281405E+03  0.24933015513E+03  0.12500000000E+03 0.  0.
</event>
<event>
 5    0  0.5670250E-005  0.2610904E+03  0.7546771E-02  0.1106490E+00
         21   -1    0    0  502  501  0.00000000000E+00  0.00000000000E+00  0.21791892291E+03  0.21791892291E+03  0.00000000000E+00 0.  1.
         21   -1    0    0  501  502 -0.00000000000E+00 -0.00000000000E+00 -0.31281439522E+03  0.31281439522E+03  0.00000000000E+00 0.  1.
         25    1    1    2    0    0 -0.84613806816E+02 -0.10939897204E+03 -0.15925639011E+02  0.18709959210E+03  0.12500000000E+03 0.  0.
         25    1    1    2    0    0  0.27836593088E+02 -0.10197745528E+02 -0.96558624961E+02  0.16070917206E+03  0.12500000000E+03 0.  0.
         25    1    1    2    0    0  0.56777213728E+02  0.11959671757E+03  0.17588791659E+02  0.18292455397E+03  0.12500000000E+03 0.  0.
</event>
<event>
 5    0  0.5670250E-005  0.3339950E+03  0.7546771E-02  0.1069383E+00
         21   -1    0    0  502  501  0.00000000000E+00  0.00000000000E+00  0.23440622140E+03  0.23440622140E+03  0.00000000000E+00 0. -1.
         21   -1    0    0  501  502 -0.00000000000E+00 -0.00000000000E+00 -0.47589470416E+03  0.47589470416E+03  0.00000000000E+00 0. -1.
         25    1    1    2    0    0 -0.10853810848E+03  0.46839333050E+02  0.57019315302E-01  0.17204489927E+03  0.12500000000E+03 0.  0.
         25    1    1    2    0    0  0.94592315234E+02 -0.20568035307E+03 -0.58351115093E+02  0.26510746194E+03  0.12500000000E+03 0.  0.
         25    1    1    2    0    0  0.13945793243E+02  0.15884102002E+03 -0.18319438697E+03  0.27314856436E+03  0.12500000000E+03 0.  0.
</event>
<event>
 5    0  0.5670250E-005  0.3882037E+03  0.7546771E-02  0.1047943E+00
         21   -1    0    0  502  501  0.00000000000E+00  0.00000000000E+00  0.24832689545E+03  0.24832689545E+03  0.00000000000E+00 0.  1.
         21   -1    0    0  501  502 -0.00000000000E+00 -0.00000000000E+00 -0.60686994519E+03  0.60686994519E+03  0.00000000000E+00 0.  1.
         25    1    1    2    0    0  0.35526170173E+01 -0.62935893565E+02  0.14021858591E+03  0.19814085803E+03  0.12500000000E+03 0.  0.
         25    1    1    2    0    0  0.16098560391E+03  0.52833423690E+02 -0.17980151192E+03  0.27687780521E+03  0.12500000000E+03 0.  0.
         25    1    1    2    0    0 -0.16453822093E+03  0.10102469875E+02 -0.31896012372E+03  0.38017817740E+03  0.12500000000E+03 0.  0.
</event>
<event>
 5    0  0.5670250E-005  0.3495170E+03  0.7546771E-02  0.1062813E+00
         21   -1    0    0  502  501  0.00000000000E+00  0.00000000000E+00  0.88664559177E+03  0.88664559177E+03  0.00000000000E+00 0.  1.
         21   -1    0    0  501  502 -0.00000000000E+00 -0.00000000000E+00 -0.13778011528E+03  0.13778011528E+03  0.00000000000E+00 0.  1.
         25    1    1    2    0    0 -0.20363581581E+02 -0.27403341685E+03  0.30149522631E+03  0.42665367746E+03  0.12500000000E+03 0.  0.
         25    1    1    2    0    0 -0.24575407868E+02  0.66703021485E+02  0.21867024370E+03  0.26171534006E+03  0.12500000000E+03 0.  0.
         25    1    1    2    0    0  0.44938989450E+02  0.20733039536E+03  0.22870000649E+03  0.33605668953E+03  0.12500000000E+03 0.  0.
</event>
<event>
 5    0  0.5670250E-005  0.2173383E+03  0.7546771E-02  0.1135883E+00
         21   -1    0    0  502  501  0.00000000000E+00  0.00000000000E+00  0.23195837109E+02  0.23195837109E+02  0.00000000000E+00 0.  1.
         21   -1    0    0  501  502 -0.00000000000E+00 -0.00000000000E+00 -0.20363971444E+04  0.20363971444E+04  0.00000000000E+00 0.  1.
         25    1    1    2    0    0 -0.21187227305E+02  0.31519932105E+02 -0.85939443098E+03  0.86926761859E+03  0.12500000000E+03 0.  0.
         25    1    1    2    0    0  0.79955979282E+02 -0.94697755521E+01 -0.49575515997E+03  0.51757203741E+03  0.12500000000E+03 0.  0.
         25    1    1    2    0    0 -0.58768751977E+02 -0.22050156553E+02 -0.65805171638E+03  0.67275332556E+03  0.12500000000E+03 0.  0.
</event>
<event>
 5    0  0.5670250E-005  0.3071980E+03  0.7546771E-02  0.1081697E+00
         21   -1    0    0  502  501  0.00000000000E+00  0.00000000000E+00  0.44951728446E+03  0.44951728446E+03  0.00000000000E+00 0.  1.
         21   -1    0    0  501  502 -0.00000000000E+00 -0.00000000000E+00 -0.20993762974E+03  0.20993762974E+03  0.00000000000E+00 0.  1.
         25    1    1    2    0    0  0.10431915872E+03  0.14140026165E+03  0.11344817635E+03  0.24366372234E+03  0.12500000000E+03 0.  0.
         25    1    1    2    0    0  0.40896326122E+02  0.53188453966E+01 -0.20788304806E+02  0.13325897052E+03  0.12500000000E+03 0.  0.
         25    1    1    2    0    0 -0.14521548484E+03 -0.14671910704E+03  0.14691978317E+03  0.28253222134E+03  0.12500000000E+03 0.  0.
</event>
<event>
 5    0  0.5670250E-005  0.4965299E+03  0.7546771E-02  0.1014689E+00
         21   -1    0    0  502  501  0.00000000000E+00  0.00000000000E+00  0.12389931516E+04  0.12389931516E+04  0.00000000000E+00 0. -1.
         21   -1    0    0  501  502 -0.00000000000E+00 -0.00000000000E+00 -0.19898568138E+03  0.19898568138E+03  0.00000000000E+00 0. -1.
         25    1    1    2    0    0 -0.17196105479E+03  0.28127287595E+03  0.15536894016E+03  0.38529150351E+03  0.12500000000E+03 0.  0.
         25    1    1    2    0    0 -0.11394432857E+03 -0.14573287601E+03  0.27168121039E+03  0.35164905978E+03  0.12500000000E+03 0.  0.
         25    1    1    2    0    0  0.28590538337E+03 -0.13553999994E+03  0.61295731965E+03  0.70103826967E+03  0.12500000000E+03 0.  0.
</event>
<event>
 5    0  0.5670250E-005  0.3125149E+03  0.7546771E-02  0.1079147E+00
         21   -1    0    0  502  501  0.00000000000E+00  0.00000000000E+00  0.51249820114E+03  0.51249820114E+03  0.00000000000E+00 0.  1.
         21   -1    0    0  501  502 -0.00000000000E+00 -0.00000000000E+00 -0.19056767583E+03  0.19056767583E+03  0.00000000000E+00 0.  1.
         25    1    1    2    0    0  0.90682463000E+02 -0.11113531571E+03  0.68354974778E+02  0.20216767811E+03  0.12500000000E+03 0.  0.
         25    1    1    2    0    0 -0.19636943589E+02  0.31043338113E+02 -0.62529765877E+02  0.14451390942E+03  0.12500000000E+03 0.  0.
         25    1    1    2    0    0 -0.71045519410E+02  0.80091977597E+02  0.31610531641E+03  0.35638428945E+03  0.12500000000E+03 0.  0.
</event>
