<event>
 5    0  0.5503691E-005  0.2425386E+03  0.7546771E-02  0.1118113E+00
         21   -1    0    0  502  501  0.00000000000E+00  0.00000000000E+00  0.27386801558E+02  0.27386801558E+02  0.00000000000E+00 0. -1.
         21   -1    0    0  501  502 -0.00000000000E+00 -0.00000000000E+00 -0.21479315608E+04  0.21479315608E+04  0.00000000000E+00 0. -1.
         25    1    1    2    0    0  0.43654813733E+02 -0.51689194901E+02 -0.85991302149E+03  0.87158070203E+03  0.12500000000E+03 0.  0.
         25    1    1    2    0    0 -0.11652286401E+03  0.48853956612E+02 -0.53294169728E+03  0.56179724066E+03  0.12500000000E+03 0.  0.
         25    1    1    2    0    0  0.72868050277E+02  0.28352382887E+01 -0.72769004044E+03  0.74194041963E+03  0.12500000000E+03 0.  0.
</event>
<event>
 5    0  0.5681906E-005  0.2535150E+03  0.7546771E-02  0.1111103E+00
         21   -1    0    0  502  501  0.00000000000E+00  0.00000000000E+00  0.12617546657E+03  0.12617546657E+03  0.00000000000E+00 0. -1.
         21   -1    0    0  501  502 -0.00000000000E+00 -0.00000000000E+00 -0.50936907161E+03  0.50936907161E+03  0.00000000000E+00 0. -1.
         25    1    1    2    0    0  0.50243458999E+02  0.16260789443E+02 -0.23105990235E+02  0.13765066375E+03  0.12500000000E+03 0.  0.
         25    1    1    2    0    0 -0.87271864719E+02  0.27763845883E+02 -0.57135781346E+02  0.16515661361E+03  0.12500000000E+03 0.  0.
         25    1    1    2    0    0  0.37028405720E+02 -0.44024635326E+02 -0.30295183346E+03  0.33273726083E+03  0.12500000000E+03 0.  0.
</event>
<event>
 5    0  0.5503691E-005  0.3053289E+03  0.7546771E-02  0.1082607E+00
         21   -1    0    0  502  501  0.00000000000E+00  0.00000000000E+00  0.83307716019E+03  0.83307716019E+03  0.00000000000E+00 0.  1.
         21   -1    0    0  501  502 -0.00000000000E+00 -0.00000000000E+00 -0.11190530587E+03  0.11190530587E+03  0.00000000000E+00 0.  1.
         25    1    1    2    0    0  0.15781988430E+01  0.58223283509E+02  0.42396192243E+03  0.44582637105E+03  0.12500000000E+03 0.  0.
         25    1    1    2    0    0  0.99096004175E+02 -0.67592462090E+02  0.14400820387E+02  0.17384229233E+03  0.12500000000E+03 0.  0.
         25    1    1    2    0    0 -0.10067420302E+03  0.93691785808E+01  0.28280911151E+03  0.32531380268E+03  0.12500000000E+03 0.  0.
</event>
<event>
 5    0  0.5503691E-005  0.4492742E+03  0.7546771E-02  0.1027939E+00
         21   -1    0    0  502  501  0.00000000000E+00  0.00000000000E+00  0.89242530522E+03  0.89242530522E+03  0.00000000000E+00 0. -1.
         21   -1    0    0  501  502 -0.00000000000E+00 -0.00000000000E+00 -0.22617836207E+03  0.22617836207E+03  0.00000000000E+00 0. -1.
         25    1    1    2    0    0 -0.21725147764E+03  0.21943842246E+03  0.39277352396E+03  0.51502181207E+03  0.12500000000E+03 0.  0.
         25    1    1    2    0    0  0.23069176676E+03  0.10251811259E+02  0.20445632962E+03  0.33279300114E+03  0.12500000000E+03 0.  0.
         25    1    1    2    0    0 -0.13440289125E+02 -0.22969023372E+03  0.69017089570E+02  0.27078885407E+03  0.12500000000E+03 0.  0.
</event>
<event>
 5    0  0.5503691E-005  0.3924118E+03  0.7546771E-02  0.1046439E+00
         21   -1    0    0  502  501  0.00000000000E+00  0.00000000000E+00  0.21349449547E+03  0.21349449547E+03  0.00000000000E+00 0. -1.
         21   -1    0    0  501  502 -0.00000000000E+00 -0.00000000000E+00 -0.72126937327E+03  0.72126937327E+03  0.00000000000E+00 0. -1.
         25    1    1    2    0    0  0.44485240368E+02  0.10505148637E+03 -0.29368865359E+03  0.33895837008E+03  0.12500000000E+03 0.  0.
         25    1    1    2    0    0  0.80482719572E+02  0.31960615905E+02  0.12004464752E+03  0.19373865519E+03  0.12500000000E+03 0.  0.
         25    1    1    2    0    0 -0.12496795994E+03 -0.13701210227E+03 -0.33413087172E+03  0.40206684347E+03  0.12500000000E+03 0.  0.
</event>
<event>
 5    0  0.5503691E-005  0.2998969E+03  0.7546771E-02  0.1085292E+00
         21   -1    0    0  502  501  0.00000000000E+00  0.00000000000E+00  0.27181826055E+03  0.27181826055E+03  0.00000000000E+00 0.  1.
         21   -1    0    0  501  502 -0.00000000000E+00 -0.00000000000E+00 -0.33087613155E+03  0.33087613155E+03  0.00000000000E+00 0.  1.
         25    1    1    2    0    0  0.11192389931E+02  0.15221006690E+03  0.41583796037E+01  0.19732071908E+03  0.12500000000E+03 0.  0.
         25    1    1    2    0    0  0.47050442410E+02  0.53165957607E+02  0.18288938389E+02  0.14491324455E+03  0.12500000000E+03 0.  0.
         25    1    1    2    0    0 -0.58242832341E+02 -0.20537602451E+03 -0.81505188996E+02  0.26046042846E+03  0.12500000000E+03 0.  0.
</event>
<event>
 5    0  0.5503691E-005  0.2761303E+03  0.7546771E-02  0.1097821E+00
         21   -1    0    0  502  501  0.00000000000E+00  0.00000000000E+00  0.11553924755E+03  0.11553924755E+03  0.00000000000E+00 0. -1.
         21   -1    0    0  501  502 -0.00000000000E+00 -0.00000000000E+00 -0.65993096056E+03  0.65993096056E+03  0.00000000000E+00 0. -1.
         25    1    1    2    0    0  0.95177033100E+02  0.10968765032E+03 -0.17817414905E+03  0.26165067486E+03  0.12500000000E+03 0.  0.
         25    1    1    2    0    0  0.51228161092E+02 -0.70341223200E+02 -0.97176262527E+02  0.18066664930E+03  0.12500000000E+03 0.  0.
         25    1    1    2    0    0 -0.14640519419E+03 -0.39346427122E+02 -0.26904130143E+03  0.33315288396E+03  0.12500000000E+03 0.  0.
</event>
<event>
 5    0  0.5503691E-005  0.3338830E+03  0.7546771E-02  0.1069432E+00
         21   -1    0    0  502  501  0.00000000000E+00  0.00000000000E+00  0.85404824875E+02  0.85404824875E+02  0.00000000000E+00 0. -1.
         21   -1    0    0  501  502 -0.00000000000E+00 -0.00000000000E+00 -0.13052878384E+04  0.13052878384E+04  0.00000000000E+00 0. -1.
         25    1    1    2    0    0  0.40253595582E+02  0.42064375869E+01 -0.59026528063E+02  0.14403880411E+03  0.12500000000E+03 0.  0.
         25    1    1    2    0    0 -0.18500295455E+03 -0.80750310748E+02 -0.48324773346E+03  0.53842369726E+03  0.12500000000E+03 0.  0.
         25    1    1    2    0    0  0.14474935897E+03  0.76543873161E+02 -0.67760875197E+03  0.70823016187E+03  0.12500000000E+03 0.  0.
</event>
<event>
 5    0  0.5503691E-005  0.4210119E+03  0.7546771E-02  0.1036737E+00
         21   -1    0    0  502  501  0.00000000000E+00  0.00000000000E+00  0.99302047807E+03  0.99302047807E+03  0.00000000000E+00 0.  1.
         21   -1    0    0  501  502 -0.00000000000E+00 -0.00000000000E+00 -0.17849680219E+03  0.17849680219E+03  0.00000000000E+00 0.  1.
         25    1    1    2    0    0 -0.20344442707E+02  0.16328179324E+03  0.26291211515E+02  0.20830522834E+03  0.12500000000E+03 0.  0.
         25    1    1    2    0    0  0.19881269001E+03  0.11788046599E+02  0.54162649117E+03  0.59046566343E+03  0.12500000000E+03 0.  0.
         25    1    1    2    0    0 -0.17846824730E+03 -0.17506983983E+03  0.24660597320E+03  0.37274638849E+03  0.12500000000E+03 0.  0.
</event>
<event>
 5    0  0.5503691E-005  0.2602580E+03  0.7546771E-02  0.1106988E+00
         21   -1    0    0  502  501  0.00000000000E+00  0.00000000000E+00  0.11901375821E+04  0.11901375821E+04  0.00000000000E+00 0.  1.
         21   -1    0    0  501  502 -0.00000000000E+00 -0.00000000000E+00 -0.56912935063E+02  0.56912935063E+02  0.00000000000E+00 0.  1.
         25    1    1    2    0    0 -0.17999473541E+02 -0.38813185581E+02  0.21458823158E+03  0.25199911420E+03  0.12500000000E+03 0.  0.
         25    1    1    2    0    0  0.11003422292E+03  0.41648080800E+01  0.20622007801E+03  0.26509733385E+03  0.12500000000E+03 0.  0.
         25    1    1    2    0    0 -0.92034749380E+02  0.34648377501E+02  0.71241633742E+03  0.72995406909E+03  0.12500000000E+03 0.  0.
</event>
<event>
 5    0  0.5503691E-005  0.3184555E+03  0.7546771E-02  0.1076362E+00
         21   -1    0    0  502  501  0.00000000000E+00  0.00000000000E+00  0.83476522730E+02  0.83476522730E+02  0.00000000000E+00 0.  1.
         21   -1    0    0  501  502 -0.00000000000E+00 -0.00000000000E+00 -0.12148791440E+04  0.12148791440E+04  0.00000000000E+00 0.  1.
         25    1    1    2    0    0  0.13193225408E+02  0.15165966159E+03 -0.30902004502E+03  0.36646023301E+03  0.12500000000E+03 0.  0.
         25    1    1    2    0    0 -0.11390067118E+03  0.52975787719E+02 -0.30251986622E+03  0.35060385970E+03  0.12500000000E+03 0.  0.
         25    1    1    2    0    0  0.10070744577E+03 -0.20463544931E+03 -0.51986271002E+03  0.58129157401E+03  0.12500000000E+03 0.  0.
</event>
<event>
 5    0  0.5503691E-005  0.2528553E+03  0.7546771E-02  0.1111514E+00
         21   -1    0    0  502  501  0.00000000000E+00  0.00000000000E+00  0.31519570477E+03  0.31519570477E+03  0.00000000000E+00 0.  1.
         21   -1    0    0  501  502 -0.00000000000E+00 -0.00000000000E+00 -0.20284479266E+03  0.20284479266E+03  0.00000000000E+00 0.  1.
         25    1    1    2    0    0  0.20817845920E+02  0.15289994849E+03  0.96721186983E+01  0.19882234994E+03  0.12500000000E+03 0.  0.
         25    1    1    2    0    0 -0.31881672671E+02 -0.93033167937E+02  0.81045528432E+02  0.17850767229E+03  0.12500000000E+03 0.  0.
         25    1    1    2    0    0  0.11063826751E+02 -0.59866780552E+02  0.21633264974E+02  0.14071047519E+03  0.12500000000E+03 0.  0.
</event>
<event>
 5    0  0.5503691E-005  0.2800770E+03  0.7546771E-02  0.1095647E+00
         21   -1    0    0  502  501  0.00000000000E+00  0.00000000000E+00  0.14585943266E+03  0.14585943266E+03  0.00000000000E+00 0.  1.
         21   -1    0    0  501  502 -0.00000000000E+00 -0.00000000000E+00 -0.53779959485E+03  0.53779959485E+03  0.00000000000E+00 0.  1.
         25    1    1    2    0    0 -0.90420187809E+02 -0.64820089995E+02  0.13056790328E+02  0.16784794966E+03  0.12500000000E+03 0.  0.
         25    1    1    2    0    0  0.56088573341E+02  0.64082875558E+02 -0.33709379621E+03  0.36947228643E+03  0.12500000000E+03 0.  0.
         25    1    1    2    0    0  0.34331614468E+02  0.73721443705E+00 -0.67903156302E+02  0.14633879142E+03  0.12500000000E+03 0.  0.
</event>
<event>
 5    0  0.5503691E-005  0.3323580E+03  0.7546771E-02  0.1070098E+00
         21   -1    0    0  502  501  0.00000000000E+00  0.00000000000E+00  0.32316450669E+03  0.32316450669E+03  0.00000000000E+00 0. -1.
         21   -1    0    0  501  502 -0.00000000000E+00 -0.00000000000E+00 -0.34181302057E+03  0.34181302057E+03  0.00000000000E+00 0. -1.
         25    1    1    2    0    0  0.12753318728E+03 -0.73326932922E+02  0.17531910961E+02  0.19383993617E+03  0.12500000000E+03 0.  0.
         25    1    1    2    0    0 -0.85638243698E+01  0.11619095720E+03 -0.17572605076E+03  0.24510879735E+03  0.12500000000E+03 0.  0.
         25    1    1    2    0    0 -0.11896936292E+03 -0.42864024282E+02  0.13954562592E+03  0.22602879375E+03  0.12500000000E+03 0.  0.
</event>
<event>
 5    0  0.8106172E-005  0.5553181E+03  0.7546771E-02  0.1000270E+00
         21   -1    0    0  502  501  0.00000000000E+00  0.00000000000E+00  0.53323580405E+03  0.53323580405E+03  0.00000000000E+00 0. -1.
         21   -1    0    0  501  502 -0.00000000000E+00 -0.00000000000E+00 -0.57831494126E+03  0.57831494126E+03  0.00000000000E+00 0. -1.
         25    1    1    2    0    0  0.19276925717E+03  0.22921877864E+02  0.27035981159E+03  0.35553456473E+03  0.12500000000E+03 0.  0.
         25    1    1    2    0    0 -0.37337030025E+03  0.30459861160E+02 -0.35926291458E+02  0.39654619235E+03  0.12500000000E+03 0.  0.
         25    1    1    2    0    0  0.18060104308E+03 -0.53381739024E+02 -0.27951265735E+03  0.35946998823E+03  0.12500000000E+03 0.  0.
</event>
<event>
 5    0  0.5503691E-005  0.3013593E+03  0.7546771E-02  0.1084563E+00
         21   -1    0    0  502  501  0.00000000000E+00  0.00000000000E+00  0.63289175420E+02  0.63289175420E+02  0.00000000000E+00 0. -1.
         21   -1    0    0  501  502 -0.00000000000E+00 -0.00000000000E+00 -0.14349603558E+04  0.14349603558E+04  0.00000000000E+00 0. -1.
         25    1    1    2    0    0 -0.58288209340E+02  0.79057122306E+02 -0.59228603008E+03  0.61324977404E+03  0.12500000000E+03 0.  0.
         25    1    1    2    0    0 -0.66309014061E+02  0.93992926138E+02 -0.36289281103E+03  0.40068409977E+03  0.12500000000E+03 0.  0.
         25    1    1    2    0    0  0.12459722340E+03 -0.17305004844E+03 -0.41649233931E+03  0.48431565745E+03  0.12500000000E+03 0.  0.
</event>
<event>
 5    0  0.5503691E-005  0.3471822E+03  0.7546771E-02  0.1063778E+00
         21   -1    0    0  502  501  0.00000000000E+00  0.00000000000E+00  0.41786267502E+03  0.41786267502E+03  0.00000000000E+00 0.  1.
         21   -1    0    0  501  502 -0.00000000000E+00 -0.00000000000E+00 -0.28845716106E+03  0.28845716106E+03  0.00000000000E+00 0.  1.
         25    1    1    2    0    0  0.79903544097E+02 -0.10030116764E+03 -0.97779435595E+02  0.20403607185E+03  0.12500000000E+03 0.  0.
         25    1    1    2    0    0 -0.18927681941E+03  0.14381304929E+03  0.92488292827E+02  0.28405455783E+03  0.12500000000E+03 0.  0.
         25    1    1    2    0    0  0.10937327531E+03 -0.43511881648E+02  0.13469665673E+03  0.21822920641E+03  0.12500000000E+03 0.  0.
</event>
<event>
 5    0  0.5503691E-005  0.2828063E+03  0.7546771E-02  0.1094166E+00
         21   -1    0    0  502  501  0.00000000000E+00  0.00000000000E+00  0.10537510166E+03  0.10537510166E+03  0.00000000000E+00 0. -1.
         21   -1    0    0  501  502 -0.00000000000E+00 -0.00000000000E+00 -0.75899699075E+03  0.75899699075E+03  0.00000000000E+00 0. -1.
         25    1    1    2    0    0 -0.59783527900E+02  0.21215643624E+02 -0.18127947761E+03  0.22915370987E+03  0.12500000000E+03 0.  0.
         25    1    1    2    0    0  0.19001370544E+03  0.18555487144E+02 -0.33322868383E+03  0.40387605782E+03  0.12500000000E+03 0.  0.
         25    1    1    2    0    0 -0.13023017754E+03 -0.39771130767E+02 -0.13911372765E+03  0.23134232472E+03  0.12500000000E+03 0.  0.
</event>
<event>
 5    0  0.5503691E-005  0.3432166E+03  0.7546771E-02  0.1065434E+00
         21   -1    0    0  502  501  0.00000000000E+00  0.00000000000E+00  0.69756306120E+02  0.69756306120E+02  0.00000000000E+00 0. -1.
         21   -1    0    0  501  502 -0.00000000000E+00 -0.00000000000E+00 -0.16887026995E+04  0.16887026995E+04  0.00000000000E+00 0. -1.
         25    1    1    2    0    0 -0.16419810119E+03  0.78043278951E+02 -0.57814282378E+03  0.61881006336E+03  0.12500000000E+03 0.  0.
         25    1    1    2    0    0  0.20355994564E+03  0.85452814406E+02 -0.53234276126E+03  0.58970556248E+03  0.12500000000E+03 0.  0.
         25    1    1    2    0    0 -0.39361844443E+02 -0.16349609336E+03 -0.50846080829E+03  0.54994337973E+03  0.12500000000E+03 0.  0.
</event>
<event>
 5    0  0.5503691E-005  0.3303652E+03  0.7546771E-02  0.1070975E+00
         21   -1    0    0  502  501  0.00000000000E+00  0.00000000000E+00  0.63767641276E+02  0.63767641276E+02  0.00000000000E+00 0. -1.
         21   -1    0    0  501  502 -0.00000000000E+00 -0.00000000000E+00 -0.17115449108E+04  0.17115449108E+04  0.00000000000E+00 0. -1.
         25    1    1    2    0    0 -0.40004088864E+02  0.13652765588E+03 -0.27298817229E+03  0.33224639976E+03  0.12500000000E+03 0.  0.
         25    1    1    2    0    0  0.45326385510E+02 -0.21726554957E+03 -0.56589499417E+03  0.62058113464E+03  0.12500000000E+03 0.  0.
         25    1    1    2    0    0 -0.53222966457E+01  0.80737893690E+02 -0.80889410310E+03  0.82248501770E+03  0.12500000000E+03 0.  0.
</event>
<event>
 5    0  0.5503691E-005  0.3325559E+03  0.7546771E-02  0.1070012E+00
         21   -1    0    0  502  501  0.00000000000E+00  0.00000000000E+00  0.76554748785E+02  0.76554748785E+02  0.00000000000E+00 0. -1.
         21   -1    0    0  501  502 -0.00000000000E+00 -0.00000000000E+00 -0.14446318564E+04  0.14446318564E+04  0.00000000000E+00 0. -1.
         25    1    1    2    0    0  0.12167935752E+03 -0.11095110480E+03 -0.19247412226E+03  0.28246646074E+03  0.12500000000E+03 0.  0.
         25    1    1    2    0    0 -0.14710479093E+03  0.76475302359E+02 -0.98593671255E+03  0.10075636419E+04  0.12500000000E+03 0.  0.
         25    1    1    2    0    0  0.25425433406E+02  0.34475802446E+02 -0.18966627284E+03  0.23115650255E+03  0.12500000000E+03 0.  0.
</event>
<event>
 5    0  0.5503691E-005  0.2287583E+03  0.7546771E-02  0.1127517E+00
         21   -1    0    0  502  501  0.00000000000E+00  0.00000000000E+00  0.93317519361E+02  0.93317519361E+02  0.00000000000E+00 0. -1.
         21   -1    0    0  501  502 -0.00000000000E+00 -0.00000000000E+00 -0.56077736823E+03  0.56077736823E+03  0.00000000000E+00 0. -1.
         25    1    1    2    0    0 -0.39625288828E+02  0.21466041940E+02 -0.97769257040E+02  0.16496903374E+03  0.12500000000E+03 0.  0.
         25    1    1    2    0    0  0.22985106940E+02 -0.21338601536E+02 -0.38133818045E+02  0.13439806225E+03  0.12500000000E+03 0.  0.
         25    1    1    2    0    0  0.16640181888E+02 -0.12744040394E+00 -0.33155677378E+03  0.35472779160E+03  0.12500000000E+03 0.  0.
</event>
<event>
 5    0  0.5503691E-005  0.3478223E+03  0.7546771E-02  0.1063512E+00
         21   -1    0    0  502  501  0.00000000000E+00  0.00000000000E+00  0.20595006513E+03  0.20595006513E+03  0.00000000000E+00 0.  1.
         21   -1    0    0  501  502 -0.00000000000E+00 -0.00000000000E+00 -0.58742563226E+03  0.58742563226E+03  0.00000000000E+00 0.  1.
         25    1    1    2    0    0  0.18141011811E+02 -0.86643758274E+01  0.13268434479E+02  0.12729972141E+03  0.12500000000E+03 0.  0.
         25    1    1    2    0    0  0.78436613889E+02  0.14687469467E+03 -0.40558576806E+03  0.45590491727E+03  0.12500000000E+03 0.  0.
         25    1    1    2    0    0 -0.96577625700E+02 -0.13821031885E+03  0.10841766456E+02  0.21017105871E+03  0.12500000000E+03 0.  0.
</event>
<event>
 5    0  0.5503691E-005  0.3252112E+03  0.7546771E-02  0.1073276E+00
         21   -1    0    0  502  501  0.00000000000E+00  0.00000000000E+00  0.17574085773E+04  0.17574085773E+04  0.00000000000E+00 0. -1.
         21   -1    0    0  501  502 -0.00000000000E+00 -0.00000000000E+00 -0.60180830824E+02  0.60180830824E+02  0.00000000000E+00 0. -1.
         25    1    1    2    0    0 -0.38633228552E+02  0.10175488252E+02  0.31682786183E+03  0.34292996507E+03  0.12500000000E+03 0.  0.
         25    1    1    2    0    0  0.10955029600E+03 -0.18554666911E+03  0.10108961226E+04  0.10411363045E+04  0.12500000000E+03 0.  0.
         25    1    1    2    0    0 -0.70917067443E+02  0.17537118086E+03  0.36950376201E+03  0.43352313857E+03  0.12500000000E+03 0.  0.
</event>
<event>
 5    0  0.5503691E-005  0.4483864E+03  0.7546771E-02  0.1028204E+00
         21   -1    0    0  502  501  0.00000000000E+00  0.00000000000E+00  0.18371348394E+03  0.18371348394E+03  0.00000000000E+00 0. -1.
         21   -1    0    0  501  502 -0.00000000000E+00 -0.00000000000E+00 -0.10943690638E+04  0.10943690638E+04  0.00000000000E+00 0. -1.
         25    1    1    2    0    0 -0.18730838777E+03 -0.25695934298E+03 -0.21451908603E+03  0.40343025958E+03  0.12500000000E+03 0.  0.
         25    1    1    2    0    0  0.13216627267E+03  0.16517349309E+03 -0.66258215189E+03  0.70667553690E+03  0.12500000000E+03 0.  0.
         25    1    1    2    0    0  0.55142115104E+02  0.91785849891E+02 -0.33554341941E+02  0.16797675125E+03  0.12500000000E+03 0.  0.
</event>
<event>
 5    0  0.5503691E-005  0.2762061E+03  0.7546771E-02  0.1097779E+00
         21   -1    0    0  502  501  0.00000000000E+00  0.00000000000E+00  0.22520227231E+03  0.22520227231E+03  0.00000000000E+00 0. -1.
         21   -1    0    0  501  502 -0.00000000000E+00 -0.00000000000E+00 -0.33876131017E+03  0.33876131017E+03  0.00000000000E+00 0. -1.
         25    1    1    2    0    0 -0.95709072433E+02  0.65718922691E+02 -0.60118528892E+02  0.18088239511E+03  0.12500000000E+03 0.  0.
         25    1    1    2    0    0  0.92753655190E+02 -0.14693956042E+03  0.23428656795E+02  0.21533317656E+03  0.12500000000E+03 0.  0.
         25    1    1    2    0    0  0.29554172424E+01  0.81220637726E+02 -0.76869165764E+02  0.16774801080E+03  0.12500000000E+03 0.  0.
</event>
<event>
 5    0  0.5503691E-005  0.2930776E+03  0.7546771E-02  0.1088753E+00
         21   -1    0    0  502  501  0.00000000000E+00  0.00000000000E+00  0.92320535778E+02  0.92320535778E+02  0.00000000000E+00 0. -1.
         21   -1    0    0  501  502 -0.00000000000E+00 -0.00000000000E+00 -0.93039389519E+03  0.93039389519E+03  0.00000000000E+00 0. -1.
         25    1    1    2    0    0 -0.43704284160E+02  0.15789466388E+03 -0.30108251923E+03  0.36485130220E+03  0.12500000000E+03 0.  0.
         25    1    1    2    0    0  0.51970533755E+02 -0.16091126664E+03 -0.17106099647E+03  0.27107238263E+03  0.12500000000E+03 0.  0.
         25    1    1    2    0    0 -0.82662495954E+01  0.30166027605E+01 -0.36592984372E+03  0.38679074614E+03  0.12500000000E+03 0.  0.
</event>
<event>
 5    0  0.5503691E-005  0.2950679E+03  0.7546771E-02  0.1087732E+00
         21   -1    0    0  502  501  0.00000000000E+00  0.00000000000E+00  0.59466869255E+02  0.59466869255E+02  0.00000000000E+00 0. -1.
         21   -1    0    0  501  502 -0.00000000000E+00 -0.00000000000E+00 -0.14640934813E+04  0.14640934813E+04  0.00000000000E+00 0. -1.
         25    1    1    2    0    0 -0.35066877257E+02  0.25770443179E+01 -0.80838106153E+03  0.81874371307E+03  0.12500000000E+03 0.  0.
         25    1    1    2    0    0  0.13363090624E+03  0.61924998679E+02 -0.39877653919E+03  0.44310230509E+03  0.12500000000E+03 0.  0.
         25    1    1    2    0    0 -0.98564028980E+02 -0.64502042997E+02 -0.19746901136E+03  0.26171433245E+03  0.12500000000E+03 0.  0.
</event>
<event>
 5    0  0.6000272E-005  0.2674383E+03  0.7546771E-02  0.1102755E+00
         21   -1    0    0  502  501  0.00000000000E+00  0.00000000000E+00  0.21816683112E+03  0.21816683112E+03  0.00000000000E+00 0.  1.
         21   -1    0    0  501  502 -0.00000000000E+00 -0.00000000000E+00 -0.32783740397E+03  0.32783740397E+03  0.00000000000E+00 0.  1.
         25    1    1    2    0    0 -0.67138996407E+01  0.25101160957E+02 -0.10431637103E+03  0.16486979710E+03  0.12500000000E+03 0.  0.
         25    1    1    2    0    0  0.79242983589E+02 -0.13218489161E+03  0.20191347292E+02  0.19946174201E+03  0.12500000000E+03 0.  0.
         25    1    1    2    0    0 -0.72529083949E+02  0.10708373066E+03 -0.25545549111E+02  0.18167269599E+03  0.12500000000E+03 0.  0.
</event>
<event>
 5    0  0.5503691E-005  0.2324183E+03  0.7546771E-02  0.1124949E+00
         21   -1    0    0  502  501  0.00000000000E+00  0.00000000000E+00  0.16662750547E+04  0.16662750547E+04  0.00000000000E+00 0.  1.
         21   -1    0    0  501  502 -0.00000000000E+00 -0.00000000000E+00 -0.32418570814E+02  0.32418570814E+02  0.00000000000E+00 0.  1.
         25    1    1    2    0    0 -0.28094243452E+02  0.47041142352E+01  0.54323859792E+03  0.55816179507E+03  0.12500000000E+03 0.  0.
         25    1    1    2    0    0 -0.90871313237E+02  0.67680493334E+00  0.40423440086E+03  0.43276841899E+03  0.12500000000E+03 0.  0.
         25    1    1    2    0    0  0.11896555669E+03 -0.53809191686E+01  0.68638348511E+03  0.70776341146E+03  0.12500000000E+03 0.  0.
</event>
<event>
 5    0  0.5503691E-005  0.2996778E+03  0.7546771E-02  0.1085402E+00
         21   -1    0    0  502  501  0.00000000000E+00  0.00000000000E+00  0.53234941295E+03  0.53234941295E+03  0.00000000000E+00 0.  1.
         21   -1    0    0  501  502 -0.00000000000E+00 -0.00000000000E+00 -0.16869894110E+03  0.16869894110E+03  0.00000000000E+00 0.  1.
         25    1    1    2    0    0 -0.15509787562E+02 -0.17977286224E+02  0.13873329082E+03  0.18824362489E+03  0.12500000000E+03 0.  0.
         25    1    1    2    0    0  0.13923749541E+03  0.14031721074E+01  0.27184369356E+03  0.33001976115E+03  0.12500000000E+03 0.  0.
         25    1    1    2    0    0 -0.12372770785E+03  0.16574114117E+02 -0.46926512530E+02  0.18278496800E+03  0.12500000000E+03 0.  0.
</event>
<event>
 5    0  0.5503691E-005  0.4645015E+03  0.7546771E-02  0.1023484E+00
         21   -1    0    0  502  501  0.00000000000E+00  0.00000000000E+00  0.28409697934E+04  0.28409697934E+04  0.00000000000E+00 0.  1.
         21   -1    0    0  501  502 -0.00000000000E+00 -0.00000000000E+00 -0.75946483358E+02  0.75946483358E+02  0.00000000000E+00 0.  1.
         25    1    1    2    0    0  0.19032409650E+03 -0.36091328598E+03  0.11802149125E+04  0.12549955783E+04  0.12500000000E+03 0.  0.
         25    1    1    2    0    0 -0.94022101830E+02  0.74430172809E+02  0.53485232802E+03  0.56220282732E+03  0.12500000000E+03 0.  0.
         25    1    1    2    0    0 -0.96301994674E+02  0.28648311317E+03  0.10499560694E+04  0.10997178711E+04  0.12500000000E+03 0.  0.
</event>
<event>
 5    0  0.5503691E-005  0.3552252E+03  0.7546771E-02  0.1060491E+00
         21   -1    0    0  502  501  0.00000000000E+00  0.00000000000E+00  0.94939112881E+02  0.94939112881E+02  0.00000000000E+00 0.  1.
         21   -1    0    0  501  502 -0.00000000000E+00 -0.00000000000E+00 -0.13291145156E+04  0.13291145156E+04  0.00000000000E+00 0.  1.
         25    1    1    2    0    0 -0.13498126998E+03 -0.10955057603E+03 -0.90635388195E+03  0.93130211601E+03  0.12500000000E+03 0.  0.
         25    1    1    2    0    0  0.32391995592E+02  0.11049566652E+02 -0.26198072839E+03  0.29228451267E+03  0.12500000000E+03 0.  0.
         25    1    1    2    0    0  0.10258927439E+03  0.98501009382E+02 -0.65840792386E+02  0.20046699981E+03  0.12500000000E+03 0.  0.
</event>
<event>
 5    0  0.5503691E-005  0.3803136E+03  0.7546771E-02  0.1050818E+00
         21   -1    0    0  502  501  0.00000000000E+00  0.00000000000E+00  0.35648120335E+03  0.35648120335E+03  0.00000000000E+00 0.  1.
         21   -1    0    0  501  502 -0.00000000000E+00 -0.00000000000E+00 -0.40573921350E+03  0.40573921350E+03  0.00000000000E+00 0.  1.
         25    1    1    2    0    0  0.15040714252E+03 -0.47992401614E+02 -0.51130283868E+02  0.20776160632E+03  0.12500000000E+03 0.  0.
         25    1    1    2    0    0 -0.25493978725E+03  0.17699978630E+03  0.57072110983E+02  0.33941927660E+03  0.12500000000E+03 0.  0.
         25    1    1    2    0    0  0.10453264473E+03 -0.12900738469E+03 -0.55199837260E+02  0.21503953393E+03  0.12500000000E+03 0.  0.
</event>
<event>
 5    0  0.5503691E-005  0.2731232E+03  0.7546771E-02  0.1099505E+00
         21   -1    0    0  502  501  0.00000000000E+00  0.00000000000E+00  0.49417816790E+02  0.49417816790E+02  0.00000000000E+00 0. -1.
         21   -1    0    0  501  502 -0.00000000000E+00 -0.00000000000E+00 -0.15095020262E+04  0.15095020262E+04  0.00000000000E+00 0. -1.
         25    1    1    2    0    0  0.10050818476E+03  0.82225089379E+02 -0.27132871223E+03  0.32574089489E+03  0.12500000000E+03 0.  0.
         25    1    1    2    0    0 -0.13262587863E+03 -0.61478001665E+02 -0.80921379264E+03  0.83175785573E+03  0.12500000000E+03 0.  0.
         25    1    1    2    0    0  0.32117693866E+02 -0.20747087713E+02 -0.37954170449E+03  0.40142109231E+03  0.12500000000E+03 0.  0.
</event>
<event>
 5    0  0.5503691E-005  0.2168234E+03  0.7546771E-02  0.1136274E+00
         21   -1    0    0  502  501  0.00000000000E+00  0.00000000000E+00  0.55735351405E+02  0.55735351405E+02  0.00000000000E+00 0. -1.
         21   -1    0    0  501  502 -0.00000000000E+00 -0.00000000000E+00 -0.84349278621E+03  0.84349278621E+03  0.00000000000E+00 0. -1.
         25    1    1    2    0    0 -0.40851846509E+02 -0.59285455966E+02 -0.36155396640E+03  0.38926842830E+03  0.12500000000E+03 0.  0.
         25    1    1    2    0    0  0.37107023086E+02  0.29742193634E+02 -0.12744766763E+03  0.18474154170E+03  0.12500000000E+03 0.  0.
         25    1    1    2    0    0  0.37448234226E+01  0.29543262331E+02 -0.29875580077E+03  0.32521816761E+03  0.12500000000E+03 0.  0.
</event>
<event>
 5    0  0.5503691E-005  0.2829417E+03  0.7546771E-02  0.1094093E+00
         21   -1    0    0  502  501  0.00000000000E+00  0.00000000000E+00  0.11930443555E+04  0.11930443555E+04  0.00000000000E+00 0. -1.
         21   -1    0    0  501  502 -0.00000000000E+00 -0.00000000000E+00 -0.67102291453E+02  0.67102291453E+02  0.00000000000E+00 0. -1.
         25    1    1    2    0    0 -0.12969377880E+03  0.89046910910E+02  0.21626345988E+03  0.29520283312E+03  0.12500000000E+03 0.  0.
         25    1    1    2    0    0  0.11069439822E+03 -0.16146206897E+02  0.59268192466E+03  0.61596332164E+03  0.12500000000E+03 0.  0.
         25    1    1    2    0    0  0.18999380587E+02 -0.72900704013E+02  0.31699667948E+03  0.34898049216E+03  0.12500000000E+03 0.  0.
</event>
<event>
 5    0  0.5503691E-005  0.4791039E+03  0.7546771E-02  0.1019382E+00
         21   -1    0    0  502  501  0.00000000000E+00  0.00000000000E+00  0.29374993352E+04  0.29374993352E+04  0.00000000000E+00 0. -1.
         21   -1    0    0  501  502 -0.00000000000E+00 -0.00000000000E+00 -0.78141464363E+02  0.78141464363E+02  0.00000000000E+00 0. -1.
         25    1    1    2    0    0 -0.13842342856E+03  0.74138994236E+02  0.20548090956E+04  0.20645878658E+04  0.12500000000E+03 0.  0.
         25    1    1    2    0    0  0.17474981065E+03 -0.16844285386E+03  0.71873260934E+03  0.76883812020E+03  0.12500000000E+03 0.  0.
         25    1    1    2    0    0 -0.36326382095E+02  0.94303859624E+02  0.85816165920E+02  0.18221481364E+03  0.12500000000E+03 0.  0.
</event>
<event>
 5    0  0.5503691E-005  0.2689656E+03  0.7546771E-02  0.1101873E+00
         21   -1    0    0  502  501  0.00000000000E+00  0.00000000000E+00  0.17640899217E+03  0.17640899217E+03  0.00000000000E+00 0.  1.
         21   -1    0    0  501  502 -0.00000000000E+00 -0.00000000000E+00 -0.41008380438E+03  0.41008380438E+03  0.00000000000E+00 0.  1.
         25    1    1    2    0    0  0.12246365801E+03 -0.10512883344E+02 -0.10626340444E+03  0.20499946188E+03  0.12500000000E+03 0.  0.
         25    1    1    2    0    0 -0.13282368168E+03 -0.73356442163E+02 -0.12021963946E+03  0.23043667185E+03  0.12500000000E+03 0.  0.
         25    1    1    2    0    0  0.10360023674E+02  0.83869325507E+02 -0.71917683118E+01  0.15105666282E+03  0.12500000000E+03 0.  0.
</event>
<event>
 5    0  0.5904018E-005  0.2950979E+03  0.7546771E-02  0.1087717E+00
         21   -1    0    0  502  501  0.00000000000E+00  0.00000000000E+00  0.26397191237E+03  0.26397191237E+03  0.00000000000E+00 0. -1.
         21   -1    0    0  501  502 -0.00000000000E+00 -0.00000000000E+00 -0.32989408448E+03  0.32989408448E+03  0.00000000000E+00 0. -1.
         25    1    1    2    0    0 -0.16011805889E+02  0.98527219769E+02 -0.16901742386E+02  0.16085602214E+03  0.12500000000E+03 0.  0.
         25    1    1    2    0    0  0.39504445426E+02  0.37725612830E+02  0.11978417421E+03  0.18154082588E+03  0.12500000000E+03 0.  0.
         25    1    1    2    0    0 -0.23492639537E+02 -0.13625283260E+03 -0.16880460393E+03  0.25146914883E+03  0.12500000000E+03 0.  0.
</event>
<event>
 5    0  0.5503691E-005  0.4268977E+03  0.7546771E-02  0.1034844E+00
         21   -1    0    0  502  501  0.00000000000E+00  0.00000000000E+00  0.35327788919E+03  0.35327788919E+03  0.00000000000E+00 0. -1.
         21   -1    0    0  501  502 -0.00000000000E+00 -0.00000000000E+00 -0.51585929880E+03  0.51585929880E+03  0.00000000000E+00 0. -1.
         25    1    1    2    0    0 -0.33983138601E+02  0.20153253469E+03 -0.16734017286E+03  0.29222927591E+03  0.12500000000E+03 0.  0.
         25    1    1    2    0    0 -0.10087429575E+03  0.12406091727E+03  0.24316322172E+01  0.20297203643E+03  0.12500000000E+03 0.  0.
         25    1    1    2    0    0  0.13485743435E+03 -0.32559345196E+03  0.23271310358E+01  0.37393587565E+03  0.12500000000E+03 0.  0.
</event>
<event>
 5    0  0.5503691E-005  0.3796461E+03  0.7546771E-02  0.1051065E+00
         21   -1    0    0  502  501  0.00000000000E+00  0.00000000000E+00  0.31119779804E+03  0.31119779804E+03  0.00000000000E+00 0. -1.
         21   -1    0    0  501  502 -0.00000000000E+00 -0.00000000000E+00 -0.46314978536E+03  0.46314978536E+03  0.00000000000E+00 0. -1.
         25    1    1    2    0    0  0.17063491714E+03 -0.70104211974E+02 -0.15519045092E+03  0.27155101094E+03  0.12500000000E+03 0.  0.
         25    1    1    2    0    0  0.19986947952E+00 -0.15069871439E+03  0.17564058183E+02  0.19657985300E+03  0.12500000000E+03 0.  0.
         25    1    1    2    0    0 -0.17083478662E+03  0.22080292636E+03 -0.14325594581E+02  0.30621671945E+03  0.12500000000E+03 0.  0.
</event>
<event>
 5    0  0.5503691E-005  0.2516716E+03  0.7546771E-02  0.1112253E+00
         21   -1    0    0  502  501  0.00000000000E+00  0.00000000000E+00  0.15661951666E+03  0.15661951666E+03  0.00000000000E+00 0.  1.
         21   -1    0    0  501  502 -0.00000000000E+00 -0.00000000000E+00 -0.40441064136E+03  0.40441064136E+03  0.00000000000E+00 0.  1.
         25    1    1    2    0    0 -0.10054299983E+03 -0.59346616122E+02 -0.76407623895E+02  0.18733403495E+03  0.12500000000E+03 0.  0.
         25    1    1    2    0    0 -0.14474568394E+02  0.94640527108E+02 -0.66158442688E+02  0.17078724203E+03  0.12500000000E+03 0.  0.
         25    1    1    2    0    0  0.11501756822E+03 -0.35293910986E+02 -0.10522505812E+03  0.20290888105E+03  0.12500000000E+03 0.  0.
</event>
<event>
 5    0  0.5503691E-005  0.3460844E+03  0.7546771E-02  0.1064234E+00
         21   -1    0    0  502  501  0.00000000000E+00  0.00000000000E+00  0.42224409665E+02  0.42224409665E+02  0.00000000000E+00 0. -1.
         21   -1    0    0  501  502 -0.00000000000E+00 -0.00000000000E+00 -0.28366161247E+04  0.28366161247E+04  0.00000000000E+00 0. -1.
         25    1    1    2    0    0  0.11249396535E+03  0.20110904780E+03 -0.66621175727E+03  0.71593494598E+03  0.12500000000E+03 0.  0.
         25    1    1    2    0    0 -0.55780285797E+02 -0.92022384669E+02 -0.52834488345E+03  0.55349153149E+03  0.12500000000E+03 0.  0.
         25    1    1    2    0    0 -0.56713679553E+02 -0.10908666313E+03 -0.15998350743E+04  0.16094140569E+04  0.12500000000E+03 0.  0.
</event>
<event>
 5    0  0.5503691E-005  0.2934130E+03  0.7546771E-02  0.1088581E+00
         21   -1    0    0  502  501  0.00000000000E+00  0.00000000000E+00  0.66078148176E+02  0.66078148176E+02  0.00000000000E+00 0.  1.
         21   -1    0    0  501  502 -0.00000000000E+00 -0.00000000000E+00 -0.13028690371E+04  0.13028690371E+04  0.00000000000E+00 0.  1.
         25    1    1    2    0    0 -0.82376193551E+02  0.30857499486E+02 -0.54562883299E+03  0.56663378467E+03  0.12500000000E+03 0.  0.
         25    1    1    2    0    0 -0.71262724089E+02 -0.11966975599E+03 -0.37060310771E+03  0.41517573362E+03  0.12500000000E+03 0.  0.
         25    1    1    2    0    0  0.15363891764E+03  0.88812256502E+02 -0.32055894826E+03  0.38713766702E+03  0.12500000000E+03 0.  0.
</event>
<event>
 5    0  0.5503691E-005  0.3636269E+03  0.7546771E-02  0.1057157E+00
         21   -1    0    0  502  501  0.00000000000E+00  0.00000000000E+00  0.45724174456E+03  0.45724174456E+03  0.00000000000E+00 0.  1.
         21   -1    0    0  501  502 -0.00000000000E+00 -0.00000000000E+00 -0.28917853670E+03  0.28917853670E+03  0.00000000000E+00 0.  1.
         25    1    1    2    0    0  0.52674536195E+02 -0.11943481817E+03  0.18936959379E+03  0.26177304217E+03  0.12500000000E+03 0.  0.
         25    1    1    2    0    0  0.12520851251E+03 -0.72365750045E+02  0.18328666235E+02  0.19202841818E+03  0.12500000000E+03 0.  0.
         25    1    1    2    0    0 -0.17788304870E+03  0.19180056822E+03 -0.39635052175E+02  0.29261882090E+03  0.12500000000E+03 0.  0.
</event>
<event>
 5    0  0.5503691E-005  0.2990887E+03  0.7546771E-02  0.1085697E+00
         21   -1    0    0  502  501  0.00000000000E+00  0.00000000000E+00  0.17844895326E+04  0.17844895326E+04  0.00000000000E+00 0. -1.
         21   -1    0    0  501  502 -0.00000000000E+00 -0.00000000000E+00 -0.50128639727E+02  0.50128639727E+02  0.00000000000E+00 0. -1.
         25    1    1    2    0    0 -0.22742740708E+02  0.15316865897E+03  0.52160847093E+03  0.55828153049E+03  0.12500000000E+03 0.  0.
         25    1    1    2    0    0 -0.50276865999E+02 -0.14408836690E+02  0.18563554814E+03  0.22982805435E+03  0.12500000000E+03 0.  0.
         25    1    1    2    0    0  0.73019606708E+02 -0.13875982228E+03  0.10271168738E+04  0.10465085874E+04  0.12500000000E+03 0.  0.
</event>
<event>
 5    0  0.5503691E-005  0.4697716E+03  0.7546771E-02  0.1021985E+00
         21   -1    0    0  502  501  0.00000000000E+00  0.00000000000E+00  0.32981507123E+03  0.32981507123E+03  0.00000000000E+00 0.  1.
         21   -1    0    0  501  502 -0.00000000000E+00 -0.00000000000E+00 -0.66911851308E+03  0.66911851308E+03  0.00000000000E+00 0.  1.
         25    1    1    2    0    0 -0.10979325663E+03  0.88542809805E+02  0.17539742473E+03  0.25745610300E+03  0.12500000000E+03 0.  0.
         25    1    1    2    0    0 -0.11132773485E+03  0.30251420018E+02 -0.40695925558E+03  0.44107805280E+03  0.12500000000E+03 0.  0.
         25    1    1    2    0    0  0.22112099147E+03 -0.11879422982E+03 -0.10774161099E+03  0.30039942851E+03  0.12500000000E+03 0.  0.
</event>
<event>
 5    0  0.5503691E-005  0.3368445E+03  0.7546771E-02  0.1068148E+00
         21   -1    0    0  502  501  0.00000000000E+00  0.00000000000E+00  0.26968847977E+03  0.26968847977E+03  0.00000000000E+00 0.  1.
         21   -1    0    0  501  502 -0.00000000000E+00 -0.00000000000E+00 -0.42072314479E+03  0.42072314479E+03  0.00000000000E+00 0.  1.
         25    1    1    2    0    0  0.25380568551E+02  0.16062349505E+02 -0.65159624139E+02  0.14412823786E+03  0.12500000000E+03 0.  0.
         25    1    1    2    0    0  0.37479182984E+02  0.26008842316E+02  0.19125965205E+03  0.23299442812E+03  0.12500000000E+03 0.  0.
         25    1    1    2    0    0 -0.62859751535E+02 -0.42071191821E+02 -0.27713469292E+03  0.31328895858E+03  0.12500000000E+03 0.  0.
</event>
<event>
 5    0  0.5503691E-005  0.2668861E+03  0.7546771E-02  0.1103075E+00
         21   -1    0    0  502  501  0.00000000000E+00  0.00000000000E+00  0.64333845941E+02  0.64333845941E+02  0.00000000000E+00 0. -1.
         21   -1    0    0  501  502 -0.00000000000E+00 -0.00000000000E+00 -0.11071654918E+04  0.11071654918E+04  0.00000000000E+00 0. -1.
         25    1    1    2    0    0 -0.40913989229E+02  0.86866390731E+02 -0.22299846098E+03  0.27308064368E+03  0.12500000000E+03 0.  0.
         25    1    1    2    0    0  0.66540971149E+02 -0.30505547644E+02 -0.69905025141E+03  0.71390093380E+03  0.12500000000E+03 0.  0.
         25    1    1    2    0    0 -0.25626981920E+02 -0.56360843088E+02 -0.12078293347E+03  0.18451776027E+03  0.12500000000E+03 0.  0.
</event>
<event>
 5    0  0.5503691E-005  0.3346214E+03  0.7546771E-02  0.1069110E+00
         21   -1    0    0  502  501  0.00000000000E+00  0.00000000000E+00  0.44812019726E+03  0.44812019726E+03  0.00000000000E+00 0. -1.
         21   -1    0    0  501  502 -0.00000000000E+00 -0.00000000000E+00 -0.24986931521E+03  0.24986931521E+03  0.00000000000E+00 0. -1.
         25    1    1    2    0    0 -0.10623842378E+03 -0.26856445910E+02  0.39184364348E+01  0.16627755566E+03  0.12500000000E+03 0.  0.
         25    1    1    2    0    0  0.33742762658E+02  0.21905797010E+03  0.98785558138E+02  0.27296255200E+03  0.12500000000E+03 0.  0.
         25    1    1    2    0    0  0.72495661118E+02 -0.19220152419E+03  0.95546887472E+02  0.25874940481E+03  0.12500000000E+03 0.  0.
</event>
<event>
 5    0  0.5503691E-005  0.3175945E+03  0.7546771E-02  0.1076762E+00
         21   -1    0    0  502  501  0.00000000000E+00  0.00000000000E+00  0.14261307911E+04  0.14261307911E+04  0.00000000000E+00 0. -1.
         21   -1    0    0  501  502 -0.00000000000E+00 -0.00000000000E+00 -0.70727233365E+02  0.70727233365E+02  0.00000000000E+00 0. -1.
         25    1    1    2    0    0 -0.10953267450E+03 -0.51239619050E+02  0.69496534438E+03  0.71639705139E+03  0.12500000000E+03 0.  0.
         25    1    1    2    0    0  0.18935523902E+03 -0.41623725750E+02  0.45846471809E+03  0.51322786248E+03  0.12500000000E+03 0.  0.
         25    1    1    2    0    0 -0.79822564524E+02  0.92863344800E+02  0.20197349527E+03  0.26723311061E+03  0.12500000000E+03 0.  0.
</event>
<event>
 5    0  0.5503691E-005  0.3257144E+03  0.7546771E-02  0.1073049E+00
         21   -1    0    0  502  501  0.00000000000E+00  0.00000000000E+00  0.34119086265E+03  0.34119086265E+03  0.00000000000E+00 0.  1.
         21   -1    0    0  501  502 -0.00000000000E+00 -0.00000000000E+00 -0.31094000389E+03  0.31094000389E+03  0.00000000000E+00 0.  1.
         25    1    1    2    0    0 -0.71925176678E+02  0.55553080212E+02 -0.10557064874E+03  0.18716179534E+03  0.12500000000E+03 0.  0.
         25    1    1    2    0    0  0.15275013903E+03 -0.56375658905E+02  0.21425142111E+03  0.29671449466E+03  0.12500000000E+03 0.  0.
         25    1    1    2    0    0 -0.80824962356E+02  0.82257869284E+00 -0.78429913618E+02  0.16825457654E+03  0.12500000000E+03 0.  0.
</event>
<event>
 5    0  0.5503691E-005  0.2847209E+03  0.7546771E-02  0.1093138E+00
         21   -1    0    0  502  501  0.00000000000E+00  0.00000000000E+00  0.10704745412E+04  0.10704745412E+04  0.00000000000E+00 0.  1.
         21   -1    0    0  501  502 -0.00000000000E+00 -0.00000000000E+00 -0.75729026541E+02  0.75729026541E+02  0.00000000000E+00 0.  1.
         25    1    1    2    0    0  0.12640963073E+00  0.74766112966E+01  0.44364233379E+02  0.13284991870E+03  0.12500000000E+03 0.  0.
         25    1    1    2    0    0 -0.67864132711E+02 -0.10639834855E+03  0.51586748099E+03  0.54559179523E+03  0.12500000000E+03 0.  0.
         25    1    1    2    0    0  0.67737723080E+02  0.98921737254E+02  0.43451380024E+03  0.46776185376E+03  0.12500000000E+03 0.  0.
</event>
<event>
 5    0  0.5503691E-005  0.2617056E+03  0.7546771E-02  0.1106123E+00
         21   -1    0    0  502  501  0.00000000000E+00  0.00000000000E+00  0.40752234421E+03  0.40752234421E+03  0.00000000000E+00 0. -1.
         21   -1    0    0  501  502 -0.00000000000E+00 -0.00000000000E+00 -0.16806390848E+03  0.16806390848E+03  0.00000000000E+00 0. -1.
         25    1    1    2    0    0  0.29706473005E+02 -0.57699489347E+01 -0.78904847039E+02  0.15088651940E+03  0.12500000000E+03 0.  0.
         25    1    1    2    0    0 -0.27827122323E+02 -0.32088699424E+02  0.84246798862E+02  0.15660956703E+03  0.12500000000E+03 0.  0.
         25    1    1    2    0    0 -0.18793506822E+01  0.37858648359E+02  0.23411648390E+03  0.26809016627E+03  0.12500000000E+03 0.  0.
</event>
<event>
 5    0  0.5503691E-005  0.4994246E+03  0.7546771E-02  0.1013929E+00
         21   -1    0    0  502  501  0.00000000000E+00  0.00000000000E+00  0.53971283249E+03  0.53971283249E+03  0.00000000000E+00 0. -1.
         21   -1    0    0  501  502 -0.00000000000E+00 -0.00000000000E+00 -0.46214373787E+03  0.46214373787E+03  0.00000000000E+00 0. -1.
         25    1    1    2    0    0 -0.21049607204E+03 -0.12147458908E+03  0.27247551701E+02  0.27464905099E+03  0.12500000000E+03 0.  0.
         25    1    1    2    0    0 -0.20292229047E+03  0.25008114724E+02  0.13731431331E+03  0.27619392175E+03  0.12500000000E+03 0.  0.
         25    1    1    2    0    0  0.41341836251E+03  0.96466474352E+02 -0.86992770394E+02  0.45101359762E+03  0.12500000000E+03 0.  0.
</event>
<event>
 5    0  0.5503691E-005  0.3008763E+03  0.7546771E-02  0.1084803E+00
         21   -1    0    0  502  501  0.00000000000E+00  0.00000000000E+00  0.22565479558E+04  0.22565479558E+04  0.00000000000E+00 0. -1.
         21   -1    0    0  501  502 -0.00000000000E+00 -0.00000000000E+00 -0.40117281668E+02  0.40117281668E+02  0.00000000000E+00 0. -1.
         25    1    1    2    0    0  0.18975796280E+03  0.72512670160E+02  0.70184161870E+03  0.74126434523E+03  0.12500000000E+03 0.  0.
         25    1    1    2    0    0 -0.15443633620E+03  0.75280863030E+01  0.76290072614E+03  0.78838427938E+03  0.12500000000E+03 0.  0.
         25    1    1    2    0    0 -0.35321626597E+02 -0.80040756463E+02  0.75168832926E+03  0.76701661282E+03  0.12500000000E+03 0.  0.
</event>
<event>
 5    0  0.5503691E-005  0.3130985E+03  0.7546771E-02  0.1078870E+00
         21   -1    0    0  502  501  0.00000000000E+00  0.00000000000E+00  0.11305165274E+04  0.11305165274E+04  0.00000000000E+00 0. -1.
         21   -1    0    0  501  502 -0.00000000000E+00 -0.00000000000E+00 -0.86713170027E+02  0.86713170027E+02  0.00000000000E+00 0. -1.
         25    1    1    2    0    0  0.11179782788E+03 -0.33988899494E+01  0.13760502505E+03  0.21695725314E+03  0.12500000000E+03 0.  0.
         25    1    1    2    0    0 -0.50330796943E+01  0.13102413023E+03  0.62315511149E+03  0.64895296252E+03  0.12500000000E+03 0.  0.
         25    1    1    2    0    0 -0.10676474818E+03 -0.12762524028E+03  0.28304322088E+03  0.35131948180E+03  0.12500000000E+03 0.  0.
</event>
<event>
 5    0  0.5503691E-005  0.3529659E+03  0.7546771E-02  0.1061404E+00
         21   -1    0    0  502  501  0.00000000000E+00  0.00000000000E+00  0.18454488627E+03  0.18454488627E+03  0.00000000000E+00 0. -1.
         21   -1    0    0  501  502 -0.00000000000E+00 -0.00000000000E+00 -0.67509288270E+03  0.67509288270E+03  0.00000000000E+00 0. -1.
         25    1    1    2    0    0 -0.27274936052E+02 -0.24508845733E+03 -0.20836109084E+03  0.34619592463E+03  0.12500000000E+03 0.  0.
         25    1    1    2    0    0 -0.60320334045E+02  0.20060886519E+02 -0.31772484826E+02  0.14378968203E+03  0.12500000000E+03 0.  0.
         25    1    1    2    0    0  0.87595270097E+02  0.22502757081E+03 -0.25041442076E+03  0.36965216230E+03  0.12500000000E+03 0.  0.
</event>
<event>
 5    0  0.5503691E-005  0.3027311E+03  0.7546771E-02  0.1083883E+00
         21   -1    0    0  502  501  0.00000000000E+00  0.00000000000E+00  0.12197877089E+04  0.12197877089E+04  0.00000000000E+00 0. -1.
         21   -1    0    0  501  502 -0.00000000000E+00 -0.00000000000E+00 -0.75132841387E+02  0.75132841387E+02  0.00000000000E+00 0. -1.
         25    1    1    2    0    0 -0.14172267004E+02 -0.11722330445E+03  0.15407421758E+03  0.23088096669E+03  0.12500000000E+03 0.  0.
         25    1    1    2    0    0 -0.10191736976E+03  0.14202991472E+03  0.50771882917E+03  0.55132844696E+03  0.12500000000E+03 0.  0.
         25    1    1    2    0    0  0.11608963677E+03 -0.24806610271E+02  0.48286182076E+03  0.51271113663E+03  0.12500000000E+03 0.  0.
</event>
<event>
 5    0  0.5503691E-005  0.4576934E+03  0.7546771E-02  0.1025452E+00
         21   -1    0    0  502  501  0.00000000000E+00  0.00000000000E+00  0.17313681744E+03  0.17313681744E+03  0.00000000000E+00 0. -1.
         21   -1    0    0  501  502 -0.00000000000E+00 -0.00000000000E+00 -0.12099290147E+04  0.12099290147E+04  0.00000000000E+00 0. -1.
         25    1    1    2    0    0  0.17911277207E+03  0.10111972841E+03 -0.81415011131E+03  0.84898291404E+03  0.12500000000E+03 0.  0.
         25    1    1    2    0    0  0.52101548524E+01 -0.18998521129E+03 -0.18101500650E+03  0.29071112603E+03  0.12500000000E+03 0.  0.
         25    1    1    2    0    0 -0.18432292693E+03  0.88865482877E+02 -0.41627079482E+02  0.24337179209E+03  0.12500000000E+03 0.  0.
</event>
<event>
 5    0  0.5503691E-005  0.2422414E+03  0.7546771E-02  0.1118309E+00
         21   -1    0    0  502  501  0.00000000000E+00  0.00000000000E+00  0.87003277219E+02  0.87003277219E+02  0.00000000000E+00 0.  1.
         21   -1    0    0  501  502 -0.00000000000E+00 -0.00000000000E+00 -0.67446791255E+03  0.67446791255E+03  0.00000000000E+00 0.  1.
         25    1    1    2    0    0 -0.52052077326E+02  0.39782319230E+02 -0.51776548413E+02  0.15032585487E+03  0.12500000000E+03 0.  0.
         25    1    1    2    0    0  0.38837366681E+02  0.45260906979E+02 -0.30553229547E+03  0.33545770870E+03  0.12500000000E+03 0.  0.
         25    1    1    2    0    0  0.13214710644E+02 -0.85043226209E+02 -0.23015579145E+03  0.27568762620E+03  0.12500000000E+03 0.  0.
</event>
<event>
 5    0  0.5503691E-005  0.3356802E+03  0.7546771E-02  0.1068651E+00
         21   -1    0    0  502  501  0.00000000000E+00  0.00000000000E+00  0.87290834674E+02  0.87290834674E+02  0.00000000000E+00 0. -1.
         21   -1    0    0  501  502 -0.00000000000E+00 -0.00000000000E+00 -0.12908707357E+04  0.12908707357E+04  0.00000000000E+00 0. -1.
         25    1    1    2    0    0 -0.36054537093E+02 -0.25244494405E+03 -0.60692136154E+03  0.67007978518E+03  0.12500000000E+03 0.  0.
         25    1    1    2    0    0 -0.19173455623E+02  0.18173597446E+03 -0.41197768676E+03  0.46770311117E+03  0.12500000000E+03 0.  0.
         25    1    1    2    0    0  0.55227992717E+02  0.70708969594E+02 -0.18468085277E+03  0.24037867405E+03  0.12500000000E+03 0.  0.
</event>
<event>
 5    0  0.5503691E-005  0.3343526E+03  0.7546771E-02  0.1069227E+00
         21   -1    0    0  502  501  0.00000000000E+00  0.00000000000E+00  0.10973981952E+03  0.10973981952E+03  0.00000000000E+00 0.  1.
         21   -1    0    0  501  502 -0.00000000000E+00 -0.00000000000E+00 -0.10186970810E+04  0.10186970810E+04  0.00000000000E+00 0.  1.
         25    1    1    2    0    0 -0.11332374589E+03 -0.15230856031E+03 -0.48837005005E+03  0.53867473926E+03  0.12500000000E+03 0.  0.
         25    1    1    2    0    0  0.14277467258E+03  0.15227764059E+03 -0.38681598448E+03  0.45697340492E+03  0.12500000000E+03 0.  0.
         25    1    1    2    0    0 -0.29450926698E+02  0.30919723233E-01 -0.33771226932E+02  0.13278875633E+03  0.12500000000E+03 0.  0.
</event>
<event>
 5    0  0.5636699E-005  0.3321449E+03  0.7546771E-02  0.1070192E+00
         21   -1    0    0  502  501  0.00000000000E+00  0.00000000000E+00  0.37871105903E+03  0.37871105903E+03  0.00000000000E+00 0. -1.
         21   -1    0    0  501  502 -0.00000000000E+00 -0.00000000000E+00 -0.29130442301E+03  0.29130442301E+03  0.00000000000E+00 0. -1.
         25    1    1    2    0    0  0.12347150214E+02 -0.11020986178E+03  0.76037331712E+02  0.18359014561E+03  0.12500000000E+03 0.  0.
         25    1    1    2    0    0 -0.90069714603E+02  0.22731265481E+03 -0.66996208282E+02  0.28266073029E+03  0.12500000000E+03 0.  0.
         25    1    1    2    0    0  0.77722564388E+02 -0.11710279303E+03  0.78365512596E+02  0.20376460614E+03  0.12500000000E+03 0.  0.
</event>
<event>
 5    0  0.5503691E-005  0.2382181E+03  0.7546771E-02  0.1120986E+00
         21   -1    0    0  502  501  0.00000000000E+00  0.00000000000E+00  0.94920837485E+02  0.94920837485E+02  0.00000000000E+00 0. -1.
         21   -1    0    0  501  502 -0.00000000000E+00 -0.00000000000E+00 -0.59784432499E+03  0.59784432499E+03  0.00000000000E+00 0. -1.
         25    1    1    2    0    0 -0.96708004249E+01 -0.71255102620E+02 -0.14520088270E+03  0.20464386227E+03  0.12500000000E+03 0.  0.
         25    1    1    2    0    0 -0.35452840260E+02  0.12996487915E+01 -0.30052988060E+03  0.32741686289E+03  0.12500000000E+03 0.  0.
         25    1    1    2    0    0  0.45123640685E+02  0.69955453829E+02 -0.57192724203E+02  0.16070443731E+03  0.12500000000E+03 0.  0.
</event>
<event>
 5    0  0.5503691E-005  0.2756264E+03  0.7546771E-02  0.1098102E+00
         21   -1    0    0  502  501  0.00000000000E+00  0.00000000000E+00  0.22373161556E+03  0.22373161556E+03  0.00000000000E+00 0. -1.
         21   -1    0    0  501  502 -0.00000000000E+00 -0.00000000000E+00 -0.33955818415E+03  0.33955818415E+03  0.00000000000E+00 0. -1.
         25    1    1    2    0    0  0.11287864022E+03 -0.27420504627E+02 -0.11904455238E+03  0.20806267552E+03  0.12500000000E+03 0.  0.
         25    1    1    2    0    0 -0.13390494159E+03  0.42768620010E+02  0.81991554815E+02  0.20520064157E+03  0.12500000000E+03 0.  0.
         25    1    1    2    0    0  0.21026301368E+02 -0.15348115383E+02 -0.78773571029E+02  0.15002648262E+03  0.12500000000E+03 0.  0.
</event>
<event>
 5    0  0.5866169E-005  0.3405097E+03  0.7546771E-02  0.1066579E+00
         21   -1    0    0  502  501  0.00000000000E+00  0.00000000000E+00  0.20093477628E+03  0.20093477628E+03  0.00000000000E+00 0.  1.
         21   -1    0    0  501  502 -0.00000000000E+00 -0.00000000000E+00 -0.57703721258E+03  0.57703721258E+03  0.00000000000E+00 0.  1.
         25    1    1    2    0    0  0.18387739440E+03  0.11797089991E+03 -0.43972620600E+02  0.25551246694E+03  0.12500000000E+03 0.  0.
         25    1    1    2    0    0 -0.14465891900E+03 -0.68226431324E+02 -0.52485913763E+02  0.20966835698E+03  0.12500000000E+03 0.  0.
         25    1    1    2    0    0 -0.39218475408E+02 -0.49744468585E+02 -0.27964390194E+03  0.31279116493E+03  0.12500000000E+03 0.  0.
</event>
<event>
 5    0  0.5503691E-005  0.3323042E+03  0.7546771E-02  0.1070122E+00
         21   -1    0    0  502  501  0.00000000000E+00  0.00000000000E+00  0.42926627688E+02  0.42926627688E+02  0.00000000000E+00 0.  1.
         21   -1    0    0  501  502 -0.00000000000E+00 -0.00000000000E+00 -0.25724375897E+04  0.25724375897E+04  0.00000000000E+00 0.  1.
         25    1    1    2    0    0  0.67964919046E+02 -0.19279628908E+02 -0.70355438185E+03  0.71805619734E+03  0.12500000000E+03 0.  0.
         25    1    1    2    0    0  0.11908536906E+03 -0.88134300393E+02 -0.34685625518E+03  0.39734524256E+03  0.12500000000E+03 0.  0.
         25    1    1    2    0    0 -0.18705028811E+03  0.10741392930E+03 -0.14791003250E+04  0.14999627775E+04  0.12500000000E+03 0.  0.
</event>
<event>
 5    0  0.5746217E-005  0.2984972E+03  0.7546771E-02  0.1085994E+00
         21   -1    0    0  502  501  0.00000000000E+00  0.00000000000E+00  0.41506673082E+03  0.41506673082E+03  0.00000000000E+00 0.  1.
         21   -1    0    0  501  502 -0.00000000000E+00 -0.00000000000E+00 -0.21466570663E+03  0.21466570663E+03  0.00000000000E+00 0.  1.
         25    1    1    2    0    0  0.45383606098E+02  0.76647107855E+01  0.22064235984E+03  0.25773333205E+03  0.12500000000E+03 0.  0.
         25    1    1    2    0    0  0.48012663715E+02 -0.14000398874E+02 -0.12518992948E+03  0.18384435126E+03  0.12500000000E+03 0.  0.
         25    1    1    2    0    0 -0.93396269813E+02  0.63356880881E+01  0.10494859383E+03  0.18815475414E+03  0.12500000000E+03 0.  0.
</event>
<event>
 5    0  0.5503691E-005  0.2786807E+03  0.7546771E-02  0.1096412E+00
         21   -1    0    0  502  501  0.00000000000E+00  0.00000000000E+00  0.84449724700E+02  0.84449724700E+02  0.00000000000E+00 0. -1.
         21   -1    0    0  501  502 -0.00000000000E+00 -0.00000000000E+00 -0.91963538228E+03  0.91963538228E+03  0.00000000000E+00 0. -1.
         25    1    1    2    0    0  0.26435085472E+02 -0.39960605598E+02 -0.28818454618E+03  0.31775933724E+03  0.12500000000E+03 0.  0.
         25    1    1    2    0    0 -0.12218510489E+03  0.13011386371E+03 -0.20502461779E+03  0.29919711109E+03  0.12500000000E+03 0.  0.
         25    1    1    2    0    0  0.95750019420E+02 -0.90153258111E+02 -0.34197649361E+03  0.38712865865E+03  0.12500000000E+03 0.  0.
</event>
<event>
 5    0  0.6366763E-005  0.3012725E+03  0.7546771E-02  0.1084606E+00
         21   -1    0    0  502  501  0.00000000000E+00  0.00000000000E+00  0.50192281297E+03  0.50192281297E+03  0.00000000000E+00 0. -1.
         21   -1    0    0  501  502 -0.00000000000E+00 -0.00000000000E+00 -0.18083484590E+03  0.18083484590E+03  0.00000000000E+00 0. -1.
         25    1    1    2    0    0  0.35083668700E+02 -0.32132595031E+02  0.21837853043E+03  0.25608113953E+03  0.12500000000E+03 0.  0.
         25    1    1    2    0    0 -0.16428374932E+03  0.68533990712E+02  0.21966007173E+01  0.21752214423E+03  0.12500000000E+03 0.  0.
         25    1    1    2    0    0  0.12920008062E+03 -0.36401395681E+02  0.10051283593E+03  0.20915437511E+03  0.12500000000E+03 0.  0.
</event>
<event>
 5    0  0.5503691E-005  0.3924701E+03  0.7546771E-02  0.1046419E+00
         21   -1    0    0  502  501  0.00000000000E+00  0.00000000000E+00  0.35594561964E+03  0.35594561964E+03  0.00000000000E+00 0. -1.
         21   -1    0    0  501  502 -0.00000000000E+00 -0.00000000000E+00 -0.43274236312E+03  0.43274236312E+03  0.00000000000E+00 0. -1.
         25    1    1    2    0    0  0.17133778529E+03 -0.20172038120E+03  0.68779915674E+02  0.30067162431E+03  0.12500000000E+03 0.  0.
         25    1    1    2    0    0  0.49170719613E+02  0.76479240492E+02 -0.13478718833E+03  0.20508393411E+03  0.12500000000E+03 0.  0.
         25    1    1    2    0    0 -0.22050850491E+03  0.12524114071E+03 -0.10789470821E+02  0.28293242434E+03  0.12500000000E+03 0.  0.
</event>
<event>
 5    0  0.5503691E-005  0.4129567E+03  0.7546771E-02  0.1039383E+00
         21   -1    0    0  502  501  0.00000000000E+00  0.00000000000E+00  0.37741149035E+03  0.37741149035E+03  0.00000000000E+00 0. -1.
         21   -1    0    0  501  502 -0.00000000000E+00 -0.00000000000E+00 -0.45184969809E+03  0.45184969809E+03  0.00000000000E+00 0. -1.
         25    1    1    2    0    0  0.15681380668E+03 -0.45435167111E+02 -0.16749472855E+01  0.20562764849E+03  0.12500000000E+03 0.  0.
         25    1    1    2    0    0 -0.24259786280E+03 -0.73000481466E+02  0.15761090829E+03  0.32349496402E+03  0.12500000000E+03 0.  0.
         25    1    1    2    0    0  0.85784056128E+02  0.11843564858E+03 -0.23037416874E+03  0.30013857593E+03  0.12500000000E+03 0.  0.
</event>
<event>
 5    0  0.5503691E-005  0.2411750E+03  0.7546771E-02  0.1119013E+00
         21   -1    0    0  502  501  0.00000000000E+00  0.00000000000E+00  0.10089234838E+04  0.10089234838E+04  0.00000000000E+00 0. -1.
         21   -1    0    0  501  502 -0.00000000000E+00 -0.00000000000E+00 -0.57650947224E+02  0.57650947224E+02  0.00000000000E+00 0. -1.
         25    1    1    2    0    0  0.84223032729E+02  0.26747448069E+02  0.60109884327E+03  0.62028522842E+03  0.12500000000E+03 0.  0.
         25    1    1    2    0    0 -0.75163819451E+02 -0.38260148128E+02  0.19429209538E+03  0.24594279216E+03  0.12500000000E+03 0.  0.
         25    1    1    2    0    0 -0.90592132783E+01  0.11512700059E+02  0.15588159797E+03  0.20034641049E+03  0.12500000000E+03 0.  0.
</event>
<event>
 5    0  0.5503691E-005  0.7119021E+03  0.7546771E-02  0.9697092E-01
         21   -1    0    0  502  501  0.00000000000E+00  0.00000000000E+00  0.23985422155E+03  0.23985422155E+03  0.00000000000E+00 0. -1.
         21   -1    0    0  501  502 -0.00000000000E+00 -0.00000000000E+00 -0.21129691998E+04  0.21129691998E+04  0.00000000000E+00 0. -1.
         25    1    1    2    0    0 -0.81993905662E+02 -0.10394963398E+03 -0.10361118572E+03  0.20949655075E+03  0.12500000000E+03 0.  0.
         25    1    1    2    0    0  0.32566492023E+03  0.49897316379E+03 -0.14318650257E+04  0.15559223343E+04  0.12500000000E+03 0.  0.
         25    1    1    2    0    0 -0.24367101457E+03 -0.39502352981E+03 -0.33763876687E+03  0.58740453636E+03  0.12500000000E+03 0.  0.
</event>
<event>
 5    0  0.5503691E-005  0.3244842E+03  0.7546771E-02  0.1073604E+00
         21   -1    0    0  502  501  0.00000000000E+00  0.00000000000E+00  0.38754887776E+03  0.38754887776E+03  0.00000000000E+00 0. -1.
         21   -1    0    0  501  502 -0.00000000000E+00 -0.00000000000E+00 -0.27168178650E+03  0.27168178650E+03  0.00000000000E+00 0. -1.
         25    1    1    2    0    0  0.66055623038E+02  0.10834671612E+03  0.30249112762E+02  0.18067198192E+03  0.12500000000E+03 0.  0.
         25    1    1    2    0    0 -0.42341615706E+02  0.13939825460E+03  0.44269321950E+02  0.19700116414E+03  0.12500000000E+03 0.  0.
         25    1    1    2    0    0 -0.23714007332E+02 -0.24774497072E+03  0.41348656551E+02  0.28155751821E+03  0.12500000000E+03 0.  0.
</event>
<event>
 5    0  0.5503691E-005  0.3549698E+03  0.7546771E-02  0.1060594E+00
         21   -1    0    0  502  501  0.00000000000E+00  0.00000000000E+00  0.52510658774E+03  0.52510658774E+03  0.00000000000E+00 0.  1.
         21   -1    0    0  501  502 -0.00000000000E+00 -0.00000000000E+00 -0.23995809148E+03  0.23995809148E+03  0.00000000000E+00 0.  1.
         25    1    1    2    0    0  0.74315942059E+02  0.13101878815E+03 -0.38175746246E+02  0.19942710371E+03  0.12500000000E+03 0.  0.
         25    1    1    2    0    0 -0.21319783275E+02 -0.49966756177E+02  0.37522703179E+03  0.39921364614E+03  0.12500000000E+03 0.  0.
         25    1    1    2    0    0 -0.52996158785E+02 -0.81052031970E+02 -0.51902789275E+02  0.16642392937E+03  0.12500000000E+03 0.  0.
</event>
<event>
 5    0  0.5503691E-005  0.3440831E+03  0.7546771E-02  0.1065070E+00
         21   -1    0    0  502  501  0.00000000000E+00  0.00000000000E+00  0.13569743211E+03  0.13569743211E+03  0.00000000000E+00 0. -1.
         21   -1    0    0  501  502 -0.00000000000E+00 -0.00000000000E+00 -0.87247909331E+03  0.87247909331E+03  0.00000000000E+00 0. -1.
         25    1    1    2    0    0 -0.13095968003E+01 -0.57560237395E+02 -0.42698736399E+03  0.44861799449E+03  0.12500000000E+03 0.  0.
         25    1    1    2    0    0 -0.12625768961E+03 -0.10820189202E+03 -0.74876229262E+02  0.22108845137E+03  0.12500000000E+03 0.  0.
         25    1    1    2    0    0  0.12756728641E+03  0.16576212942E+03 -0.23491806794E+03  0.33847007956E+03  0.12500000000E+03 0.  0.
</event>
<event>
 5    0  0.5503691E-005  0.2702566E+03  0.7546771E-02  0.1101133E+00
         21   -1    0    0  502  501  0.00000000000E+00  0.00000000000E+00  0.21009604273E+03  0.21009604273E+03  0.00000000000E+00 0.  1.
         21   -1    0    0  501  502 -0.00000000000E+00 -0.00000000000E+00 -0.34764401899E+03  0.34764401899E+03  0.00000000000E+00 0.  1.
         25    1    1    2    0    0  0.21601161077E+02  0.38228957461E+02  0.79461431081E+02  0.15449007210E+03  0.12500000000E+03 0.  0.
         25    1    1    2    0    0 -0.52027871604E+02  0.13940484932E+02 -0.22633774154E+03  0.26411173732E+03  0.12500000000E+03 0.  0.
         25    1    1    2    0    0  0.30426710527E+02 -0.52169442393E+02  0.93283341984E+01  0.13913825230E+03  0.12500000000E+03 0.  0.
</event>
<event>
 5    0  0.5503691E-005  0.3156080E+03  0.7546771E-02  0.1077689E+00
         21   -1    0    0  502  501  0.00000000000E+00  0.00000000000E+00  0.51146842006E+03  0.51146842006E+03  0.00000000000E+00 0.  1.
         21   -1    0    0  501  502 -0.00000000000E+00 -0.00000000000E+00 -0.19474991980E+03  0.19474991980E+03  0.00000000000E+00 0.  1.
         25    1    1    2    0    0 -0.15432490157E+03 -0.10139306926E+03  0.65279760014E+02  0.23234280020E+03  0.12500000000E+03 0.  0.
         25    1    1    2    0    0  0.25680558001E+02  0.10615720968E+03  0.12560954402E+01  0.16599825903E+03  0.12500000000E+03 0.  0.
         25    1    1    2    0    0  0.12864434357E+03 -0.47641404194E+01  0.25018264480E+03  0.30787728063E+03  0.12500000000E+03 0.  0.
</event>
<event>
 5    0  0.5503691E-005  0.2469632E+03  0.7546771E-02  0.1115239E+00
         21   -1    0    0  502  501  0.00000000000E+00  0.00000000000E+00  0.40211343110E+03  0.40211343110E+03  0.00000000000E+00 0.  1.
         21   -1    0    0  501  502 -0.00000000000E+00 -0.00000000000E+00 -0.15167569567E+03  0.15167569567E+03  0.00000000000E+00 0.  1.
         25    1    1    2    0    0  0.72806695951E+02  0.17014568996E+02  0.63454834360E+02  0.15887676525E+03  0.12500000000E+03 0.  0.
         25    1    1    2    0    0  0.52432491432E+02  0.20790752639E+01 -0.16444420635E+01  0.13557725805E+03  0.12500000000E+03 0.  0.
         25    1    1    2    0    0 -0.12523918738E+03 -0.19093644260E+02  0.18862734313E+03  0.25933510346E+03  0.12500000000E+03 0.  0.
</event>
<event>
 5    0  0.5503691E-005  0.2919247E+03  0.7546771E-02  0.1089349E+00
         21   -1    0    0  502  501  0.00000000000E+00  0.00000000000E+00  0.29269142419E+03  0.29269142419E+03  0.00000000000E+00 0. -1.
         21   -1    0    0  501  502 -0.00000000000E+00 -0.00000000000E+00 -0.29115995668E+03  0.29115995668E+03  0.00000000000E+00 0. -1.
         25    1    1    2    0    0  0.91597203096E+02 -0.17930407040E+02 -0.89519625028E+02  0.17986192031E+03  0.12500000000E+03 0.  0.
         25    1    1    2    0    0 -0.24124375272E+01 -0.10150687682E+03  0.12832253012E+03  0.20591536522E+03  0.12500000000E+03 0.  0.
         25    1    1    2    0    0 -0.89184765568E+02  0.11943728386E+03 -0.37271437581E+02  0.19807409534E+03  0.12500000000E+03 0.  0.
</event>
<event>
 5    0  0.5977630E-005  0.6306371E+03  0.7546771E-02  0.9843806E-01
         21   -1    0    0  502  501  0.00000000000E+00  0.00000000000E+00  0.14215653781E+04  0.14215653781E+04  0.00000000000E+00 0.  1.
         21   -1    0    0  501  502 -0.00000000000E+00 -0.00000000000E+00 -0.27976425032E+03  0.27976425032E+03  0.00000000000E+00 0. -1.
         25    1    1    2    0    0  0.17191933613E+03 -0.16855318144E+03 -0.48067668945E+02  0.27550305608E+03  0.12500000000E+03 0.  0.
         25    1    1    2    0    0 -0.36419327354E+03 -0.18366460127E+02  0.30120563814E+03  0.48920742410E+03  0.12500000000E+03 0.  0.
         25    1    1    2    0    0  0.19227393740E+03  0.18691964157E+03  0.88866315857E+03  0.93661914821E+03  0.12500000000E+03 0.  0.
</event>
<event>
 5    0  0.5503691E-005  0.2330462E+03  0.7546771E-02  0.1124514E+00
         21   -1    0    0  502  501  0.00000000000E+00  0.00000000000E+00  0.14758112896E+03  0.14758112896E+03  0.00000000000E+00 0.  1.
         21   -1    0    0  501  502 -0.00000000000E+00 -0.00000000000E+00 -0.36800452770E+03  0.36800452770E+03  0.00000000000E+00 0.  1.
         25    1    1    2    0    0  0.12867755827E+02  0.52616879892E+02  0.20048232947E+00  0.13623199104E+03  0.12500000000E+03 0.  0.
         25    1    1    2    0    0  0.14932763179E+02  0.53510934461E+02 -0.13541667109E+03  0.19248138178E+03  0.12500000000E+03 0.  0.
         25    1    1    2    0    0 -0.27800519006E+02 -0.10612781435E+03 -0.85207209974E+02  0.18687228384E+03  0.12500000000E+03 0.  0.
</event>
<event>
 5    0  0.5503691E-005  0.4506785E+03  0.7546771E-02  0.1027520E+00
         21   -1    0    0  502  501  0.00000000000E+00  0.00000000000E+00  0.10147834437E+04  0.10147834437E+04  0.00000000000E+00 0. -1.
         21   -1    0    0  501  502 -0.00000000000E+00 -0.00000000000E+00 -0.20015214938E+03  0.20015214938E+03  0.00000000000E+00 0. -1.
         25    1    1    2    0    0  0.21695127016E+03 -0.13117266239E+03  0.61541264489E+03  0.67722362959E+03  0.12500000000E+03 0.  0.
         25    1    1    2    0    0 -0.14496218609E+03  0.22264748688E+03  0.21825129108E+03  0.36584773454E+03  0.12500000000E+03 0.  0.
         25    1    1    2    0    0 -0.71989084069E+02 -0.91474824483E+02 -0.19032641658E+02  0.17186422894E+03  0.12500000000E+03 0.  0.
</event>
<event>
 5    0  0.5503691E-005  0.5479274E+03  0.7546771E-02  0.1001975E+00
         21   -1    0    0  502  501  0.00000000000E+00  0.00000000000E+00  0.60756000539E+03  0.60756000539E+03  0.00000000000E+00 0. -1.
         21   -1    0    0  501  502 -0.00000000000E+00 -0.00000000000E+00 -0.49414783978E+03  0.49414783978E+03  0.00000000000E+00 0. -1.
         25    1    1    2    0    0 -0.16417906931E+02  0.16229142296E+03 -0.74920560505E+02  0.21873761456E+03  0.12500000000E+03 0.  0.
         25    1    1    2    0    0 -0.19482041112E+03  0.17430943150E+03  0.33351264170E+03  0.44180816275E+03  0.12500000000E+03 0.  0.
         25    1    1    2    0    0  0.21123831805E+03 -0.33660085446E+03 -0.14517991559E+03  0.44116206787E+03  0.12500000000E+03 0.  0.
</event>
<event>
 5    0  0.5734956E-005  0.2798341E+03  0.7546771E-02  0.1095780E+00
         21   -1    0    0  502  501  0.00000000000E+00  0.00000000000E+00  0.18485681380E+03  0.18485681380E+03  0.00000000000E+00 0.  1.
         21   -1    0    0  501  502 -0.00000000000E+00 -0.00000000000E+00 -0.42360968004E+03  0.42360968004E+03  0.00000000000E+00 0.  1.
         25    1    1    2    0    0 -0.65780817321E+02 -0.89871380603E+02 -0.79934178083E+02  0.18552211136E+03  0.12500000000E+03 0.  0.
         25    1    1    2    0    0 -0.10103240834E+03  0.86715045689E+02 -0.88421192199E+02  0.20290479027E+03  0.12500000000E+03 0.  0.
         25    1    1    2    0    0  0.16681322566E+03  0.31563349145E+01 -0.70397495962E+02  0.22003959221E+03  0.12500000000E+03 0.  0.
</event>
<event>
 5    0  0.5503691E-005  0.2567858E+03  0.7546771E-02  0.1109090E+00
         21   -1    0    0  502  501  0.00000000000E+00  0.00000000000E+00  0.55520518871E+03  0.55520518871E+03  0.00000000000E+00 0. -1.
         21   -1    0    0  501  502 -0.00000000000E+00 -0.00000000000E+00 -0.11876499618E+03  0.11876499618E+03  0.00000000000E+00 0. -1.
         25    1    1    2    0    0  0.11816830850E+03  0.43761041624E+02  0.26983238158E+03  0.32297568337E+03  0.12500000000E+03 0.  0.
         25    1    1    2    0    0 -0.12096870297E+03 -0.13282254349E+02  0.61986673235E+02  0.18514100853E+03  0.12500000000E+03 0.  0.
         25    1    1    2    0    0  0.28003944752E+01 -0.30478787275E+02  0.10462113772E+03  0.16585349300E+03  0.12500000000E+03 0.  0.
</event>
<event>
 5    0  0.5503691E-005  0.3915266E+03  0.7546771E-02  0.1046754E+00
         21   -1    0    0  502  501  0.00000000000E+00  0.00000000000E+00  0.47566378773E+03  0.47566378773E+03  0.00000000000E+00 0.  1.
         21   -1    0    0  501  502 -0.00000000000E+00 -0.00000000000E+00 -0.32227195540E+03  0.32227195540E+03  0.00000000000E+00 0.  1.
         25    1    1    2    0    0  0.13830111572E+03  0.63220342518E+02  0.25578190607E+03  0.32275903363E+03  0.12500000000E+03 0.  0.
         25    1    1    2    0    0 -0.84143311617E+02 -0.19652389352E+03 -0.13462715193E+03  0.28187090600E+03  0.12500000000E+03 0.  0.
         25    1    1    2    0    0 -0.54157804108E+02  0.13330355100E+03  0.32237078190E+02  0.19330580350E+03  0.12500000000E+03 0.  0.
</event>
<event>
 5    0  0.5503691E-005  0.3638385E+03  0.7546771E-02  0.1057074E+00
         21   -1    0    0  502  501  0.00000000000E+00  0.00000000000E+00  0.15967431051E+04  0.15967431051E+04  0.00000000000E+00 0. -1.
         21   -1    0    0  501  502 -0.00000000000E+00 -0.00000000000E+00 -0.82905307165E+02  0.82905307165E+02  0.00000000000E+00 0. -1.
         25    1    1    2    0    0 -0.10377951018E+03 -0.78815033671E+02  0.45624128372E+03  0.49067617146E+03  0.12500000000E+03 0.  0.
         25    1    1    2    0    0  0.26845063289E+03 -0.47782963921E+02  0.55082514630E+03  0.62720195770E+03  0.12500000000E+03 0.  0.
         25    1    1    2    0    0 -0.16467112271E+03  0.12659799759E+03  0.50677136793E+03  0.56177028313E+03  0.12500000000E+03 0.  0.
</event>
<event>
 5    0  0.5503691E-005  0.3133865E+03  0.7546771E-02  0.1078734E+00
         21   -1    0    0  502  501  0.00000000000E+00  0.00000000000E+00  0.18747321004E+03  0.18747321004E+03  0.00000000000E+00 0.  1.
         21   -1    0    0  501  502 -0.00000000000E+00 -0.00000000000E+00 -0.52386740947E+03  0.52386740947E+03  0.00000000000E+00 0.  1.
         25    1    1    2    0    0  0.74370302767E+01 -0.13643876852E+03  0.52926641404E+02  0.19260601326E+03  0.12500000000E+03 0.  0.
         25    1    1    2    0    0  0.10176441748E+01 -0.28562410999E+02 -0.20296572930E+03  0.24007693390E+03  0.12500000000E+03 0.  0.
         25    1    1    2    0    0 -0.84546744516E+01  0.16500117952E+03 -0.18635511153E+03  0.27865767235E+03  0.12500000000E+03 0.  0.
</event>
<event>
 5    0  0.5503691E-005  0.2911068E+03  0.7546771E-02  0.1089773E+00
         21   -1    0    0  502  501  0.00000000000E+00  0.00000000000E+00  0.49610154186E+02  0.49610154186E+02  0.00000000000E+00 0.  1.
         21   -1    0    0  501  502 -0.00000000000E+00 -0.00000000000E+00 -0.17081822643E+04  0.17081822643E+04  0.00000000000E+00 0.  1.
         25    1    1    2    0    0 -0.33307409223E+02 -0.57703566152E+02 -0.92827039221E+03  0.93901544509E+03  0.12500000000E+03 0.  0.
         25    1    1    2    0    0 -0.97815629007E+02 -0.29547214333E+02 -0.40938707920E+03  0.44007239833E+03  0.12500000000E+03 0.  0.
         25    1    1    2    0    0  0.13112303823E+03  0.87250780486E+02 -0.32091463873E+03  0.37870457510E+03  0.12500000000E+03 0.  0.
</event>
<event>
 5    0  0.5503691E-005  0.2465359E+03  0.7546771E-02  0.1115514E+00
         21   -1    0    0  502  501  0.00000000000E+00  0.00000000000E+00  0.45484142599E+02  0.45484142599E+02  0.00000000000E+00 0.  1.
         21   -1    0    0  501  502 -0.00000000000E+00 -0.00000000000E+00 -0.13362891106E+04  0.13362891106E+04  0.00000000000E+00 0.  1.
         25    1    1    2    0    0 -0.97141901577E+02  0.85298306955E+02 -0.44684991803E+03  0.48167644686E+03  0.12500000000E+03 0.  0.
         25    1    1    2    0    0  0.82419414916E+02 -0.45126465893E+02 -0.62589348728E+03  0.64513333141E+03  0.12500000000E+03 0.  0.
         25    1    1    2    0    0  0.14722486661E+02 -0.40171841063E+02 -0.21806156272E+03  0.25496347496E+03  0.12500000000E+03 0.  0.
</event>
<event>
 5    0  0.5503691E-005  0.2953050E+03  0.7546771E-02  0.1087611E+00
         21   -1    0    0  502  501  0.00000000000E+00  0.00000000000E+00  0.39257910184E+03  0.39257910184E+03  0.00000000000E+00 0.  1.
         21   -1    0    0  501  502 -0.00000000000E+00 -0.00000000000E+00 -0.22213363302E+03  0.22213363302E+03  0.00000000000E+00 0.  1.
         25    1    1    2    0    0 -0.94333411817E+02  0.75761419324E+02  0.25079749539E+02  0.17576284898E+03  0.12500000000E+03 0.  0.
         25    1    1    2    0    0  0.12537562210E+03  0.37024395519E+02 -0.41442727722E+02  0.18555956500E+03  0.12500000000E+03 0.  0.
         25    1    1    2    0    0 -0.31042210282E+02 -0.11278581484E+03  0.18680844701E+03  0.25339032089E+03  0.12500000000E+03 0.  0.
</event>
<event>
 5    0  0.5503691E-005  0.2348983E+03  0.7546771E-02  0.1123239E+00
         21   -1    0    0  502  501  0.00000000000E+00  0.00000000000E+00  0.22856860388E+03  0.22856860388E+03  0.00000000000E+00 0.  1.
         21   -1    0    0  501  502 -0.00000000000E+00 -0.00000000000E+00 -0.24140323531E+03  0.24140323531E+03  0.00000000000E+00 0.  1.
         25    1    1    2    0    0  0.11141030568E+02  0.81235743245E+01  0.12651094353E+03  0.17838198859E+03  0.12500000000E+03 0.  0.
         25    1    1    2    0    0 -0.17936677791E+02  0.14894103430E+02 -0.86411550556E+02  0.15373846232E+03  0.12500000000E+03 0.  0.
         25    1    1    2    0    0  0.67956472223E+01 -0.23017677755E+02 -0.52934024397E+02  0.13785138827E+03  0.12500000000E+03 0.  0.
</event>
<event>
 5    0  0.5503691E-005  0.3390513E+03  0.7546771E-02  0.1067201E+00
         21   -1    0    0  502  501  0.00000000000E+00  0.00000000000E+00  0.11987718891E+04  0.11987718891E+04  0.00000000000E+00 0. -1.
         21   -1    0    0  501  502 -0.00000000000E+00 -0.00000000000E+00 -0.95894644237E+02  0.95894644237E+02  0.00000000000E+00 0. -1.
         25    1    1    2    0    0  0.81196705900E+02 -0.91426902827E+02  0.13793620879E+03  0.22271771664E+03  0.12500000000E+03 0.  0.
         25    1    1    2    0    0 -0.13258515683E+03  0.81922111744E+02  0.89962392049E+03  0.92154123865E+03  0.12500000000E+03 0.  0.
         25    1    1    2    0    0  0.51388450927E+02  0.95047910821E+01  0.65317115552E+02  0.15040757802E+03  0.12500000000E+03 0.  0.
</event>
<event>
 5    0  0.5503691E-005  0.2851891E+03  0.7546771E-02  0.1092888E+00
         21   -1    0    0  502  501  0.00000000000E+00  0.00000000000E+00  0.19509974469E+03  0.19509974469E+03  0.00000000000E+00 0. -1.
         21   -1    0    0  501  502 -0.00000000000E+00 -0.00000000000E+00 -0.41687820335E+03  0.41687820335E+03  0.00000000000E+00 0. -1.
         25    1    1    2    0    0 -0.14618912124E+03 -0.69506046181E+02 -0.10396320202E+03  0.22942470878E+03  0.12500000000E+03 0.  0.
         25    1    1    2    0    0  0.80984078479E+02 -0.62894771557E+02 -0.95720677940E+02  0.18788725726E+03  0.12500000000E+03 0.  0.
         25    1    1    2    0    0  0.65205042761E+02  0.13240081774E+03 -0.22094578705E+02  0.19466598200E+03  0.12500000000E+03 0.  0.
</event>
<event>
 5    0  0.5503691E-005  0.2322372E+03  0.7546771E-02  0.1125075E+00
         21   -1    0    0  502  501  0.00000000000E+00  0.00000000000E+00  0.27223166814E+03  0.27223166814E+03  0.00000000000E+00 0. -1.
         21   -1    0    0  501  502 -0.00000000000E+00 -0.00000000000E+00 -0.19811845377E+03  0.19811845377E+03  0.00000000000E+00 0. -1.
         25    1    1    2    0    0  0.29355346018E+02  0.83128241938E+01 -0.53741378810E+02  0.13944165512E+03  0.12500000000E+03 0.  0.
         25    1    1    2    0    0 -0.86991569265E+01  0.17940565356E+02 -0.26678411310E+02  0.12936103295E+03  0.12500000000E+03 0.  0.
         25    1    1    2    0    0 -0.20656189092E+02 -0.26253389550E+02  0.15453300448E+03  0.20154743384E+03  0.12500000000E+03 0.  0.
</event>
<event>
 5    0  0.5503691E-005  0.4485122E+03  0.7546771E-02  0.1028167E+00
         21   -1    0    0  502  501  0.00000000000E+00  0.00000000000E+00  0.45035230016E+03  0.45035230016E+03  0.00000000000E+00 0. -1.
         21   -1    0    0  501  502 -0.00000000000E+00 -0.00000000000E+00 -0.44667962530E+03  0.44667962530E+03  0.00000000000E+00 0. -1.
         25    1    1    2    0    0  0.32128734892E+02  0.22082939776E+03  0.27287940117E+03  0.37401343038E+03  0.12500000000E+03 0.  0.
         25    1    1    2    0    0  0.17801098478E+02 -0.21634091991E+02 -0.25114846516E+03  0.28193166654E+03  0.12500000000E+03 0.  0.
         25    1    1    2    0    0 -0.49929833370E+02 -0.19919530577E+03 -0.18058261150E+02  0.24108682854E+03  0.12500000000E+03 0.  0.
</event>
<event>
 5    0  0.5503691E-005  0.3723135E+03  0.7546771E-02  0.1053812E+00
         21   -1    0    0  502  501  0.00000000000E+00  0.00000000000E+00  0.95451887721E+02  0.95451887721E+02  0.00000000000E+00 0. -1.
         21   -1    0    0  501  502 -0.00000000000E+00 -0.00000000000E+00 -0.14522222335E+04  0.14522222335E+04  0.00000000000E+00 0. -1.
         25    1    1    2    0    0 -0.55613319181E+02  0.25280309887E+03 -0.73895361353E+03  0.79289324062E+03  0.12500000000E+03 0.  0.
         25    1    1    2    0    0 -0.46050504496E+02 -0.22467402432E+03 -0.45087754171E+03  0.52107065144E+03  0.12500000000E+03 0.  0.
         25    1    1    2    0    0  0.10166382368E+03 -0.28129074554E+02 -0.16693919054E+03  0.23371022917E+03  0.12500000000E+03 0.  0.
</event>
<event>
 5    0  0.5503691E-005  0.3246262E+03  0.7546771E-02  0.1073540E+00
         21   -1    0    0  502  501  0.00000000000E+00  0.00000000000E+00  0.10781732144E+04  0.10781732144E+04  0.00000000000E+00 0.  1.
         21   -1    0    0  501  502 -0.00000000000E+00 -0.00000000000E+00 -0.97741386605E+02  0.97741386605E+02  0.00000000000E+00 0.  1.
         25    1    1    2    0    0  0.83407448264E+02  0.14891539866E+03  0.59386069776E+03  0.63041900886E+03  0.12500000000E+03 0.  0.
         25    1    1    2    0    0 -0.11105354284E+03 -0.38140467343E+01  0.86109747054E+02  0.18811519042E+03  0.12500000000E+03 0.  0.
         25    1    1    2    0    0  0.27646094576E+02 -0.14510135193E+03  0.30046138300E+03  0.35738040175E+03  0.12500000000E+03 0.  0.
</event>
<event>
 5    0  0.5503691E-005  0.3432067E+03  0.7546771E-02  0.1065438E+00
         21   -1    0    0  502  501  0.00000000000E+00  0.00000000000E+00  0.45240540235E+03  0.45240540235E+03  0.00000000000E+00 0. -1.
         21   -1    0    0  501  502 -0.00000000000E+00 -0.00000000000E+00 -0.26036561099E+03  0.26036561099E+03  0.00000000000E+00 0. -1.
         25    1    1    2    0    0 -0.20850432601E+03 -0.94875127161E+02 -0.37589308347E+01  0.26098749641E+03  0.12500000000E+03 0.  0.
         25    1    1    2    0    0  0.84088480927E+02  0.17378424457E+02 -0.30403533502E+02  0.15466821623E+03  0.12500000000E+03 0.  0.
         25    1    1    2    0    0  0.12441584508E+03  0.77496702704E+02  0.22620225570E+03  0.29711530072E+03  0.12500000000E+03 0.  0.
</event>
<event>
 5    0  0.5503691E-005  0.3378264E+03  0.7546771E-02  0.1067725E+00
         21   -1    0    0  502  501  0.00000000000E+00  0.00000000000E+00  0.90251310136E+03  0.90251310136E+03  0.00000000000E+00 0. -1.
         21   -1    0    0  501  502 -0.00000000000E+00 -0.00000000000E+00 -0.12645430638E+03  0.12645430638E+03  0.00000000000E+00 0. -1.
         25    1    1    2    0    0  0.24436993571E+03  0.19592248271E+02  0.41898074344E+03  0.50126877525E+03  0.12500000000E+03 0.  0.
         25    1    1    2    0    0 -0.21969263567E+03 -0.12338558082E+02  0.18506610124E+03  0.31351484178E+03  0.12500000000E+03 0.  0.
         25    1    1    2    0    0 -0.24677300035E+02 -0.72536901885E+01  0.17201195031E+03  0.21418379072E+03  0.12500000000E+03 0.  0.
</event>
<event>
 5    0  0.5503691E-005  0.3263447E+03  0.7546771E-02  0.1072766E+00
         21   -1    0    0  502  501  0.00000000000E+00  0.00000000000E+00  0.68886389582E+02  0.68886389582E+02  0.00000000000E+00 0. -1.
         21   -1    0    0  501  502 -0.00000000000E+00 -0.00000000000E+00 -0.15460365002E+04  0.15460365002E+04  0.00000000000E+00 0. -1.
         25    1    1    2    0    0  0.13543177768E+03  0.85164564072E+02 -0.27569681707E+03  0.34238648385E+03  0.12500000000E+03 0.  0.
         25    1    1    2    0    0 -0.10256775386E+03 -0.12497622225E+02 -0.10429769262E+04  0.10555103994E+04  0.12500000000E+03 0.  0.
         25    1    1    2    0    0 -0.32864023822E+02 -0.72666941847E+02 -0.15847636738E+03  0.21702600654E+03  0.12500000000E+03 0.  0.
</event>
<event>
 5    0  0.5503691E-005  0.3192011E+03  0.7546771E-02  0.1076018E+00
         21   -1    0    0  502  501  0.00000000000E+00  0.00000000000E+00  0.82867739512E+03  0.82867739512E+03  0.00000000000E+00 0.  1.
         21   -1    0    0  501  502 -0.00000000000E+00 -0.00000000000E+00 -0.12295416835E+03  0.12295416835E+03  0.00000000000E+00 0.  1.
         25    1    1    2    0    0  0.53729562309E+02  0.20600518199E+03  0.28778801280E+03  0.37917270628E+03  0.12500000000E+03 0.  0.
         25    1    1    2    0    0 -0.93994103503E+02 -0.62058900091E+02  0.89521534713E+02  0.19059198239E+03  0.12500000000E+03 0.  0.
         25    1    1    2    0    0  0.40264541195E+02 -0.14394628190E+03  0.32841367925E+03  0.38186687480E+03  0.12500000000E+03 0.  0.
</event>
<event>
 5    0  0.5503691E-005  0.2536735E+03  0.7546771E-02  0.1111005E+00
         21   -1    0    0  502  501  0.00000000000E+00  0.00000000000E+00  0.32850649248E+03  0.32850649248E+03  0.00000000000E+00 0. -1.
         21   -1    0    0  501  502 -0.00000000000E+00 -0.00000000000E+00 -0.19588731342E+03  0.19588731342E+03  0.00000000000E+00 0. -1.
         25    1    1    2    0    0  0.36462281692E+01 -0.67940109536E+02  0.14354010476E+03  0.20213340926E+03  0.12500000000E+03 0.  0.
         25    1    1    2    0    0  0.11980037905E+02  0.12132489177E+03 -0.46886545150E+02  0.18079435497E+03  0.12500000000E+03 0.  0.
         25    1    1    2    0    0 -0.15626266074E+02 -0.53384782234E+02  0.35965619459E+02  0.14146604168E+03  0.12500000000E+03 0.  0.
</event>
<event>
 5    0  0.5503691E-005  0.4455023E+03  0.7546771E-02  0.1029072E+00
         21   -1    0    0  502  501  0.00000000000E+00  0.00000000000E+00  0.26013176184E+03  0.26013176184E+03  0.00000000000E+00 0. -1.
         21   -1    0    0  501  502 -0.00000000000E+00 -0.00000000000E+00 -0.76296846688E+03  0.76296846688E+03  0.00000000000E+00 0. -1.
         25    1    1    2    0    0 -0.27260843920E+02  0.15363717787E+03 -0.83609630989E+02  0.21670972851E+03  0.12500000000E+03 0.  0.
         25    1    1    2    0    0  0.15924716819E+03  0.19128183612E+03 -0.80522656408E+02  0.28992636928E+03  0.12500000000E+03 0.  0.
         25    1    1    2    0    0 -0.13198632427E+03 -0.34491901399E+03 -0.33870441764E+03  0.51646413093E+03  0.12500000000E+03 0.  0.
</event>
<event>
 5    0  0.5503691E-005  0.2500407E+03  0.7546771E-02  0.1113279E+00
         21   -1    0    0  502  501  0.00000000000E+00  0.00000000000E+00  0.66774324879E+03  0.66774324879E+03  0.00000000000E+00 0. -1.
         21   -1    0    0  501  502 -0.00000000000E+00 -0.00000000000E+00 -0.93629359892E+02  0.93629359892E+02  0.00000000000E+00 0. -1.
         25    1    1    2    0    0  0.51855224274E+02 -0.30764926563E+02  0.36959921437E+02  0.14361922150E+03  0.12500000000E+03 0.  0.
         25    1    1    2    0    0 -0.57818425055E+02 -0.23870965185E+02  0.40208399130E+03  0.42568689117E+03  0.12500000000E+03 0.  0.
         25    1    1    2    0    0  0.59632007804E+01  0.54635891748E+02  0.13506997616E+03  0.19206649601E+03  0.12500000000E+03 0.  0.
</event>
<event>
 5    0  0.5503691E-005  0.2822456E+03  0.7546771E-02  0.1094469E+00
         21   -1    0    0  502  501  0.00000000000E+00  0.00000000000E+00  0.66457791088E+02  0.66457791088E+02  0.00000000000E+00 0. -1.
         21   -1    0    0  501  502 -0.00000000000E+00 -0.00000000000E+00 -0.11986941489E+04  0.11986941489E+04  0.00000000000E+00 0. -1.
         25    1    1    2    0    0  0.69627701600E+02 -0.78467211995E+02 -0.18711448108E+03  0.24827796765E+03  0.12500000000E+03 0.  0.
         25    1    1    2    0    0  0.81116635672E+02 -0.20770235105E+02 -0.46976176394E+03  0.49326709409E+03  0.12500000000E+03 0.  0.
         25    1    1    2    0    0 -0.15074433727E+03  0.99237447100E+02 -0.47536011282E+03  0.52360687829E+03  0.12500000000E+03 0.  0.
</event>
<event>
 5    0  0.5503691E-005  0.3357812E+03  0.7546771E-02  0.1068607E+00
         21   -1    0    0  502  501  0.00000000000E+00  0.00000000000E+00  0.39389086353E+03  0.39389086353E+03  0.00000000000E+00 0. -1.
         21   -1    0    0  501  502 -0.00000000000E+00 -0.00000000000E+00 -0.28624423983E+03  0.28624423983E+03  0.00000000000E+00 0. -1.
         25    1    1    2    0    0 -0.10831114231E+03  0.85789990527E+02 -0.59773529892E+02  0.19567601002E+03  0.12500000000E+03 0.  0.
         25    1    1    2    0    0  0.18302243724E+03  0.53050618737E+02  0.16821224882E+03  0.28325243394E+03  0.12500000000E+03 0.  0.
         25    1    1    2    0    0 -0.74711294929E+02 -0.13884060926E+03 -0.79209523219E+00  0.20120665940E+03  0.12500000000E+03 0.  0.
</event>
<event>
 5    0  0.5503691E-005  0.2224363E+03  0.7546771E-02  0.1132080E+00
         21   -1    0    0  502  501  0.00000000000E+00  0.00000000000E+00  0.15182177198E+03  0.15182177198E+03  0.00000000000E+00 0.  1.
         21   -1    0    0  501  502 -0.00000000000E+00 -0.00000000000E+00 -0.32589467340E+03  0.32589467340E+03  0.00000000000E+00 0.  1.
         25    1    1    2    0    0  0.22692330391E+02  0.18560076737E+02  0.19350898204E+02  0.12984173277E+03  0.12500000000E+03 0.  0.
         25    1    1    2    0    0  0.50679774258E+01 -0.78574379727E+02 -0.98692622532E+02  0.17766499736E+03  0.12500000000E+03 0.  0.
         25    1    1    2    0    0 -0.27760307817E+02  0.60014302990E+02 -0.94731177085E+02  0.17020971525E+03  0.12500000000E+03 0.  0.
</event>
<event>
 5    0  0.5503691E-005  0.2314392E+03  0.7546771E-02  0.1125631E+00
         21   -1    0    0  502  501  0.00000000000E+00  0.00000000000E+00  0.23160948102E+02  0.23160948102E+02  0.00000000000E+00 0. -1.
         21   -1    0    0  501  502 -0.00000000000E+00 -0.00000000000E+00 -0.23126897462E+04  0.23126897462E+04  0.00000000000E+00 0. -1.
         25    1    1    2    0    0  0.63717115861E+02 -0.22821795777E+02 -0.48715600287E+03  0.50747086256E+03  0.12500000000E+03 0.  0.
         25    1    1    2    0    0 -0.94835344327E+02 -0.42263350679E+02 -0.90411916287E+03  0.91860567928E+03  0.12500000000E+03 0.  0.
         25    1    1    2    0    0  0.31118228466E+02  0.65085146456E+02 -0.89825363233E+03  0.90977415243E+03  0.12500000000E+03 0.  0.
</event>
<event>
 5    0  0.5503691E-005  0.3478377E+03  0.7546771E-02  0.1063506E+00
         21   -1    0    0  502  501  0.00000000000E+00  0.00000000000E+00  0.92241177876E+03  0.92241177876E+03  0.00000000000E+00 0. -1.
         21   -1    0    0  501  502 -0.00000000000E+00 -0.00000000000E+00 -0.13116816119E+03  0.13116816119E+03  0.00000000000E+00 0. -1.
         25    1    1    2    0    0 -0.82319957425E+02 -0.11189712061E+03  0.14029570073E+03  0.23367803627E+03  0.12500000000E+03 0.  0.
         25    1    1    2    0    0 -0.53542189276E+02  0.93357706438E+02  0.24750148083E+02  0.16679327688E+03  0.12500000000E+03 0.  0.
         25    1    1    2    0    0  0.13586214670E+03  0.18539414175E+02  0.62619776877E+03  0.65310862679E+03  0.12500000000E+03 0.  0.
</event>
<event>
 5    0  0.5503691E-005  0.4044175E+03  0.7546771E-02  0.1042261E+00
         21   -1    0    0  502  501  0.00000000000E+00  0.00000000000E+00  0.25880071790E+03  0.25880071790E+03  0.00000000000E+00 0. -1.
         21   -1    0    0  501  502 -0.00000000000E+00 -0.00000000000E+00 -0.63196690522E+03  0.63196690522E+03  0.00000000000E+00 0. -1.
         25    1    1    2    0    0 -0.31054762616E+02  0.29462021901E+03 -0.30006657931E+03  0.43980725751E+03  0.12500000000E+03 0.  0.
         25    1    1    2    0    0  0.89104274464E+02 -0.25486896776E+03 -0.20690960419E+02  0.29824633828E+03  0.12500000000E+03 0.  0.
         25    1    1    2    0    0 -0.58049511848E+02 -0.39751251254E+02 -0.52408647582E+02  0.15271402733E+03  0.12500000000E+03 0.  0.
</event>
<event>
 5    0  0.5503691E-005  0.4275969E+03  0.7546771E-02  0.1034622E+00
         21   -1    0    0  502  501  0.00000000000E+00  0.00000000000E+00  0.25626959271E+03  0.25626959271E+03  0.00000000000E+00 0.  1.
         21   -1    0    0  501  502 -0.00000000000E+00 -0.00000000000E+00 -0.71346386560E+03  0.71346386560E+03  0.00000000000E+00 0.  1.
         25    1    1    2    0    0 -0.31088472585E+03  0.46511506902E+02 -0.23680410320E+02  0.33911413252E+03  0.12500000000E+03 0.  0.
         25    1    1    2    0    0  0.96660853786E+02 -0.71259385951E+02 -0.30344974360E+03  0.34946812105E+03  0.12500000000E+03 0.  0.
         25    1    1    2    0    0  0.21422387207E+03  0.24747879049E+02 -0.13006411897E+03  0.28115120473E+03  0.12500000000E+03 0.  0.
</event>
<event>
 5    0  0.5503691E-005  0.4588789E+03  0.7546771E-02  0.1025107E+00
         21   -1    0    0  502  501  0.00000000000E+00  0.00000000000E+00  0.34361097250E+03  0.34361097250E+03  0.00000000000E+00 0.  1.
         21   -1    0    0  501  502 -0.00000000000E+00 -0.00000000000E+00 -0.61281454812E+03  0.61281454812E+03  0.00000000000E+00 0.  1.
         25    1    1    2    0    0  0.19234239795E+02 -0.82742565548E+02 -0.30808411354E+03  0.34315755733E+03  0.12500000000E+03 0.  0.
         25    1    1    2    0    0 -0.22610129945E+03  0.87140704705E+02 -0.14567604273E+03  0.30913073198E+03  0.12500000000E+03 0.  0.
         25    1    1    2    0    0  0.20686705966E+03 -0.43981391568E+01  0.18455658065E+03  0.30413723130E+03  0.12500000000E+03 0.  0.
</event>
<event>
 5    0  0.5503691E-005  0.2535187E+03  0.7546771E-02  0.1111101E+00
         21   -1    0    0  502  501  0.00000000000E+00  0.00000000000E+00  0.13313575113E+03  0.13313575113E+03  0.00000000000E+00 0.  1.
         21   -1    0    0  501  502 -0.00000000000E+00 -0.00000000000E+00 -0.48275324503E+03  0.48275324503E+03  0.00000000000E+00 0.  1.
         25    1    1    2    0    0  0.32939891508E+02 -0.70367410490E+02 -0.11545221734E+02  0.14763096239E+03  0.12500000000E+03 0.  0.
         25    1    1    2    0    0  0.60906618698E+02 -0.12576318175E+02 -0.10049335950E+03  0.17202236856E+03  0.12500000000E+03 0.  0.
         25    1    1    2    0    0 -0.93846510207E+02  0.82943728665E+02 -0.23757891266E+03  0.29623566521E+03  0.12500000000E+03 0.  0.
</event>
<event>
 5    0  0.5858921E-005  0.3030540E+03  0.7546771E-02  0.1083724E+00
         21   -1    0    0  502  501  0.00000000000E+00  0.00000000000E+00  0.11700455901E+03  0.11700455901E+03  0.00000000000E+00 0. -1.
         21   -1    0    0  501  502 -0.00000000000E+00 -0.00000000000E+00 -0.78494146772E+03  0.78494146772E+03  0.00000000000E+00 0. -1.
         25    1    1    2    0    0 -0.16333005084E+03 -0.29742019981E+02 -0.41261739059E+03  0.46199502625E+03  0.12500000000E+03 0.  0.
         25    1    1    2    0    0  0.12702325649E+03 -0.54636239951E+02 -0.20452852079E+03  0.27672539136E+03  0.12500000000E+03 0.  0.
         25    1    1    2    0    0  0.36306794356E+02  0.84378259933E+02 -0.50790997319E+02  0.16322560913E+03  0.12500000000E+03 0.  0.
</event>
<event>
 5    0  0.5503691E-005  0.3401119E+03  0.7546771E-02  0.1066748E+00
         21   -1    0    0  502  501  0.00000000000E+00  0.00000000000E+00  0.11442357358E+04  0.11442357358E+04  0.00000000000E+00 0. -1.
         21   -1    0    0  501  502 -0.00000000000E+00 -0.00000000000E+00 -0.10109464422E+03  0.10109464422E+03  0.00000000000E+00 0. -1.
         25    1    1    2    0    0 -0.24418864298E+03  0.12124202035E+03  0.45096351438E+03  0.54159100081E+03  0.12500000000E+03 0.  0.
         25    1    1    2    0    0  0.88453388735E+02 -0.84192985892E+02  0.31331791563E+03  0.35875559523E+03  0.12500000000E+03 0.  0.
         25    1    1    2    0    0  0.15573525424E+03 -0.37049034455E+02  0.27885966159E+03  0.34498378401E+03  0.12500000000E+03 0.  0.
</event>
<event>
 5    0  0.5503691E-005  0.3935348E+03  0.7546771E-02  0.1046042E+00
         21   -1    0    0  502  501  0.00000000000E+00  0.00000000000E+00  0.58539978468E+03  0.58539978468E+03  0.00000000000E+00 0.  1.
         21   -1    0    0  501  502 -0.00000000000E+00 -0.00000000000E+00 -0.26455363653E+03  0.26455363653E+03  0.00000000000E+00 0.  1.
         25    1    1    2    0    0  0.96345781411E+02  0.15728797025E+03  0.21524623096E+03  0.30980309089E+03  0.12500000000E+03 0.  0.
         25    1    1    2    0    0  0.69551438941E+02 -0.41492985927E+02  0.22826856081E+03  0.27256303197E+03  0.12500000000E+03 0.  0.
         25    1    1    2    0    0 -0.16589722035E+03 -0.11579498432E+03 -0.12266864362E+03  0.26758729836E+03  0.12500000000E+03 0.  0.
</event>
<event>
 5    0  0.5503691E-005  0.2260213E+03  0.7546771E-02  0.1129472E+00
         21   -1    0    0  502  501  0.00000000000E+00  0.00000000000E+00  0.66219030898E+03  0.66219030898E+03  0.00000000000E+00 0. -1.
         21   -1    0    0  501  502 -0.00000000000E+00 -0.00000000000E+00 -0.77146451512E+02  0.77146451512E+02  0.00000000000E+00 0. -1.
         25    1    1    2    0    0  0.41792739212E+02  0.48628172773E+02  0.18879379496E+03  0.23532834350E+03  0.12500000000E+03 0.  0.
         25    1    1    2    0    0  0.53141202293E+02  0.11065125839E+02  0.23226128513E+03  0.26928930347E+03  0.12500000000E+03 0.  0.
         25    1    1    2    0    0 -0.94933941505E+02 -0.59693298612E+02  0.16398877738E+03  0.23471911353E+03  0.12500000000E+03 0.  0.
</event>
<event>
 5    0  0.5503691E-005  0.2334493E+03  0.7546771E-02  0.1124235E+00
         21   -1    0    0  502  501  0.00000000000E+00  0.00000000000E+00  0.28966449924E+03  0.28966449924E+03  0.00000000000E+00 0.  1.
         21   -1    0    0  501  502 -0.00000000000E+00 -0.00000000000E+00 -0.18814376113E+03  0.18814376113E+03  0.00000000000E+00 0.  1.
         25    1    1    2    0    0  0.37381383046E+02 -0.54930751356E+02  0.28313229980E+02  0.14436548838E+03  0.12500000000E+03 0.  0.
         25    1    1    2    0    0 -0.42103402336E+02  0.12215787413E+02  0.13358281288E+03  0.18812572883E+03  0.12500000000E+03 0.  0.
         25    1    1    2    0    0  0.47220192906E+01  0.42714963943E+02 -0.60375304741E+02  0.14531704316E+03  0.12500000000E+03 0.  0.
</event>
<event>
 5    0  0.5503691E-005  0.2796989E+03  0.7546771E-02  0.1095854E+00
         21   -1    0    0  502  501  0.00000000000E+00  0.00000000000E+00  0.12096414321E+03  0.12096414321E+03  0.00000000000E+00 0. -1.
         21   -1    0    0  501  502 -0.00000000000E+00 -0.00000000000E+00 -0.64673266983E+03  0.64673266983E+03  0.00000000000E+00 0. -1.
         25    1    1    2    0    0 -0.27581557213E+02 -0.29882572565E+02 -0.82502801321E+00  0.13145109780E+03  0.12500000000E+03 0.  0.
         25    1    1    2    0    0  0.10337802756E+03  0.99434467203E+02 -0.21894165589E+03  0.29005978441E+03  0.12500000000E+03 0.  0.
         25    1    1    2    0    0 -0.75796470342E+02 -0.69551894638E+02 -0.30600184271E+03  0.34618593083E+03  0.12500000000E+03 0.  0.
</event>
<event>
 5    0  0.5503691E-005  0.6120685E+03  0.7546771E-02  0.9880679E-01
         21   -1    0    0  502  501  0.00000000000E+00  0.00000000000E+00  0.12422047474E+04  0.12422047474E+04  0.00000000000E+00 0.  1.
         21   -1    0    0  501  502 -0.00000000000E+00 -0.00000000000E+00 -0.30158305686E+03  0.30158305686E+03  0.00000000000E+00 0.  1.
         25    1    1    2    0    0  0.13199677282E+03 -0.50803661287E+03  0.47575659593E+03  0.71937034038E+03  0.12500000000E+03 0.  0.
         25    1    1    2    0    0 -0.77328750948E+01  0.17054226938E+03  0.37906872341E+03  0.43412274770E+03  0.12500000000E+03 0.  0.
         25    1    1    2    0    0 -0.12426389773E+03  0.33749434349E+03  0.85796371208E+02  0.39029471618E+03  0.12500000000E+03 0.  0.
</event>
<event>
 5    0  0.5503691E-005  0.2369887E+03  0.7546771E-02  0.1121815E+00
         21   -1    0    0  502  501  0.00000000000E+00  0.00000000000E+00  0.33494875602E+03  0.33494875602E+03  0.00000000000E+00 0.  1.
         21   -1    0    0  501  502 -0.00000000000E+00 -0.00000000000E+00 -0.16767830574E+03  0.16767830574E+03  0.00000000000E+00 0.  1.
         25    1    1    2    0    0 -0.89891808885E+02 -0.15782640616E+02  0.10166617988E+03  0.18517732361E+03  0.12500000000E+03 0.  0.
         25    1    1    2    0    0  0.99702353057E+02  0.87075299979E+01  0.98022321244E+02  0.18774918308E+03  0.12500000000E+03 0.  0.
         25    1    1    2    0    0 -0.98105441727E+01  0.70751106183E+01 -0.32418050845E+02  0.12970055508E+03  0.12500000000E+03 0.  0.
</event>
<event>
 5    0  0.5503691E-005  0.2566785E+03  0.7546771E-02  0.1109155E+00
         21   -1    0    0  502  501  0.00000000000E+00  0.00000000000E+00  0.10149828743E+04  0.10149828743E+04  0.00000000000E+00 0. -1.
         21   -1    0    0  501  502 -0.00000000000E+00 -0.00000000000E+00 -0.64911302613E+02  0.64911302613E+02  0.00000000000E+00 0. -1.
         25    1    1    2    0    0  0.86106703489E+02 -0.74266716405E+02  0.33035681427E+03  0.37106675179E+03  0.12500000000E+03 0.  0.
         25    1    1    2    0    0 -0.58960735064E+02 -0.64770926018E+02  0.31998113660E+03  0.35452019536E+03  0.12500000000E+03 0.  0.
         25    1    1    2    0    0 -0.27145968424E+02  0.13903764242E+03  0.29973362080E+03  0.35430722975E+03  0.12500000000E+03 0.  0.
</event>
<event>
 5    0  0.5503691E-005  0.4119231E+03  0.7546771E-02  0.1039728E+00
         21   -1    0    0  502  501  0.00000000000E+00  0.00000000000E+00  0.14227892078E+04  0.14227892078E+04  0.00000000000E+00 0.  1.
         21   -1    0    0  501  502 -0.00000000000E+00 -0.00000000000E+00 -0.11925916815E+03  0.11925916815E+03  0.00000000000E+00 0.  1.
         25    1    1    2    0    0 -0.26902431928E+02 -0.11772848953E+02  0.40674288693E+03  0.42652915128E+03  0.12500000000E+03 0.  0.
         25    1    1    2    0    0  0.31731070122E+03  0.29379161485E+02  0.53025732379E+03  0.63114740407E+03  0.12500000000E+03 0.  0.
         25    1    1    2    0    0 -0.29040826929E+03 -0.17606312532E+02  0.36652982897E+03  0.48437182065E+03  0.12500000000E+03 0.  0.
</event>
<event>
 5    0  0.5503691E-005  0.3792986E+03  0.7546771E-02  0.1051193E+00
         21   -1    0    0  502  501  0.00000000000E+00  0.00000000000E+00  0.15367890113E+04  0.15367890113E+04  0.00000000000E+00 0.  1.
         21   -1    0    0  501  502 -0.00000000000E+00 -0.00000000000E+00 -0.93615603045E+02  0.93615603045E+02  0.00000000000E+00 0.  1.
         25    1    1    2    0    0  0.19321369230E+02 -0.71644313763E+02  0.42981572204E+03  0.45373205520E+03  0.12500000000E+03 0.  0.
         25    1    1    2    0    0 -0.11660882107E+02 -0.20290364611E+03  0.20763808656E+03  0.31629802523E+03  0.12500000000E+03 0.  0.
         25    1    1    2    0    0 -0.76604871230E+01  0.27454795987E+03  0.80571959963E+03  0.86037453389E+03  0.12500000000E+03 0.  0.
</event>
<event>
 5    0  0.5503691E-005  0.2694236E+03  0.7546771E-02  0.1101610E+00
         21   -1    0    0  502  501  0.00000000000E+00  0.00000000000E+00  0.69892736669E+03  0.69892736669E+03  0.00000000000E+00 0.  1.
         21   -1    0    0  501  502 -0.00000000000E+00 -0.00000000000E+00 -0.10385783078E+03  0.10385783078E+03  0.00000000000E+00 0.  1.
         25    1    1    2    0    0 -0.10485661820E+02  0.85150925088E+02  0.34829319542E+03  0.37986020998E+03  0.12500000000E+03 0.  0.
         25    1    1    2    0    0 -0.49676660012E+02 -0.16515782105E+02  0.23038057382E+03  0.26728402572E+03  0.12500000000E+03 0.  0.
         25    1    1    2    0    0  0.60162321831E+02 -0.68635142983E+02  0.16395766665E+02  0.15564096178E+03  0.12500000000E+03 0.  0.
</event>
<event>
 5    0  0.5503691E-005  0.3206923E+03  0.7546771E-02  0.1075331E+00
         21   -1    0    0  502  501  0.00000000000E+00  0.00000000000E+00  0.77122648023E+02  0.77122648023E+02  0.00000000000E+00 0. -1.
         21   -1    0    0  501  502 -0.00000000000E+00 -0.00000000000E+00 -0.13335068379E+04  0.13335068379E+04  0.00000000000E+00 0. -1.
         25    1    1    2    0    0  0.52518497112E+02  0.88089022273E+02 -0.51308801452E+03  0.53796113152E+03  0.12500000000E+03 0.  0.
         25    1    1    2    0    0 -0.18171353387E+03 -0.14810996373E+03 -0.39269670522E+03  0.47412242305E+03  0.12500000000E+03 0.  0.
         25    1    1    2    0    0  0.12919503676E+03  0.60020941458E+02 -0.35059947016E+03  0.39854593137E+03  0.12500000000E+03 0.  0.
</event>
<event>
 5    0  0.5539058E-005  0.2734819E+03  0.7546771E-02  0.1099303E+00
         21   -1    0    0  502  501  0.00000000000E+00  0.00000000000E+00  0.13379619138E+03  0.13379619138E+03  0.00000000000E+00 0.  1.
         21   -1    0    0  501  502 -0.00000000000E+00 -0.00000000000E+00 -0.55900228553E+03  0.55900228553E+03  0.00000000000E+00 0.  1.
         25    1    1    2    0    0 -0.12193729033E+03 -0.77875228992E+02 -0.81143323643E+02  0.20770771058E+03  0.12500000000E+03 0.  0.
         25    1    1    2    0    0  0.12458009035E+03 -0.13955310473E+02 -0.12521239238E+03  0.21683655782E+03  0.12500000000E+03 0.  0.
         25    1    1    2    0    0 -0.26428000237E+01  0.91830539465E+02 -0.21885037813E+03  0.26825420850E+03  0.12500000000E+03 0.  0.
</event>
<event>
 5    0  0.5503691E-005  0.2896277E+03  0.7546771E-02  0.1090544E+00
         21   -1    0    0  502  501  0.00000000000E+00  0.00000000000E+00  0.42566971238E+02  0.42566971238E+02  0.00000000000E+00 0. -1.
         21   -1    0    0  501  502 -0.00000000000E+00 -0.00000000000E+00 -0.19706401167E+04  0.19706401167E+04  0.00000000000E+00 0. -1.
         25    1    1    2    0    0  0.63336557878E+02  0.46865611657E+02 -0.85165513333E+03  0.86437802566E+03  0.12500000000E+03 0.  0.
         25    1    1    2    0    0 -0.47335417776E+02 -0.39777014963E+02 -0.98032338449E+03  0.99019280490E+03  0.12500000000E+03 0.  0.
         25    1    1    2    0    0 -0.16001140102E+02 -0.70885966940E+01 -0.96094627599E+02  0.15863625733E+03  0.12500000000E+03 0.  0.
</event>
<event>
 5    0  0.5503691E-005  0.2535646E+03  0.7546771E-02  0.1111073E+00
         21   -1    0    0  502  501  0.00000000000E+00  0.00000000000E+00  0.28112959293E+03  0.28112959293E+03  0.00000000000E+00 0. -1.
         21   -1    0    0  501  502 -0.00000000000E+00 -0.00000000000E+00 -0.22870237753E+03  0.22870237753E+03  0.00000000000E+00 0. -1.
         25    1    1    2    0    0 -0.36994603172E+02 -0.59937571347E+02  0.60019113566E+02  0.15552622646E+03  0.12500000000E+03 0.  0.
         25    1    1    2    0    0 -0.18837881523E+02 -0.74682700371E+02  0.47908481901E+02  0.15444285077E+03  0.12500000000E+03 0.  0.
         25    1    1    2    0    0  0.55832484695E+02  0.13462027172E+03 -0.55500380071E+02  0.19986289324E+03  0.12500000000E+03 0.  0.
</event>
<event>
 5    0  0.5503691E-005  0.2360797E+03  0.7546771E-02  0.1122432E+00
         21   -1    0    0  502  501  0.00000000000E+00  0.00000000000E+00  0.52179631369E+02  0.52179631369E+02  0.00000000000E+00 0.  1.
         21   -1    0    0  501  502 -0.00000000000E+00 -0.00000000000E+00 -0.10681110711E+04  0.10681110711E+04  0.00000000000E+00 0.  1.
         25    1    1    2    0    0 -0.47253938329E+02 -0.11977028027E+03 -0.50359479851E+03  0.53461254737E+03  0.12500000000E+03 0.  0.
         25    1    1    2    0    0  0.19699096946E+02  0.64813719922E+02 -0.22151518821E+03  0.26321635838E+03  0.12500000000E+03 0.  0.
         25    1    1    2    0    0  0.27554841383E+02  0.54956560351E+02 -0.29082145302E+03  0.32246179672E+03  0.12500000000E+03 0.  0.
</event>
<event>
 5    0  0.5503691E-005  0.3745197E+03  0.7546771E-02  0.1052978E+00
         21   -1    0    0  502  501  0.00000000000E+00  0.00000000000E+00  0.12413444850E+04  0.12413444850E+04  0.00000000000E+00 0. -1.
         21   -1    0    0  501  502 -0.00000000000E+00 -0.00000000000E+00 -0.11299440792E+03  0.11299440792E+03  0.00000000000E+00 0. -1.
         25    1    1    2    0    0 -0.13381198447E+03  0.17258862701E+01  0.90315019106E+03  0.92152802100E+03  0.12500000000E+03 0.  0.
         25    1    1    2    0    0  0.44762658162E+02 -0.75130250071E+02  0.21333792792E+03  0.26227146534E+03  0.12500000000E+03 0.  0.
         25    1    1    2    0    0  0.89049326306E+02  0.73404363801E+02  0.11861958075E+02  0.17053940656E+03  0.12500000000E+03 0.  0.
</event>
<event>
 5    0  0.5503691E-005  0.4216760E+03  0.7546771E-02  0.1036522E+00
         21   -1    0    0  502  501  0.00000000000E+00  0.00000000000E+00  0.48683705217E+03  0.48683705217E+03  0.00000000000E+00 0. -1.
         21   -1    0    0  501  502 -0.00000000000E+00 -0.00000000000E+00 -0.36523650516E+03  0.36523650516E+03  0.00000000000E+00 0. -1.
         25    1    1    2    0    0 -0.24808809713E+03  0.81282180913E+01 -0.67837538803E+01  0.27800142299E+03  0.12500000000E+03 0.  0.
         25    1    1    2    0    0  0.28481921815E+03  0.27151949948E+02 -0.83182354697E+02  0.32311533474E+03  0.12500000000E+03 0.  0.
         25    1    1    2    0    0 -0.36731121021E+02 -0.35280168039E+02  0.21156665559E+03  0.25095679960E+03  0.12500000000E+03 0.  0.
</event>
<event>
 5    0  0.5503691E-005  0.3995746E+03  0.7546771E-02  0.1043927E+00
         21   -1    0    0  502  501  0.00000000000E+00  0.00000000000E+00  0.29865355511E+03  0.29865355511E+03  0.00000000000E+00 0.  1.
         21   -1    0    0  501  502 -0.00000000000E+00 -0.00000000000E+00 -0.53459881285E+03  0.53459881285E+03  0.00000000000E+00 0.  1.
         25    1    1    2    0    0 -0.13625663264E+03 -0.22378865373E+02 -0.82855199380E+02  0.20385452562E+03  0.12500000000E+03 0.  0.
         25    1    1    2    0    0 -0.22311225395E+02  0.61714810347E+02  0.18556286053E+03  0.23316321280E+03  0.12500000000E+03 0.  0.
         25    1    1    2    0    0  0.15856785803E+03 -0.39335944974E+02 -0.33865291890E+03  0.39623462954E+03  0.12500000000E+03 0.  0.
</event>
<event>
 5    0  0.5503691E-005  0.3230943E+03  0.7546771E-02  0.1074234E+00
         21   -1    0    0  502  501  0.00000000000E+00  0.00000000000E+00  0.35048488229E+03  0.35048488229E+03  0.00000000000E+00 0. -1.
         21   -1    0    0  501  502 -0.00000000000E+00 -0.00000000000E+00 -0.29784437412E+03  0.29784437412E+03  0.00000000000E+00 0. -1.
         25    1    1    2    0    0 -0.74466678879E+02  0.30877176526E+02  0.21041254580E+01  0.14875521382E+03  0.12500000000E+03 0.  0.
         25    1    1    2    0    0 -0.62936537593E+02 -0.74166116625E+02  0.20152110779E+03  0.25631499664E+03  0.12500000000E+03 0.  0.
         25    1    1    2    0    0  0.13740321647E+03  0.43288940099E+02 -0.15098472507E+03  0.24325904595E+03  0.12500000000E+03 0.  0.
</event>
<event>
 5    0  0.5503691E-005  0.3189328E+03  0.7546771E-02  0.1076142E+00
         21   -1    0    0  502  501  0.00000000000E+00  0.00000000000E+00  0.52367485576E+03  0.52367485576E+03  0.00000000000E+00 0. -1.
         21   -1    0    0  501  502 -0.00000000000E+00 -0.00000000000E+00 -0.19423908644E+03  0.19423908644E+03  0.00000000000E+00 0. -1.
         25    1    1    2    0    0 -0.14628391537E+03 -0.12878121829E+03  0.14741161916E+03  0.27447909126E+03  0.12500000000E+03 0.  0.
         25    1    1    2    0    0  0.17371905880E+03 -0.10199511907E+02  0.79900549276E+02  0.22867321489E+03  0.12500000000E+03 0.  0.
         25    1    1    2    0    0 -0.27435143433E+02  0.13898073019E+03  0.10212360089E+03  0.21476163605E+03  0.12500000000E+03 0.  0.
</event>
<event>
 5    0  0.5503691E-005  0.3407131E+03  0.7546771E-02  0.1066493E+00
         21   -1    0    0  502  501  0.00000000000E+00  0.00000000000E+00  0.11364433446E+04  0.11364433446E+04  0.00000000000E+00 0.  1.
         21   -1    0    0  501  502 -0.00000000000E+00 -0.00000000000E+00 -0.10214797920E+03  0.10214797920E+03  0.00000000000E+00 0.  1.
         25    1    1    2    0    0  0.13476251552E+03  0.30003616424E+02  0.21915575913E+03  0.28760285004E+03  0.12500000000E+03 0.  0.
         25    1    1    2    0    0 -0.10543924293E+03  0.10974133950E+03  0.70408537651E+03  0.73110998691E+03  0.12500000000E+03 0.  0.
         25    1    1    2    0    0 -0.29323272591E+02 -0.13974495593E+03  0.11105422972E+03  0.21987848681E+03  0.12500000000E+03 0.  0.
</event>
<event>
 5    0  0.5503691E-005  0.3059505E+03  0.7546771E-02  0.1082303E+00
         21   -1    0    0  502  501  0.00000000000E+00  0.00000000000E+00  0.30080246958E+03  0.30080246958E+03  0.00000000000E+00 0.  1.
         21   -1    0    0  501  502 -0.00000000000E+00 -0.00000000000E+00 -0.31118672876E+03  0.31118672876E+03  0.00000000000E+00 0.  1.
         25    1    1    2    0    0  0.12045473359E+03 -0.14302616968E+03  0.51608958256E+02  0.23076895942E+03  0.12500000000E+03 0.  0.
         25    1    1    2    0    0 -0.84866547167E+02 -0.35365803260E+02 -0.18627971739E+02  0.15628522707E+03  0.12500000000E+03 0.  0.
         25    1    1    2    0    0 -0.35588186422E+02  0.17839197294E+03 -0.43365245693E+02  0.22493501185E+03  0.12500000000E+03 0.  0.
</event>
<event>
 5    0  0.5503691E-005  0.4025887E+03  0.7546771E-02  0.1042887E+00
         21   -1    0    0  502  501  0.00000000000E+00  0.00000000000E+00  0.16096211396E+03  0.16096211396E+03  0.00000000000E+00 0. -1.
         21   -1    0    0  501  502 -0.00000000000E+00 -0.00000000000E+00 -0.10069307201E+04  0.10069307201E+04  0.00000000000E+00 0. -1.
         25    1    1    2    0    0 -0.15031405393E+03 -0.34505952134E+02 -0.16610697209E+03  0.25884648292E+03  0.12500000000E+03 0.  0.
         25    1    1    2    0    0  0.92576030646E+02  0.10995412187E+02 -0.74052045641E+03  0.75676070650E+03  0.12500000000E+03 0.  0.
         25    1    1    2    0    0  0.57738023284E+02  0.23510539947E+02  0.60658822385E+02  0.15228564461E+03  0.12500000000E+03 0.  0.
</event>
<event>
 5    0  0.5503691E-005  0.3621533E+03  0.7546771E-02  0.1057734E+00
         21   -1    0    0  502  501  0.00000000000E+00  0.00000000000E+00  0.49598217825E+03  0.49598217825E+03  0.00000000000E+00 0.  1.
         21   -1    0    0  501  502 -0.00000000000E+00 -0.00000000000E+00 -0.26443490564E+03  0.26443490564E+03  0.00000000000E+00 0.  1.
         25    1    1    2    0    0 -0.22385896130E+03 -0.29340784908E+02  0.21060504558E+02  0.25892520361E+03  0.12500000000E+03 0.  0.
         25    1    1    2    0    0  0.59223796518E+02 -0.11949673443E+03  0.20938643536E+02  0.18398465807E+03  0.12500000000E+03 0.  0.
         25    1    1    2    0    0  0.16463516478E+03  0.14883751933E+03  0.18954812452E+03  0.31750722221E+03  0.12500000000E+03 0.  0.
</event>
<event>
 5    0  0.6032612E-005  0.3473370E+03  0.7546771E-02  0.1063713E+00
         21   -1    0    0  502  501  0.00000000000E+00  0.00000000000E+00  0.20562787548E+03  0.20562787548E+03  0.00000000000E+00 0. -1.
         21   -1    0    0  501  502 -0.00000000000E+00 -0.00000000000E+00 -0.58670541425E+03  0.58670541425E+03  0.00000000000E+00 0. -1.
         25    1    1    2    0    0  0.12530158233E+03 -0.98423982534E+02 -0.26846103773E+02  0.20428773864E+03  0.12500000000E+03 0.  0.
         25    1    1    2    0    0 -0.20354304863E+03  0.15083117038E+03 -0.32182146396E+03  0.42822175245E+03  0.12500000000E+03 0.  0.
         25    1    1    2    0    0  0.78241466302E+02 -0.52407187849E+02 -0.32409971035E+02  0.15982379863E+03  0.12500000000E+03 0.  0.
</event>
<event>
 5    0  0.5503691E-005  0.3608651E+03  0.7546771E-02  0.1058242E+00
         21   -1    0    0  502  501  0.00000000000E+00  0.00000000000E+00  0.42967370153E+03  0.42967370153E+03  0.00000000000E+00 0. -1.
         21   -1    0    0  501  502 -0.00000000000E+00 -0.00000000000E+00 -0.30307556703E+03  0.30307556703E+03  0.00000000000E+00 0. -1.
         25    1    1    2    0    0  0.11725935762E+03  0.28809134902E+02 -0.50131115236E+01  0.17386734740E+03  0.12500000000E+03 0.  0.
         25    1    1    2    0    0 -0.51303886194E+02 -0.62500469064E+02  0.30094711012E+03  0.33575669831E+03  0.12500000000E+03 0.  0.
         25    1    1    2    0    0 -0.65955471426E+02  0.33691334162E+02 -0.16933586409E+03  0.22312522286E+03  0.12500000000E+03 0.  0.
</event>
<event>
 5    0  0.5503691E-005  0.2527811E+03  0.7546771E-02  0.1111560E+00
         21   -1    0    0  502  501  0.00000000000E+00  0.00000000000E+00  0.91045151983E+02  0.91045151983E+02  0.00000000000E+00 0.  1.
         21   -1    0    0  501  502 -0.00000000000E+00 -0.00000000000E+00 -0.70183084086E+03  0.70183084086E+03  0.00000000000E+00 0.  1.
         25    1    1    2    0    0 -0.51442455068E+02 -0.31117469420E+02 -0.45889402710E+03  0.47939894784E+03  0.12500000000E+03 0.  0.
         25    1    1    2    0    0  0.10652272198E+01  0.44831312189E+02 -0.42740439531E+02  0.13950887582E+03  0.12500000000E+03 0.  0.
         25    1    1    2    0    0  0.50377227848E+02 -0.13713842769E+02 -0.10915122225E+03  0.17396816918E+03  0.12500000000E+03 0.  0.
</event>
<event>
 5    0  0.5503691E-005  0.2904241E+03  0.7546771E-02  0.1090128E+00
         21   -1    0    0  502  501  0.00000000000E+00  0.00000000000E+00  0.21290634720E+03  0.21290634720E+03  0.00000000000E+00 0. -1.
         21   -1    0    0  501  502 -0.00000000000E+00 -0.00000000000E+00 -0.39616565882E+03  0.39616565882E+03  0.00000000000E+00 0. -1.
         25    1    1    2    0    0  0.16955738427E+02  0.11302031753E+02 -0.49710238304E+02  0.13605638823E+03  0.12500000000E+03 0.  0.
         25    1    1    2    0    0  0.33373816517E+02  0.39182372962E+02  0.12046845193E+03  0.18107102996E+03  0.12500000000E+03 0.  0.
         25    1    1    2    0    0 -0.50329554944E+02 -0.50484404714E+02 -0.25401752526E+03  0.29194458782E+03  0.12500000000E+03 0.  0.
</event>
<event>
 5    0  0.5527120E-005  0.2933286E+03  0.7546771E-02  0.1088624E+00
         21   -1    0    0  502  501  0.00000000000E+00  0.00000000000E+00  0.18958799897E+03  0.18958799897E+03  0.00000000000E+00 0. -1.
         21   -1    0    0  501  502 -0.00000000000E+00 -0.00000000000E+00 -0.45383484563E+03  0.45383484563E+03  0.00000000000E+00 0. -1.
         25    1    1    2    0    0  0.13693964389E+03 -0.87517198786E+01  0.18763320430E+02  0.18656398598E+03  0.12500000000E+03 0.  0.
         25    1    1    2    0    0 -0.14926618865E+03 -0.39036546266E+02 -0.81492475654E+02  0.21463986258E+03  0.12500000000E+03 0.  0.
         25    1    1    2    0    0  0.12326544760E+02  0.47788266145E+02 -0.20151769143E+03  0.24221899605E+03  0.12500000000E+03 0.  0.
</event>
<event>
 5    0  0.5503691E-005  0.4100907E+03  0.7546771E-02  0.1040341E+00
         21   -1    0    0  502  501  0.00000000000E+00  0.00000000000E+00  0.59782500977E+03  0.59782500977E+03  0.00000000000E+00 0.  1.
         21   -1    0    0  501  502 -0.00000000000E+00 -0.00000000000E+00 -0.28131031603E+03  0.28131031603E+03  0.00000000000E+00 0.  1.
         25    1    1    2    0    0 -0.15675838288E+03  0.72116233559E+02  0.16658400679E+03  0.27046103798E+03  0.12500000000E+03 0.  0.
         25    1    1    2    0    0  0.31444062741E+03 -0.17809589465E+02 -0.20473291762E+02  0.33946169934E+03  0.12500000000E+03 0.  0.
         25    1    1    2    0    0 -0.15768224453E+03 -0.54306644094E+02  0.17040397871E+03  0.26921258848E+03  0.12500000000E+03 0.  0.
</event>
<event>
 5    0  0.5503691E-005  0.3826309E+03  0.7546771E-02  0.1049966E+00
         21   -1    0    0  502  501  0.00000000000E+00  0.00000000000E+00  0.50293550455E+03  0.50293550455E+03  0.00000000000E+00 0.  1.
         21   -1    0    0  501  502 -0.00000000000E+00 -0.00000000000E+00 -0.29110368062E+03  0.29110368062E+03  0.00000000000E+00 0.  1.
         25    1    1    2    0    0 -0.17407475441E+03 -0.15202255586E+03  0.29607108356E+03  0.39584841055E+03  0.12500000000E+03 0.  0.
         25    1    1    2    0    0  0.21405229672E+02 -0.73668897779E+01  0.10406472619E+02  0.12745881529E+03  0.12500000000E+03 0.  0.
         25    1    1    2    0    0  0.15266952474E+03  0.15938944564E+03 -0.94645732252E+02  0.27073195932E+03  0.12500000000E+03 0.  0.
</event>
<event>
 5    0  0.5503691E-005  0.2821424E+03  0.7546771E-02  0.1094525E+00
         21   -1    0    0  502  501  0.00000000000E+00  0.00000000000E+00  0.14044591753E+03  0.14044591753E+03  0.00000000000E+00 0. -1.
         21   -1    0    0  501  502 -0.00000000000E+00 -0.00000000000E+00 -0.56679725279E+03  0.56679725279E+03  0.00000000000E+00 0. -1.
         25    1    1    2    0    0  0.36631673732E+02  0.50943063998E+02  0.16912392305E+01  0.13987471387E+03  0.12500000000E+03 0.  0.
         25    1    1    2    0    0  0.58262175589E+02 -0.24953877322E+02 -0.37394401573E+03  0.39934484346E+03  0.12500000000E+03 0.  0.
         25    1    1    2    0    0 -0.94893849321E+02 -0.25989186676E+02 -0.54098558764E+02  0.16802361299E+03  0.12500000000E+03 0.  0.
</event>
<event>
 5    0  0.5503691E-005  0.3417760E+03  0.7546771E-02  0.1066042E+00
         21   -1    0    0  502  501  0.00000000000E+00  0.00000000000E+00  0.92333494873E+02  0.92333494873E+02  0.00000000000E+00 0. -1.
         21   -1    0    0  501  502 -0.00000000000E+00 -0.00000000000E+00 -0.12650973966E+04  0.12650973966E+04  0.00000000000E+00 0. -1.
         25    1    1    2    0    0 -0.77957915284E+02 -0.36703816428E+02 -0.20598064555E+03  0.25588597663E+03  0.12500000000E+03 0.  0.
         25    1    1    2    0    0  0.13771028733E+03 -0.14666197749E+03 -0.74660296733E+03  0.78327188747E+03  0.12500000000E+03 0.  0.
         25    1    1    2    0    0 -0.59752372049E+02  0.18336579392E+03 -0.22018028881E+03  0.31827302733E+03  0.12500000000E+03 0.  0.
</event>
<event>
 5    0  0.5503691E-005  0.3398679E+03  0.7546771E-02  0.1066852E+00
         21   -1    0    0  502  501  0.00000000000E+00  0.00000000000E+00  0.12220445047E+03  0.12220445047E+03  0.00000000000E+00 0.  1.
         21   -1    0    0  501  502 -0.00000000000E+00 -0.00000000000E+00 -0.94522075107E+03  0.94522075107E+03  0.00000000000E+00 0.  1.
         25    1    1    2    0    0 -0.17266393398E+03  0.33997999120E+02 -0.65000033094E+03  0.68490446652E+03  0.12500000000E+03 0.  0.
         25    1    1    2    0    0  0.93760293940E+02 -0.81251786276E+02 -0.13719901214E+03  0.22325190800E+03  0.12500000000E+03 0.  0.
         25    1    1    2    0    0  0.78903640036E+02  0.47253787156E+02 -0.35816957517E+02  0.15926882701E+03  0.12500000000E+03 0.  0.
</event>
<event>
 5    0  0.5503691E-005  0.2862331E+03  0.7546771E-02  0.1092332E+00
         21   -1    0    0  502  501  0.00000000000E+00  0.00000000000E+00  0.13533875138E+04  0.13533875138E+04  0.00000000000E+00 0.  1.
         21   -1    0    0  501  502 -0.00000000000E+00 -0.00000000000E+00 -0.60536550602E+02  0.60536550602E+02  0.00000000000E+00 0.  1.
         25    1    1    2    0    0  0.17702945459E+03  0.13404966893E+02  0.39337007804E+03  0.44931518918E+03  0.12500000000E+03 0.  0.
         25    1    1    2    0    0 -0.54795385682E+02 -0.57362739451E+02  0.24975233321E+03  0.29033471393E+03  0.12500000000E+03 0.  0.
         25    1    1    2    0    0 -0.12223406891E+03  0.43957772558E+02  0.64972855194E+03  0.67427416129E+03  0.12500000000E+03 0.  0.
</event>
<event>
 5    0  0.5503691E-005  0.2776855E+03  0.7546771E-02  0.1096960E+00
         21   -1    0    0  502  501  0.00000000000E+00  0.00000000000E+00  0.11686691578E+03  0.11686691578E+03  0.00000000000E+00 0.  1.
         21   -1    0    0  501  502 -0.00000000000E+00 -0.00000000000E+00 -0.65980404922E+03  0.65980404922E+03  0.00000000000E+00 0.  1.
         25    1    1    2    0    0 -0.12269022366E+03 -0.17525658148E+02 -0.73090832205E+02  0.19059724402E+03  0.12500000000E+03 0.  0.
         25    1    1    2    0    0 -0.65032506579E+01 -0.49569854043E+02 -0.94365008865E+02  0.16440564953E+03  0.12500000000E+03 0.  0.
         25    1    1    2    0    0  0.12919347432E+03  0.67095512192E+02 -0.37548129237E+03  0.42166807145E+03  0.12500000000E+03 0.  0.
</event>
<event>
 5    0  0.5503691E-005  0.2990048E+03  0.7546771E-02  0.1085739E+00
         21   -1    0    0  502  501  0.00000000000E+00  0.00000000000E+00  0.37789526077E+02  0.37789526077E+02  0.00000000000E+00 0. -1.
         21   -1    0    0  501  502 -0.00000000000E+00 -0.00000000000E+00 -0.23658376032E+04  0.23658376032E+04  0.00000000000E+00 0. -1.
         25    1    1    2    0    0  0.43515331342E+01 -0.45670283332E+02 -0.32588248000E+03  0.35203565358E+03  0.12500000000E+03 0.  0.
         25    1    1    2    0    0 -0.14328152916E+02  0.17736170573E+03 -0.15342388217E+04  0.15495729194E+04  0.12500000000E+03 0.  0.
         25    1    1    2    0    0  0.99766197821E+01 -0.13169142240E+03 -0.46792677544E+03  0.50201855628E+03  0.12500000000E+03 0.  0.
</event>
<event>
 5    0  0.5503691E-005  0.2568926E+03  0.7546771E-02  0.1109025E+00
         21   -1    0    0  502  501  0.00000000000E+00  0.00000000000E+00  0.10114994098E+03  0.10114994098E+03  0.00000000000E+00 0.  1.
         21   -1    0    0  501  502 -0.00000000000E+00 -0.00000000000E+00 -0.65243526504E+03  0.65243526504E+03  0.00000000000E+00 0.  1.
         25    1    1    2    0    0 -0.19943061274E+02 -0.32177400406E+02 -0.23805005304E+03  0.27152520794E+03  0.12500000000E+03 0.  0.
         25    1    1    2    0    0  0.71353237885E+02  0.83605789172E+02 -0.29170361497E+03  0.33585296117E+03  0.12500000000E+03 0.  0.
         25    1    1    2    0    0 -0.51410176612E+02 -0.51428388765E+02 -0.21531656050E+02  0.14620703691E+03  0.12500000000E+03 0.  0.
</event>
<event>
 5    0  0.5503691E-005  0.2633540E+03  0.7546771E-02  0.1105145E+00
         21   -1    0    0  502  501  0.00000000000E+00  0.00000000000E+00  0.91960637694E+02  0.91960637694E+02  0.00000000000E+00 0. -1.
         21   -1    0    0  501  502 -0.00000000000E+00 -0.00000000000E+00 -0.75418521234E+03  0.75418521234E+03  0.00000000000E+00 0. -1.
         25    1    1    2    0    0  0.85027510018E+00 -0.42492611751E+02 -0.23230336792E+03  0.26720067322E+03  0.12500000000E+03 0.  0.
         25    1    1    2    0    0 -0.13733908305E+03  0.62527738807E+02 -0.17116328609E+03  0.26017996148E+03  0.12500000000E+03 0.  0.
         25    1    1    2    0    0  0.13648880795E+03 -0.20035127056E+02 -0.25875792064E+03  0.31876521533E+03  0.12500000000E+03 0.  0.
</event>
<event>
 5    0  0.5503691E-005  0.3068334E+03  0.7546771E-02  0.1081874E+00
         21   -1    0    0  502  501  0.00000000000E+00  0.00000000000E+00  0.82922560425E+03  0.82922560425E+03  0.00000000000E+00 0. -1.
         21   -1    0    0  501  502 -0.00000000000E+00 -0.00000000000E+00 -0.11353576085E+03  0.11353576085E+03  0.00000000000E+00 0. -1.
         25    1    1    2    0    0 -0.11790021545E+03  0.12598878835E+02  0.43722625110E+03  0.46994785584E+03  0.12500000000E+03 0.  0.
         25    1    1    2    0    0  0.71706398980E+02  0.22679114400E+02 -0.16907621074E+02  0.14685713308E+03  0.12500000000E+03 0.  0.
         25    1    1    2    0    0  0.46193816466E+02 -0.35277993235E+02  0.29537121338E+03  0.32595637619E+03  0.12500000000E+03 0.  0.
</event>
<event>
 5    0  0.5503691E-005  0.2404569E+03  0.7546771E-02  0.1119489E+00
         21   -1    0    0  502  501  0.00000000000E+00  0.00000000000E+00  0.77602020192E+03  0.77602020192E+03  0.00000000000E+00 0.  1.
         21   -1    0    0  501  502 -0.00000000000E+00 -0.00000000000E+00 -0.74507774565E+02  0.74507774565E+02  0.00000000000E+00 0.  1.
         25    1    1    2    0    0 -0.36992091531E+02  0.67039170854E+02  0.26902765632E+03  0.30637158016E+03  0.12500000000E+03 0.  0.
         25    1    1    2    0    0 -0.60661262012E+02 -0.94990305033E+02  0.20122518477E+03  0.26233475131E+03  0.12500000000E+03 0.  0.
         25    1    1    2    0    0  0.97653353543E+02  0.27951134179E+02  0.23125958626E+03  0.28182164501E+03  0.12500000000E+03 0.  0.
</event>
<event>
 5    0  0.5503691E-005  0.3501254E+03  0.7546771E-02  0.1062564E+00
         21   -1    0    0  502  501  0.00000000000E+00  0.00000000000E+00  0.33633016819E+03  0.33633016819E+03  0.00000000000E+00 0. -1.
         21   -1    0    0  501  502 -0.00000000000E+00 -0.00000000000E+00 -0.36448655298E+03  0.36448655298E+03  0.00000000000E+00 0. -1.
         25    1    1    2    0    0  0.13198129133E+03 -0.11441533557E+03 -0.21396631480E+02  0.21585352931E+03  0.12500000000E+03 0.  0.
         25    1    1    2    0    0  0.32265103183E+02  0.14878476709E+03 -0.13568138198E+03  0.23919109770E+03  0.12500000000E+03 0.  0.
         25    1    1    2    0    0 -0.16424639452E+03 -0.34369431518E+02  0.12892162867E+03  0.24577209417E+03  0.12500000000E+03 0.  0.
</event>
<event>
 5    0  0.5503691E-005  0.2962826E+03  0.7546771E-02  0.1087114E+00
         21   -1    0    0  502  501  0.00000000000E+00  0.00000000000E+00  0.46548308575E+03  0.46548308575E+03  0.00000000000E+00 0. -1.
         21   -1    0    0  501  502 -0.00000000000E+00 -0.00000000000E+00 -0.18858559446E+03  0.18858559446E+03  0.00000000000E+00 0. -1.
         25    1    1    2    0    0  0.16066055350E+03 -0.15106816288E+02  0.91954559332E+02  0.22387646221E+03  0.12500000000E+03 0.  0.
         25    1    1    2    0    0 -0.51996050659E+02  0.11498201697E+03  0.15244310621E+03  0.23406912257E+03  0.12500000000E+03 0.  0.
         25    1    1    2    0    0 -0.10866450284E+03 -0.99875200686E+02  0.32499825750E+02  0.19612309544E+03  0.12500000000E+03 0.  0.
</event>
<event>
 5    0  0.5503691E-005  0.2474099E+03  0.7546771E-02  0.1114953E+00
         21   -1    0    0  502  501  0.00000000000E+00  0.00000000000E+00  0.19265165247E+04  0.19265165247E+04  0.00000000000E+00 0. -1.
         21   -1    0    0  501  502 -0.00000000000E+00 -0.00000000000E+00 -0.31773226383E+02  0.31773226383E+02  0.00000000000E+00 0. -1.
         25    1    1    2    0    0 -0.78111543522E+02 -0.70612077092E+01  0.58159286425E+03  0.60002211095E+03  0.12500000000E+03 0.  0.
         25    1    1    2    0    0  0.68123306148E+02  0.17094303001E+02  0.25401570187E+03  0.29168814996E+03  0.12500000000E+03 0.  0.
         25    1    1    2    0    0  0.99882373737E+01 -0.10033095291E+02  0.10591347322E+04  0.10665794901E+04  0.12500000000E+03 0.  0.
</event>
<event>
 5    0  0.5503691E-005  0.4975685E+03  0.7546771E-02  0.1014416E+00
         21   -1    0    0  502  501  0.00000000000E+00  0.00000000000E+00  0.10774307530E+03  0.10774307530E+03  0.00000000000E+00 0.  1.
         21   -1    0    0  501  502 -0.00000000000E+00 -0.00000000000E+00 -0.22978221426E+04  0.22978221426E+04  0.00000000000E+00 0.  1.
         25    1    1    2    0    0 -0.19701089569E+03  0.69024193970E+02 -0.26336339601E+03  0.35855670504E+03  0.12500000000E+03 0.  0.
         25    1    1    2    0    0  0.20681587765E+03 -0.30140825901E+03 -0.14654014383E+04  0.15154689443E+04  0.12500000000E+03 0.  0.
         25    1    1    2    0    0 -0.98049819645E+01  0.23238406504E+03 -0.46131423299E+03  0.53153956853E+03  0.12500000000E+03 0.  0.
</event>
<event>
 5    0  0.5503691E-005  0.5003455E+03  0.7546771E-02  0.1013689E+00
         21   -1    0    0  502  501  0.00000000000E+00  0.00000000000E+00  0.34794268659E+03  0.34794268659E+03  0.00000000000E+00 0.  1.
         21   -1    0    0  501  502 -0.00000000000E+00 -0.00000000000E+00 -0.71950233442E+03  0.71950233442E+03  0.00000000000E+00 0.  1.
         25    1    1    2    0    0 -0.12081030559E+03  0.36138972839E+03 -0.24209595838E+03  0.46843688879E+03  0.12500000000E+03 0.  0.
         25    1    1    2    0    0  0.20423220634E+03 -0.33688265032E+03 -0.16091091558E+03  0.44352907114E+03  0.12500000000E+03 0.  0.
         25    1    1    2    0    0 -0.83421900751E+02 -0.24507078065E+02  0.31447226132E+02  0.15547906107E+03  0.12500000000E+03 0.  0.
</event>
<event>
 5    0  0.5503691E-005  0.2463011E+03  0.7546771E-02  0.1115665E+00
         21   -1    0    0  502  501  0.00000000000E+00  0.00000000000E+00  0.18731924107E+03  0.18731924107E+03  0.00000000000E+00 0.  1.
         21   -1    0    0  501  502 -0.00000000000E+00 -0.00000000000E+00 -0.32385484978E+03  0.32385484978E+03  0.00000000000E+00 0.  1.
         25    1    1    2    0    0  0.61548258730E+02  0.82352206640E+02 -0.33737692775E+01  0.16188408325E+03  0.12500000000E+03 0.  0.
         25    1    1    2    0    0  0.32665340082E+02  0.23613831059E+02 -0.33231488789E+02  0.13547682203E+03  0.12500000000E+03 0.  0.
         25    1    1    2    0    0 -0.94213598813E+02 -0.10596603770E+03 -0.99930350641E+02  0.21381318558E+03  0.12500000000E+03 0.  0.
</event>
<event>
 5    0  0.5503691E-005  0.2796372E+03  0.7546771E-02  0.1095887E+00
         21   -1    0    0  502  501  0.00000000000E+00  0.00000000000E+00  0.31262901532E+03  0.31262901532E+03  0.00000000000E+00 0.  1.
         21   -1    0    0  501  502 -0.00000000000E+00 -0.00000000000E+00 -0.25012708394E+03  0.25012708394E+03  0.00000000000E+00 0.  1.
         25    1    1    2    0    0  0.68275339425E+02 -0.63322098157E+01  0.65852288645E+02  0.15704503422E+03  0.12500000000E+03 0.  0.
         25    1    1    2    0    0 -0.15383863407E+03  0.39888083715E+02  0.93548588994E+02  0.22278627215E+03  0.12500000000E+03 0.  0.
         25    1    1    2    0    0  0.85563294646E+02 -0.33555873899E+02 -0.96898946259E+02  0.18292479288E+03  0.12500000000E+03 0.  0.
</event>
<event>
 5    0  0.5503691E-005  0.3532526E+03  0.7546771E-02  0.1061288E+00
         21   -1    0    0  502  501  0.00000000000E+00  0.00000000000E+00  0.88612903602E+03  0.88612903602E+03  0.00000000000E+00 0. -1.
         21   -1    0    0  501  502 -0.00000000000E+00 -0.00000000000E+00 -0.14082305135E+03  0.14082305135E+03  0.00000000000E+00 0. -1.
         25    1    1    2    0    0  0.15952125599E+03 -0.44490645965E+02  0.31810773204E+03  0.37979465225E+03  0.12500000000E+03 0.  0.
         25    1    1    2    0    0  0.96344048446E+02  0.62938835644E+02  0.27627889088E+03  0.32434317975E+03  0.12500000000E+03 0.  0.
         25    1    1    2    0    0 -0.25586530444E+03 -0.18448189679E+02  0.15091936175E+03  0.32281425537E+03  0.12500000000E+03 0.  0.
</event>
<event>
 5    0  0.5503691E-005  0.3923279E+03  0.7546771E-02  0.1046469E+00
         21   -1    0    0  502  501  0.00000000000E+00  0.00000000000E+00  0.12497903522E+03  0.12497903522E+03  0.00000000000E+00 0. -1.
         21   -1    0    0  501  502 -0.00000000000E+00 -0.00000000000E+00 -0.12315759157E+04  0.12315759157E+04  0.00000000000E+00 0. -1.
         25    1    1    2    0    0  0.10517348003E+03 -0.29116751523E+03 -0.55900345342E+03  0.65111430929E+03  0.12500000000E+03 0.  0.
         25    1    1    2    0    0 -0.37279032389E+02  0.30777947263E+02 -0.25851060655E+03  0.29118678197E+03  0.12500000000E+03 0.  0.
         25    1    1    2    0    0 -0.67894447639E+02  0.26038956797E+03 -0.28908282048E+03  0.41425385964E+03  0.12500000000E+03 0.  0.
</event>
<event>
 5    0  0.5503691E-005  0.2249143E+03  0.7546771E-02  0.1130271E+00
         21   -1    0    0  502  501  0.00000000000E+00  0.00000000000E+00  0.68807006109E+03  0.68807006109E+03  0.00000000000E+00 0.  1.
         21   -1    0    0  501  502 -0.00000000000E+00 -0.00000000000E+00 -0.73519325181E+02  0.73519325181E+02  0.00000000000E+00 0.  1.
         25    1    1    2    0    0  0.10366791843E+03  0.31554143670E+02  0.16918802867E+03  0.23662690113E+03  0.12500000000E+03 0.  0.
         25    1    1    2    0    0 -0.23501273277E+02 -0.95700850956E+01  0.19351086935E+03  0.23176572855E+03  0.12500000000E+03 0.  0.
         25    1    1    2    0    0 -0.80166645151E+02 -0.21984058574E+02  0.25185183789E+03  0.29319675659E+03  0.12500000000E+03 0.  0.
</event>
<event>
 5    0  0.5503691E-005  0.2650483E+03  0.7546771E-02  0.1104148E+00
         21   -1    0    0  502  501  0.00000000000E+00  0.00000000000E+00  0.26159960816E+02  0.26159960816E+02  0.00000000000E+00 0.  1.
         21   -1    0    0  501  502 -0.00000000000E+00 -0.00000000000E+00 -0.26854239783E+04  0.26854239783E+04  0.00000000000E+00 0.  1.
         25    1    1    2    0    0 -0.31494893880E+02  0.30629887383E+01 -0.47289855140E+03  0.49016257523E+03  0.12500000000E+03 0.  0.
         25    1    1    2    0    0  0.65931340141E+01 -0.58180370819E+02 -0.18799269301E+04  0.18849877155E+04  0.12500000000E+03 0.  0.
         25    1    1    2    0    0  0.24901759865E+02  0.55117382081E+02 -0.30643853603E+03  0.33643364846E+03  0.12500000000E+03 0.  0.
</event>
<event>
 5    0  0.5503691E-005  0.2740654E+03  0.7546771E-02  0.1098975E+00
         21   -1    0    0  502  501  0.00000000000E+00  0.00000000000E+00  0.15489154130E+04  0.15489154130E+04  0.00000000000E+00 0.  1.
         21   -1    0    0  501  502 -0.00000000000E+00 -0.00000000000E+00 -0.48493182020E+02  0.48493182020E+02  0.00000000000E+00 0.  1.
         25    1    1    2    0    0 -0.73229338638E+02  0.35690169847E+02  0.24763367941E+03  0.28910856687E+03  0.12500000000E+03 0.  0.
         25    1    1    2    0    0  0.36140000842E+02 -0.36760851832E+02  0.16776839592E+03  0.21547318756E+03  0.12500000000E+03 0.  0.
         25    1    1    2    0    0  0.37089337796E+02  0.10706819847E+01  0.10850201557E+04  0.10928268406E+04  0.12500000000E+03 0.  0.
</event>
<event>
 5    0  0.5939754E-005  0.3278507E+03  0.7546771E-02  0.1072092E+00
         21   -1    0    0  502  501  0.00000000000E+00  0.00000000000E+00  0.26405258677E+03  0.26405258677E+03  0.00000000000E+00 0. -1.
         21   -1    0    0  501  502 -0.00000000000E+00 -0.00000000000E+00 -0.40706327334E+03  0.40706327334E+03  0.00000000000E+00 0. -1.
         25    1    1    2    0    0  0.20430746667E+02  0.17496265656E+03  0.39232002791E+01  0.21603179882E+03  0.12500000000E+03 0.  0.
         25    1    1    2    0    0 -0.13259640158E+02 -0.99804566455E+02 -0.23497866860E+03  0.28456413028E+03  0.12500000000E+03 0.  0.
         25    1    1    2    0    0 -0.71711065095E+01 -0.75158090108E+02  0.88044781754E+02  0.17051993101E+03  0.12500000000E+03 0.  0.
</event>
<event>
 5    0  0.5503691E-005  0.3397876E+03  0.7546771E-02  0.1066886E+00
         21   -1    0    0  502  501  0.00000000000E+00  0.00000000000E+00  0.14873747688E+04  0.14873747688E+04  0.00000000000E+00 0.  1.
         21   -1    0    0  501  502 -0.00000000000E+00 -0.00000000000E+00 -0.77623755618E+02  0.77623755618E+02  0.00000000000E+00 0.  1.
         25    1    1    2    0    0 -0.22400208467E+03 -0.40758499946E+02  0.42871106192E+03  0.50125478937E+03  0.12500000000E+03 0.  0.
         25    1    1    2    0    0  0.23362541290E+03 -0.86841726244E+01  0.52395468756E+03  0.58720504342E+03  0.12500000000E+03 0.  0.
         25    1    1    2    0    0 -0.96233282310E+01  0.49442672571E+02  0.45708526368E+03  0.47653869160E+03  0.12500000000E+03 0.  0.
</event>
<event>
 5    0  0.5982314E-005  0.2621242E+03  0.7546771E-02  0.1105874E+00
         21   -1    0    0  502  501  0.00000000000E+00  0.00000000000E+00  0.92736289626E+03  0.92736289626E+03  0.00000000000E+00 0. -1.
         21   -1    0    0  501  502 -0.00000000000E+00 -0.00000000000E+00 -0.74090843263E+02  0.74090843263E+02  0.00000000000E+00 0. -1.
         25    1    1    2    0    0  0.12558301534E+02 -0.17551818018E+02  0.44579175337E+03  0.46348793364E+03  0.12500000000E+03 0.  0.
         25    1    1    2    0    0  0.76928383445E+02  0.31645538841E+02  0.67588618000E+02  0.16465915581E+03  0.12500000000E+03 0.  0.
         25    1    1    2    0    0 -0.89486684979E+02 -0.14093720823E+02  0.33989168162E+03  0.37330665008E+03  0.12500000000E+03 0.  0.
</event>
<event>
 5    0  0.5503691E-005  0.5224576E+03  0.7546771E-02  0.1008078E+00
         21   -1    0    0  502  501  0.00000000000E+00  0.00000000000E+00  0.35405950479E+03  0.35405950479E+03  0.00000000000E+00 0. -1.
         21   -1    0    0  501  502 -0.00000000000E+00 -0.00000000000E+00 -0.77094945181E+03  0.77094945181E+03  0.00000000000E+00 0. -1.
         25    1    1    2    0    0 -0.15613692988E+03 -0.61511781716E+02  0.10646476577E+03  0.23478114599E+03  0.12500000000E+03 0.  0.
         25    1    1    2    0    0  0.87546992718E+02  0.25738753910E+03 -0.56975368825E+03  0.64355037603E+03  0.12500000000E+03 0.  0.
         25    1    1    2    0    0  0.68589937164E+02 -0.19587575738E+03  0.46398975448E+02  0.24667743458E+03  0.12500000000E+03 0.  0.
</event>
<event>
 5    0  0.5503691E-005  0.2548048E+03  0.7546771E-02  0.1110305E+00
         21   -1    0    0  502  501  0.00000000000E+00  0.00000000000E+00  0.99801830020E+02  0.99801830020E+02  0.00000000000E+00 0.  1.
         21   -1    0    0  501  502 -0.00000000000E+00 -0.00000000000E+00 -0.65054414915E+03  0.65054414915E+03  0.00000000000E+00 0.  1.
         25    1    1    2    0    0 -0.29294706063E+02  0.11132119610E+03 -0.32846123181E+03  0.36981396581E+03  0.12500000000E+03 0.  0.
         25    1    1    2    0    0 -0.47402640280E+02 -0.84415197326E+02 -0.94715938335E+02  0.18430693101E+03  0.12500000000E+03 0.  0.
         25    1    1    2    0    0  0.76697346343E+02 -0.26905998778E+02 -0.12756514898E+03  0.19622508235E+03  0.12500000000E+03 0.  0.
</event>
<event>
 5    0  0.5503691E-005  0.3853516E+03  0.7546771E-02  0.1048973E+00
         21   -1    0    0  502  501  0.00000000000E+00  0.00000000000E+00  0.53085371650E+03  0.53085371650E+03  0.00000000000E+00 0.  1.
         21   -1    0    0  501  502 -0.00000000000E+00 -0.00000000000E+00 -0.27973031488E+03  0.27973031488E+03  0.00000000000E+00 0.  1.
         25    1    1    2    0    0  0.22275509336E+03  0.88036253220E+02 -0.55824650231E+02  0.27588331786E+03  0.12500000000E+03 0.  0.
         25    1    1    2    0    0 -0.16046257908E+03 -0.14471673598E+03  0.79766830552E+02  0.26206663316E+03  0.12500000000E+03 0.  0.
         25    1    1    2    0    0 -0.62292514284E+02  0.56680482763E+02  0.22718122131E+03  0.27263408036E+03  0.12500000000E+03 0.  0.
</event>
<event>
 5    0  0.6717051E-005  0.2497137E+03  0.7546771E-02  0.1113486E+00
         21   -1    0    0  502  501  0.00000000000E+00  0.00000000000E+00  0.73535432229E+03  0.73535432229E+03  0.00000000000E+00 0. -1.
         21   -1    0    0  501  502 -0.00000000000E+00 -0.00000000000E+00 -0.84798496753E+02  0.84798496753E+02  0.00000000000E+00 0. -1.
         25    1    1    2    0    0 -0.31221455648E+02  0.60104051029E+02  0.34612696200E+03  0.37418731949E+03  0.12500000000E+03 0.  0.
         25    1    1    2    0    0  0.49615547052E+02 -0.12186013122E+03  0.13747596519E+03  0.22767572355E+03  0.12500000000E+03 0.  0.
         25    1    1    2    0    0 -0.18394091404E+02  0.61756080193E+02  0.16695289834E+03  0.21828977600E+03  0.12500000000E+03 0.  0.
</event>
<event>
 5    0  0.5503691E-005  0.2188984E+03  0.7546771E-02  0.1134707E+00
         21   -1    0    0  502  501  0.00000000000E+00  0.00000000000E+00  0.10851777586E+03  0.10851777586E+03  0.00000000000E+00 0. -1.
         21   -1    0    0  501  502 -0.00000000000E+00 -0.00000000000E+00 -0.44155464478E+03  0.44155464478E+03  0.00000000000E+00 0. -1.
         25    1    1    2    0    0 -0.22552438983E+02  0.31510140229E+02 -0.31409359432E+02  0.13458472908E+03  0.12500000000E+03 0.  0.
         25    1    1    2    0    0 -0.52165395067E+02 -0.21901942060E+02 -0.11833295911E+03  0.18118667920E+03  0.12500000000E+03 0.  0.
         25    1    1    2    0    0  0.74717834050E+02 -0.96081981692E+01 -0.18329455038E+03  0.23430101237E+03  0.12500000000E+03 0.  0.
</event>
<event>
 5    0  0.5503691E-005  0.2894239E+03  0.7546771E-02  0.1090650E+00
         21   -1    0    0  502  501  0.00000000000E+00  0.00000000000E+00  0.51431391052E+03  0.51431391052E+03  0.00000000000E+00 0. -1.
         21   -1    0    0  501  502 -0.00000000000E+00 -0.00000000000E+00 -0.16286974504E+03  0.16286974504E+03  0.00000000000E+00 0. -1.
         25    1    1    2    0    0 -0.15331511320E+02 -0.31596856901E+02  0.33500654178E+03  0.35928790634E+03  0.12500000000E+03 0.  0.
         25    1    1    2    0    0 -0.83695281804E+02  0.33013153461E+02 -0.17006846388E+02  0.15494838277E+03  0.12500000000E+03 0.  0.
         25    1    1    2    0    0  0.99026793125E+02 -0.14162965602E+01  0.33444470088E+02  0.16294736645E+03  0.12500000000E+03 0.  0.
</event>
<event>
 5    0  0.5503691E-005  0.2376744E+03  0.7546771E-02  0.1121352E+00
         21   -1    0    0  502  501  0.00000000000E+00  0.00000000000E+00  0.11411377711E+03  0.11411377711E+03  0.00000000000E+00 0.  1.
         21   -1    0    0  501  502 -0.00000000000E+00 -0.00000000000E+00 -0.49502455987E+03  0.49502455987E+03  0.00000000000E+00 0.  1.
         25    1    1    2    0    0  0.39783544486E+02  0.78313832916E+01 -0.22008120395E+03  0.25632947023E+03  0.12500000000E+03 0.  0.
         25    1    1    2    0    0 -0.47847257936E+02 -0.33725242861E+02  0.11150941180E+02  0.13847778012E+03  0.12500000000E+03 0.  0.
         25    1    1    2    0    0  0.80637134502E+01  0.25893859570E+02 -0.17198051999E+03  0.21433108663E+03  0.12500000000E+03 0.  0.
</event>
<event>
 5    0  0.5503691E-005  0.7225448E+03  0.7546771E-02  0.9679436E-01
         21   -1    0    0  502  501  0.00000000000E+00  0.00000000000E+00  0.11930617512E+04  0.11930617512E+04  0.00000000000E+00 0.  1.
         21   -1    0    0  501  502 -0.00000000000E+00 -0.00000000000E+00 -0.43758926051E+03  0.43758926051E+03  0.00000000000E+00 0.  1.
         25    1    1    2    0    0 -0.22805919266E+03 -0.43094663560E+03  0.14399394490E+03  0.52353152174E+03  0.12500000000E+03 0.  0.
         25    1    1    2    0    0 -0.60962993662E+02 -0.11029100709E+03  0.41415426929E+03  0.45058778458E+03  0.12500000000E+03 0.  0.
         25    1    1    2    0    0  0.28902218633E+03  0.54123764269E+03  0.19732427647E+03  0.65653170536E+03  0.12500000000E+03 0.  0.
</event>
<event>
 5    0  0.5503691E-005  0.2913969E+03  0.7546771E-02  0.1089622E+00
         21   -1    0    0  502  501  0.00000000000E+00  0.00000000000E+00  0.15870303376E+04  0.15870303376E+04  0.00000000000E+00 0. -1.
         21   -1    0    0  501  502 -0.00000000000E+00 -0.00000000000E+00 -0.53503802970E+02  0.53503802970E+02  0.00000000000E+00 0. -1.
         25    1    1    2    0    0 -0.89911732508E+01 -0.84816786059E+02  0.10911900248E+04  0.11016330599E+04  0.12500000000E+03 0.  0.
         25    1    1    2    0    0  0.30713604386E+02  0.71984414387E+02  0.35478911456E+03  0.38422050599E+03  0.12500000000E+03 0.  0.
         25    1    1    2    0    0 -0.21722431136E+02  0.12832371672E+02  0.87547395302E+02  0.15468057474E+03  0.12500000000E+03 0.  0.
</event>
<event>
 5    0  0.5503691E-005  0.3483469E+03  0.7546771E-02  0.1063296E+00
         21   -1    0    0  502  501  0.00000000000E+00  0.00000000000E+00  0.10472874757E+03  0.10472874757E+03  0.00000000000E+00 0. -1.
         21   -1    0    0  501  502 -0.00000000000E+00 -0.00000000000E+00 -0.11586649409E+04  0.11586649409E+04  0.00000000000E+00 0. -1.
         25    1    1    2    0    0  0.45783351230E+02 -0.10981200291E+03 -0.27985299540E+03  0.32878182777E+03  0.12500000000E+03 0.  0.
         25    1    1    2    0    0 -0.14116896159E+03  0.24892820035E+03 -0.42771405889E+03  0.52958308207E+03  0.12500000000E+03 0.  0.
         25    1    1    2    0    0  0.95385610363E+02 -0.13911619744E+03 -0.34636913906E+03  0.40502877866E+03  0.12500000000E+03 0.  0.
</event>
<event>
 5    0  0.5503691E-005  0.3160885E+03  0.7546771E-02  0.1077464E+00
         21   -1    0    0  502  501  0.00000000000E+00  0.00000000000E+00  0.15242960420E+03  0.15242960420E+03  0.00000000000E+00 0.  1.
         21   -1    0    0  501  502 -0.00000000000E+00 -0.00000000000E+00 -0.65546303790E+03  0.65546303790E+03  0.00000000000E+00 0.  1.
         25    1    1    2    0    0  0.13271757840E+03 -0.11316765542E+03 -0.18932230164E+03  0.28616220531E+03  0.12500000000E+03 0.  0.
         25    1    1    2    0    0  0.25618693197E+02  0.11076180289E+03 -0.26934041644E+02  0.17109920228E+03  0.12500000000E+03 0.  0.
         25    1    1    2    0    0 -0.15833627160E+03  0.24058525315E+01 -0.28677709042E+03  0.35063123451E+03  0.12500000000E+03 0.  0.
</event>
<event>
 5    0  0.5503691E-005  0.3462615E+03  0.7546771E-02  0.1064160E+00
         21   -1    0    0  502  501  0.00000000000E+00  0.00000000000E+00  0.68923276168E+03  0.68923276168E+03  0.00000000000E+00 0. -1.
         21   -1    0    0  501  502 -0.00000000000E+00 -0.00000000000E+00 -0.17395722659E+03  0.17395722659E+03  0.00000000000E+00 0. -1.
         25    1    1    2    0    0  0.31575002810E+02  0.90192853512E+02  0.22027323444E+03  0.27069730224E+03  0.12500000000E+03 0.  0.
         25    1    1    2    0    0  0.10000115148E+03 -0.22123097921E+03  0.86140008582E+02  0.28633630146E+03  0.12500000000E+03 0.  0.
         25    1    1    2    0    0 -0.13157615429E+03  0.13103812569E+03  0.20886229206E+03  0.30615638456E+03  0.12500000000E+03 0.  0.
</event>
<event>
 5    0  0.7826292E-005  0.6882265E+03  0.7546771E-02  0.9737581E-01
         21   -1    0    0  502  501  0.00000000000E+00  0.00000000000E+00  0.25293048566E+03  0.25293048566E+03  0.00000000000E+00 0. -1.
         21   -1    0    0  501  502 -0.00000000000E+00 -0.00000000000E+00 -0.18726714638E+04  0.18726714638E+04  0.00000000000E+00 0. -1.
         25    1    1    2    0    0 -0.20877600325E+03  0.34198783511E+03 -0.99671278517E+03  0.10814825357E+04  0.12500000000E+03 0.  0.
         25    1    1    2    0    0 -0.23260218613E+02  0.19724291405E+03 -0.13638985388E+03  0.27142770153E+03  0.12500000000E+03 0.  0.
         25    1    1    2    0    0  0.23203622186E+03 -0.53923074917E+03 -0.48663833914E+03  0.77269171228E+03  0.12500000000E+03 0.  0.
</event>
<event>
 5    0  0.5503691E-005  0.3061013E+03  0.7546771E-02  0.1082230E+00
         21   -1    0    0  502  501  0.00000000000E+00  0.00000000000E+00  0.22604952095E+03  0.22604952095E+03  0.00000000000E+00 0. -1.
         21   -1    0    0  501  502 -0.00000000000E+00 -0.00000000000E+00 -0.41450203598E+03  0.41450203598E+03  0.00000000000E+00 0. -1.
         25    1    1    2    0    0 -0.97516201005E+02 -0.15993589858E+03 -0.18624057568E+03  0.29223184827E+03  0.12500000000E+03 0.  0.
         25    1    1    2    0    0  0.54779920408E+02  0.13870555515E+03  0.55879988900E+02  0.20245405372E+03  0.12500000000E+03 0.  0.
         25    1    1    2    0    0  0.42736280598E+02  0.21230343429E+02 -0.58091928257E+02  0.14586565494E+03  0.12500000000E+03 0.  0.
</event>
<event>
 5    0  0.5503691E-005  0.4815396E+03  0.7546771E-02  0.1018713E+00
         21   -1    0    0  502  501  0.00000000000E+00  0.00000000000E+00  0.27415502913E+04  0.27415502913E+04  0.00000000000E+00 0. -1.
         21   -1    0    0  501  502 -0.00000000000E+00 -0.00000000000E+00 -0.84580017877E+02  0.84580017877E+02  0.00000000000E+00 0. -1.
         25    1    1    2    0    0  0.99799289273E+02  0.16283603693E+03  0.84011950673E+03  0.87057524583E+03  0.12500000000E+03 0.  0.
         25    1    1    2    0    0  0.15634278448E+03  0.18055267675E+03  0.82527942488E+03  0.86818976294E+03  0.12500000000E+03 0.  0.
         25    1    1    2    0    0 -0.25614207376E+03 -0.34338871368E+03  0.99157134183E+03  0.10873653004E+04  0.12500000000E+03 0.  0.
</event>
<event>
 5    0  0.5503691E-005  0.4076513E+03  0.7546771E-02  0.1041162E+00
         21   -1    0    0  502  501  0.00000000000E+00  0.00000000000E+00  0.24870402049E+03  0.24870402049E+03  0.00000000000E+00 0. -1.
         21   -1    0    0  501  502 -0.00000000000E+00 -0.00000000000E+00 -0.66818210842E+03  0.66818210842E+03  0.00000000000E+00 0. -1.
         25    1    1    2    0    0 -0.35969268328E+01  0.21772785177E+03 -0.18095253298E+03  0.30949503148E+03  0.12500000000E+03 0.  0.
         25    1    1    2    0    0 -0.52128372525E+02  0.12304053496E+03 -0.31004087834E+02  0.18558715992E+03  0.12500000000E+03 0.  0.
         25    1    1    2    0    0  0.55725299358E+02 -0.34076838673E+03 -0.20752146711E+03  0.42180393751E+03  0.12500000000E+03 0.  0.
</event>
<event>
 5    0  0.5503691E-005  0.2847245E+03  0.7546771E-02  0.1093136E+00
         21   -1    0    0  502  501  0.00000000000E+00  0.00000000000E+00  0.24966432247E+03  0.24966432247E+03  0.00000000000E+00 0. -1.
         21   -1    0    0  501  502 -0.00000000000E+00 -0.00000000000E+00 -0.32470813952E+03  0.32470813952E+03  0.00000000000E+00 0. -1.
         25    1    1    2    0    0 -0.86173958781E+02  0.38325201381E+02 -0.15750117951E+03  0.22209546096E+03  0.12500000000E+03 0.  0.
         25    1    1    2    0    0 -0.26802484150E+02 -0.98475819186E+02  0.19160282386E+02  0.16250531235E+03  0.12500000000E+03 0.  0.
         25    1    1    2    0    0  0.11297644293E+03  0.60150617805E+02  0.63297080066E+02  0.18977168868E+03  0.12500000000E+03 0.  0.
</event>
<event>
 5    0  0.5503691E-005  0.3889564E+03  0.7546771E-02  0.1047672E+00
         21   -1    0    0  502  501  0.00000000000E+00  0.00000000000E+00  0.51777512537E+03  0.51777512537E+03  0.00000000000E+00 0. -1.
         21   -1    0    0  501  502 -0.00000000000E+00 -0.00000000000E+00 -0.29218680731E+03  0.29218680731E+03  0.00000000000E+00 0. -1.
         25    1    1    2    0    0  0.50542124475E+02  0.19184829716E+03  0.57997146284E+01  0.23456110539E+03  0.12500000000E+03 0.  0.
         25    1    1    2    0    0  0.23017168331E+02  0.12760641396E+03  0.59487644965E+02  0.18967595215E+03  0.12500000000E+03 0.  0.
         25    1    1    2    0    0 -0.73559292805E+02 -0.31945471112E+03  0.16030095848E+03  0.38572487514E+03  0.12500000000E+03 0.  0.
</event>
<event>
 5    0  0.5503691E-005  0.3274253E+03  0.7546771E-02  0.1072282E+00
         21   -1    0    0  502  501  0.00000000000E+00  0.00000000000E+00  0.77056445787E+03  0.77056445787E+03  0.00000000000E+00 0. -1.
         21   -1    0    0  501  502 -0.00000000000E+00 -0.00000000000E+00 -0.13912831531E+03  0.13912831531E+03  0.00000000000E+00 0. -1.
         25    1    1    2    0    0 -0.16557362264E+03  0.96917311597E+02  0.39540912791E+02  0.23237055232E+03  0.12500000000E+03 0.  0.
         25    1    1    2    0    0  0.94508983314E+02 -0.27399899763E+02  0.21062305457E+03  0.26395032402E+03  0.12500000000E+03 0.  0.
         25    1    1    2    0    0  0.71064639328E+02 -0.69517411834E+02  0.38127217520E+03  0.41337189683E+03  0.12500000000E+03 0.  0.
</event>
<event>
 5    0  0.5503691E-005  0.2165596E+03  0.7546771E-02  0.1136474E+00
         21   -1    0    0  502  501  0.00000000000E+00  0.00000000000E+00  0.27238308243E+03  0.27238308243E+03  0.00000000000E+00 0. -1.
         21   -1    0    0  501  502 -0.00000000000E+00 -0.00000000000E+00 -0.17217687234E+03  0.17217687234E+03  0.00000000000E+00 0. -1.
         25    1    1    2    0    0  0.20968409153E+00  0.15410292830E+02  0.53093843765E+01  0.12605836210E+03  0.12500000000E+03 0.  0.
         25    1    1    2    0    0 -0.68956978059E+02  0.38698999472E+02  0.70992117058E+02  0.16406571265E+03  0.12500000000E+03 0.  0.
         25    1    1    2    0    0  0.68747293968E+02 -0.54109292302E+02  0.23904708661E+02  0.15443588002E+03  0.12500000000E+03 0.  0.
</event>
<event>
 5    0  0.5503691E-005  0.2424352E+03  0.7546771E-02  0.1118181E+00
         21   -1    0    0  502  501  0.00000000000E+00  0.00000000000E+00  0.23861064612E+03  0.23861064612E+03  0.00000000000E+00 0. -1.
         21   -1    0    0  501  502 -0.00000000000E+00 -0.00000000000E+00 -0.24632102300E+03  0.24632102300E+03  0.00000000000E+00 0. -1.
         25    1    1    2    0    0  0.91639458948E+01 -0.12355052701E+03 -0.23213942459E+01  0.17600880518E+03  0.12500000000E+03 0.  0.
         25    1    1    2    0    0 -0.17827416116E+02 -0.76355601407E+01 -0.14251440735E+02  0.12729580554E+03  0.12500000000E+03 0.  0.
         25    1    1    2    0    0  0.86634702217E+01  0.13118608716E+03  0.88624581024E+01  0.18162705840E+03  0.12500000000E+03 0.  0.
</event>
<event>
 5    0  0.5503691E-005  0.3668107E+03  0.7546771E-02  0.1055919E+00
         21   -1    0    0  502  501  0.00000000000E+00  0.00000000000E+00  0.53881374173E+03  0.53881374173E+03  0.00000000000E+00 0.  1.
         21   -1    0    0  501  502 -0.00000000000E+00 -0.00000000000E+00 -0.24971534274E+03  0.24971534274E+03  0.00000000000E+00 0.  1.
         25    1    1    2    0    0  0.46536655717E+02 -0.65230389557E+02  0.18912531566E+03  0.24044552204E+03  0.12500000000E+03 0.  0.
         25    1    1    2    0    0  0.13354883037E+03  0.13328593768E+03 -0.96402882473E+02  0.24600598982E+03  0.12500000000E+03 0.  0.
         25    1    1    2    0    0 -0.18008548609E+03 -0.68055548120E+02  0.19637596581E+03  0.30207757261E+03  0.12500000000E+03 0.  0.
</event>
<event>
 5    0  0.5503691E-005  0.2994894E+03  0.7546771E-02  0.1085496E+00
         21   -1    0    0  502  501  0.00000000000E+00  0.00000000000E+00  0.72881127728E+02  0.72881127728E+02  0.00000000000E+00 0.  1.
         21   -1    0    0  501  502 -0.00000000000E+00 -0.00000000000E+00 -0.12306877562E+04  0.12306877562E+04  0.00000000000E+00 0.  1.
         25    1    1    2    0    0  0.65681140647E+02 -0.16834637152E+03 -0.41091145001E+03  0.46596966939E+03  0.12500000000E+03 0.  0.
         25    1    1    2    0    0  0.26505921719E+02  0.53593330563E+01 -0.13671826908E+03  0.18721156865E+03  0.12500000000E+03 0.  0.
         25    1    1    2    0    0 -0.92187062366E+02  0.16298703847E+03 -0.61017690935E+03  0.65038764586E+03  0.12500000000E+03 0.  0.
</event>
<event>
 5    0  0.5503691E-005  0.3263290E+03  0.7546771E-02  0.1072773E+00
         21   -1    0    0  502  501  0.00000000000E+00  0.00000000000E+00  0.13610908733E+03  0.13610908733E+03  0.00000000000E+00 0. -1.
         21   -1    0    0  501  502 -0.00000000000E+00 -0.00000000000E+00 -0.78239146431E+03  0.78239146431E+03  0.00000000000E+00 0. -1.
         25    1    1    2    0    0  0.56617967182E+02  0.40067108256E+02 -0.13287259768E+03  0.19516939972E+03  0.12500000000E+03 0.  0.
         25    1    1    2    0    0  0.12144277990E+03 -0.18022165476E+03 -0.24877393568E+03  0.35318786036E+03  0.12500000000E+03 0.  0.
         25    1    1    2    0    0 -0.17806074708E+03  0.14015454651E+03 -0.26463584362E+03  0.37014329156E+03  0.12500000000E+03 0.  0.
</event>
<event>
 5    0  0.5503691E-005  0.3042043E+03  0.7546771E-02  0.1083158E+00
         21   -1    0    0  502  501  0.00000000000E+00  0.00000000000E+00  0.30320518386E+03  0.30320518386E+03  0.00000000000E+00 0.  1.
         21   -1    0    0  501  502 -0.00000000000E+00 -0.00000000000E+00 -0.30520677480E+03  0.30520677480E+03  0.00000000000E+00 0.  1.
         25    1    1    2    0    0 -0.45689382523E+01  0.37736044293E+02 -0.23775757424E+01  0.13067339860E+03  0.12500000000E+03 0.  0.
         25    1    1    2    0    0 -0.17968440671E+03 -0.10824016910E+03  0.91129446362E+00  0.24418896511E+03  0.12500000000E+03 0.  0.
         25    1    1    2    0    0  0.18425334497E+03  0.70504124802E+02 -0.53530965622E+00  0.23354959495E+03  0.12500000000E+03 0.  0.
</event>
<event>
 5    0  0.5503691E-005  0.2494785E+03  0.7546771E-02  0.1113635E+00
         21   -1    0    0  502  501  0.00000000000E+00  0.00000000000E+00  0.34293105293E+03  0.34293105293E+03  0.00000000000E+00 0. -1.
         21   -1    0    0  501  502 -0.00000000000E+00 -0.00000000000E+00 -0.18149288427E+03  0.18149288427E+03  0.00000000000E+00 0. -1.
         25    1    1    2    0    0  0.99873507968E+02  0.20277775373E+02  0.12035169507E+03  0.20123477899E+03  0.12500000000E+03 0.  0.
         25    1    1    2    0    0 -0.76989149476E+02 -0.92032491209E+02  0.74666833561E+01  0.17343027399E+03  0.12500000000E+03 0.  0.
         25    1    1    2    0    0 -0.22884358492E+02  0.71754715836E+02  0.33619790226E+02  0.14975888422E+03  0.12500000000E+03 0.  0.
</event>
<event>
 5    0  0.5503691E-005  0.4328683E+03  0.7546771E-02  0.1032958E+00
         21   -1    0    0  502  501  0.00000000000E+00  0.00000000000E+00  0.32928650059E+03  0.32928650059E+03  0.00000000000E+00 0.  1.
         21   -1    0    0  501  502 -0.00000000000E+00 -0.00000000000E+00 -0.56903333699E+03  0.56903333699E+03  0.00000000000E+00 0.  1.
         25    1    1    2    0    0  0.48251512901E+02 -0.13727048966E+03  0.18278327648E+02  0.19269274270E+03  0.12500000000E+03 0.  0.
         25    1    1    2    0    0 -0.10902854351E+03  0.35842809611E+03 -0.14044163361E+03  0.41917392075E+03  0.12500000000E+03 0.  0.
         25    1    1    2    0    0  0.60777030611E+02 -0.22115760645E+03 -0.11758353044E+03  0.28645317414E+03  0.12500000000E+03 0.  0.
</event>
<event>
 5    0  0.5936771E-005  0.5957016E+03  0.7546771E-02  0.9914364E-01
         21   -1    0    0  502  501  0.00000000000E+00  0.00000000000E+00  0.29595685517E+03  0.29595685517E+03  0.00000000000E+00 0.  1.
         21   -1    0    0  501  502 -0.00000000000E+00 -0.00000000000E+00 -0.11990273857E+04  0.11990273857E+04  0.00000000000E+00 0.  1.
         25    1    1    2    0    0 -0.29193990494E+03 -0.16419171403E+03 -0.23382685691E+03  0.42718593852E+03  0.12500000000E+03 0.  0.
         25    1    1    2    0    0  0.30598655531E+02  0.14205277431E+03  0.12043067424E+03  0.22637096922E+03  0.12500000000E+03 0.  0.
         25    1    1    2    0    0  0.26134124941E+03  0.22138939729E+02 -0.78967434788E+03  0.84142733317E+03  0.12500000000E+03 0.  0.
</event>
<event>
 5    0  0.5503691E-005  0.3609432E+03  0.7546771E-02  0.1058211E+00
         21   -1    0    0  502  501  0.00000000000E+00  0.00000000000E+00  0.57040384150E+03  0.57040384150E+03  0.00000000000E+00 0.  1.
         21   -1    0    0  501  502 -0.00000000000E+00 -0.00000000000E+00 -0.22839961353E+03  0.22839961353E+03  0.00000000000E+00 0.  1.
         25    1    1    2    0    0 -0.28589318205E+01  0.11189348697E+03 -0.43037788019E+02  0.17322117975E+03  0.12500000000E+03 0.  0.
         25    1    1    2    0    0 -0.18098276828E+03  0.33690504285E+02  0.21913031274E+03  0.31230258797E+03  0.12500000000E+03 0.  0.
         25    1    1    2    0    0  0.18384170010E+03 -0.14558399125E+03  0.16591170325E+03  0.31327968731E+03  0.12500000000E+03 0.  0.
</event>
<event>
 5    0  0.5503691E-005  0.3029762E+03  0.7546771E-02  0.1083762E+00
         21   -1    0    0  502  501  0.00000000000E+00  0.00000000000E+00  0.23012525403E+03  0.23012525403E+03  0.00000000000E+00 0.  1.
         21   -1    0    0  501  502 -0.00000000000E+00 -0.00000000000E+00 -0.39888952201E+03  0.39888952201E+03  0.00000000000E+00 0.  1.
         25    1    1    2    0    0  0.96539615495E+02 -0.25412123551E+02 -0.41664595592E+02  0.16530762810E+03  0.12500000000E+03 0.  0.
         25    1    1    2    0    0 -0.17543365686E+03  0.11041719118E+03  0.13880489425E+02  0.24245946476E+03  0.12500000000E+03 0.  0.
         25    1    1    2    0    0  0.78894041360E+02 -0.85005067624E+02 -0.14098016182E+03  0.22124768317E+03  0.12500000000E+03 0.  0.
</event>
<event>
 5    0  0.5503691E-005  0.7462574E+03  0.7546771E-02  0.9641240E-01
         21   -1    0    0  502  501  0.00000000000E+00  0.00000000000E+00  0.60416950514E+03  0.60416950514E+03  0.00000000000E+00 0. -1.
         21   -1    0    0  501  502 -0.00000000000E+00 -0.00000000000E+00 -0.92176131566E+03  0.92176131566E+03  0.00000000000E+00 0. -1.
         25    1    1    2    0    0 -0.70994796342E+02  0.46784336694E+03 -0.31117459343E+03  0.57997612425E+03  0.12500000000E+03 0.  0.
         25    1    1    2    0    0 -0.19026723551E+03  0.12166242942E+03 -0.11080215818E+03  0.28090120309E+03  0.12500000000E+03 0.  0.
         25    1    1    2    0    0  0.26126203185E+03 -0.58950579636E+03  0.10438494109E+03  0.66505349346E+03  0.12500000000E+03 0.  0.
</event>
<event>
 5    0  0.5503691E-005  0.2801543E+03  0.7546771E-02  0.1095605E+00
         21   -1    0    0  502  501  0.00000000000E+00  0.00000000000E+00  0.10988974327E+03  0.10988974327E+03  0.00000000000E+00 0.  1.
         21   -1    0    0  501  502 -0.00000000000E+00 -0.00000000000E+00 -0.71422876685E+03  0.71422876685E+03  0.00000000000E+00 0.  1.
         25    1    1    2    0    0  0.20474647151E+02  0.76268957088E+02 -0.14715045379E+03  0.20860110508E+03  0.12500000000E+03 0.  0.
         25    1    1    2    0    0 -0.90529501684E+02 -0.17217311993E+03 -0.32197413605E+03  0.39639818136E+03  0.12500000000E+03 0.  0.
         25    1    1    2    0    0  0.70054854533E+02  0.95904162844E+02 -0.13521443374E+03  0.21911922368E+03  0.12500000000E+03 0.  0.
</event>
<event>
 5    0  0.5503691E-005  0.3642341E+03  0.7546771E-02  0.1056920E+00
         21   -1    0    0  502  501  0.00000000000E+00  0.00000000000E+00  0.76758929379E+03  0.76758929379E+03  0.00000000000E+00 0.  1.
         21   -1    0    0  501  502 -0.00000000000E+00 -0.00000000000E+00 -0.17283526850E+03  0.17283526850E+03  0.00000000000E+00 0.  1.
         25    1    1    2    0    0 -0.25603982532E+02  0.22396810576E+03  0.81188836219E+02  0.27024785558E+03  0.12500000000E+03 0.  0.
         25    1    1    2    0    0  0.66739532222E+02 -0.25674665281E+03  0.37808221245E+03  0.47848110543E+03  0.12500000000E+03 0.  0.
         25    1    1    2    0    0 -0.41135549690E+02  0.32778547050E+02  0.13548297663E+03  0.19169560128E+03  0.12500000000E+03 0.  0.
</event>
<event>
 5    0  0.5503691E-005  0.2692885E+03  0.7546771E-02  0.1101687E+00
         21   -1    0    0  502  501  0.00000000000E+00  0.00000000000E+00  0.27424935324E+02  0.27424935324E+02  0.00000000000E+00 0. -1.
         21   -1    0    0  501  502 -0.00000000000E+00 -0.00000000000E+00 -0.26441747326E+04  0.26441747326E+04  0.00000000000E+00 0. -1.
         25    1    1    2    0    0 -0.11894530087E+02  0.46589593649E+02 -0.44027997642E+03  0.46019944342E+03  0.12500000000E+03 0.  0.
         25    1    1    2    0    0 -0.12500907765E+03 -0.24372947320E+02 -0.66827031131E+03  0.69168744317E+03  0.12500000000E+03 0.  0.
         25    1    1    2    0    0  0.13690360773E+03 -0.22216646329E+02 -0.15081995095E+04  0.15197127813E+04  0.12500000000E+03 0.  0.
</event>
<event>
 5    0  0.5503691E-005  0.2658069E+03  0.7546771E-02  0.1103704E+00
         21   -1    0    0  502  501  0.00000000000E+00  0.00000000000E+00  0.20717271532E+03  0.20717271532E+03  0.00000000000E+00 0. -1.
         21   -1    0    0  501  502 -0.00000000000E+00 -0.00000000000E+00 -0.34103578114E+03  0.34103578114E+03  0.00000000000E+00 0. -1.
         25    1    1    2    0    0  0.10543257627E+03  0.15179660681E+02 -0.21372891686E+02  0.16561476605E+03  0.12500000000E+03 0.  0.
         25    1    1    2    0    0 -0.11052229633E+03 -0.11694053837E+03 -0.51310319019E+02  0.21011429351E+03  0.12500000000E+03 0.  0.
         25    1    1    2    0    0  0.50897200657E+01  0.10176087769E+03 -0.61179855111E+02  0.17247943689E+03  0.12500000000E+03 0.  0.
</event>
<event>
 5    0  0.5503691E-005  0.3658125E+03  0.7546771E-02  0.1056306E+00
         21   -1    0    0  502  501  0.00000000000E+00  0.00000000000E+00  0.74291068976E+02  0.74291068976E+02  0.00000000000E+00 0.  1.
         21   -1    0    0  501  502 -0.00000000000E+00 -0.00000000000E+00 -0.18012771213E+04  0.18012771213E+04  0.00000000000E+00 0.  1.
         25    1    1    2    0    0 -0.20850819385E+03  0.29753652844E+01 -0.63750851261E+03  0.68229511456E+03  0.12500000000E+03 0.  0.
         25    1    1    2    0    0  0.10664661743E+03 -0.12735566689E+03 -0.86738001264E+03  0.89194509541E+03  0.12500000000E+03 0.  0.
         25    1    1    2    0    0  0.10186157642E+03  0.12438030160E+03 -0.22209752703E+03  0.30132798027E+03  0.12500000000E+03 0.  0.
</event>
<event>
 5    0  0.5503691E-005  0.2715105E+03  0.7546771E-02  0.1100418E+00
         21   -1    0    0  502  501  0.00000000000E+00  0.00000000000E+00  0.64725680668E+03  0.64725680668E+03  0.00000000000E+00 0.  1.
         21   -1    0    0  501  502 -0.00000000000E+00 -0.00000000000E+00 -0.11389289289E+03  0.11389289289E+03  0.00000000000E+00 0. -1.
         25    1    1    2    0    0 -0.26061646665E+02 -0.87942646711E+02  0.81326041109E+02  0.17507725009E+03  0.12500000000E+03 0.  0.
         25    1    1    2    0    0  0.35816785510E+02  0.17545951811E+03  0.29323381871E+03  0.36562269767E+03  0.12500000000E+03 0.  0.
         25    1    1    2    0    0 -0.97551388453E+01 -0.87516871399E+02  0.15880405398E+03  0.22044975181E+03  0.12500000000E+03 0.  0.
</event>
<event>
 5    0  0.5503691E-005  0.2951704E+03  0.7546771E-02  0.1087680E+00
         21   -1    0    0  502  501  0.00000000000E+00  0.00000000000E+00  0.59204297206E+02  0.59204297206E+02  0.00000000000E+00 0. -1.
         21   -1    0    0  501  502 -0.00000000000E+00 -0.00000000000E+00 -0.14716085512E+04  0.14716085512E+04  0.00000000000E+00 0. -1.
         25    1    1    2    0    0  0.13421587346E+03 -0.62789864980E+01 -0.77714769819E+03  0.79852167858E+03  0.12500000000E+03 0.  0.
         25    1    1    2    0    0 -0.71056013431E+02  0.10193344924E+03 -0.20816905166E+03  0.27276132275E+03  0.12500000000E+03 0.  0.
         25    1    1    2    0    0 -0.63159860034E+02 -0.95654462740E+02 -0.42708750419E+03  0.45952984712E+03  0.12500000000E+03 0.  0.
</event>
<event>
 5    0  0.5503691E-005  0.2963314E+03  0.7546771E-02  0.1087089E+00
         21   -1    0    0  502  501  0.00000000000E+00  0.00000000000E+00  0.14278342013E+03  0.14278342013E+03  0.00000000000E+00 0.  1.
         21   -1    0    0  501  502 -0.00000000000E+00 -0.00000000000E+00 -0.61500360483E+03  0.61500360483E+03  0.00000000000E+00 0.  1.
         25    1    1    2    0    0  0.15447860910E+03  0.12289775128E+03 -0.18963442073E+03  0.30092143737E+03  0.12500000000E+03 0.  0.
         25    1    1    2    0    0 -0.88246065107E+02 -0.52604187165E+02 -0.24645481817E+03  0.29482121008E+03  0.12500000000E+03 0.  0.
         25    1    1    2    0    0 -0.66232543997E+02 -0.70293564118E+02 -0.36130945807E+02  0.16204437752E+03  0.12500000000E+03 0.  0.
</event>
<event>
 5    0  0.6011291E-005  0.2677614E+03  0.7546771E-02  0.1102568E+00
         21   -1    0    0  502  501  0.00000000000E+00  0.00000000000E+00  0.48290021754E+03  0.48290021754E+03  0.00000000000E+00 0. -1.
         21   -1    0    0  501  502 -0.00000000000E+00 -0.00000000000E+00 -0.14846994979E+03  0.14846994979E+03  0.00000000000E+00 0. -1.
         25    1    1    2    0    0 -0.12457195309E+03  0.13007764513E+03  0.12285611696E+03  0.25131054641E+03  0.12500000000E+03 0.  0.
         25    1    1    2    0    0  0.47973293532E+02 -0.93366472487E+02  0.92180810134E+02  0.18745942717E+03  0.12500000000E+03 0.  0.
         25    1    1    2    0    0  0.76598659558E+02 -0.36711172644E+02  0.11939334065E+03  0.19260019376E+03  0.12500000000E+03 0.  0.
</event>
<event>
 5    0  0.5503691E-005  0.3461040E+03  0.7546771E-02  0.1064226E+00
         21   -1    0    0  502  501  0.00000000000E+00  0.00000000000E+00  0.52398683055E+03  0.52398683055E+03  0.00000000000E+00 0. -1.
         21   -1    0    0  501  502 -0.00000000000E+00 -0.00000000000E+00 -0.22860876262E+03  0.22860876262E+03  0.00000000000E+00 0. -1.
         25    1    1    2    0    0  0.68239695136E+01  0.61371219059E+02  0.13803668684E+03  0.19619408759E+03  0.12500000000E+03 0.  0.
         25    1    1    2    0    0  0.14321602059E+03 -0.12799546182E+03 -0.79238167745E+02  0.24248165710E+03  0.12500000000E+03 0.  0.
         25    1    1    2    0    0 -0.15003999010E+03  0.66624242761E+02  0.23657954883E+03  0.31391984850E+03  0.12500000000E+03 0.  0.
</event>
<event>
 5    0  0.5503691E-005  0.3849999E+03  0.7546771E-02  0.1049101E+00
         21   -1    0    0  502  501  0.00000000000E+00  0.00000000000E+00  0.58911939187E+03  0.58911939187E+03  0.00000000000E+00 0. -1.
         21   -1    0    0  501  502 -0.00000000000E+00 -0.00000000000E+00 -0.25160423567E+03  0.25160423567E+03  0.00000000000E+00 0. -1.
         25    1    1    2    0    0  0.38370599541E+02  0.93238996671E+02 -0.28416382301E+02  0.16308986539E+03  0.12500000000E+03 0.  0.
         25    1    1    2    0    0 -0.19231221165E+03 -0.23354376278E+03  0.21558045522E+03  0.39195230393E+03  0.12500000000E+03 0.  0.
         25    1    1    2    0    0  0.15394161211E+03  0.14030476611E+03  0.15035108328E+03  0.28568145823E+03  0.12500000000E+03 0.  0.
</event>
<event>
 5    0  0.5503691E-005  0.2144429E+03  0.7546771E-02  0.1138095E+00
         21   -1    0    0  502  501  0.00000000000E+00  0.00000000000E+00  0.14869625274E+04  0.14869625274E+04  0.00000000000E+00 0.  1.
         21   -1    0    0  501  502 -0.00000000000E+00 -0.00000000000E+00 -0.30925971958E+02  0.30925971958E+02  0.00000000000E+00 0.  1.
         25    1    1    2    0    0  0.27669172821E+02 -0.15760418096E+02  0.59472687435E+03  0.60855486932E+03  0.12500000000E+03 0.  0.
         25    1    1    2    0    0  0.52109936793E+02  0.92721626962E+01  0.31051312797E+03  0.33888762320E+03  0.12500000000E+03 0.  0.
         25    1    1    2    0    0 -0.79779109614E+02  0.64882553994E+01  0.55079655316E+03  0.57044600687E+03  0.12500000000E+03 0.  0.
</event>
<event>
 5    0  0.5503691E-005  0.2810719E+03  0.7546771E-02  0.1095105E+00
         21   -1    0    0  502  501  0.00000000000E+00  0.00000000000E+00  0.62960180839E+02  0.62960180839E+02  0.00000000000E+00 0. -1.
         21   -1    0    0  501  502 -0.00000000000E+00 -0.00000000000E+00 -0.12547840453E+04  0.12547840453E+04  0.00000000000E+00 0. -1.
         25    1    1    2    0    0 -0.44802389039E+02 -0.79293519220E+01 -0.17573164368E+03  0.22040131414E+03  0.12500000000E+03 0.  0.
         25    1    1    2    0    0 -0.18170715967E+02  0.59659336070E+02 -0.10668035421E+03  0.17577004657E+03  0.12500000000E+03 0.  0.
         25    1    1    2    0    0  0.62973105006E+02 -0.51729984148E+02 -0.90941186658E+03  0.92157286543E+03  0.12500000000E+03 0.  0.
</event>
<event>
 5    0  0.5503691E-005  0.2302164E+03  0.7546771E-02  0.1126488E+00
         21   -1    0    0  502  501  0.00000000000E+00  0.00000000000E+00  0.53366270474E+03  0.53366270474E+03  0.00000000000E+00 0. -1.
         21   -1    0    0  501  502 -0.00000000000E+00 -0.00000000000E+00 -0.99312938746E+02  0.99312938746E+02  0.00000000000E+00 0. -1.
         25    1    1    2    0    0  0.80832916536E+02 -0.72047852213E+02  0.14450270876E+03  0.21961531423E+03  0.12500000000E+03 0.  0.
         25    1    1    2    0    0 -0.86103989107E+01  0.31944265649E+02  0.20150626046E+03  0.23942503646E+03  0.12500000000E+03 0.  0.
         25    1    1    2    0    0 -0.72222517625E+02  0.40103586564E+02  0.88340796773E+02  0.17393529280E+03  0.12500000000E+03 0.  0.
</event>
<event>
 5    0  0.5503691E-005  0.3663622E+03  0.7546771E-02  0.1056093E+00
         21   -1    0    0  502  501  0.00000000000E+00  0.00000000000E+00  0.11283732349E+04  0.11283732349E+04  0.00000000000E+00 0.  1.
         21   -1    0    0  501  502 -0.00000000000E+00 -0.00000000000E+00 -0.11895109898E+03  0.11895109898E+03  0.00000000000E+00 0.  1.
         25    1    1    2    0    0 -0.96653009307E+01  0.18725461620E+03  0.68142044249E+03  0.71771618957E+03  0.12500000000E+03 0.  0.
         25    1    1    2    0    0 -0.19849036257E+02  0.54753505539E+02  0.76508463263E+02  0.15770375886E+03  0.12500000000E+03 0.  0.
         25    1    1    2    0    0  0.29514337188E+02 -0.24200812174E+03  0.25149323014E+03  0.37190438542E+03  0.12500000000E+03 0.  0.
</event>
<event>
 5    0  0.5503691E-005  0.2615760E+03  0.7546771E-02  0.1106200E+00
         21   -1    0    0  502  501  0.00000000000E+00  0.00000000000E+00  0.23828828076E+03  0.23828828076E+03  0.00000000000E+00 0.  1.
         21   -1    0    0  501  502 -0.00000000000E+00 -0.00000000000E+00 -0.28713956327E+03  0.28713956327E+03  0.00000000000E+00 0.  1.
         25    1    1    2    0    0 -0.23263577824E+02  0.38658643814E+02 -0.60812052164E+02  0.14614646928E+03  0.12500000000E+03 0.  0.
         25    1    1    2    0    0  0.93537431406E+02  0.40498803096E+02 -0.91606510181E+02  0.18548896688E+03  0.12500000000E+03 0.  0.
         25    1    1    2    0    0 -0.70273853583E+02 -0.79157446910E+02  0.10356727984E+03  0.19379240788E+03  0.12500000000E+03 0.  0.
</event>
<event>
 5    0  0.5503691E-005  0.3746716E+03  0.7546771E-02  0.1052921E+00
         21   -1    0    0  502  501  0.00000000000E+00  0.00000000000E+00  0.16452831262E+04  0.16452831262E+04  0.00000000000E+00 0.  1.
         21   -1    0    0  501  502 -0.00000000000E+00 -0.00000000000E+00 -0.85321989058E+02  0.85321989058E+02  0.00000000000E+00 0.  1.
         25    1    1    2    0    0 -0.21291257527E+03  0.68363081626E+02  0.41608010018E+03  0.48862350067E+03  0.12500000000E+03 0.  0.
         25    1    1    2    0    0  0.20424131597E+03  0.10417571285E+03  0.74880736796E+03  0.79303503618E+03  0.12500000000E+03 0.  0.
         25    1    1    2    0    0  0.86712592989E+01 -0.17253879447E+03  0.39507366904E+03  0.44894657845E+03  0.12500000000E+03 0.  0.
</event>
<event>
 5    0  0.5503691E-005  0.2621863E+03  0.7546771E-02  0.1105837E+00
         21   -1    0    0  502  501  0.00000000000E+00  0.00000000000E+00  0.14327781228E+03  0.14327781228E+03  0.00000000000E+00 0. -1.
         21   -1    0    0  501  502 -0.00000000000E+00 -0.00000000000E+00 -0.47977895953E+03  0.47977895953E+03  0.00000000000E+00 0. -1.
         25    1    1    2    0    0 -0.87887828453E+02  0.64937756147E+02 -0.13463197215E+03  0.21375675542E+03  0.12500000000E+03 0.  0.
         25    1    1    2    0    0  0.49764897166E+01  0.31469760012E+02  0.13495916777E+02  0.12970062072E+03  0.12500000000E+03 0.  0.
         25    1    1    2    0    0  0.82911338737E+02 -0.96407516160E+02 -0.21536509188E+03  0.27959939568E+03  0.12500000000E+03 0.  0.
</event>
<event>
 5    0  0.5503691E-005  0.3358757E+03  0.7546771E-02  0.1068566E+00
         21   -1    0    0  502  501  0.00000000000E+00  0.00000000000E+00  0.11312410821E+03  0.11312410821E+03  0.00000000000E+00 0.  1.
         21   -1    0    0  501  502 -0.00000000000E+00 -0.00000000000E+00 -0.99724547915E+03  0.99724547915E+03  0.00000000000E+00 0.  1.
         25    1    1    2    0    0  0.92462812249E+02  0.11100556523E+03 -0.22956698221E+03  0.29865968339E+03  0.12500000000E+03 0.  0.
         25    1    1    2    0    0  0.12440586613E+03 -0.62677538936E+02 -0.12818045816E+03  0.22684912005E+03  0.12500000000E+03 0.  0.
         25    1    1    2    0    0 -0.21686867838E+03 -0.48328026294E+02 -0.52637393058E+03  0.58486078393E+03  0.12500000000E+03 0.  0.
</event>
<event>
 5    0  0.5503691E-005  0.2336636E+03  0.7546771E-02  0.1124087E+00
         21   -1    0    0  502  501  0.00000000000E+00  0.00000000000E+00  0.37737608053E+02  0.37737608053E+02  0.00000000000E+00 0. -1.
         21   -1    0    0  501  502 -0.00000000000E+00 -0.00000000000E+00 -0.14467976182E+04  0.14467976182E+04  0.00000000000E+00 0. -1.
         25    1    1    2    0    0 -0.60660891692E+02 -0.98316573217E+01 -0.66376859876E+03  0.67822574263E+03  0.12500000000E+03 0.  0.
         25    1    1    2    0    0 -0.35307084811E+02  0.14296568055E+02 -0.48225058466E+03  0.49964147997E+03  0.12500000000E+03 0.  0.
         25    1    1    2    0    0  0.95967976503E+02 -0.44649107328E+01 -0.26304082671E+03  0.30666800364E+03  0.12500000000E+03 0.  0.
</event>
<event>
 5    0  0.5503691E-005  0.3790047E+03  0.7546771E-02  0.1051302E+00
         21   -1    0    0  502  501  0.00000000000E+00  0.00000000000E+00  0.35208192086E+03  0.35208192086E+03  0.00000000000E+00 0. -1.
         21   -1    0    0  501  502 -0.00000000000E+00 -0.00000000000E+00 -0.40798609965E+03  0.40798609965E+03  0.00000000000E+00 0. -1.
         25    1    1    2    0    0 -0.23019134215E+03 -0.12080911082E+03 -0.35753351264E+02  0.29066509489E+03  0.12500000000E+03 0.  0.
         25    1    1    2    0    0  0.13978456256E+03  0.70662405323E+02 -0.15905457165E+03  0.25584420302E+03  0.12500000000E+03 0.  0.
         25    1    1    2    0    0  0.90406779589E+02  0.50146705499E+02  0.13890374412E+03  0.21355872260E+03  0.12500000000E+03 0.  0.
</event>
<event>
 5    0  0.5503691E-005  0.3371512E+03  0.7546771E-02  0.1068016E+00
         21   -1    0    0  502  501  0.00000000000E+00  0.00000000000E+00  0.89457536573E+02  0.89457536573E+02  0.00000000000E+00 0. -1.
         21   -1    0    0  501  502 -0.00000000000E+00 -0.00000000000E+00 -0.12706690398E+04  0.12706690398E+04  0.00000000000E+00 0. -1.
         25    1    1    2    0    0  0.24130630193E+03 -0.56959234231E+02 -0.61685335556E+03  0.67646592522E+03  0.12500000000E+03 0.  0.
         25    1    1    2    0    0 -0.22028261845E+03  0.38569565261E+02 -0.34628781669E+03  0.43075781519E+03  0.12500000000E+03 0.  0.
         25    1    1    2    0    0 -0.21023683475E+02  0.18389668970E+02 -0.21807033102E+03  0.25290283601E+03  0.12500000000E+03 0.  0.
</event>
<event>
 5    0  0.5503691E-005  0.2639804E+03  0.7546771E-02  0.1104775E+00
         21   -1    0    0  502  501  0.00000000000E+00  0.00000000000E+00  0.22048084675E+03  0.22048084675E+03  0.00000000000E+00 0.  1.
         21   -1    0    0  501  502 -0.00000000000E+00 -0.00000000000E+00 -0.31606212164E+03  0.31606212164E+03  0.00000000000E+00 0.  1.
         25    1    1    2    0    0  0.47754881745E+01 -0.20414616292E+02 -0.74633883341E+02  0.14708765546E+03  0.12500000000E+03 0.  0.
         25    1    1    2    0    0  0.57607597575E+02 -0.12368979767E+03  0.14611569890E+02  0.18562408066E+03  0.12500000000E+03 0.  0.
         25    1    1    2    0    0 -0.62383085750E+02  0.14410441396E+03 -0.35558961439E+02  0.20383123227E+03  0.12500000000E+03 0.  0.
</event>
<event>
 5    0  0.5503691E-005  0.3298378E+03  0.7546771E-02  0.1071209E+00
         21   -1    0    0  502  501  0.00000000000E+00  0.00000000000E+00  0.34716473745E+03  0.34716473745E+03  0.00000000000E+00 0. -1.
         21   -1    0    0  501  502 -0.00000000000E+00 -0.00000000000E+00 -0.31337562248E+03  0.31337562248E+03  0.00000000000E+00 0. -1.
         25    1    1    2    0    0  0.10098985163E+03 -0.10143416116E+03 -0.16851787827E+03  0.25399038265E+03  0.12500000000E+03 0.  0.
         25    1    1    2    0    0 -0.37955925781E+02 -0.53569603824E+02  0.10598345254E+03  0.17654417852E+03  0.12500000000E+03 0.  0.
         25    1    1    2    0    0 -0.63033925853E+02  0.15500376498E+03  0.96323540701E+02  0.23000579876E+03  0.12500000000E+03 0.  0.
</event>
<event>
 5    0  0.5503691E-005  0.3993317E+03  0.7546771E-02  0.1044011E+00
         21   -1    0    0  502  501  0.00000000000E+00  0.00000000000E+00  0.48973633984E+03  0.48973633984E+03  0.00000000000E+00 0. -1.
         21   -1    0    0  501  502 -0.00000000000E+00 -0.00000000000E+00 -0.32561563613E+03  0.32561563613E+03  0.00000000000E+00 0. -1.
         25    1    1    2    0    0  0.10551130874E+03  0.10389484374E+03  0.21309454590E+02  0.19495093660E+03  0.12500000000E+03 0.  0.
         25    1    1    2    0    0 -0.19203363538E+03 -0.27256261526E+03  0.76724553628E+01  0.35616170895E+03  0.12500000000E+03 0.  0.
         25    1    1    2    0    0  0.86522326637E+02  0.16866777152E+03  0.13513879376E+03  0.26423933041E+03  0.12500000000E+03 0.  0.
</event>
<event>
 5    0  0.5503691E-005  0.3057868E+03  0.7546771E-02  0.1082383E+00
         21   -1    0    0  502  501  0.00000000000E+00  0.00000000000E+00  0.19836177168E+04  0.19836177168E+04  0.00000000000E+00 0.  1.
         21   -1    0    0  501  502 -0.00000000000E+00 -0.00000000000E+00 -0.47138916770E+02  0.47138916770E+02  0.00000000000E+00 0.  1.
         25    1    1    2    0    0  0.44302295418E+02 -0.71143118308E+02  0.50469939659E+03  0.52665977403E+03  0.12500000000E+03 0.  0.
         25    1    1    2    0    0  0.16525292814E+03  0.57383628140E+02  0.72842483679E+03  0.75949269509E+03  0.12500000000E+03 0.  0.
         25    1    1    2    0    0 -0.20955522356E+03  0.13759490168E+02  0.70335456660E+03  0.74460416441E+03  0.12500000000E+03 0.  0.
</event>
<event>
 5    0  0.5503691E-005  0.3190672E+03  0.7546771E-02  0.1076079E+00
         21   -1    0    0  502  501  0.00000000000E+00  0.00000000000E+00  0.92307335161E+02  0.92307335161E+02  0.00000000000E+00 0.  1.
         21   -1    0    0  501  502 -0.00000000000E+00 -0.00000000000E+00 -0.11028792965E+04  0.11028792965E+04  0.00000000000E+00 0.  1.
         25    1    1    2    0    0 -0.21415717566E+03  0.21075056680E+02 -0.51774761471E+03  0.57445195311E+03  0.12500000000E+03 0.  0.
         25    1    1    2    0    0  0.52148304802E+02  0.27428675849E+02 -0.31989745910E+03  0.34846974373E+03  0.12500000000E+03 0.  0.
         25    1    1    2    0    0  0.16200887086E+03 -0.48503732529E+02 -0.17292688755E+03  0.27226493484E+03  0.12500000000E+03 0.  0.
</event>
<event>
 5    0  0.7747188E-005  0.5782196E+03  0.7546771E-02  0.9951653E-01
         21   -1    0    0  502  501  0.00000000000E+00  0.00000000000E+00  0.47804010231E+03  0.47804010231E+03  0.00000000000E+00 0. -1.
         21   -1    0    0  501  502 -0.00000000000E+00 -0.00000000000E+00 -0.69939301681E+03  0.69939301681E+03  0.00000000000E+00 0. -1.
         25    1    1    2    0    0  0.29136466124E+02 -0.20335028292E+03  0.18039409150E+03  0.30061154247E+03  0.12500000000E+03 0.  0.
         25    1    1    2    0    0  0.32457739694E+03  0.20397468805E+03 -0.18587358888E+03  0.44399341326E+03  0.12500000000E+03 0.  0.
         25    1    1    2    0    0 -0.35371386307E+03 -0.62440513355E+00 -0.21587341711E+03  0.43282816339E+03  0.12500000000E+03 0.  0.
</event>
<event>
 5    0  0.5517907E-005  0.4389016E+03  0.7546771E-02  0.1031084E+00
         21   -1    0    0  502  501  0.00000000000E+00  0.00000000000E+00  0.16844429259E+03  0.16844429259E+03  0.00000000000E+00 0.  1.
         21   -1    0    0  501  502 -0.00000000000E+00 -0.00000000000E+00 -0.11436099684E+04  0.11436099684E+04  0.00000000000E+00 0.  1.
         25    1    1    2    0    0 -0.17639442591E+03  0.17705365569E+03 -0.63840590382E+03  0.69688599391E+03  0.12500000000E+03 0.  0.
         25    1    1    2    0    0  0.24343892163E+02  0.87593787855E+02 -0.16503122450E+02  0.15544339744E+03  0.12500000000E+03 0.  0.
         25    1    1    2    0    0  0.15205053374E+03 -0.26464744355E+03 -0.32025664953E+03  0.45972486963E+03  0.12500000000E+03 0.  0.
</event>
<event>
 5    0  0.5503691E-005  0.5856183E+03  0.7546771E-02  0.9935701E-01
         21   -1    0    0  502  501  0.00000000000E+00  0.00000000000E+00  0.52472091781E+03  0.52472091781E+03  0.00000000000E+00 0. -1.
         21   -1    0    0  501  502 -0.00000000000E+00 -0.00000000000E+00 -0.65358332611E+03  0.65358332611E+03  0.00000000000E+00 0. -1.
         25    1    1    2    0    0  0.22136124072E+03  0.31401828152E+03 -0.29218752586E+03  0.49860488394E+03  0.12500000000E+03 0.  0.
         25    1    1    2    0    0 -0.11666821601E+03  0.43797804762E+02 -0.10339377450E+03  0.20456048722E+03  0.12500000000E+03 0.  0.
         25    1    1    2    0    0 -0.10469302471E+03 -0.35781608628E+03  0.26671889205E+03  0.47513887275E+03  0.12500000000E+03 0.  0.
</event>
<event>
 5    0  0.5503691E-005  0.7275328E+03  0.7546771E-02  0.9671272E-01
         21   -1    0    0  502  501  0.00000000000E+00  0.00000000000E+00  0.61252409524E+03  0.61252409524E+03  0.00000000000E+00 0. -1.
         21   -1    0    0  501  502 -0.00000000000E+00 -0.00000000000E+00 -0.86413586505E+03  0.86413586505E+03  0.00000000000E+00 0. -1.
         25    1    1    2    0    0 -0.44510927488E+02 -0.50419152576E+03 -0.28971350785E+03  0.59644717616E+03  0.12500000000E+03 0.  0.
         25    1    1    2    0    0  0.14215654620E+03  0.56292644412E+03  0.21859384300E+03  0.63285301083E+03  0.12500000000E+03 0.  0.
         25    1    1    2    0    0 -0.97645618712E+02 -0.58734918357E+02 -0.18049210497E+03  0.24735977330E+03  0.12500000000E+03 0.  0.
</event>
<event>
 5    0  0.5503691E-005  0.3447375E+03  0.7546771E-02  0.1064796E+00
         21   -1    0    0  502  501  0.00000000000E+00  0.00000000000E+00  0.45222002024E+03  0.45222002024E+03  0.00000000000E+00 0. -1.
         21   -1    0    0  501  502 -0.00000000000E+00 -0.00000000000E+00 -0.26280111046E+03  0.26280111046E+03  0.00000000000E+00 0. -1.
         25    1    1    2    0    0 -0.81111481423E+02 -0.12109586346E+02 -0.12754015372E+03  0.19651260853E+03  0.12500000000E+03 0.  0.
         25    1    1    2    0    0 -0.37151202261E+02 -0.10374792722E+03  0.38081297065E+02  0.17093574646E+03  0.12500000000E+03 0.  0.
         25    1    1    2    0    0  0.11826268368E+03  0.11585751357E+03  0.27887776644E+03  0.34757277571E+03  0.12500000000E+03 0.  0.
</event>
<event>
 5    0  0.5503691E-005  0.3912267E+03  0.7546771E-02  0.1046861E+00
         21   -1    0    0  502  501  0.00000000000E+00  0.00000000000E+00  0.11975074931E+04  0.11975074931E+04  0.00000000000E+00 0. -1.
         21   -1    0    0  501  502 -0.00000000000E+00 -0.00000000000E+00 -0.12781408460E+03  0.12781408460E+03  0.00000000000E+00 0. -1.
         25    1    1    2    0    0  0.53933157463E+02  0.18772637288E+03  0.45730537823E+03  0.51274085609E+03  0.12500000000E+03 0.  0.
         25    1    1    2    0    0  0.15011239521E+03  0.38983097191E+02  0.28741504896E+03  0.34969389962E+03  0.12500000000E+03 0.  0.
         25    1    1    2    0    0 -0.20404555267E+03 -0.22670947007E+03  0.32497298126E+03  0.46288682195E+03  0.12500000000E+03 0.  0.
</event>
<event>
 5    0  0.5503691E-005  0.2588086E+03  0.7546771E-02  0.1107861E+00
         21   -1    0    0  502  501  0.00000000000E+00  0.00000000000E+00  0.23288908069E+03  0.23288908069E+03  0.00000000000E+00 0.  1.
         21   -1    0    0  501  502 -0.00000000000E+00 -0.00000000000E+00 -0.28761285248E+03  0.28761285248E+03  0.00000000000E+00 0.  1.
         25    1    1    2    0    0 -0.52509916940E+02 -0.23047942814E+02 -0.82828339228E+01  0.13777555800E+03  0.12500000000E+03 0.  0.
         25    1    1    2    0    0  0.15076751086E+03  0.79102629839E+02 -0.21619939609E+02  0.21232166674E+03  0.12500000000E+03 0.  0.
         25    1    1    2    0    0 -0.98257593915E+02 -0.56054687025E+02 -0.24820998258E+02  0.17040470843E+03  0.12500000000E+03 0.  0.
</event>
<event>
 5    0  0.5503691E-005  0.3374384E+03  0.7546771E-02  0.1067892E+00
         21   -1    0    0  502  501  0.00000000000E+00  0.00000000000E+00  0.90483150391E+03  0.90483150391E+03  0.00000000000E+00 0.  1.
         21   -1    0    0  501  502 -0.00000000000E+00 -0.00000000000E+00 -0.12584074962E+03  0.12584074962E+03  0.00000000000E+00 0.  1.
         25    1    1    2    0    0  0.89117647438E+02  0.15507290355E+02 -0.34259954174E+01  0.15433459944E+03  0.12500000000E+03 0.  0.
         25    1    1    2    0    0 -0.17825106813E+03 -0.56239762662E+02  0.55614217274E+03  0.59987954665E+03  0.12500000000E+03 0.  0.
         25    1    1    2    0    0  0.89133420693E+02  0.40732472307E+02  0.22627457697E+03  0.27645810744E+03  0.12500000000E+03 0.  0.
</event>
<event>
 5    0  0.5503691E-005  0.2359457E+03  0.7546771E-02  0.1122524E+00
         21   -1    0    0  502  501  0.00000000000E+00  0.00000000000E+00  0.12691229272E+03  0.12691229272E+03  0.00000000000E+00 0. -1.
         21   -1    0    0  501  502 -0.00000000000E+00 -0.00000000000E+00 -0.43865224246E+03  0.43865224246E+03  0.00000000000E+00 0. -1.
         25    1    1    2    0    0  0.10706465853E+02 -0.56136117493E+02 -0.22606065616E+03  0.26456438226E+03  0.12500000000E+03 0.  0.
         25    1    1    2    0    0  0.26459375608E+02 -0.30923724277E+02 -0.45817013604E+02  0.13921413009E+03  0.12500000000E+03 0.  0.
         25    1    1    2    0    0 -0.37165841461E+02  0.87059841770E+02 -0.39862279974E+02  0.16178602284E+03  0.12500000000E+03 0.  0.
</event>
<event>
 5    0  0.5503691E-005  0.3145169E+03  0.7546771E-02  0.1078201E+00
         21   -1    0    0  502  501  0.00000000000E+00  0.00000000000E+00  0.14216938702E+03  0.14216938702E+03  0.00000000000E+00 0.  1.
         21   -1    0    0  501  502 -0.00000000000E+00 -0.00000000000E+00 -0.69579585881E+03  0.69579585881E+03  0.00000000000E+00 0.  1.
         25    1    1    2    0    0  0.32502749239E+02  0.89980302554E+02 -0.18003953692E+03  0.23914873700E+03  0.12500000000E+03 0.  0.
         25    1    1    2    0    0 -0.16735087106E+03 -0.16456783084E+03 -0.17662355215E+03  0.31923308752E+03  0.12500000000E+03 0.  0.
         25    1    1    2    0    0  0.13484812182E+03  0.74587528286E+02 -0.19696338272E+03  0.27958342131E+03  0.12500000000E+03 0.  0.
</event>
<event>
 5    0  0.5503691E-005  0.2784165E+03  0.7546771E-02  0.1096557E+00
         21   -1    0    0  502  501  0.00000000000E+00  0.00000000000E+00  0.18749630749E+03  0.18749630749E+03  0.00000000000E+00 0.  1.
         21   -1    0    0  501  502 -0.00000000000E+00 -0.00000000000E+00 -0.41342552121E+03  0.41342552121E+03  0.00000000000E+00 0.  1.
         25    1    1    2    0    0  0.42825504978E+00 -0.29623555269E+02 -0.76325281608E+02  0.14942652724E+03  0.12500000000E+03 0.  0.
         25    1    1    2    0    0 -0.17033171793E+02 -0.14903589219E+03 -0.17572224046E+02  0.19605001699E+03  0.12500000000E+03 0.  0.
         25    1    1    2    0    0  0.16604916744E+02  0.17865944746E+03 -0.13203170806E+03  0.25544528447E+03  0.12500000000E+03 0.  0.
</event>
<event>
 5    0  0.5503691E-005  0.3459350E+03  0.7546771E-02  0.1064296E+00
         21   -1    0    0  502  501  0.00000000000E+00  0.00000000000E+00  0.97733442726E+02  0.97733442726E+02  0.00000000000E+00 0. -1.
         21   -1    0    0  501  502 -0.00000000000E+00 -0.00000000000E+00 -0.12244634215E+04  0.12244634215E+04  0.00000000000E+00 0. -1.
         25    1    1    2    0    0  0.23951105092E+02  0.17492406575E+03 -0.30768548642E+03  0.37612157977E+03  0.12500000000E+03 0.  0.
         25    1    1    2    0    0 -0.17589165225E+03 -0.94802796619E+02 -0.58119461490E+03  0.62716634474E+03  0.12500000000E+03 0.  0.
         25    1    1    2    0    0  0.15194054716E+03 -0.80121269135E+02 -0.23784987750E+03  0.31890893977E+03  0.12500000000E+03 0.  0.
</event>
<event>
 5    0  0.5503691E-005  0.3382497E+03  0.7546771E-02  0.1067544E+00
         21   -1    0    0  502  501  0.00000000000E+00  0.00000000000E+00  0.15527625264E+03  0.15527625264E+03  0.00000000000E+00 0.  1.
         21   -1    0    0  501  502 -0.00000000000E+00 -0.00000000000E+00 -0.73683406362E+03  0.73683406362E+03  0.00000000000E+00 0.  1.
         25    1    1    2    0    0 -0.88530214757E+02  0.10740887512E+03 -0.36848771919E+03  0.41325835088E+03  0.12500000000E+03 0.  0.
         25    1    1    2    0    0  0.50893124519E+02 -0.16617942016E+03 -0.25183660904E+03  0.33053348917E+03  0.12500000000E+03 0.  0.
         25    1    1    2    0    0  0.37637090238E+02  0.58770545032E+02  0.38766517246E+02  0.14831847621E+03  0.12500000000E+03 0.  0.
</event>
<event>
 5    0  0.5503691E-005  0.2651614E+03  0.7546771E-02  0.1104081E+00
         21   -1    0    0  502  501  0.00000000000E+00  0.00000000000E+00  0.53220313216E+02  0.53220313216E+02  0.00000000000E+00 0. -1.
         21   -1    0    0  501  502 -0.00000000000E+00 -0.00000000000E+00 -0.13211223784E+04  0.13211223784E+04  0.00000000000E+00 0. -1.
         25    1    1    2    0    0 -0.11379642703E+03 -0.45536135111E+02 -0.47718490955E+03  0.50828496369E+03  0.12500000000E+03 0.  0.
         25    1    1    2    0    0  0.10808587835E+03  0.10249535305E+03 -0.60160765965E+03  0.63225361260E+03  0.12500000000E+03 0.  0.
         25    1    1    2    0    0  0.57105486756E+01 -0.56959217935E+02 -0.18910949597E+03  0.23380411532E+03  0.12500000000E+03 0.  0.
</event>
<event>
 5    0  0.5503691E-005  0.2928737E+03  0.7546771E-02  0.1088858E+00
         21   -1    0    0  502  501  0.00000000000E+00  0.00000000000E+00  0.33029145420E+03  0.33029145420E+03  0.00000000000E+00 0.  1.
         21   -1    0    0  501  502 -0.00000000000E+00 -0.00000000000E+00 -0.25969495544E+03  0.25969495544E+03  0.00000000000E+00 0.  1.
         25    1    1    2    0    0 -0.15764137477E+03 -0.60977919431E+02  0.10436997644E+03  0.23470662897E+03  0.12500000000E+03 0.  0.
         25    1    1    2    0    0  0.10239544879E+03 -0.41947639112E+02 -0.68939769659E+02  0.18061595777E+03  0.12500000000E+03 0.  0.
         25    1    1    2    0    0  0.55245925978E+02  0.10292555854E+03  0.35166291981E+02  0.17466382290E+03  0.12500000000E+03 0.  0.
</event>
<event>
 5    0  0.5503691E-005  0.4379299E+03  0.7546771E-02  0.1031384E+00
         21   -1    0    0  502  501  0.00000000000E+00  0.00000000000E+00  0.39683321709E+03  0.39683321709E+03  0.00000000000E+00 0.  1.
         21   -1    0    0  501  502 -0.00000000000E+00 -0.00000000000E+00 -0.48328254957E+03  0.48328254957E+03  0.00000000000E+00 0.  1.
         25    1    1    2    0    0 -0.50231436267E+02 -0.11583015633E+03  0.15943554275E+03  0.23871429492E+03  0.12500000000E+03 0.  0.
         25    1    1    2    0    0 -0.61462654728E+02  0.30688158899E+03 -0.11976121988E+03  0.35766145637E+03  0.12500000000E+03 0.  0.
         25    1    1    2    0    0  0.11169409099E+03 -0.19105143266E+03 -0.12612365535E+03  0.28374001537E+03  0.12500000000E+03 0.  0.
</event>
<event>
 5    0  0.5503691E-005  0.7355488E+03  0.7546771E-02  0.9658299E-01
         21   -1    0    0  502  501  0.00000000000E+00  0.00000000000E+00  0.18961822392E+04  0.18961822392E+04  0.00000000000E+00 0. -1.
         21   -1    0    0  501  502 -0.00000000000E+00 -0.00000000000E+00 -0.28532705223E+03  0.28532705223E+03  0.00000000000E+00 0. -1.
         25    1    1    2    0    0 -0.70968620581E+02  0.27365875977E+03  0.11115897526E+03  0.32849197811E+03  0.12500000000E+03 0.  0.
         25    1    1    2    0    0 -0.13876811091E+03 -0.34693035587E+03  0.69265971839E+02  0.40005004098E+03  0.12500000000E+03 0.  0.
         25    1    1    2    0    0  0.20973673149E+03  0.73271596106E+02  0.14304302399E+04  0.14529672724E+04  0.12500000000E+03 0.  0.
</event>
<event>
 5    0  0.7030189E-005  0.3089120E+03  0.7546771E-02  0.1080869E+00
         21   -1    0    0  502  501  0.00000000000E+00  0.00000000000E+00  0.22121971001E+03  0.22121971001E+03  0.00000000000E+00 0.  1.
         21   -1    0    0  501  502 -0.00000000000E+00 -0.00000000000E+00 -0.43136587694E+03  0.43136587694E+03  0.00000000000E+00 0.  1.
         25    1    1    2    0    0  0.27917890536E+02 -0.19788175774E+03 -0.19347017063E+03  0.30494639788E+03  0.12500000000E+03 0.  0.
         25    1    1    2    0    0 -0.18947048927E+02  0.10383303756E+03  0.58637862643E+02  0.17379208638E+03  0.12500000000E+03 0.  0.
         25    1    1    2    0    0 -0.89708416087E+01  0.94048720175E+02 -0.75313858947E+02  0.17384710269E+03  0.12500000000E+03 0.  0.
</event>
<event>
 5    0  0.5503691E-005  0.2844281E+03  0.7546771E-02  0.1093295E+00
         21   -1    0    0  502  501  0.00000000000E+00  0.00000000000E+00  0.18580241709E+03  0.18580241709E+03  0.00000000000E+00 0.  1.
         21   -1    0    0  501  502 -0.00000000000E+00 -0.00000000000E+00 -0.43540529037E+03  0.43540529037E+03  0.00000000000E+00 0.  1.
         25    1    1    2    0    0  0.56146117177E+02  0.41938603878E+02 -0.14667583085E+03  0.20506104536E+03  0.12500000000E+03 0.  0.
         25    1    1    2    0    0 -0.91371675380E+01 -0.13740339379E+03 -0.15692048635E+03  0.24333561081E+03  0.12500000000E+03 0.  0.
         25    1    1    2    0    0 -0.47008949639E+02  0.95464789912E+02  0.53993443919E+02  0.17281105128E+03  0.12500000000E+03 0.  0.
</event>
<event>
 5    0  0.5503691E-005  0.4559918E+03  0.7546771E-02  0.1025950E+00
         21   -1    0    0  502  501  0.00000000000E+00  0.00000000000E+00  0.28952121686E+03  0.28952121686E+03  0.00000000000E+00 0.  1.
         21   -1    0    0  501  502 -0.00000000000E+00 -0.00000000000E+00 -0.71818058557E+03  0.71818058557E+03  0.00000000000E+00 0.  1.
         25    1    1    2    0    0  0.17959413591E+03 -0.11349387300E+03 -0.31668672879E+03  0.40131084841E+03  0.12500000000E+03 0.  0.
         25    1    1    2    0    0  0.15154242880E+03  0.27895132871E+02 -0.13741937343E+03  0.24135519542E+03  0.12500000000E+03 0.  0.
         25    1    1    2    0    0 -0.33113656471E+03  0.85598740127E+02  0.25446733506E+02  0.36503575859E+03  0.12500000000E+03 0.  0.
</event>
<event>
 5    0  0.5503691E-005  0.5349029E+03  0.7546771E-02  0.1005050E+00
         21   -1    0    0  502  501  0.00000000000E+00  0.00000000000E+00  0.21061394779E+04  0.21061394779E+04  0.00000000000E+00 0.  1.
         21   -1    0    0  501  502 -0.00000000000E+00 -0.00000000000E+00 -0.13585097592E+03  0.13585097592E+03  0.00000000000E+00 0.  1.
         25    1    1    2    0    0 -0.42072511127E+03 -0.48605348325E+02  0.88397864286E+03  0.98813730836E+03  0.12500000000E+03 0.  0.
         25    1    1    2    0    0  0.32332519822E+03 -0.14439459520E+03  0.61879527009E+03  0.72382426680E+03  0.12500000000E+03 0.  0.
         25    1    1    2    0    0  0.97399913048E+02  0.19299994353E+03  0.46751458905E+03  0.53002887869E+03  0.12500000000E+03 0.  0.
</event>
<event>
 5    0  0.5503691E-005  0.3703711E+03  0.7546771E-02  0.1054551E+00
         21   -1    0    0  502  501  0.00000000000E+00  0.00000000000E+00  0.21662131619E+03  0.21662131619E+03  0.00000000000E+00 0. -1.
         21   -1    0    0  501  502 -0.00000000000E+00 -0.00000000000E+00 -0.63324676539E+03  0.63324676539E+03  0.00000000000E+00 0. -1.
         25    1    1    2    0    0 -0.45245626955E+02  0.51631163700E+02 -0.13580010830E+03  0.19692540018E+03  0.12500000000E+03 0.  0.
         25    1    1    2    0    0  0.11214591288E+03 -0.11640906754E+03 -0.40501725846E+03  0.45364276301E+03  0.12500000000E+03 0.  0.
         25    1    1    2    0    0 -0.66900285928E+02  0.64777903838E+02  0.12419191756E+03  0.19929991839E+03  0.12500000000E+03 0.  0.
</event>
<event>
 5    0  0.5503691E-005  0.2888642E+03  0.7546771E-02  0.1090944E+00
         21   -1    0    0  502  501  0.00000000000E+00  0.00000000000E+00  0.56187540430E+03  0.56187540430E+03  0.00000000000E+00 0. -1.
         21   -1    0    0  501  502 -0.00000000000E+00 -0.00000000000E+00 -0.14850714074E+03  0.14850714074E+03  0.00000000000E+00 0. -1.
         25    1    1    2    0    0 -0.47671644085E+02 -0.53769147842E+02  0.46996850544E+02  0.15164897253E+03  0.12500000000E+03 0.  0.
         25    1    1    2    0    0  0.12733779444E+03  0.15673335555E+03  0.17031659949E+03  0.29225503024E+03  0.12500000000E+03 0.  0.
         25    1    1    2    0    0 -0.79666150356E+02 -0.10296420771E+03  0.19605481353E+03  0.26647854227E+03  0.12500000000E+03 0.  0.
</event>
<event>
 5    0  0.5503691E-005  0.3235398E+03  0.7546771E-02  0.1074032E+00
         21   -1    0    0  502  501  0.00000000000E+00  0.00000000000E+00  0.28458232495E+03  0.28458232495E+03  0.00000000000E+00 0. -1.
         21   -1    0    0  501  502 -0.00000000000E+00 -0.00000000000E+00 -0.36783039267E+03  0.36783039267E+03  0.00000000000E+00 0. -1.
         25    1    1    2    0    0 -0.76693358680E+02  0.77972974455E+02 -0.70460216437E+02  0.18041978304E+03  0.12500000000E+03 0.  0.
         25    1    1    2    0    0  0.31563015636E+02 -0.11374693341E+03  0.17093180893E+03  0.24244024443E+03  0.12500000000E+03 0.  0.
         25    1    1    2    0    0  0.45130343044E+02  0.35773958960E+02 -0.18371966022E+03  0.22955269015E+03  0.12500000000E+03 0.  0.
</event>
<event>
 5    0  0.5503691E-005  0.4224517E+03  0.7546771E-02  0.1036271E+00
         21   -1    0    0  502  501  0.00000000000E+00  0.00000000000E+00  0.11219511891E+04  0.11219511891E+04  0.00000000000E+00 0.  1.
         21   -1    0    0  501  502 -0.00000000000E+00 -0.00000000000E+00 -0.15906701197E+03  0.15906701197E+03  0.00000000000E+00 0.  1.
         25    1    1    2    0    0 -0.13354462611E+02  0.71241399434E+01  0.72150932651E+02  0.14512012998E+03  0.12500000000E+03 0.  0.
         25    1    1    2    0    0  0.29695364341E+03 -0.11555257005E+03  0.27888781744E+03  0.44151701836E+03  0.12500000000E+03 0.  0.
         25    1    1    2    0    0 -0.28359918080E+03  0.10842843011E+03  0.61184542706E+03  0.69438105275E+03  0.12500000000E+03 0.  0.
</event>
<event>
 5    0  0.5503691E-005  0.2557602E+03  0.7546771E-02  0.1109718E+00
         21   -1    0    0  502  501  0.00000000000E+00  0.00000000000E+00  0.51281932785E+02  0.51281932785E+02  0.00000000000E+00 0.  1.
         21   -1    0    0  501  502 -0.00000000000E+00 -0.00000000000E+00 -0.12755623315E+04  0.12755623315E+04  0.00000000000E+00 0.  1.
         25    1    1    2    0    0  0.19480176948E+02  0.61929609188E+02 -0.35503623552E+03  0.38195612617E+03  0.12500000000E+03 0.  0.
         25    1    1    2    0    0 -0.54842630986E+02 -0.75981686770E+01 -0.11810080129E+03  0.18066058122E+03  0.12500000000E+03 0.  0.
         25    1    1    2    0    0  0.35362454039E+02 -0.54331440511E+02 -0.75114336188E+03  0.76422755687E+03  0.12500000000E+03 0.  0.
</event>
<event>
 5    0  0.5647205E-005  0.3631154E+03  0.7546771E-02  0.1057357E+00
         21   -1    0    0  502  501  0.00000000000E+00  0.00000000000E+00  0.32140335466E+03  0.32140335466E+03  0.00000000000E+00 0. -1.
         21   -1    0    0  501  502 -0.00000000000E+00 -0.00000000000E+00 -0.41024090995E+03  0.41024090995E+03  0.00000000000E+00 0. -1.
         25    1    1    2    0    0  0.16005459988E+03 -0.60654582350E+02 -0.14656508751E+03  0.25768736520E+03  0.12500000000E+03 0.  0.
         25    1    1    2    0    0  0.27212041786E+01  0.12633143116E+02  0.18802808880E+03  0.22615605991E+03  0.12500000000E+03 0.  0.
         25    1    1    2    0    0 -0.16277580406E+03  0.48021439234E+02 -0.13030055658E+03  0.24780083950E+03  0.12500000000E+03 0.  0.
</event>
<event>
 5    0  0.5503691E-005  0.2661246E+03  0.7546771E-02  0.1103518E+00
         21   -1    0    0  502  501  0.00000000000E+00  0.00000000000E+00  0.31997839651E+03  0.31997839651E+03  0.00000000000E+00 0. -1.
         21   -1    0    0  501  502 -0.00000000000E+00 -0.00000000000E+00 -0.22133465506E+03  0.22133465506E+03  0.00000000000E+00 0.  1.
         25    1    1    2    0    0  0.21955766401E+02 -0.10641830660E+03 -0.60966132615E+01  0.16573798705E+03  0.12500000000E+03 0.  0.
         25    1    1    2    0    0  0.33932727693E+02  0.21613102331E+02 -0.60715945536E+02  0.14467198154E+03  0.12500000000E+03 0.  0.
         25    1    1    2    0    0 -0.55888494093E+02  0.84805204265E+02  0.16545630025E+03  0.23090308299E+03  0.12500000000E+03 0.  0.
</event>
<event>
 5    0  0.5503691E-005  0.2852028E+03  0.7546771E-02  0.1092881E+00
         21   -1    0    0  502  501  0.00000000000E+00  0.00000000000E+00  0.67970920677E+02  0.67970920677E+02  0.00000000000E+00 0.  1.
         21   -1    0    0  501  502 -0.00000000000E+00 -0.00000000000E+00 -0.11966979200E+04  0.11966979200E+04  0.00000000000E+00 0.  1.
         25    1    1    2    0    0  0.62211344594E+02 -0.61991669617E+02 -0.70092545971E+03  0.71738045594E+03  0.12500000000E+03 0.  0.
         25    1    1    2    0    0  0.52075880012E+02 -0.25017537776E+02 -0.10764232399E+03  0.17478456565E+03  0.12500000000E+03 0.  0.
         25    1    1    2    0    0 -0.11428722461E+03  0.87009207393E+02 -0.32015921558E+03  0.37250381905E+03  0.12500000000E+03 0.  0.
</event>
<event>
 5    0  0.5503691E-005  0.2567607E+03  0.7546771E-02  0.1109105E+00
         21   -1    0    0  502  501  0.00000000000E+00  0.00000000000E+00  0.94780342767E+02  0.94780342767E+02  0.00000000000E+00 0. -1.
         21   -1    0    0  501  502 -0.00000000000E+00 -0.00000000000E+00 -0.69556652434E+03  0.69556652434E+03  0.00000000000E+00 0. -1.
         25    1    1    2    0    0  0.10190663418E+03  0.11646419661E+03 -0.20054838264E+03  0.28247747691E+03  0.12500000000E+03 0.  0.
         25    1    1    2    0    0 -0.13649019915E+02 -0.51526214377E+02 -0.11634823487E+03  0.17889426561E+03  0.12500000000E+03 0.  0.
         25    1    1    2    0    0 -0.88257614262E+02 -0.64937982230E+02 -0.28388956406E+03  0.32897512458E+03  0.12500000000E+03 0.  0.
</event>
<event>
 5    0  0.5503691E-005  0.3556291E+03  0.7546771E-02  0.1060328E+00
         21   -1    0    0  502  501  0.00000000000E+00  0.00000000000E+00  0.27433334001E+04  0.27433334001E+04  0.00000000000E+00 0. -1.
         21   -1    0    0  501  502 -0.00000000000E+00 -0.00000000000E+00 -0.46101593201E+02  0.46101593201E+02  0.00000000000E+00 0. -1.
         25    1    1    2    0    0  0.31514145774E+02 -0.70437846259E+02  0.93667482895E+03  0.94812413046E+03  0.12500000000E+03 0.  0.
         25    1    1    2    0    0  0.16693362076E+03  0.15208465022E+03  0.12116881522E+04  0.12388743894E+04  0.12500000000E+03 0.  0.
         25    1    1    2    0    0 -0.19844776653E+03 -0.81646803956E+02  0.54886882578E+03  0.60243647346E+03  0.12500000000E+03 0.  0.
</event>
<event>
 5    0  0.5503691E-005  0.2234887E+03  0.7546771E-02  0.1131308E+00
         21   -1    0    0  502  501  0.00000000000E+00  0.00000000000E+00  0.34502172260E+03  0.34502172260E+03  0.00000000000E+00 0.  1.
         21   -1    0    0  501  502 -0.00000000000E+00 -0.00000000000E+00 -0.14476541088E+03  0.14476541088E+03  0.00000000000E+00 0.  1.
         25    1    1    2    0    0  0.46457404334E+02  0.53859388726E+02  0.12571128001E+03  0.19101688431E+03  0.12500000000E+03 0.  0.
         25    1    1    2    0    0  0.21862263248E+02  0.19609265386E+02  0.23336712571E+02  0.13050702662E+03  0.12500000000E+03 0.  0.
         25    1    1    2    0    0 -0.68319667582E+02 -0.73468654112E+02  0.51208319139E+02  0.16826322255E+03  0.12500000000E+03 0.  0.
</event>
<event>
 5    0  0.5503691E-005  0.2450792E+03  0.7546771E-02  0.1116455E+00
         21   -1    0    0  502  501  0.00000000000E+00  0.00000000000E+00  0.23071805886E+03  0.23071805886E+03  0.00000000000E+00 0.  1.
         21   -1    0    0  501  502 -0.00000000000E+00 -0.00000000000E+00 -0.26033416348E+03  0.26033416348E+03  0.00000000000E+00 0.  1.
         25    1    1    2    0    0 -0.94935532457E+01 -0.67113200065E+02 -0.13066228175E+02  0.14279368157E+03  0.12500000000E+03 0.  0.
         25    1    1    2    0    0  0.10385848267E+03 -0.13288401040E+02  0.30819015453E+02  0.16594570720E+03  0.12500000000E+03 0.  0.
         25    1    1    2    0    0 -0.94364929425E+02  0.80401601105E+02 -0.47368891906E+02  0.18231283357E+03  0.12500000000E+03 0.  0.
</event>
<event>
 5    0  0.6210013E-005  0.2896738E+03  0.7546771E-02  0.1090520E+00
         21   -1    0    0  502  501  0.00000000000E+00  0.00000000000E+00  0.29034877445E+03  0.29034877445E+03  0.00000000000E+00 0. -1.
         21   -1    0    0  501  502 -0.00000000000E+00 -0.00000000000E+00 -0.28900031376E+03  0.28900031376E+03  0.00000000000E+00 0. -1.
         25    1    1    2    0    0  0.35749274048E+02  0.12580229229E+03 -0.18730379253E+02  0.18187923039E+03  0.12500000000E+03 0.  0.
         25    1    1    2    0    0  0.48128048625E+02 -0.32953755079E+01  0.11938373648E+03  0.17945652705E+03  0.12500000000E+03 0.  0.
         25    1    1    2    0    0 -0.83877322673E+02 -0.12250691678E+03 -0.99304896534E+02  0.21801333077E+03  0.12500000000E+03 0.  0.
</event>
<event>
 5    0  0.5825272E-005  0.2792161E+03  0.7546771E-02  0.1096118E+00
         21   -1    0    0  502  501  0.00000000000E+00  0.00000000000E+00  0.45173512148E+03  0.45173512148E+03  0.00000000000E+00 0. -1.
         21   -1    0    0  501  502 -0.00000000000E+00 -0.00000000000E+00 -0.17258259601E+03  0.17258259601E+03  0.00000000000E+00 0. -1.
         25    1    1    2    0    0  0.41345626447E+00 -0.78145351526E+02  0.13864664731E+03  0.20237282357E+03  0.12500000000E+03 0.  0.
         25    1    1    2    0    0 -0.10410666385E+03 -0.31566998159E+02  0.15301498023E+03  0.22555100755E+03  0.12500000000E+03 0.  0.
         25    1    1    2    0    0  0.10369320759E+03  0.10971234968E+03 -0.12509102063E+02  0.19639388638E+03  0.12500000000E+03 0.  0.
</event>
<event>
 5    0  0.5503691E-005  0.5188986E+03  0.7546771E-02  0.1008961E+00
         21   -1    0    0  502  501  0.00000000000E+00  0.00000000000E+00  0.41423612734E+03  0.41423612734E+03  0.00000000000E+00 0. -1.
         21   -1    0    0  501  502 -0.00000000000E+00 -0.00000000000E+00 -0.65000555712E+03  0.65000555712E+03  0.00000000000E+00 0. -1.
         25    1    1    2    0    0 -0.64000213789E+02 -0.30739366100E+03  0.15569499216E+03  0.37209248954E+03  0.12500000000E+03 0.  0.
         25    1    1    2    0    0  0.49386549017E+02  0.19147865014E+03 -0.45339151538E+03  0.51018817206E+03  0.12500000000E+03 0.  0.
         25    1    1    2    0    0  0.14613664772E+02  0.11591501086E+03  0.61927093450E+02  0.18196102287E+03  0.12500000000E+03 0.  0.
</event>
<event>
 5    0  0.5503691E-005  0.2812506E+03  0.7546771E-02  0.1095008E+00
         21   -1    0    0  502  501  0.00000000000E+00  0.00000000000E+00  0.61496527632E+03  0.61496527632E+03  0.00000000000E+00 0.  1.
         21   -1    0    0  501  502 -0.00000000000E+00 -0.00000000000E+00 -0.12862824555E+03  0.12862824555E+03  0.00000000000E+00 0. -1.
         25    1    1    2    0    0  0.17964606050E+02 -0.77144528560E+02  0.29128427569E+03  0.32671935147E+03  0.12500000000E+03 0.  0.
         25    1    1    2    0    0 -0.67083740050E+02  0.15324755993E+03  0.77129446400E+02  0.22261849498E+03  0.12500000000E+03 0.  0.
         25    1    1    2    0    0  0.49119134000E+02 -0.76103031370E+02  0.11792330867E+03  0.19425567543E+03  0.12500000000E+03 0.  0.
</event>
<event>
 5    0  0.5503691E-005  0.2342541E+03  0.7546771E-02  0.1123681E+00
         21   -1    0    0  502  501  0.00000000000E+00  0.00000000000E+00  0.48007129711E+03  0.48007129711E+03  0.00000000000E+00 0.  1.
         21   -1    0    0  501  502 -0.00000000000E+00 -0.00000000000E+00 -0.11430593414E+03  0.11430593414E+03  0.00000000000E+00 0.  1.
         25    1    1    2    0    0  0.39922133436E+02 -0.41914474660E+02  0.94800818620E+02  0.16722079756E+03  0.12500000000E+03 0.  0.
         25    1    1    2    0    0  0.23550081103E+02  0.76646486905E+02  0.38396589182E+02  0.15339031370E+03  0.12500000000E+03 0.  0.
         25    1    1    2    0    0 -0.63472214539E+02 -0.34732012245E+02  0.23256795516E+03  0.27376612000E+03  0.12500000000E+03 0.  0.
</event>
<event>
 5    0  0.5503691E-005  0.3990040E+03  0.7546771E-02  0.1044125E+00
         21   -1    0    0  502  501  0.00000000000E+00  0.00000000000E+00  0.84878258258E+03  0.84878258258E+03  0.00000000000E+00 0. -1.
         21   -1    0    0  501  502 -0.00000000000E+00 -0.00000000000E+00 -0.18756774114E+03  0.18756774114E+03  0.00000000000E+00 0. -1.
         25    1    1    2    0    0  0.74357713397E+02  0.47922679727E+02  0.67055691641E+02  0.16717391709E+03  0.12500000000E+03 0.  0.
         25    1    1    2    0    0 -0.16271324246E+03 -0.29471490198E+01  0.66402141545E+03  0.69500627704E+03  0.12500000000E+03 0.  0.
         25    1    1    2    0    0  0.88355529063E+02 -0.44975530707E+02 -0.69862265654E+02  0.17417012959E+03  0.12500000000E+03 0.  0.
</event>
<event>
 5    0  0.5503691E-005  0.3102534E+03  0.7546771E-02  0.1080224E+00
         21   -1    0    0  502  501  0.00000000000E+00  0.00000000000E+00  0.12173703679E+03  0.12173703679E+03  0.00000000000E+00 0. -1.
         21   -1    0    0  501  502 -0.00000000000E+00 -0.00000000000E+00 -0.79069774827E+03  0.79069774827E+03  0.00000000000E+00 0. -1.
         25    1    1    2    0    0  0.10038432004E+03 -0.78036134158E+01 -0.54366911463E+03  0.56686772204E+03  0.12500000000E+03 0.  0.
         25    1    1    2    0    0 -0.42221411809E+02 -0.54854648743E+02  0.89874567997E+01  0.14316932103E+03  0.12500000000E+03 0.  0.
         25    1    1    2    0    0 -0.58162908235E+02  0.62658262159E+02 -0.13427905365E+03  0.20239774199E+03  0.12500000000E+03 0.  0.
</event>
<event>
 5    0  0.5503691E-005  0.2872176E+03  0.7546771E-02  0.1091811E+00
         21   -1    0    0  502  501  0.00000000000E+00  0.00000000000E+00  0.20660648078E+03  0.20660648078E+03  0.00000000000E+00 0. -1.
         21   -1    0    0  501  502 -0.00000000000E+00 -0.00000000000E+00 -0.39928047025E+03  0.39928047025E+03  0.00000000000E+00 0. -1.
         25    1    1    2    0    0  0.65130818714E+02 -0.13794483442E+03 -0.15915662028E+03  0.25342973517E+03  0.12500000000E+03 0.  0.
         25    1    1    2    0    0  0.20254858206E+01 -0.30212909731E+02 -0.31517668440E+02  0.13242086668E+03  0.12500000000E+03 0.  0.
         25    1    1    2    0    0 -0.67156304535E+02  0.16815774415E+03 -0.19997007610E+01  0.22003634918E+03  0.12500000000E+03 0.  0.
</event>
<event>
 5    0  0.5503691E-005  0.3166383E+03  0.7546771E-02  0.1077207E+00
         21   -1    0    0  502  501  0.00000000000E+00  0.00000000000E+00  0.13824280762E+03  0.13824280762E+03  0.00000000000E+00 0.  1.
         21   -1    0    0  501  502 -0.00000000000E+00 -0.00000000000E+00 -0.72524446963E+03  0.72524446963E+03  0.00000000000E+00 0.  1.
         25    1    1    2    0    0  0.72049858950E+02  0.12306232257E+03 -0.26314405304E+02  0.19144964178E+03  0.12500000000E+03 0.  0.
         25    1    1    2    0    0 -0.14122066322E+03 -0.45440338380E+02 -0.39410121482E+03  0.43925945362E+03  0.12500000000E+03 0.  0.
         25    1    1    2    0    0  0.69170804272E+02 -0.77621984190E+02 -0.16658604188E+03  0.23277818185E+03  0.12500000000E+03 0.  0.
</event>
<event>
 5    0  0.5503691E-005  0.2464479E+03  0.7546771E-02  0.1115570E+00
         21   -1    0    0  502  501  0.00000000000E+00  0.00000000000E+00  0.35742781447E+02  0.35742781447E+02  0.00000000000E+00 0.  1.
         21   -1    0    0  501  502 -0.00000000000E+00 -0.00000000000E+00 -0.16992677596E+04  0.16992677596E+04  0.00000000000E+00 0.  1.
         25    1    1    2    0    0  0.52773814495E+02  0.56845509542E+02 -0.24840636290E+03  0.28869916622E+03  0.12500000000E+03 0.  0.
         25    1    1    2    0    0 -0.62610666750E+02 -0.38263571024E+02 -0.44657927403E+03  0.46951277347E+03  0.12500000000E+03 0.  0.
         25    1    1    2    0    0  0.98368522544E+01 -0.18581938517E+02 -0.96853934124E+03  0.97679860136E+03  0.12500000000E+03 0.  0.
</event>
<event>
 5    0  0.5503691E-005  0.2254686E+03  0.7546771E-02  0.1129870E+00
         21   -1    0    0  502  501  0.00000000000E+00  0.00000000000E+00  0.18796861772E+03  0.18796861772E+03  0.00000000000E+00 0.  1.
         21   -1    0    0  501  502 -0.00000000000E+00 -0.00000000000E+00 -0.27044986915E+03  0.27044986915E+03  0.00000000000E+00 0.  1.
         25    1    1    2    0    0  0.29334420823E+01 -0.36189652769E+02 -0.98299596624E+02  0.16311378466E+03  0.12500000000E+03 0.  0.
         25    1    1    2    0    0 -0.20555093025E+02  0.60902691694E+02  0.68427824155E+02  0.15632983344E+03  0.12500000000E+03 0.  0.
         25    1    1    2    0    0  0.17621650943E+02 -0.24713038925E+02 -0.52609478956E+02  0.13897486877E+03  0.12500000000E+03 0.  0.
</event>
<event>
 5    0  0.5503691E-005  0.3210540E+03  0.7546771E-02  0.1075165E+00
         21   -1    0    0  502  501  0.00000000000E+00  0.00000000000E+00  0.18309586113E+03  0.18309586113E+03  0.00000000000E+00 0. -1.
         21   -1    0    0  501  502 -0.00000000000E+00 -0.00000000000E+00 -0.56296028180E+03  0.56296028180E+03  0.00000000000E+00 0. -1.
         25    1    1    2    0    0 -0.11631674438E+03  0.18018581858E+03 -0.16519824815E+03  0.29818111179E+03  0.12500000000E+03 0.  0.
         25    1    1    2    0    0  0.11525846273E+03 -0.20359600955E+03 -0.13297448611E+03  0.29672051208E+03  0.12500000000E+03 0.  0.
         25    1    1    2    0    0  0.10582816562E+01  0.23410190975E+02 -0.81691686414E+02  0.15115451905E+03  0.12500000000E+03 0.  0.
</event>
<event>
 5    0  0.5503691E-005  0.2718868E+03  0.7546771E-02  0.1100205E+00
         21   -1    0    0  502  501  0.00000000000E+00  0.00000000000E+00  0.82184278556E+03  0.82184278556E+03  0.00000000000E+00 0. -1.
         21   -1    0    0  501  502 -0.00000000000E+00 -0.00000000000E+00 -0.89947161784E+02  0.89947161784E+02  0.00000000000E+00 0. -1.
         25    1    1    2    0    0  0.63017094818E+02  0.12471668199E+03  0.14903616166E+03  0.23950403439E+03  0.12500000000E+03 0.  0.
         25    1    1    2    0    0 -0.10356909218E+03 -0.11203620594E+03  0.28629000624E+03  0.34765735426E+03  0.12500000000E+03 0.  0.
         25    1    1    2    0    0  0.40551997364E+02 -0.12680476056E+02  0.29656945588E+03  0.32462855870E+03  0.12500000000E+03 0.  0.
</event>
<event>
 5    0  0.5503691E-005  0.3666309E+03  0.7546771E-02  0.1055989E+00
         21   -1    0    0  502  501  0.00000000000E+00  0.00000000000E+00  0.15567882826E+03  0.15567882826E+03  0.00000000000E+00 0. -1.
         21   -1    0    0  501  502 -0.00000000000E+00 -0.00000000000E+00 -0.86343276500E+03  0.86343276500E+03  0.00000000000E+00 0. -1.
         25    1    1    2    0    0  0.72156682465E+02  0.95775270437E+02 -0.55373787899E+02  0.18185363796E+03  0.12500000000E+03 0.  0.
         25    1    1    2    0    0  0.13675868603E+03 -0.18762947305E+03 -0.30399907571E+03  0.40242787602E+03  0.12500000000E+03 0.  0.
         25    1    1    2    0    0 -0.20891536849E+03  0.91854202615E+02 -0.34838107314E+03  0.43483007928E+03  0.12500000000E+03 0.  0.
</event>
<event>
 5    0  0.5503691E-005  0.4232761E+03  0.7546771E-02  0.1036005E+00
         21   -1    0    0  502  501  0.00000000000E+00  0.00000000000E+00  0.14060228230E+03  0.14060228230E+03  0.00000000000E+00 0.  1.
         21   -1    0    0  501  502 -0.00000000000E+00 -0.00000000000E+00 -0.12742512438E+04  0.12742512438E+04  0.00000000000E+00 0.  1.
         25    1    1    2    0    0  0.27411751046E+03  0.13551638080E+03 -0.35002347132E+03  0.48129671667E+03  0.12500000000E+03 0.  0.
         25    1    1    2    0    0 -0.66851436774E+02  0.94504442858E+02 -0.31531148097E+03  0.35839438382E+03  0.12500000000E+03 0.  0.
         25    1    1    2    0    0 -0.20726607368E+03 -0.23002082366E+03 -0.46831400916E+03  0.57516242557E+03  0.12500000000E+03 0.  0.
</event>
<event>
 5    0  0.5503691E-005  0.4438839E+03  0.7546771E-02  0.1029562E+00
         21   -1    0    0  502  501  0.00000000000E+00  0.00000000000E+00  0.15807891714E+04  0.15807891714E+04  0.00000000000E+00 0. -1.
         21   -1    0    0  501  502 -0.00000000000E+00 -0.00000000000E+00 -0.12464211310E+03  0.12464211310E+03  0.00000000000E+00 0. -1.
         25    1    1    2    0    0 -0.17798069623E+03  0.34997955650E+02  0.54309080223E+03  0.58606706493E+03  0.12500000000E+03 0.  0.
         25    1    1    2    0    0  0.35400142851E+03 -0.16160470251E+02  0.34021505707E+03  0.50690182210E+03  0.12500000000E+03 0.  0.
         25    1    1    2    0    0 -0.17602073228E+03 -0.18837485399E+02  0.57284119902E+03  0.61246239750E+03  0.12500000000E+03 0.  0.
</event>
<event>
 5    0  0.5503691E-005  0.3394961E+03  0.7546771E-02  0.1067011E+00
         21   -1    0    0  502  501  0.00000000000E+00  0.00000000000E+00  0.11395031361E+03  0.11395031361E+03  0.00000000000E+00 0. -1.
         21   -1    0    0  501  502 -0.00000000000E+00 -0.00000000000E+00 -0.10114724801E+04  0.10114724801E+04  0.00000000000E+00 0. -1.
         25    1    1    2    0    0 -0.10194475314E+03  0.94766388298E+01 -0.33904323945E+03  0.37557670001E+03  0.12500000000E+03 0.  0.
         25    1    1    2    0    0 -0.69179219999E+02  0.11784830647E+03 -0.43650703325E+03  0.47417019929E+03  0.12500000000E+03 0.  0.
         25    1    1    2    0    0  0.17112397314E+03 -0.12732494530E+03 -0.12197189379E+03  0.27567589440E+03  0.12500000000E+03 0.  0.
</event>
<event>
 5    0  0.5503691E-005  0.3610608E+03  0.7546771E-02  0.1058165E+00
         21   -1    0    0  502  501  0.00000000000E+00  0.00000000000E+00  0.31436099664E+03  0.31436099664E+03  0.00000000000E+00 0.  1.
         21   -1    0    0  501  502 -0.00000000000E+00 -0.00000000000E+00 -0.41469813310E+03  0.41469813310E+03  0.00000000000E+00 0.  1.
         25    1    1    2    0    0  0.13746544668E+03  0.15342048903E+02 -0.12222125658E+03  0.22292411950E+03  0.12500000000E+03 0.  0.
         25    1    1    2    0    0 -0.18359542367E+03  0.13962819100E+02 -0.16336550378E+03  0.27607159893E+03  0.12500000000E+03 0.  0.
         25    1    1    2    0    0  0.46129976987E+02 -0.29304868004E+02  0.18524962390E+03  0.23006341131E+03  0.12500000000E+03 0.  0.
</event>
<event>
 5    0  0.5503691E-005  0.2872030E+03  0.7546771E-02  0.1091819E+00
         21   -1    0    0  502  501  0.00000000000E+00  0.00000000000E+00  0.54835299796E+03  0.54835299796E+03  0.00000000000E+00 0. -1.
         21   -1    0    0  501  502 -0.00000000000E+00 -0.00000000000E+00 -0.15042419756E+03  0.15042419756E+03  0.00000000000E+00 0. -1.
         25    1    1    2    0    0 -0.27248010039E+02  0.19564056857E+02  0.18723394209E+02  0.13076991956E+03  0.12500000000E+03 0.  0.
         25    1    1    2    0    0  0.15186323270E+01 -0.17339140582E+03  0.25476041515E+03  0.33255789719E+03  0.12500000000E+03 0.  0.
         25    1    1    2    0    0  0.25729377712E+02  0.15382734897E+03  0.12444499104E+03  0.23544937877E+03  0.12500000000E+03 0.  0.
</event>
<event>
 5    0  0.5503691E-005  0.3483692E+03  0.7546771E-02  0.1063286E+00
         21   -1    0    0  502  501  0.00000000000E+00  0.00000000000E+00  0.12627175185E+04  0.12627175185E+04  0.00000000000E+00 0.  1.
         21   -1    0    0  501  502 -0.00000000000E+00 -0.00000000000E+00 -0.96111066760E+02  0.96111066760E+02  0.00000000000E+00 0.  1.
         25    1    1    2    0    0  0.22438306105E+03 -0.87805839229E+02  0.25866113328E+03  0.37495093727E+03  0.12500000000E+03 0.  0.
         25    1    1    2    0    0 -0.55961491454E+02  0.98450631776E+02  0.38398156517E+03  0.41939367879E+03  0.12500000000E+03 0.  0.
         25    1    1    2    0    0 -0.16842156960E+03 -0.10644792547E+02  0.52396375328E+03  0.56448396919E+03  0.12500000000E+03 0.  0.
</event>
<event>
 5    0  0.5503691E-005  0.3865048E+03  0.7546771E-02  0.1048555E+00
         21   -1    0    0  502  501  0.00000000000E+00  0.00000000000E+00  0.12399965528E+04  0.12399965528E+04  0.00000000000E+00 0. -1.
         21   -1    0    0  501  502 -0.00000000000E+00 -0.00000000000E+00 -0.12047287187E+03  0.12047287187E+03  0.00000000000E+00 0. -1.
         25    1    1    2    0    0 -0.60059424046E+02 -0.19690153263E+02  0.76667624936E+03  0.77936660686E+03  0.12500000000E+03 0.  0.
         25    1    1    2    0    0  0.78796918866E+02  0.15342482088E+03  0.33397783198E+03  0.39612412491E+03  0.12500000000E+03 0.  0.
         25    1    1    2    0    0 -0.18737494820E+02 -0.13373466761E+03  0.18869599567E+02  0.18497869288E+03  0.12500000000E+03 0.  0.
</event>
<event>
 5    0  0.5503691E-005  0.2220322E+03  0.7546771E-02  0.1132377E+00
         21   -1    0    0  502  501  0.00000000000E+00  0.00000000000E+00  0.51226341986E+03  0.51226341986E+03  0.00000000000E+00 0.  1.
         21   -1    0    0  501  502 -0.00000000000E+00 -0.00000000000E+00 -0.96236194664E+02  0.96236194664E+02  0.00000000000E+00 0.  1.
         25    1    1    2    0    0  0.13236854503E+02 -0.59916089000E+02  0.62456346589E+02  0.15261371913E+03  0.12500000000E+03 0.  0.
         25    1    1    2    0    0  0.38505071350E+02 -0.13600346678E+02  0.19184184472E+03  0.23258526036E+03  0.12500000000E+03 0.  0.
         25    1    1    2    0    0 -0.51741925853E+02  0.73516435678E+02  0.16172903389E+03  0.22330063504E+03  0.12500000000E+03 0.  0.
</event>
<event>
 5    0  0.5503691E-005  0.2712585E+03  0.7546771E-02  0.1100561E+00
         21   -1    0    0  502  501  0.00000000000E+00  0.00000000000E+00  0.10710900879E+03  0.10710900879E+03  0.00000000000E+00 0. -1.
         21   -1    0    0  501  502 -0.00000000000E+00 -0.00000000000E+00 -0.68697487107E+03  0.68697487107E+03  0.00000000000E+00 0. -1.
         25    1    1    2    0    0 -0.52849315505E+02 -0.89297602616E+02 -0.27321424540E+03  0.31786496484E+03  0.12500000000E+03 0.  0.
         25    1    1    2    0    0  0.14312206297E+03  0.71924474965E+02 -0.13052791482E+03  0.24149449591E+03  0.12500000000E+03 0.  0.
         25    1    1    2    0    0 -0.90272747462E+02  0.17373127652E+02 -0.17612370206E+03  0.23472441911E+03  0.12500000000E+03 0.  0.
</event>
<event>
 5    0  0.5503691E-005  0.4239490E+03  0.7546771E-02  0.1035789E+00
         21   -1    0    0  502  501  0.00000000000E+00  0.00000000000E+00  0.65598996911E+03  0.65598996911E+03  0.00000000000E+00 0.  1.
         21   -1    0    0  501  502 -0.00000000000E+00 -0.00000000000E+00 -0.27398711075E+03  0.27398711075E+03  0.00000000000E+00 0.  1.
         25    1    1    2    0    0  0.12032976768E+03  0.14150491123E+02  0.22176303003E+02  0.17548868284E+03  0.12500000000E+03 0.  0.
         25    1    1    2    0    0  0.22243909481E+03 -0.38511318636E+02  0.27892739797E+03  0.37998390216E+03  0.12500000000E+03 0.  0.
         25    1    1    2    0    0 -0.34276886249E+03  0.24360827513E+02  0.80899157386E+02  0.37450449487E+03  0.12500000000E+03 0.  0.
</event>
<event>
 5    0  0.5503691E-005  0.5506651E+03  0.7546771E-02  0.1001340E+00
         21   -1    0    0  502  501  0.00000000000E+00  0.00000000000E+00  0.39985624332E+03  0.39985624332E+03  0.00000000000E+00 0. -1.
         21   -1    0    0  501  502 -0.00000000000E+00 -0.00000000000E+00 -0.75835264515E+03  0.75835264515E+03  0.00000000000E+00 0. -1.
         25    1    1    2    0    0 -0.28058903560E+03  0.11252021267E+02 -0.37110353940E+03  0.48187099087E+03  0.12500000000E+03 0.  0.
         25    1    1    2    0    0  0.44568789252E+03  0.83088409820E+01  0.47643153315E+02  0.46540477483E+03  0.12500000000E+03 0.  0.
         25    1    1    2    0    0 -0.16509885691E+03 -0.19560862249E+02 -0.35036015736E+02  0.21093312278E+03  0.12500000000E+03 0.  0.
</event>
<event>
 5    0  0.5503691E-005  0.3656094E+03  0.7546771E-02  0.1056385E+00
         21   -1    0    0  502  501  0.00000000000E+00  0.00000000000E+00  0.63469685054E+03  0.63469685054E+03  0.00000000000E+00 0. -1.
         21   -1    0    0  501  502 -0.00000000000E+00 -0.00000000000E+00 -0.21060488894E+03  0.21060488894E+03  0.00000000000E+00 0. -1.
         25    1    1    2    0    0 -0.10049199952E+03 -0.22381799482E+03  0.84921021497E+02  0.28814877523E+03  0.12500000000E+03 0.  0.
         25    1    1    2    0    0 -0.68723327554E+01 -0.35572793959E+02  0.13893440026E+03  0.19036916820E+03  0.12500000000E+03 0.  0.
         25    1    1    2    0    0  0.10736433228E+03  0.25939078878E+03  0.20023653984E+03  0.36678379604E+03  0.12500000000E+03 0.  0.
</event>
<event>
 5    0  0.6421965E-005  0.2857107E+03  0.7546771E-02  0.1092610E+00
         21   -1    0    0  502  501  0.00000000000E+00  0.00000000000E+00  0.24573379489E+03  0.24573379489E+03  0.00000000000E+00 0.  1.
         21   -1    0    0  501  502 -0.00000000000E+00 -0.00000000000E+00 -0.33219125756E+03  0.33219125756E+03  0.00000000000E+00 0.  1.
         25    1    1    2    0    0 -0.11110045706E+03 -0.12075502842E+03 -0.12500147941E+01  0.20628051528E+03  0.12500000000E+03 0.  0.
         25    1    1    2    0    0  0.53016805436E+02  0.64151887368E+01 -0.12887324540E+03  0.18731057014E+03  0.12500000000E+03 0.  0.
         25    1    1    2    0    0  0.58083651625E+02  0.11433983969E+03  0.43665797521E+02  0.18433396702E+03  0.12500000000E+03 0.  0.
</event>
<event>
 5    0  0.5503691E-005  0.3843863E+03  0.7546771E-02  0.1049324E+00
         21   -1    0    0  502  501  0.00000000000E+00  0.00000000000E+00  0.98992138923E+03  0.98992138923E+03  0.00000000000E+00 0. -1.
         21   -1    0    0  501  502 -0.00000000000E+00 -0.00000000000E+00 -0.14925715747E+03  0.14925715747E+03  0.00000000000E+00 0. -1.
         25    1    1    2    0    0  0.33549498840E+02  0.11579650650E+03 -0.25016033701E+02  0.17545712220E+03  0.12500000000E+03 0.  0.
         25    1    1    2    0    0 -0.11137618087E+03  0.59328165671E+02  0.24816536621E+03  0.30518114931E+03  0.12500000000E+03 0.  0.
         25    1    1    2    0    0  0.77826682032E+02 -0.17512467217E+03  0.61751489925E+03  0.65854027518E+03  0.12500000000E+03 0.  0.
</event>
<event>
 5    0  0.5503691E-005  0.2286988E+03  0.7546771E-02  0.1127559E+00
         21   -1    0    0  502  501  0.00000000000E+00  0.00000000000E+00  0.32291946664E+03  0.32291946664E+03  0.00000000000E+00 0. -1.
         21   -1    0    0  501  502 -0.00000000000E+00 -0.00000000000E+00 -0.16196955206E+03  0.16196955206E+03  0.00000000000E+00 0. -1.
         25    1    1    2    0    0 -0.77890196166E+02 -0.89336082898E+02  0.98973549917E+02  0.19866701274E+03  0.12500000000E+03 0.  0.
         25    1    1    2    0    0  0.52939056622E+02  0.31799248529E+02  0.35761146437E+02  0.14393608136E+03  0.12500000000E+03 0.  0.
         25    1    1    2    0    0  0.24951139544E+02  0.57536834369E+02  0.26215218221E+02  0.14228592460E+03  0.12500000000E+03 0.  0.
</event>
<event>
 5    0  0.5503691E-005  0.2940644E+03  0.7546771E-02  0.1088246E+00
         21   -1    0    0  502  501  0.00000000000E+00  0.00000000000E+00  0.10582103706E+04  0.10582103706E+04  0.00000000000E+00 0.  1.
         21   -1    0    0  501  502 -0.00000000000E+00 -0.00000000000E+00 -0.81717082839E+02  0.81717082839E+02  0.00000000000E+00 0.  1.
         25    1    1    2    0    0 -0.48709226026E+02 -0.33336720634E+02  0.27250858150E+02  0.14089547513E+03  0.12500000000E+03 0.  0.
         25    1    1    2    0    0  0.76996817141E+02 -0.51353502039E+02  0.53818683305E+03  0.56021045982E+03  0.12500000000E+03 0.  0.
         25    1    1    2    0    0 -0.28287591115E+02  0.84690222673E+02  0.41105559660E+03  0.43882151853E+03  0.12500000000E+03 0.  0.
</event>
<event>
 5    0  0.5503691E-005  0.2503397E+03  0.7546771E-02  0.1113090E+00
         21   -1    0    0  502  501  0.00000000000E+00  0.00000000000E+00  0.33628463229E+03  0.33628463229E+03  0.00000000000E+00 0.  1.
         21   -1    0    0  501  502 -0.00000000000E+00 -0.00000000000E+00 -0.18635988033E+03  0.18635988033E+03  0.00000000000E+00 0.  1.
         25    1    1    2    0    0 -0.23337754590E+02  0.61707406292E+02 -0.67420490652E+02  0.15659813965E+03  0.12500000000E+03 0.  0.
         25    1    1    2    0    0 -0.51797445679E+02 -0.30757407578E+02  0.66197529344E+02  0.15374038634E+03  0.12500000000E+03 0.  0.
         25    1    1    2    0    0  0.75135200269E+02 -0.30949998714E+02  0.15114771327E+03  0.21230598665E+03  0.12500000000E+03 0.  0.
</event>
<event>
 5    0  0.5503691E-005  0.3483980E+03  0.7546771E-02  0.1063275E+00
         21   -1    0    0  502  501  0.00000000000E+00  0.00000000000E+00  0.19088514267E+03  0.19088514267E+03  0.00000000000E+00 0.  1.
         21   -1    0    0  501  502 -0.00000000000E+00 -0.00000000000E+00 -0.63588579149E+03  0.63588579149E+03  0.00000000000E+00 0.  1.
         25    1    1    2    0    0  0.21321740739E+03 -0.64622014005E+02 -0.67709285899E+02  0.26428623669E+03  0.12500000000E+03 0.  0.
         25    1    1    2    0    0  0.74225929515E+01 -0.24548908231E+02 -0.21043125756E+03  0.24609765935E+03  0.12500000000E+03 0.  0.
         25    1    1    2    0    0 -0.22064000034E+03  0.89170922236E+02 -0.16686010536E+03  0.31638703811E+03  0.12500000000E+03 0.  0.
</event>
<event>
 5    0  0.5503691E-005  0.2508186E+03  0.7546771E-02  0.1112789E+00
         21   -1    0    0  502  501  0.00000000000E+00  0.00000000000E+00  0.10689132280E+04  0.10689132280E+04  0.00000000000E+00 0.  1.
         21   -1    0    0  501  502 -0.00000000000E+00 -0.00000000000E+00 -0.58854133156E+02  0.58854133156E+02  0.00000000000E+00 0.  1.
         25    1    1    2    0    0  0.43893874764E+02 -0.47052676665E+02  0.12045141245E+03  0.18513284253E+03  0.12500000000E+03 0.  0.
         25    1    1    2    0    0  0.47664818137E+02  0.76316376403E+02  0.44063286710E+03  0.46677451491E+03  0.12500000000E+03 0.  0.
         25    1    1    2    0    0 -0.91558692902E+02 -0.29263699738E+02  0.44897481525E+03  0.47586000368E+03  0.12500000000E+03 0.  0.
</event>
<event>
 5    0  0.5503691E-005  0.2411409E+03  0.7546771E-02  0.1119035E+00
         21   -1    0    0  502  501  0.00000000000E+00  0.00000000000E+00  0.11558077996E+03  0.11558077996E+03  0.00000000000E+00 0. -1.
         21   -1    0    0  501  502 -0.00000000000E+00 -0.00000000000E+00 -0.50310221264E+03  0.50310221264E+03  0.00000000000E+00 0. -1.
         25    1    1    2    0    0 -0.11121673171E+03 -0.19872298241E+02 -0.57412228625E+02  0.17800346526E+03  0.12500000000E+03 0.  0.
         25    1    1    2    0    0  0.38683537609E+02 -0.21328970130E+02 -0.10092767514E+03  0.16662153720E+03  0.12500000000E+03 0.  0.
         25    1    1    2    0    0  0.72533194105E+02  0.41201268371E+02 -0.22918152891E+03  0.27405799013E+03  0.12500000000E+03 0.  0.
</event>
<event>
 5    0  0.5503691E-005  0.3762559E+03  0.7546771E-02  0.1052326E+00
         21   -1    0    0  502  501  0.00000000000E+00  0.00000000000E+00  0.40165143511E+03  0.40165143511E+03  0.00000000000E+00 0. -1.
         21   -1    0    0  501  502 -0.00000000000E+00 -0.00000000000E+00 -0.35246597513E+03  0.35246597513E+03  0.00000000000E+00 0. -1.
         25    1    1    2    0    0 -0.18074871812E+03  0.68146697663E+02  0.14489795988E+03  0.27190897426E+03  0.12500000000E+03 0.  0.
         25    1    1    2    0    0  0.16832359817E+03  0.95332390689E+02 -0.14245023397E+03  0.27081020582E+03  0.12500000000E+03 0.  0.
         25    1    1    2    0    0  0.12425119953E+02 -0.16347908835E+03  0.46737734073E+02  0.21139823017E+03  0.12500000000E+03 0.  0.
</event>
<event>
 5    0  0.5503691E-005  0.3095900E+03  0.7546771E-02  0.1080543E+00
         21   -1    0    0  502  501  0.00000000000E+00  0.00000000000E+00  0.26945023223E+03  0.26945023223E+03  0.00000000000E+00 0. -1.
         21   -1    0    0  501  502 -0.00000000000E+00 -0.00000000000E+00 -0.35570930866E+03  0.35570930866E+03  0.00000000000E+00 0. -1.
         25    1    1    2    0    0 -0.30174336972E+02 -0.14268757791E+03 -0.95089631585E+02  0.21432982419E+03  0.12500000000E+03 0.  0.
         25    1    1    2    0    0 -0.56736307863E+02 -0.65986951494E+02 -0.14402011720E+01  0.15231664576E+03  0.12500000000E+03 0.  0.
         25    1    1    2    0    0  0.86910644835E+02  0.20867452941E+03  0.10270756332E+02  0.25851307094E+03  0.12500000000E+03 0.  0.
</event>
<event>
 5    0  0.5503691E-005  0.3692767E+03  0.7546771E-02  0.1054970E+00
         21   -1    0    0  502  501  0.00000000000E+00  0.00000000000E+00  0.11233601148E+03  0.11233601148E+03  0.00000000000E+00 0.  1.
         21   -1    0    0  501  502 -0.00000000000E+00 -0.00000000000E+00 -0.12139049920E+04  0.12139049920E+04  0.00000000000E+00 0.  1.
         25    1    1    2    0    0 -0.62915358152E+01 -0.33712744333E+01  0.37139883271E+02  0.13059601772E+03  0.12500000000E+03 0.  0.
         25    1    1    2    0    0 -0.54570108545E+02 -0.10700793834E+03 -0.72537489229E+03  0.74580314425E+03  0.12500000000E+03 0.  0.
         25    1    1    2    0    0  0.60861644360E+02  0.11037921278E+03 -0.41333397146E+03  0.44984184146E+03  0.12500000000E+03 0.  0.
</event>
<event>
 5    0  0.5503691E-005  0.2803452E+03  0.7546771E-02  0.1095501E+00
         21   -1    0    0  502  501  0.00000000000E+00  0.00000000000E+00  0.43326900640E+02  0.43326900640E+02  0.00000000000E+00 0.  1.
         21   -1    0    0  501  502 -0.00000000000E+00 -0.00000000000E+00 -0.18139632725E+04  0.18139632725E+04  0.00000000000E+00 0.  1.
         25    1    1    2    0    0  0.47377872913E+02 -0.14493700491E+02 -0.20580312521E+03  0.24583461217E+03  0.12500000000E+03 0.  0.
         25    1    1    2    0    0  0.15541133690E+02 -0.59551314998E+02 -0.12626000979E+04  0.12702644973E+04  0.12500000000E+03 0.  0.
         25    1    1    2    0    0 -0.62919006603E+02  0.74045015489E+02 -0.30223314884E+03  0.34119106373E+03  0.12500000000E+03 0.  0.
</event>
<event>
 5    0  0.5503691E-005  0.3975360E+03  0.7546771E-02  0.1044636E+00
         21   -1    0    0  502  501  0.00000000000E+00  0.00000000000E+00  0.46583086002E+03  0.46583086002E+03  0.00000000000E+00 0. -1.
         21   -1    0    0  501  502 -0.00000000000E+00 -0.00000000000E+00 -0.33925373541E+03  0.33925373541E+03  0.00000000000E+00 0. -1.
         25    1    1    2    0    0 -0.10535876438E+03 -0.17493707807E+03 -0.17674072709E+03  0.29759995821E+03  0.12500000000E+03 0.  0.
         25    1    1    2    0    0 -0.51667847923E+02  0.15296576512E+03  0.16813488465E+03  0.26450412330E+03  0.12500000000E+03 0.  0.
         25    1    1    2    0    0  0.15702661230E+03  0.21971312946E+02  0.13518296706E+03  0.24298051392E+03  0.12500000000E+03 0.  0.
</event>
<event>
 5    0  0.5503691E-005  0.2384070E+03  0.7546771E-02  0.1120859E+00
         21   -1    0    0  502  501  0.00000000000E+00  0.00000000000E+00  0.24518259027E+03  0.24518259027E+03  0.00000000000E+00 0.  1.
         21   -1    0    0  501  502 -0.00000000000E+00 -0.00000000000E+00 -0.23181863810E+03  0.23181863810E+03  0.00000000000E+00 0.  1.
         25    1    1    2    0    0  0.88649099302E+02  0.74834700874E+02  0.28657626537E+02  0.17293106956E+03  0.12500000000E+03 0.  0.
         25    1    1    2    0    0 -0.90729979858E+02 -0.83566339391E+02 -0.29031934637E+02  0.17799751558E+03  0.12500000000E+03 0.  0.
         25    1    1    2    0    0  0.20808805555E+01  0.87316385174E+01  0.13738260267E+02  0.12607264323E+03  0.12500000000E+03 0.  0.
</event>
<event>
 5    0  0.5503691E-005  0.5150890E+03  0.7546771E-02  0.1009914E+00
         21   -1    0    0  502  501  0.00000000000E+00  0.00000000000E+00  0.32018130312E+03  0.32018130312E+03  0.00000000000E+00 0. -1.
         21   -1    0    0  501  502 -0.00000000000E+00 -0.00000000000E+00 -0.82864518758E+03  0.82864518758E+03  0.00000000000E+00 0. -1.
         25    1    1    2    0    0  0.18694961672E+03  0.48968804193E+02 -0.36505898274E+03  0.43155667514E+03  0.12500000000E+03 0.  0.
         25    1    1    2    0    0 -0.38578610523E+03 -0.15658228908E+03 -0.14702292318E+03  0.45890050358E+03  0.12500000000E+03 0.  0.
         25    1    1    2    0    0  0.19883648851E+03  0.10761348489E+03  0.36180214537E+01  0.25836931198E+03  0.12500000000E+03 0.  0.
</event>
<event>
 5    0  0.5503691E-005  0.2634295E+03  0.7546771E-02  0.1105100E+00
         21   -1    0    0  502  501  0.00000000000E+00  0.00000000000E+00  0.98911004248E+03  0.98911004248E+03  0.00000000000E+00 0. -1.
         21   -1    0    0  501  502 -0.00000000000E+00 -0.00000000000E+00 -0.70159151267E+02  0.70159151267E+02  0.00000000000E+00 0. -1.
         25    1    1    2    0    0 -0.33970105451E+02  0.15527504764E+03  0.30078390388E+03  0.36243656730E+03  0.12500000000E+03 0.  0.
         25    1    1    2    0    0  0.42678029665E+02 -0.19500026976E+02  0.21080802200E+03  0.24953293852E+03  0.12500000000E+03 0.  0.
         25    1    1    2    0    0 -0.87079242135E+01 -0.13577502066E+03  0.40735896534E+03  0.44729968793E+03  0.12500000000E+03 0.  0.
</event>
<event>
 5    0  0.5503691E-005  0.2856906E+03  0.7546771E-02  0.1092621E+00
         21   -1    0    0  502  501  0.00000000000E+00  0.00000000000E+00  0.15536630995E+03  0.15536630995E+03  0.00000000000E+00 0.  1.
         21   -1    0    0  501  502 -0.00000000000E+00 -0.00000000000E+00 -0.52533348423E+03  0.52533348423E+03  0.00000000000E+00 0.  1.
         25    1    1    2    0    0  0.13694194216E+03  0.46519801673E+02 -0.11165959038E+02  0.19148594234E+03  0.12500000000E+03 0.  0.
         25    1    1    2    0    0  0.42440313709E+01 -0.12152038455E+02 -0.73727578733E+02  0.14569296382E+03  0.12500000000E+03 0.  0.
         25    1    1    2    0    0 -0.14118597353E+03 -0.34367763218E+02 -0.28507363651E+03  0.34352088802E+03  0.12500000000E+03 0.  0.
</event>
<event>
 5    0  0.5503691E-005  0.2719088E+03  0.7546771E-02  0.1100192E+00
         21   -1    0    0  502  501  0.00000000000E+00  0.00000000000E+00  0.14739022667E+03  0.14739022667E+03  0.00000000000E+00 0. -1.
         21   -1    0    0  501  502 -0.00000000000E+00 -0.00000000000E+00 -0.50162355444E+03  0.50162355444E+03  0.00000000000E+00 0. -1.
         25    1    1    2    0    0  0.52010665006E+02  0.22188830615E+02 -0.15250639364E+02  0.13803997783E+03  0.12500000000E+03 0.  0.
         25    1    1    2    0    0 -0.15142187619E+03  0.51461396758E+02 -0.14707251158E+03  0.25066348679E+03  0.12500000000E+03 0.  0.
         25    1    1    2    0    0  0.99411211187E+02 -0.73650227373E+02 -0.19191017683E+03  0.26031031649E+03  0.12500000000E+03 0.  0.
</event>
<event>
 5    0  0.5503691E-005  0.4466372E+03  0.7546771E-02  0.1028730E+00
         21   -1    0    0  502  501  0.00000000000E+00  0.00000000000E+00  0.20707769747E+03  0.20707769747E+03  0.00000000000E+00 0. -1.
         21   -1    0    0  501  502 -0.00000000000E+00 -0.00000000000E+00 -0.96333306176E+03  0.96333306176E+03  0.00000000000E+00 0. -1.
         25    1    1    2    0    0 -0.83207955038E+02 -0.10265076435E+03 -0.25090809428E+03  0.30990420290E+03  0.12500000000E+03 0.  0.
         25    1    1    2    0    0 -0.32086411353E+02  0.35204225791E+03 -0.37945433214E+03  0.53345466474E+03  0.12500000000E+03 0.  0.
         25    1    1    2    0    0  0.11529436639E+03 -0.24939149357E+03 -0.12589293788E+03  0.32705189159E+03  0.12500000000E+03 0.  0.
</event>
<event>
 5    0  0.5503691E-005  0.4180148E+03  0.7546771E-02  0.1037714E+00
         21   -1    0    0  502  501  0.00000000000E+00  0.00000000000E+00  0.16647393643E+03  0.16647393643E+03  0.00000000000E+00 0.  1.
         21   -1    0    0  501  502 -0.00000000000E+00 -0.00000000000E+00 -0.10496321833E+04  0.10496321833E+04  0.00000000000E+00 0.  1.
         25    1    1    2    0    0 -0.19113394597E+03  0.17988653544E+03 -0.84948903382E+02  0.30287401196E+03  0.12500000000E+03 0.  0.
         25    1    1    2    0    0  0.13727691232E+03  0.11598033114E+02 -0.21396612381E+03  0.28352419150E+03  0.12500000000E+03 0.  0.
         25    1    1    2    0    0  0.53857033651E+02 -0.19148456855E+03 -0.58424321969E+03  0.62970791627E+03  0.12500000000E+03 0.  0.
</event>
<event>
 5    0  0.5503691E-005  0.2511791E+03  0.7546771E-02  0.1112562E+00
         21   -1    0    0  502  501  0.00000000000E+00  0.00000000000E+00  0.11898371635E+04  0.11898371635E+04  0.00000000000E+00 0. -1.
         21   -1    0    0  501  502 -0.00000000000E+00 -0.00000000000E+00 -0.53024852002E+02  0.53024852002E+02  0.00000000000E+00 0. -1.
         25    1    1    2    0    0  0.43474182481E+02 -0.11940972595E+02  0.41930186969E+03  0.43985412274E+03  0.12500000000E+03 0.  0.
         25    1    1    2    0    0  0.75244989314E+02  0.23705413954E+01  0.52275118591E+03  0.54273495397E+03  0.12500000000E+03 0.  0.
         25    1    1    2    0    0 -0.11871917180E+03  0.95704311997E+01  0.19475925585E+03  0.26027293875E+03  0.12500000000E+03 0.  0.
</event>
<event>
 5    0  0.5503691E-005  0.3980647E+03  0.7546771E-02  0.1044452E+00
         21   -1    0    0  502  501  0.00000000000E+00  0.00000000000E+00  0.23026245223E+04  0.23026245223E+04  0.00000000000E+00 0. -1.
         21   -1    0    0  501  502 -0.00000000000E+00 -0.00000000000E+00 -0.68815175770E+02  0.68815175770E+02  0.00000000000E+00 0. -1.
         25    1    1    2    0    0 -0.15633820525E+03  0.19045625719E+03  0.97667388631E+03  0.10150034978E+04  0.12500000000E+03 0.  0.
         25    1    1    2    0    0  0.14786779190E+03 -0.12921781288E+02  0.10051126495E+04  0.10236739200E+04  0.12500000000E+03 0.  0.
         25    1    1    2    0    0  0.84704133502E+01 -0.17753447590E+03  0.25202281063E+03  0.33276228019E+03  0.12500000000E+03 0.  0.
</event>
<event>
 5    0  0.5503691E-005  0.2995187E+03  0.7546771E-02  0.1085481E+00
         21   -1    0    0  502  501  0.00000000000E+00  0.00000000000E+00  0.22792943039E+03  0.22792943039E+03  0.00000000000E+00 0. -1.
         21   -1    0    0  501  502 -0.00000000000E+00 -0.00000000000E+00 -0.39359315782E+03  0.39359315782E+03  0.00000000000E+00 0. -1.
         25    1    1    2    0    0 -0.29176097774E+02 -0.10234971172E+03 -0.22541318915E+03  0.27885984654E+03  0.12500000000E+03 0.  0.
         25    1    1    2    0    0 -0.72761918752E+02  0.93862986476E+02  0.55331947925E+02  0.18108335515E+03  0.12500000000E+03 0.  0.
         25    1    1    2    0    0  0.10193801653E+03  0.84867252454E+01  0.44175138002E+01  0.16157938652E+03  0.12500000000E+03 0.  0.
</event>
<event>
 5    0  0.5730993E-005  0.2667500E+03  0.7546771E-02  0.1103154E+00
         21   -1    0    0  502  501  0.00000000000E+00  0.00000000000E+00  0.35347219093E+03  0.35347219093E+03  0.00000000000E+00 0.  1.
         21   -1    0    0  501  502 -0.00000000000E+00 -0.00000000000E+00 -0.20130457820E+03  0.20130457820E+03  0.00000000000E+00 0.  1.
         25    1    1    2    0    0 -0.44857556012E+02 -0.52605462722E+02  0.22732070337E+03  0.26847576654E+03  0.12500000000E+03 0.  0.
         25    1    1    2    0    0 -0.10354549126E+02  0.14800236410E+02 -0.70053576750E+02  0.14442564627E+03  0.12500000000E+03 0.  0.
         25    1    1    2    0    0  0.55212105138E+02  0.37805226312E+02 -0.50995138847E+01  0.14187535632E+03  0.12500000000E+03 0.  0.
</event>
<event>
 5    0  0.5503691E-005  0.3519790E+03  0.7546771E-02  0.1061806E+00
         21   -1    0    0  502  501  0.00000000000E+00  0.00000000000E+00  0.22003731035E+04  0.22003731035E+04  0.00000000000E+00 0.  1.
         21   -1    0    0  501  502 -0.00000000000E+00 -0.00000000000E+00 -0.56303722672E+02  0.56303722672E+02  0.00000000000E+00 0.  1.
         25    1    1    2    0    0 -0.68491832611E+02  0.55702263607E+02  0.23189915037E+03  0.27784184214E+03  0.12500000000E+03 0.  0.
         25    1    1    2    0    0  0.59482041774E+02  0.77775431995E+02  0.16580005184E+04  0.16655863382E+04  0.12500000000E+03 0.  0.
         25    1    1    2    0    0  0.90097908366E+01 -0.13347769560E+03  0.25416971202E+03  0.31324864575E+03  0.12500000000E+03 0.  0.
</event>
<event>
 5    0  0.5503691E-005  0.3231444E+03  0.7546771E-02  0.1074211E+00
         21   -1    0    0  502  501  0.00000000000E+00  0.00000000000E+00  0.88474297828E+02  0.88474297828E+02  0.00000000000E+00 0. -1.
         21   -1    0    0  501  502 -0.00000000000E+00 -0.00000000000E+00 -0.11802559578E+04  0.11802559578E+04  0.00000000000E+00 0.  1.
         25    1    1    2    0    0  0.16368136039E+02  0.23427982851E+02 -0.20787974725E+03  0.24424531843E+03  0.12500000000E+03 0.  0.
         25    1    1    2    0    0 -0.28047294621E+02 -0.22853336967E+03 -0.33550794981E+03  0.42568149616E+03  0.12500000000E+03 0.  0.
         25    1    1    2    0    0  0.11679158582E+02  0.20510538682E+03 -0.54839396296E+03  0.59880344108E+03  0.12500000000E+03 0.  0.
</event>
<event>
 5    0  0.5503691E-005  0.2406709E+03  0.7546771E-02  0.1119347E+00
         21   -1    0    0  502  501  0.00000000000E+00  0.00000000000E+00  0.87725568211E+03  0.87725568211E+03  0.00000000000E+00 0. -1.
         21   -1    0    0  501  502 -0.00000000000E+00 -0.00000000000E+00 -0.66026905850E+02  0.66026905850E+02  0.00000000000E+00 0. -1.
         25    1    1    2    0    0 -0.45461166102E+02 -0.71338003351E+02  0.11179743914E+03  0.18782836778E+03  0.12500000000E+03 0.  0.
         25    1    1    2    0    0  0.73941479111E+02  0.44479798608E+02  0.42597505727E+03  0.45224500465E+03  0.12500000000E+03 0.  0.
         25    1    1    2    0    0 -0.28480313009E+02  0.26858204743E+02  0.27345627985E+03  0.30320921553E+03  0.12500000000E+03 0.  0.
</event>
<event>
 5    0  0.5503691E-005  0.3442434E+03  0.7546771E-02  0.1065003E+00
         21   -1    0    0  502  501  0.00000000000E+00  0.00000000000E+00  0.55606667831E+03  0.55606667831E+03  0.00000000000E+00 0. -1.
         21   -1    0    0  501  502 -0.00000000000E+00 -0.00000000000E+00 -0.21311028361E+03  0.21311028361E+03  0.00000000000E+00 0. -1.
         25    1    1    2    0    0  0.10367147607E+03 -0.10243827206E+02 -0.39802934891E+02  0.16751711725E+03  0.12500000000E+03 0.  0.
         25    1    1    2    0    0 -0.12385247368E+03  0.98661465775E+02  0.39826868363E+03  0.44644872542E+03  0.12500000000E+03 0.  0.
         25    1    1    2    0    0  0.20180997613E+02 -0.88417638569E+02 -0.15509354047E+02  0.15521111925E+03  0.12500000000E+03 0.  0.
</event>
<event>
 5    0  0.5503691E-005  0.3401165E+03  0.7546771E-02  0.1066746E+00
         21   -1    0    0  502  501  0.00000000000E+00  0.00000000000E+00  0.42311727868E+03  0.42311727868E+03  0.00000000000E+00 0.  1.
         21   -1    0    0  501  502 -0.00000000000E+00 -0.00000000000E+00 -0.27339752261E+03  0.27339752261E+03  0.00000000000E+00 0.  1.
         25    1    1    2    0    0 -0.56320043255E+02  0.16769470005E+03  0.22538800921E+03  0.31259912731E+03  0.12500000000E+03 0.  0.
         25    1    1    2    0    0 -0.42740407813E+02 -0.11350793667E+03  0.41099225556E+02  0.17895513540E+03  0.12500000000E+03 0.  0.
         25    1    1    2    0    0  0.99060451068E+02 -0.54186763387E+02 -0.11676747870E+03  0.20496053857E+03  0.12500000000E+03 0.  0.
</event>
<event>
 5    0  0.5503691E-005  0.4270074E+03  0.7546771E-02  0.1034810E+00
         21   -1    0    0  502  501  0.00000000000E+00  0.00000000000E+00  0.18135122062E+03  0.18135122062E+03  0.00000000000E+00 0. -1.
         21   -1    0    0  501  502 -0.00000000000E+00 -0.00000000000E+00 -0.10054262919E+04  0.10054262919E+04  0.00000000000E+00 0. -1.
         25    1    1    2    0    0 -0.76880721162E+01 -0.20647251097E+02 -0.12589398007E+03  0.17877278777E+03  0.12500000000E+03 0.  0.
         25    1    1    2    0    0  0.28208952904E+03 -0.92287359759E+01 -0.78958438621E+02  0.31862063177E+03  0.12500000000E+03 0.  0.
         25    1    1    2    0    0 -0.27440145693E+03  0.29875987073E+02 -0.61922265258E+03  0.68938409297E+03  0.12500000000E+03 0.  0.
</event>
<event>
 5    0  0.5503691E-005  0.2873758E+03  0.7546771E-02  0.1091727E+00
         21   -1    0    0  502  501  0.00000000000E+00  0.00000000000E+00  0.13892551994E+03  0.13892551994E+03  0.00000000000E+00 0.  1.
         21   -1    0    0  501  502 -0.00000000000E+00 -0.00000000000E+00 -0.59445418711E+03  0.59445418711E+03  0.00000000000E+00 0.  1.
         25    1    1    2    0    0  0.57898948727E+02  0.38848233035E+02 -0.11499562620E+03  0.18360410540E+03  0.12500000000E+03 0.  0.
         25    1    1    2    0    0 -0.16873634207E+03 -0.12040109302E+03 -0.22759164199E+03  0.33225191022E+03  0.12500000000E+03 0.  0.
         25    1    1    2    0    0  0.11083739335E+03  0.81552859981E+02 -0.11294139897E+03  0.21752369144E+03  0.12500000000E+03 0.  0.
</event>
<event>
 5    0  0.5503691E-005  0.3614100E+03  0.7546771E-02  0.1058027E+00
         21   -1    0    0  502  501  0.00000000000E+00  0.00000000000E+00  0.79707884339E+02  0.79707884339E+02  0.00000000000E+00 0.  1.
         21   -1    0    0  501  502 -0.00000000000E+00 -0.00000000000E+00 -0.16386981681E+04  0.16386981681E+04  0.00000000000E+00 0.  1.
         25    1    1    2    0    0  0.89876227665E+01 -0.19128835962E+03 -0.91676329159E+03  0.94485551631E+03  0.12500000000E+03 0.  0.
         25    1    1    2    0    0  0.34026907681E+02 -0.63029499418E+02 -0.19751506960E+03  0.24447443826E+03  0.12500000000E+03 0.  0.
         25    1    1    2    0    0 -0.43014530447E+02  0.25431785904E+03 -0.44471192253E+03  0.52907609783E+03  0.12500000000E+03 0.  0.
</event>
<event>
 5    0  0.5503691E-005  0.4088617E+03  0.7546771E-02  0.1040754E+00
         21   -1    0    0  502  501  0.00000000000E+00  0.00000000000E+00  0.67158511622E+03  0.67158511622E+03  0.00000000000E+00 0.  1.
         21   -1    0    0  501  502 -0.00000000000E+00 -0.00000000000E+00 -0.24891536464E+03  0.24891536464E+03  0.00000000000E+00 0.  1.
         25    1    1    2    0    0  0.22698477562E+03 -0.80497303760E+02  0.64283695289E+02  0.27885354177E+03  0.12500000000E+03 0.  0.
         25    1    1    2    0    0 -0.30676841868E+03  0.15555981222E+03  0.25086010531E+03  0.44369078231E+03  0.12500000000E+03 0.  0.
         25    1    1    2    0    0  0.79783643056E+02 -0.75062508457E+02  0.10752595098E+03  0.19795615679E+03  0.12500000000E+03 0.  0.
</event>
<event>
 5    0  0.5503691E-005  0.2683044E+03  0.7546771E-02  0.1102254E+00
         21   -1    0    0  502  501  0.00000000000E+00  0.00000000000E+00  0.28095876240E+03  0.28095876240E+03  0.00000000000E+00 0. -1.
         21   -1    0    0  501  502 -0.00000000000E+00 -0.00000000000E+00 -0.25622000758E+03  0.25622000758E+03  0.00000000000E+00 0. -1.
         25    1    1    2    0    0  0.12892881929E+03 -0.24241922046E+02  0.10290712586E+03  0.20838711040E+03  0.12500000000E+03 0.  0.
         25    1    1    2    0    0 -0.16441829436E+02  0.41796617963E+02 -0.88163435182E+02  0.15942108497E+03  0.12500000000E+03 0.  0.
         25    1    1    2    0    0 -0.11248698986E+03 -0.17554695917E+02  0.99950641368E+01  0.16937057461E+03  0.12500000000E+03 0.  0.
</event>
<event>
 5    0  0.5503691E-005  0.3782103E+03  0.7546771E-02  0.1051597E+00
         21   -1    0    0  502  501  0.00000000000E+00  0.00000000000E+00  0.52726969231E+02  0.52726969231E+02  0.00000000000E+00 0. -1.
         21   -1    0    0  501  502 -0.00000000000E+00 -0.00000000000E+00 -0.27129011387E+04  0.27129011387E+04  0.00000000000E+00 0. -1.
         25    1    1    2    0    0 -0.13716157387E+03  0.58103789610E+02 -0.29874381729E+03  0.35645787420E+03  0.12500000000E+03 0.  0.
         25    1    1    2    0    0  0.22119059603E+03  0.40247772190E+02 -0.18329843892E+04  0.18509462266E+04  0.12500000000E+03 0.  0.
         25    1    1    2    0    0 -0.84029022161E+02 -0.98351561800E+02 -0.52844596300E+03  0.55822400708E+03  0.12500000000E+03 0.  0.
</event>
<event>
 5    0  0.5503691E-005  0.2214916E+03  0.7546771E-02  0.1132776E+00
         21   -1    0    0  502  501  0.00000000000E+00  0.00000000000E+00  0.11479520126E+03  0.11479520126E+03  0.00000000000E+00 0. -1.
         21   -1    0    0  501  502 -0.00000000000E+00 -0.00000000000E+00 -0.42735680906E+03  0.42735680906E+03  0.00000000000E+00 0. -1.
         25    1    1    2    0    0  0.41687033858E+02 -0.69354092697E+01 -0.51163590482E+02  0.14152251300E+03  0.12500000000E+03 0.  0.
         25    1    1    2    0    0 -0.80253834529E+02  0.36685280560E+02 -0.73477109964E+02  0.16973618782E+03  0.12500000000E+03 0.  0.
         25    1    1    2    0    0  0.38566800671E+02 -0.29749871291E+02 -0.18792090735E+03  0.23089330950E+03  0.12500000000E+03 0.  0.
</event>
<event>
 5    0  0.5503691E-005  0.5956369E+03  0.7546771E-02  0.9914500E-01
         21   -1    0    0  502  501  0.00000000000E+00  0.00000000000E+00  0.11386729987E+04  0.11386729987E+04  0.00000000000E+00 0. -1.
         21   -1    0    0  501  502 -0.00000000000E+00 -0.00000000000E+00 -0.31157612962E+03  0.31157612962E+03  0.00000000000E+00 0. -1.
         25    1    1    2    0    0 -0.32177762992E+03  0.28535941021E+03  0.70154553865E+02  0.45334037713E+03  0.12500000000E+03 0.  0.
         25    1    1    2    0    0 -0.24594494421E+02 -0.18516134500E+03  0.12102125762E+03  0.25526605264E+03  0.12500000000E+03 0.  0.
         25    1    1    2    0    0  0.34637212434E+03 -0.10019806521E+03  0.63592105755E+03  0.74164269849E+03  0.12500000000E+03 0.  0.
</event>
<event>
 5    0  0.5503691E-005  0.4224040E+03  0.7546771E-02  0.1036287E+00
         21   -1    0    0  502  501  0.00000000000E+00  0.00000000000E+00  0.15041749418E+04  0.15041749418E+04  0.00000000000E+00 0. -1.
         21   -1    0    0  501  502 -0.00000000000E+00 -0.00000000000E+00 -0.11861993047E+03  0.11861993047E+03  0.00000000000E+00 0. -1.
         25    1    1    2    0    0 -0.26062551983E+03  0.13004699884E+02  0.79148000836E+03  0.84271014438E+03  0.12500000000E+03 0.  0.
         25    1    1    2    0    0  0.29606425379E+03  0.75249504734E+02  0.29687089227E+03  0.44393001364E+03  0.12500000000E+03 0.  0.
         25    1    1    2    0    0 -0.35438733964E+02 -0.88254204618E+02  0.29720411069E+03  0.33615471425E+03  0.12500000000E+03 0.  0.
</event>
<event>
 5    0  0.5503691E-005  0.2749349E+03  0.7546771E-02  0.1098488E+00
         21   -1    0    0  502  501  0.00000000000E+00  0.00000000000E+00  0.56447606915E+03  0.56447606915E+03  0.00000000000E+00 0.  1.
         21   -1    0    0  501  502 -0.00000000000E+00 -0.00000000000E+00 -0.13391035482E+03  0.13391035482E+03  0.00000000000E+00 0.  1.
         25    1    1    2    0    0  0.65406495613E+02  0.90286045973E+02 -0.98513107186E+00  0.16749791118E+03  0.12500000000E+03 0.  0.
         25    1    1    2    0    0  0.35389160146E+02 -0.25721834217E+02  0.22833215043E+03  0.26395942175E+03  0.12500000000E+03 0.  0.
         25    1    1    2    0    0 -0.10079565576E+03 -0.64564211756E+02  0.20321869497E+03  0.26692909104E+03  0.12500000000E+03 0.  0.
</event>
<event>
 5    0  0.5503691E-005  0.2636824E+03  0.7546771E-02  0.1104951E+00
         21   -1    0    0  502  501  0.00000000000E+00  0.00000000000E+00  0.27285294030E+03  0.27285294030E+03  0.00000000000E+00 0.  1.
         21   -1    0    0  501  502 -0.00000000000E+00 -0.00000000000E+00 -0.25482006861E+03  0.25482006861E+03  0.00000000000E+00 0.  1.
         25    1    1    2    0    0 -0.87929670271E+02 -0.97417582811E+02  0.19315883127E+02  0.18226331418E+03  0.12500000000E+03 0.  0.
         25    1    1    2    0    0  0.68827618689E+02  0.15074061426E+03  0.92221709940E+01  0.20777396930E+03  0.12500000000E+03 0.  0.
         25    1    1    2    0    0  0.19102051582E+02 -0.53323031449E+02 -0.10505182428E+02  0.13763572543E+03  0.12500000000E+03 0.  0.
</event>
<event>
 5    0  0.5503691E-005  0.2334428E+03  0.7546771E-02  0.1124240E+00
         21   -1    0    0  502  501  0.00000000000E+00  0.00000000000E+00  0.16998457090E+03  0.16998457090E+03  0.00000000000E+00 0.  1.
         21   -1    0    0  501  502 -0.00000000000E+00 -0.00000000000E+00 -0.32059106737E+03  0.32059106737E+03  0.00000000000E+00 0.  1.
         25    1    1    2    0    0 -0.97974100230E+01  0.69445968215E+01 -0.15246273340E+03  0.19751987683E+03  0.12500000000E+03 0.  0.
         25    1    1    2    0    0 -0.20431153710E+02 -0.56984981574E+02  0.48926257107E+02  0.14725317926E+03  0.12500000000E+03 0.  0.
         25    1    1    2    0    0  0.30228563733E+02  0.50040384753E+02 -0.47070020176E+02  0.14580258218E+03  0.12500000000E+03 0.  0.
</event>
<event>
 5    0  0.5572718E-005  0.2808908E+03  0.7546771E-02  0.1095203E+00
         21   -1    0    0  502  501  0.00000000000E+00  0.00000000000E+00  0.16751457877E+03  0.16751457877E+03  0.00000000000E+00 0. -1.
         21   -1    0    0  501  502 -0.00000000000E+00 -0.00000000000E+00 -0.47100163427E+03  0.47100163427E+03  0.00000000000E+00 0. -1.
         25    1    1    2    0    0  0.91123585877E+02  0.15947105955E+03 -0.11999572144E+03  0.25250445521E+03  0.12500000000E+03 0.  0.
         25    1    1    2    0    0 -0.13561413544E+02 -0.65995823553E+02 -0.13658451067E+02  0.14265662953E+03  0.12500000000E+03 0.  0.
         25    1    1    2    0    0 -0.77562172333E+02 -0.93475236001E+02 -0.16983288300E+03  0.24335512830E+03  0.12500000000E+03 0.  0.
</event>
<event>
 5    0  0.5503691E-005  0.3617831E+03  0.7546771E-02  0.1057880E+00
         21   -1    0    0  502  501  0.00000000000E+00  0.00000000000E+00  0.18559983355E+03  0.18559983355E+03  0.00000000000E+00 0.  1.
         21   -1    0    0  501  502 -0.00000000000E+00 -0.00000000000E+00 -0.70521074275E+03  0.70521074275E+03  0.00000000000E+00 0.  1.
         25    1    1    2    0    0 -0.12262754821E+03  0.86592580632E+01 -0.13287638098E+03  0.21998552442E+03  0.12500000000E+03 0.  0.
         25    1    1    2    0    0  0.28500372937E+03 -0.55188573575E+02 -0.13709449524E+03  0.34451822162E+03  0.12500000000E+03 0.  0.
         25    1    1    2    0    0 -0.16237618115E+03  0.46529315511E+02 -0.24964003298E+03  0.32630683026E+03  0.12500000000E+03 0.  0.
</event>
<event>
 5    0  0.5503691E-005  0.2273755E+03  0.7546771E-02  0.1128501E+00
         21   -1    0    0  502  501  0.00000000000E+00  0.00000000000E+00  0.63395773703E+02  0.63395773703E+02  0.00000000000E+00 0.  1.
         21   -1    0    0  501  502 -0.00000000000E+00 -0.00000000000E+00 -0.81550546294E+03  0.81550546294E+03  0.00000000000E+00 0.  1.
         25    1    1    2    0    0 -0.46738681387E+02 -0.88334740764E+01 -0.34380289939E+03  0.36890102769E+03  0.12500000000E+03 0.  0.
         25    1    1    2    0    0  0.91465627982E+02  0.53759533203E+02 -0.24496444854E+03  0.29476877305E+03  0.12500000000E+03 0.  0.
         25    1    1    2    0    0 -0.44726946595E+02 -0.44926059127E+02 -0.16334234131E+03  0.21523143591E+03  0.12500000000E+03 0.  0.
</event>
<event>
 5    0  0.5503691E-005  0.3743492E+03  0.7546771E-02  0.1053042E+00
         21   -1    0    0  502  501  0.00000000000E+00  0.00000000000E+00  0.30365796314E+03  0.30365796314E+03  0.00000000000E+00 0. -1.
         21   -1    0    0  501  502 -0.00000000000E+00 -0.00000000000E+00 -0.46149716928E+03  0.46149716928E+03  0.00000000000E+00 0. -1.
         25    1    1    2    0    0  0.27335130738E+03  0.15476773165E+03 -0.87420456796E+02  0.34920097977E+03  0.12500000000E+03 0.  0.
         25    1    1    2    0    0 -0.10652934400E+03 -0.92346021939E+02 -0.40734822886E+01  0.18846188516E+03  0.12500000000E+03 0.  0.
         25    1    1    2    0    0 -0.16682196338E+03 -0.62421709706E+02 -0.66345267062E+02  0.22749226750E+03  0.12500000000E+03 0.  0.
</event>
<event>
 5    0  0.5503691E-005  0.3634970E+03  0.7546771E-02  0.1057208E+00
         21   -1    0    0  502  501  0.00000000000E+00  0.00000000000E+00  0.33400898464E+03  0.33400898464E+03  0.00000000000E+00 0. -1.
         21   -1    0    0  501  502 -0.00000000000E+00 -0.00000000000E+00 -0.39558832061E+03  0.39558832061E+03  0.00000000000E+00 0. -1.
         25    1    1    2    0    0 -0.21570529201E+03 -0.12665015363E+03 -0.28418157257E+02  0.28107227910E+03  0.12500000000E+03 0.  0.
         25    1    1    2    0    0  0.90203447271E+02  0.13405268712E+03  0.99376649320E+02  0.22717284885E+03  0.12500000000E+03 0.  0.
         25    1    1    2    0    0  0.12550184474E+03 -0.74025334905E+01 -0.13253782804E+03  0.22135217730E+03  0.12500000000E+03 0.  0.
</event>
<event>
 5    0  0.5503691E-005  0.2311669E+03  0.7546771E-02  0.1125821E+00
         21   -1    0    0  502  501  0.00000000000E+00  0.00000000000E+00  0.10515805028E+04  0.10515805028E+04  0.00000000000E+00 0.  1.
         21   -1    0    0  501  502 -0.00000000000E+00 -0.00000000000E+00 -0.50816984565E+02  0.50816984565E+02  0.00000000000E+00 0.  1.
         25    1    1    2    0    0 -0.55029012784E+01  0.22458743683E+02  0.12771835059E+03  0.18019892943E+03  0.12500000000E+03 0.  0.
         25    1    1    2    0    0  0.39916730363E+02  0.51488964254E+02  0.52295280887E+03  0.54161711485E+03  0.12500000000E+03 0.  0.
         25    1    1    2    0    0 -0.34413829084E+02 -0.73947707937E+02  0.35009235879E+03  0.38058144309E+03  0.12500000000E+03 0.  0.
</event>
<event>
 5    0  0.5624833E-005  0.3392797E+03  0.7546771E-02  0.1067103E+00
         21   -1    0    0  502  501  0.00000000000E+00  0.00000000000E+00  0.38129114881E+03  0.38129114881E+03  0.00000000000E+00 0.  1.
         21   -1    0    0  501  502 -0.00000000000E+00 -0.00000000000E+00 -0.30189707557E+03  0.30189707557E+03  0.00000000000E+00 0.  1.
         25    1    1    2    0    0  0.17527472335E+03 -0.92406978345E+02  0.14869715871E+03  0.27748175309E+03  0.12500000000E+03 0.  0.
         25    1    1    2    0    0 -0.48449342146E+01  0.13315338689E+03 -0.12685936143E+02  0.18313719121E+03  0.12500000000E+03 0.  0.
         25    1    1    2    0    0 -0.17042978914E+03 -0.40746408544E+02 -0.56617149325E+02  0.22256928007E+03  0.12500000000E+03 0.  0.
</event>
<event>
 5    0  0.5503691E-005  0.2143286E+03  0.7546771E-02  0.1138183E+00
         21   -1    0    0  502  501  0.00000000000E+00  0.00000000000E+00  0.46730497922E+02  0.46730497922E+02  0.00000000000E+00 0. -1.
         21   -1    0    0  501  502 -0.00000000000E+00 -0.00000000000E+00 -0.98301386852E+03  0.98301386852E+03  0.00000000000E+00 0. -1.
         25    1    1    2    0    0 -0.52816599676E+02  0.52068563655E+02 -0.22387683245E+03  0.26692052118E+03  0.12500000000E+03 0.  0.
         25    1    1    2    0    0  0.10606158022E+02 -0.62724586316E+02 -0.37688994342E+03  0.40214163397E+03  0.12500000000E+03 0.  0.
         25    1    1    2    0    0  0.42210441655E+02  0.10656022661E+02 -0.33551659473E+03  0.36068221129E+03  0.12500000000E+03 0.  0.
</event>
<event>
 5    0  0.5503691E-005  0.3076412E+03  0.7546771E-02  0.1081482E+00
         21   -1    0    0  502  501  0.00000000000E+00  0.00000000000E+00  0.22639872155E+04  0.22639872155E+04  0.00000000000E+00 0.  1.
         21   -1    0    0  501  502 -0.00000000000E+00 -0.00000000000E+00 -0.41803729414E+02  0.41803729414E+02  0.00000000000E+00 0.  1.
         25    1    1    2    0    0 -0.80789810566E+02  0.13205986065E+03  0.78260621329E+03  0.80750497544E+03  0.12500000000E+03 0.  0.
         25    1    1    2    0    0  0.31917809375E+02 -0.12508299228E+02  0.11512484946E+04  0.11585220328E+04  0.12500000000E+03 0.  0.
         25    1    1    2    0    0  0.48872001191E+02 -0.11955156142E+03  0.28832877814E+03  0.33976393664E+03  0.12500000000E+03 0.  0.
</event>
<event>
 5    0  0.5503691E-005  0.4375116E+03  0.7546771E-02  0.1031513E+00
         21   -1    0    0  502  501  0.00000000000E+00  0.00000000000E+00  0.39506005810E+03  0.39506005810E+03  0.00000000000E+00 0.  1.
         21   -1    0    0  501  502 -0.00000000000E+00 -0.00000000000E+00 -0.48452478949E+03  0.48452478949E+03  0.00000000000E+00 0.  1.
         25    1    1    2    0    0 -0.14493127766E+03 -0.34250305565E+03 -0.10717044456E+03  0.40672339810E+03  0.12500000000E+03 0.  0.
         25    1    1    2    0    0  0.97144444674E+02  0.14844890202E+03  0.76159095252E+02  0.22999853789E+03  0.12500000000E+03 0.  0.
         25    1    1    2    0    0  0.47786832987E+02  0.19405415363E+03 -0.58453382079E+02  0.24286291159E+03  0.12500000000E+03 0.  0.
</event>
<event>
 5    0  0.5503691E-005  0.4044473E+03  0.7546771E-02  0.1042251E+00
         21   -1    0    0  502  501  0.00000000000E+00  0.00000000000E+00  0.77642324901E+03  0.77642324901E+03  0.00000000000E+00 0. -1.
         21   -1    0    0  501  502 -0.00000000000E+00 -0.00000000000E+00 -0.21068102160E+03  0.21068102160E+03  0.00000000000E+00 0. -1.
         25    1    1    2    0    0  0.15669747295E+03  0.27078714522E+03  0.33841072009E+03  0.47752129955E+03  0.12500000000E+03 0.  0.
         25    1    1    2    0    0 -0.18728888133E+03 -0.20456738247E+03  0.19480381527E+03  0.36124571345E+03  0.12500000000E+03 0.  0.
         25    1    1    2    0    0  0.30591408379E+02 -0.66219762757E+02  0.32527692043E+02  0.14833725761E+03  0.12500000000E+03 0.  0.
</event>
<event>
 5    0  0.5503691E-005  0.5151762E+03  0.7546771E-02  0.1009892E+00
         21   -1    0    0  502  501  0.00000000000E+00  0.00000000000E+00  0.35055863556E+03  0.35055863556E+03  0.00000000000E+00 0.  1.
         21   -1    0    0  501  502 -0.00000000000E+00 -0.00000000000E+00 -0.75709605454E+03  0.75709605454E+03  0.00000000000E+00 0.  1.
         25    1    1    2    0    0  0.26095007503E+03 -0.26422838101E+03 -0.73343841220E+02  0.39864256927E+03  0.12500000000E+03 0.  0.
         25    1    1    2    0    0 -0.34969328770E+02 -0.54587442526E+02  0.48204607092E+02  0.14883321867E+03  0.12500000000E+03 0.  0.
         25    1    1    2    0    0 -0.22598074626E+03  0.31881582354E+03 -0.38139818484E+03  0.56017890216E+03  0.12500000000E+03 0.  0.
</event>
<event>
 5    0  0.5503691E-005  0.3061811E+03  0.7546771E-02  0.1082191E+00
         21   -1    0    0  502  501  0.00000000000E+00  0.00000000000E+00  0.12340065136E+04  0.12340065136E+04  0.00000000000E+00 0. -1.
         21   -1    0    0  501  502 -0.00000000000E+00 -0.00000000000E+00 -0.75969530127E+02  0.75969530127E+02  0.00000000000E+00 0. -1.
         25    1    1    2    0    0 -0.19424608379E+03 -0.12559482871E+03  0.61233307370E+03  0.66639507442E+03  0.12500000000E+03 0.  0.
         25    1    1    2    0    0  0.10467182622E+03  0.73086639032E+02  0.28308446652E+03  0.33475313769E+03  0.12500000000E+03 0.  0.
         25    1    1    2    0    0  0.89574257571E+02  0.52508189675E+02  0.26261944321E+03  0.30882783157E+03  0.12500000000E+03 0.  0.
</event>
<event>
 5    0  0.5503691E-005  0.6767013E+03  0.7546771E-02  0.9757927E-01
         21   -1    0    0  502  501  0.00000000000E+00  0.00000000000E+00  0.11115603594E+04  0.11115603594E+04  0.00000000000E+00 0.  1.
         21   -1    0    0  501  502 -0.00000000000E+00 -0.00000000000E+00 -0.41196563956E+03  0.41196563956E+03  0.00000000000E+00 0.  1.
         25    1    1    2    0    0 -0.33792896575E+03 -0.44345237169E+03  0.30418738098E+03  0.64730283067E+03  0.12500000000E+03 0.  0.
         25    1    1    2    0    0  0.38089491141E+02  0.38594921760E+02 -0.91818900851E+02  0.16430486260E+03  0.12500000000E+03 0.  0.
         25    1    1    2    0    0  0.29983947461E+03  0.40485744993E+03  0.48722623969E+03  0.71191830566E+03  0.12500000000E+03 0.  0.
</event>
<event>
 5    0  0.5503691E-005  0.3265302E+03  0.7546771E-02  0.1072683E+00
         21   -1    0    0  502  501  0.00000000000E+00  0.00000000000E+00  0.23779108493E+03  0.23779108493E+03  0.00000000000E+00 0. -1.
         21   -1    0    0  501  502 -0.00000000000E+00 -0.00000000000E+00 -0.44838507991E+03  0.44838507991E+03  0.00000000000E+00 0. -1.
         25    1    1    2    0    0 -0.12398967690E+03  0.13759954740E+02  0.14856029189E+03  0.23077681135E+03  0.12500000000E+03 0.  0.
         25    1    1    2    0    0  0.60482561610E+02  0.10304950003E+01 -0.17099023344E+03  0.22027678523E+03  0.12500000000E+03 0.  0.
         25    1    1    2    0    0  0.63507115287E+02 -0.14790449740E+02 -0.18816405344E+03  0.23512256825E+03  0.12500000000E+03 0.  0.
</event>
<event>
 5    0  0.5503691E-005  0.5893871E+03  0.7546771E-02  0.9927672E-01
         21   -1    0    0  502  501  0.00000000000E+00  0.00000000000E+00  0.67209599571E+03  0.67209599571E+03  0.00000000000E+00 0.  1.
         21   -1    0    0  501  502 -0.00000000000E+00 -0.00000000000E+00 -0.51685639746E+03  0.51685639746E+03  0.00000000000E+00 0.  1.
         25    1    1    2    0    0 -0.38879440448E+03 -0.19562990475E+03  0.32644261553E+02  0.45400748496E+03  0.12500000000E+03 0.  0.
         25    1    1    2    0    0  0.42036283124E+03  0.29718305301E+03  0.18238051182E+03  0.56027701004E+03  0.12500000000E+03 0.  0.
         25    1    1    2    0    0 -0.31568426762E+02 -0.10155314826E+03 -0.59785175115E+02  0.17466789817E+03  0.12500000000E+03 0.  0.
</event>
<event>
 5    0  0.6329305E-005  0.3322121E+03  0.7546771E-02  0.1070162E+00
         21   -1    0    0  502  501  0.00000000000E+00  0.00000000000E+00  0.22654524685E+03  0.22654524685E+03  0.00000000000E+00 0.  1.
         21   -1    0    0  501  502 -0.00000000000E+00 -0.00000000000E+00 -0.48716482699E+03  0.48716482699E+03  0.00000000000E+00 0.  1.
         25    1    1    2    0    0 -0.87379399442E+02  0.13327530815E+03 -0.27396446327E+03  0.34070367527E+03  0.12500000000E+03 0.  0.
         25    1    1    2    0    0 -0.20705262942E+02  0.10529526519E+02  0.72157472753E+02  0.14618919152E+03  0.12500000000E+03 0.  0.
         25    1    1    2    0    0  0.10808466238E+03 -0.14380483467E+03 -0.58812589613E+02  0.22681720705E+03  0.12500000000E+03 0.  0.
</event>
<event>
 5    0  0.5503691E-005  0.3761119E+03  0.7546771E-02  0.1052380E+00
         21   -1    0    0  502  501  0.00000000000E+00  0.00000000000E+00  0.10829268446E+03  0.10829268446E+03  0.00000000000E+00 0.  1.
         21   -1    0    0  501  502 -0.00000000000E+00 -0.00000000000E+00 -0.13062764710E+04  0.13062764710E+04  0.00000000000E+00 0.  1.
         25    1    1    2    0    0  0.89714835800E+02 -0.68792727404E+02 -0.35623164082E+03  0.39409031075E+03  0.12500000000E+03 0.  0.
         25    1    1    2    0    0 -0.19095549012E+02  0.12757469435E+03 -0.16062182718E+02  0.18034116653E+03  0.12500000000E+03 0.  0.
         25    1    1    2    0    0 -0.70619286789E+02 -0.58781966946E+02 -0.82568996300E+03  0.84013767819E+03  0.12500000000E+03 0.  0.
</event>
<event>
 5    0  0.5503691E-005  0.2333645E+03  0.7546771E-02  0.1124294E+00
         21   -1    0    0  502  501  0.00000000000E+00  0.00000000000E+00  0.96023895759E+02  0.96023895759E+02  0.00000000000E+00 0.  1.
         21   -1    0    0  501  502 -0.00000000000E+00 -0.00000000000E+00 -0.56713980561E+03  0.56713980561E+03  0.00000000000E+00 0.  1.
         25    1    1    2    0    0 -0.35363646598E+02 -0.40014616067E+02 -0.15129129258E+03  0.20338587023E+03  0.12500000000E+03 0.  0.
         25    1    1    2    0    0  0.12155873011E+02 -0.54657959624E+02 -0.48045327603E+02  0.14515030590E+03  0.12500000000E+03 0.  0.
         25    1    1    2    0    0  0.23207773587E+02  0.94672575692E+02 -0.27177928967E+03  0.31462752524E+03  0.12500000000E+03 0.  0.
</event>
<event>
 5    0  0.5503691E-005  0.3904131E+03  0.7546771E-02  0.1047151E+00
         21   -1    0    0  502  501  0.00000000000E+00  0.00000000000E+00  0.14077319912E+03  0.14077319912E+03  0.00000000000E+00 0.  1.
         21   -1    0    0  501  502 -0.00000000000E+00 -0.00000000000E+00 -0.10827514071E+04  0.10827514071E+04  0.00000000000E+00 0.  1.
         25    1    1    2    0    0  0.28819162742E+03 -0.43283281240E+01 -0.61050527889E+03  0.68659656575E+03  0.12500000000E+03 0.  0.
         25    1    1    2    0    0 -0.13859730831E+03 -0.68382891315E+02 -0.23440116837E+03  0.30733425034E+03  0.12500000000E+03 0.  0.
         25    1    1    2    0    0 -0.14959431911E+03  0.72711219439E+02 -0.97071760722E+02  0.22959379014E+03  0.12500000000E+03 0.  0.
</event>
<event>
 5    0  0.5503691E-005  0.4529088E+03  0.7546771E-02  0.1026858E+00
         21   -1    0    0  502  501  0.00000000000E+00  0.00000000000E+00  0.51901760799E+03  0.51901760799E+03  0.00000000000E+00 0. -1.
         21   -1    0    0  501  502 -0.00000000000E+00 -0.00000000000E+00 -0.39522053361E+03  0.39522053361E+03  0.00000000000E+00 0. -1.
         25    1    1    2    0    0 -0.26179576400E+01 -0.65113036699E+01 -0.48451301793E+02  0.13424522123E+03  0.12500000000E+03 0.  0.
         25    1    1    2    0    0 -0.16360057113E+03  0.31088842063E+03  0.17367556440E+03  0.41134530339E+03  0.12500000000E+03 0.  0.
         25    1    1    2    0    0  0.16621852877E+03 -0.30437711696E+03 -0.14271882310E+01  0.36864761698E+03  0.12500000000E+03 0.  0.
</event>
<event>
 5    0  0.5503691E-005  0.2899153E+03  0.7546771E-02  0.1090393E+00
         21   -1    0    0  502  501  0.00000000000E+00  0.00000000000E+00  0.24873176135E+03  0.24873176135E+03  0.00000000000E+00 0.  1.
         21   -1    0    0  501  502 -0.00000000000E+00 -0.00000000000E+00 -0.33791766969E+03  0.33791766969E+03  0.00000000000E+00 0.  1.
         25    1    1    2    0    0  0.13897566737E+03  0.28964110996E+02 -0.18568967888E+03  0.26506378985E+03  0.12500000000E+03 0.  0.
         25    1    1    2    0    0 -0.57798532054E+02 -0.44000355136E+02  0.22376482481E+01  0.14459152337E+03  0.12500000000E+03 0.  0.
         25    1    1    2    0    0 -0.81177135314E+02  0.15036244141E+02  0.94266122289E+02  0.17699411783E+03  0.12500000000E+03 0.  0.
</event>
<event>
 5    0  0.5503691E-005  0.2538927E+03  0.7546771E-02  0.1110869E+00
         21   -1    0    0  502  501  0.00000000000E+00  0.00000000000E+00  0.14453977418E+03  0.14453977418E+03  0.00000000000E+00 0. -1.
         21   -1    0    0  501  502 -0.00000000000E+00 -0.00000000000E+00 -0.44597771653E+03  0.44597771653E+03  0.00000000000E+00 0. -1.
         25    1    1    2    0    0  0.50606904543E+01  0.10620021584E+03 -0.19285866818E+02  0.16523026687E+03  0.12500000000E+03 0.  0.
         25    1    1    2    0    0 -0.38736781442E+02  0.18948621347E+02 -0.16064325157E+03  0.20806451586E+03  0.12500000000E+03 0.  0.
         25    1    1    2    0    0  0.33676090988E+02 -0.12514883719E+03 -0.12150882397E+03  0.21722270796E+03  0.12500000000E+03 0.  0.
</event>
<event>
 5    0  0.5503691E-005  0.3439681E+03  0.7546771E-02  0.1065118E+00
         21   -1    0    0  502  501  0.00000000000E+00  0.00000000000E+00  0.22100038486E+03  0.22100038486E+03  0.00000000000E+00 0. -1.
         21   -1    0    0  501  502 -0.00000000000E+00 -0.00000000000E+00 -0.53535683541E+03  0.53535683541E+03  0.00000000000E+00 0. -1.
         25    1    1    2    0    0  0.19819595921E+03  0.10930635230E+03 -0.14348479056E+03  0.29570661477E+03  0.12500000000E+03 0.  0.
         25    1    1    2    0    0 -0.22217020215E+03  0.62801230460E+01 -0.87682689417E+02  0.26965216982E+03  0.12500000000E+03 0.  0.
         25    1    1    2    0    0  0.23974242939E+02 -0.11558647534E+03 -0.83188970575E+02  0.19099843568E+03  0.12500000000E+03 0.  0.
</event>
<event>
 5    0  0.5503691E-005  0.3036782E+03  0.7546771E-02  0.1083416E+00
         21   -1    0    0  502  501  0.00000000000E+00  0.00000000000E+00  0.15742707919E+03  0.15742707919E+03  0.00000000000E+00 0.  1.
         21   -1    0    0  501  502 -0.00000000000E+00 -0.00000000000E+00 -0.58579802158E+03  0.58579802158E+03  0.00000000000E+00 0. -1.
         25    1    1    2    0    0  0.46108443892E+02 -0.89510770227E+02 -0.26326181979E+03  0.30833415695E+03  0.12500000000E+03 0.  0.
         25    1    1    2    0    0 -0.14031250812E+03  0.14362324180E+03 -0.90347679127E+02  0.25318558142E+03  0.12500000000E+03 0.  0.
         25    1    1    2    0    0  0.94204064223E+02 -0.54112471569E+02 -0.74761443474E+02  0.18170536240E+03  0.12500000000E+03 0.  0.
</event>
<event>
 5    0  0.5503691E-005  0.3488739E+03  0.7546771E-02  0.1063078E+00
         21   -1    0    0  502  501  0.00000000000E+00  0.00000000000E+00  0.52386089068E+03  0.52386089068E+03  0.00000000000E+00 0.  1.
         21   -1    0    0  501  502 -0.00000000000E+00 -0.00000000000E+00 -0.23233838069E+03  0.23233838069E+03  0.00000000000E+00 0.  1.
         25    1    1    2    0    0 -0.37059150923E+01 -0.19626444835E+03  0.69181025245E+02  0.24278484662E+03  0.12500000000E+03 0.  0.
         25    1    1    2    0    0  0.28690599263E+02 -0.22779420097E+01 -0.63209204879E+02  0.14299910170E+03  0.12500000000E+03 0.  0.
         25    1    1    2    0    0 -0.24984684171E+02  0.19854239036E+03  0.28555068962E+03  0.37041532306E+03  0.12500000000E+03 0.  0.
</event>
<event>
 5    0  0.5503691E-005  0.2359667E+03  0.7546771E-02  0.1122509E+00
         21   -1    0    0  502  501  0.00000000000E+00  0.00000000000E+00  0.43378726516E+03  0.43378726516E+03  0.00000000000E+00 0.  1.
         21   -1    0    0  501  502 -0.00000000000E+00 -0.00000000000E+00 -0.12835847298E+03  0.12835847298E+03  0.00000000000E+00 0.  1.
         25    1    1    2    0    0 -0.38917816660E+02  0.58303503103E+02  0.98505191381E+02  0.17390275345E+03  0.12500000000E+03 0.  0.
         25    1    1    2    0    0  0.63817925778E+02  0.58904462927E+02  0.12365220667E+03  0.19610540946E+03  0.12500000000E+03 0.  0.
         25    1    1    2    0    0 -0.24900109118E+02 -0.11720796603E+03  0.83271394126E+02  0.19213757523E+03  0.12500000000E+03 0.  0.
</event>
<event>
 5    0  0.5503691E-005  0.4224209E+03  0.7546771E-02  0.1036281E+00
         21   -1    0    0  502  501  0.00000000000E+00  0.00000000000E+00  0.27668794225E+03  0.27668794225E+03  0.00000000000E+00 0.  1.
         21   -1    0    0  501  502 -0.00000000000E+00 -0.00000000000E+00 -0.64491203018E+03  0.64491203018E+03  0.00000000000E+00 0.  1.
         25    1    1    2    0    0 -0.21845737439E+02 -0.81275445021E+01 -0.16414004488E+03  0.20763007383E+03  0.12500000000E+03 0.  0.
         25    1    1    2    0    0 -0.25022576328E+03  0.18476917064E+03 -0.12233549732E+03  0.35685228447E+03  0.12500000000E+03 0.  0.
         25    1    1    2    0    0  0.27207150072E+03 -0.17664162614E+03 -0.81748545737E+02  0.35711761413E+03  0.12500000000E+03 0.  0.
</event>
<event>
 5    0  0.5503691E-005  0.2349612E+03  0.7546771E-02  0.1123196E+00
         21   -1    0    0  502  501  0.00000000000E+00  0.00000000000E+00  0.84509131175E+02  0.84509131175E+02  0.00000000000E+00 0.  1.
         21   -1    0    0  501  502 -0.00000000000E+00 -0.00000000000E+00 -0.65326400362E+03  0.65326400362E+03  0.00000000000E+00 0.  1.
         25    1    1    2    0    0 -0.26094109292E+02  0.44409641787E+02 -0.26843620738E+03  0.30055967170E+03  0.12500000000E+03 0.  0.
         25    1    1    2    0    0 -0.73411254322E+01  0.23629739772E+02 -0.25347037099E+03  0.28369787749E+03  0.12500000000E+03 0.  0.
         25    1    1    2    0    0  0.33435234724E+02 -0.68039381559E+02 -0.46848294080E+02  0.15351558560E+03  0.12500000000E+03 0.  0.
</event>
<event>
 5    0  0.5503691E-005  0.2569668E+03  0.7546771E-02  0.1108979E+00
         21   -1    0    0  502  501  0.00000000000E+00  0.00000000000E+00  0.40731990343E+02  0.40731990343E+02  0.00000000000E+00 0.  1.
         21   -1    0    0  501  502 -0.00000000000E+00 -0.00000000000E+00 -0.16211323940E+04  0.16211323940E+04  0.00000000000E+00 0.  1.
         25    1    1    2    0    0  0.12740558973E+02 -0.11323797614E+03 -0.61088965273E+03  0.63387406391E+03  0.12500000000E+03 0.  0.
         25    1    1    2    0    0 -0.58355562423E+02  0.79885526222E+02 -0.25723535635E+03  0.30262534184E+03  0.12500000000E+03 0.  0.
         25    1    1    2    0    0  0.45615003450E+02  0.33352449917E+02 -0.71227539456E+03  0.72536497858E+03  0.12500000000E+03 0.  0.
</event>
<event>
 5    0  0.5503691E-005  0.2169082E+03  0.7546771E-02  0.1136209E+00
         21   -1    0    0  502  501  0.00000000000E+00  0.00000000000E+00  0.40178904568E+02  0.40178904568E+02  0.00000000000E+00 0.  1.
         21   -1    0    0  501  502 -0.00000000000E+00 -0.00000000000E+00 -0.11709916039E+04  0.11709916039E+04  0.00000000000E+00 0.  1.
         25    1    1    2    0    0  0.36065037122E+02 -0.53182336364E+02 -0.37734431816E+03  0.40266956957E+03  0.12500000000E+03 0.  0.
         25    1    1    2    0    0 -0.81437925241E+01 -0.19342199816E+02 -0.49591071548E+03  0.51185240038E+03  0.12500000000E+03 0.  0.
         25    1    1    2    0    0 -0.27921244598E+02  0.72524536180E+02 -0.25755766565E+03  0.29664853848E+03  0.12500000000E+03 0.  0.
</event>
<event>
 5    0  0.5503691E-005  0.4489921E+03  0.7546771E-02  0.1028023E+00
         21   -1    0    0  502  501  0.00000000000E+00  0.00000000000E+00  0.22174249810E+03  0.22174249810E+03  0.00000000000E+00 0.  1.
         21   -1    0    0  501  502 -0.00000000000E+00 -0.00000000000E+00 -0.90913498030E+03  0.90913498030E+03  0.00000000000E+00 0.  1.
         25    1    1    2    0    0 -0.30654919819E+03 -0.42221184815E+02 -0.84317853410E+02  0.34422309591E+03  0.12500000000E+03 0.  0.
         25    1    1    2    0    0  0.23637766195E+03  0.14754743184E+03 -0.26373289782E+03  0.40351540875E+03  0.12500000000E+03 0.  0.
         25    1    1    2    0    0  0.70171536241E+02 -0.10532624703E+03 -0.33934173098E+03  0.38313897373E+03  0.12500000000E+03 0.  0.
</event>
<event>
 5    0  0.5549542E-005  0.4573840E+03  0.7546771E-02  0.1025543E+00
         21   -1    0    0  502  501  0.00000000000E+00  0.00000000000E+00  0.20959618795E+03  0.20959618795E+03  0.00000000000E+00 0.  1.
         21   -1    0    0  501  502 -0.00000000000E+00 -0.00000000000E+00 -0.99811036698E+03  0.99811036698E+03  0.00000000000E+00 0.  1.
         25    1    1    2    0    0  0.15431255985E+03 -0.18361931116E+03 -0.80368137822E+00  0.27047007868E+03  0.12500000000E+03 0.  0.
         25    1    1    2    0    0 -0.13794394438E+01 -0.46615276328E+02 -0.50585928094E+03  0.52315724113E+03  0.12500000000E+03 0.  0.
         25    1    1    2    0    0 -0.15293312040E+03  0.23023458748E+03 -0.28185121671E+03  0.41407923512E+03  0.12500000000E+03 0.  0.
</event>
<event>
 5    0  0.5503691E-005  0.5048189E+03  0.7546771E-02  0.1012529E+00
         21   -1    0    0  502  501  0.00000000000E+00  0.00000000000E+00  0.85495656421E+03  0.85495656421E+03  0.00000000000E+00 0.  1.
         21   -1    0    0  501  502 -0.00000000000E+00 -0.00000000000E+00 -0.29807614086E+03  0.29807614086E+03  0.00000000000E+00 0.  1.
         25    1    1    2    0    0 -0.10425545796E+03 -0.66648828561E+02  0.15308758400E+03  0.23317820489E+03  0.12500000000E+03 0.  0.
         25    1    1    2    0    0 -0.97371659002E+02  0.21521142233E+03 -0.14481635849E+03  0.30396377081E+03  0.12500000000E+03 0.  0.
         25    1    1    2    0    0  0.20162711696E+03 -0.14856259377E+03  0.54860919784E+03  0.61589072937E+03  0.12500000000E+03 0.  0.
</event>
<event>
 5    0  0.5503691E-005  0.2469540E+03  0.7546771E-02  0.1115245E+00
         21   -1    0    0  502  501  0.00000000000E+00  0.00000000000E+00  0.42768627627E+02  0.42768627627E+02  0.00000000000E+00 0. -1.
         21   -1    0    0  501  502 -0.00000000000E+00 -0.00000000000E+00 -0.14259582103E+04  0.14259582103E+04  0.00000000000E+00 0. -1.
         25    1    1    2    0    0  0.15810866768E+02 -0.21505678636E+01 -0.35651209695E+03  0.37812760243E+03  0.12500000000E+03 0.  0.
         25    1    1    2    0    0  0.81588657707E+02 -0.93758311754E+02 -0.60216070866E+03  0.62743115092E+03  0.12500000000E+03 0.  0.
         25    1    1    2    0    0 -0.97399524475E+02  0.95908879617E+02 -0.42451677702E+03  0.46316808453E+03  0.12500000000E+03 0.  0.
</event>
<event>
 5    0  0.5503691E-005  0.2671233E+03  0.7546771E-02  0.1102937E+00
         21   -1    0    0  502  501  0.00000000000E+00  0.00000000000E+00  0.23484577100E+03  0.23484577100E+03  0.00000000000E+00 0. -1.
         21   -1    0    0  501  502 -0.00000000000E+00 -0.00000000000E+00 -0.30383703919E+03  0.30383703919E+03  0.00000000000E+00 0. -1.
         25    1    1    2    0    0 -0.75120091674E+02  0.10969026783E+03 -0.10407872957E+03  0.21007704534E+03  0.12500000000E+03 0.  0.
         25    1    1    2    0    0  0.51283052279E+02 -0.14129571999E+03  0.16809622089E+02  0.19621925322E+03  0.12500000000E+03 0.  0.
         25    1    1    2    0    0  0.23837039395E+02  0.31605452155E+02  0.18277839284E+02  0.13238651163E+03  0.12500000000E+03 0.  0.
</event>
<event>
 5    0  0.5503691E-005  0.4176238E+03  0.7546771E-02  0.1037842E+00
         21   -1    0    0  502  501  0.00000000000E+00  0.00000000000E+00  0.37600055892E+03  0.37600055892E+03  0.00000000000E+00 0.  1.
         21   -1    0    0  501  502 -0.00000000000E+00 -0.00000000000E+00 -0.46385466065E+03  0.46385466065E+03  0.00000000000E+00 0.  1.
         25    1    1    2    0    0  0.16638294349E+03  0.61752145809E+02  0.27322234829E+03  0.34895854052E+03  0.12500000000E+03 0.  0.
         25    1    1    2    0    0 -0.13794377674E+03 -0.35505200784E+01 -0.24918158177E+03  0.31105876040E+03  0.12500000000E+03 0.  0.
         25    1    1    2    0    0 -0.28439166756E+02 -0.58201625731E+02 -0.11189486824E+03  0.17983791865E+03  0.12500000000E+03 0.  0.
</event>
<event>
 5    0  0.5503691E-005  0.3959542E+03  0.7546771E-02  0.1045190E+00
         21   -1    0    0  502  501  0.00000000000E+00  0.00000000000E+00  0.12043959419E+04  0.12043959419E+04  0.00000000000E+00 0. -1.
         21   -1    0    0  501  502 -0.00000000000E+00 -0.00000000000E+00 -0.13017290120E+03  0.13017290120E+03  0.00000000000E+00 0. -1.
         25    1    1    2    0    0  0.10895342397E+03 -0.29542206395E+03  0.37663389288E+03  0.50657983944E+03  0.12500000000E+03 0.  0.
         25    1    1    2    0    0 -0.76184891017E+02  0.13000256762E+03  0.16679960984E+03  0.25720014590E+03  0.12500000000E+03 0.  0.
         25    1    1    2    0    0 -0.32768532948E+02  0.16541949633E+03  0.53078953801E+03  0.57078885779E+03  0.12500000000E+03 0.  0.
</event>
<event>
 5    0  0.5503691E-005  0.3989300E+03  0.7546771E-02  0.1044151E+00
         21   -1    0    0  502  501  0.00000000000E+00  0.00000000000E+00  0.18233053884E+03  0.18233053884E+03  0.00000000000E+00 0.  1.
         21   -1    0    0  501  502 -0.00000000000E+00 -0.00000000000E+00 -0.87283856847E+03  0.87283856847E+03  0.00000000000E+00 0.  1.
         25    1    1    2    0    0  0.36748733184E+02  0.25961248642E+03 -0.15353807655E+03  0.32855449083E+03  0.12500000000E+03 0.  0.
         25    1    1    2    0    0  0.89146258546E+02 -0.20482363441E+03 -0.45833430612E+03  0.52497153522E+03  0.12500000000E+03 0.  0.
         25    1    1    2    0    0 -0.12589499173E+03 -0.54788852014E+02 -0.78635646962E+02  0.20164308126E+03  0.12500000000E+03 0.  0.
</event>
<event>
 5    0  0.5503691E-005  0.2491079E+03  0.7546771E-02  0.1113870E+00
         21   -1    0    0  502  501  0.00000000000E+00  0.00000000000E+00  0.79406684049E+03  0.79406684049E+03  0.00000000000E+00 0.  1.
         21   -1    0    0  501  502 -0.00000000000E+00 -0.00000000000E+00 -0.78147994437E+02  0.78147994437E+02  0.00000000000E+00 0.  1.
         25    1    1    2    0    0 -0.22620818587E+02  0.19286971946E+02  0.27605588940E+03  0.30449227050E+03  0.12500000000E+03 0.  0.
         25    1    1    2    0    0  0.15068717359E+02 -0.55480164315E+02  0.34401465146E+02  0.14182233844E+03  0.12500000000E+03 0.  0.
         25    1    1    2    0    0  0.75521012284E+01  0.36193192369E+02  0.40546149150E+03  0.42590022599E+03  0.12500000000E+03 0.  0.
</event>
<event>
 5    0  0.5503691E-005  0.3363177E+03  0.7546771E-02  0.1068375E+00
         21   -1    0    0  502  501  0.00000000000E+00  0.00000000000E+00  0.34612838549E+03  0.34612838549E+03  0.00000000000E+00 0. -1.
         21   -1    0    0  501  502 -0.00000000000E+00 -0.00000000000E+00 -0.32678504709E+03  0.32678504709E+03  0.00000000000E+00 0. -1.
         25    1    1    2    0    0  0.56282694718E+02 -0.38692422364E+02 -0.53746177473E+02  0.15224485826E+03  0.12500000000E+03 0.  0.
         25    1    1    2    0    0 -0.12335048600E+03 -0.92695568070E+02  0.20593129394E+03  0.28607780158E+03  0.12500000000E+03 0.  0.
         25    1    1    2    0    0  0.67067791281E+02  0.13138799043E+03 -0.13284177806E+03  0.23459077274E+03  0.12500000000E+03 0.  0.
</event>
<event>
 5    0  0.5503691E-005  0.2377605E+03  0.7546771E-02  0.1121294E+00
         21   -1    0    0  502  501  0.00000000000E+00  0.00000000000E+00  0.53767955985E+03  0.53767955985E+03  0.00000000000E+00 0.  1.
         21   -1    0    0  501  502 -0.00000000000E+00 -0.00000000000E+00 -0.10513708474E+03  0.10513708474E+03  0.00000000000E+00 0.  1.
         25    1    1    2    0    0 -0.46397399171E+02  0.83509812336E+01  0.29415899898E+03  0.32307425496E+03  0.12500000000E+03 0.  0.
         25    1    1    2    0    0  0.36225980747E+02  0.46809687101E+02  0.11683684758E+03  0.18105059359E+03  0.12500000000E+03 0.  0.
         25    1    1    2    0    0  0.10171418424E+02 -0.55160668335E+02  0.21546628550E+02  0.13869179603E+03  0.12500000000E+03 0.  0.
</event>
<event>
 5    0  0.5503691E-005  0.5106007E+03  0.7546771E-02  0.1011048E+00
         21   -1    0    0  502  501  0.00000000000E+00  0.00000000000E+00  0.24182762442E+03  0.24182762442E+03  0.00000000000E+00 0. -1.
         21   -1    0    0  501  502 -0.00000000000E+00 -0.00000000000E+00 -0.10780945409E+04  0.10780945409E+04  0.00000000000E+00 0. -1.
         25    1    1    2    0    0  0.12140819013E+03 -0.29132487035E+03 -0.81396900396E+03  0.88191874235E+03  0.12500000000E+03 0.  0.
         25    1    1    2    0    0 -0.49679430059E+02  0.22188371274E+03 -0.74108997777E+02  0.26984731109E+03  0.12500000000E+03 0.  0.
         25    1    1    2    0    0 -0.71728760069E+02  0.69441157612E+02  0.51811085296E+02  0.16815611185E+03  0.12500000000E+03 0.  0.
</event>
<event>
 5    0  0.5503691E-005  0.3943336E+03  0.7546771E-02  0.1045760E+00
         21   -1    0    0  502  501  0.00000000000E+00  0.00000000000E+00  0.57258173752E+03  0.57258173752E+03  0.00000000000E+00 0.  1.
         21   -1    0    0  501  502 -0.00000000000E+00 -0.00000000000E+00 -0.27157514617E+03  0.27157514617E+03  0.00000000000E+00 0.  1.
         25    1    1    2    0    0 -0.94322890731E+02 -0.12289109510E+03 -0.18541875813E+02  0.19991955914E+03  0.12500000000E+03 0.  0.
         25    1    1    2    0    0  0.22988877706E+03 -0.34205275279E+02  0.30243946225E+03  0.40138943559E+03  0.12500000000E+03 0.  0.
         25    1    1    2    0    0 -0.13556588633E+03  0.15709637037E+03  0.17109004911E+02  0.24284788895E+03  0.12500000000E+03 0.  0.
</event>
<event>
 5    0  0.5503691E-005  0.2202808E+03  0.7546771E-02  0.1133674E+00
         21   -1    0    0  502  501  0.00000000000E+00  0.00000000000E+00  0.23266574702E+04  0.23266574702E+04  0.00000000000E+00 0.  1.
         21   -1    0    0  501  502 -0.00000000000E+00 -0.00000000000E+00 -0.20855502391E+02  0.20855502391E+02  0.00000000000E+00 0.  1.
         25    1    1    2    0    0  0.43120519824E+02 -0.53316238435E+02  0.51351119774E+03  0.53293597244E+03  0.12500000000E+03 0.  0.
         25    1    1    2    0    0 -0.68385871319E+02  0.50203644636E+02  0.11362647610E+04  0.11462633382E+04  0.12500000000E+03 0.  0.
         25    1    1    2    0    0  0.25265351494E+02  0.31125937989E+01  0.65602600898E+03  0.66831366190E+03  0.12500000000E+03 0.  0.
</event>
<event>
 5    0  0.5503691E-005  0.3347814E+03  0.7546771E-02  0.1069041E+00
         21   -1    0    0  502  501  0.00000000000E+00  0.00000000000E+00  0.15247471285E+03  0.15247471285E+03  0.00000000000E+00 0. -1.
         21   -1    0    0  501  502 -0.00000000000E+00 -0.00000000000E+00 -0.73506354796E+03  0.73506354796E+03  0.00000000000E+00 0. -1.
         25    1    1    2    0    0 -0.22568283063E+02 -0.19767973796E+02 -0.40167013322E+03  0.42173925133E+03  0.12500000000E+03 0.  0.
         25    1    1    2    0    0  0.16004463255E+02 -0.25719447852E+02  0.94679252371E+02  0.15970846462E+03  0.12500000000E+03 0.  0.
         25    1    1    2    0    0  0.65638198081E+01  0.45487421648E+02 -0.27559795426E+03  0.30609054486E+03  0.12500000000E+03 0.  0.
</event>
<event>
 5    0  0.5503691E-005  0.2867741E+03  0.7546771E-02  0.1092046E+00
         21   -1    0    0  502  501  0.00000000000E+00  0.00000000000E+00  0.27287731277E+03  0.27287731277E+03  0.00000000000E+00 0. -1.
         21   -1    0    0  501  502 -0.00000000000E+00 -0.00000000000E+00 -0.30137859288E+03  0.30137859288E+03  0.00000000000E+00 0. -1.
         25    1    1    2    0    0 -0.72303645461E+02  0.57566083926E+02  0.47809771464E+02  0.16264207762E+03  0.12500000000E+03 0.  0.
         25    1    1    2    0    0 -0.81679572145E+02  0.38378924107E+02 -0.10909355169E+03  0.18886740677E+03  0.12500000000E+03 0.  0.
         25    1    1    2    0    0  0.15398321761E+03 -0.95945008033E+02  0.32782500106E+02  0.22274642126E+03  0.12500000000E+03 0.  0.
</event>
<event>
 5    0  0.5503691E-005  0.2872125E+03  0.7546771E-02  0.1091814E+00
         21   -1    0    0  502  501  0.00000000000E+00  0.00000000000E+00  0.22537134172E+03  0.22537134172E+03  0.00000000000E+00 0. -1.
         21   -1    0    0  501  502 -0.00000000000E+00 -0.00000000000E+00 -0.36602266068E+03  0.36602266068E+03  0.00000000000E+00 0. -1.
         25    1    1    2    0    0 -0.83230116497E+02 -0.98553105636E+02 -0.68555105478E+02  0.19226224125E+03  0.12500000000E+03 0.  0.
         25    1    1    2    0    0 -0.53528181067E+02 -0.57801860081E+02 -0.48687671362E+02  0.15556931105E+03  0.12500000000E+03 0.  0.
         25    1    1    2    0    0  0.13675829756E+03  0.15635496572E+03 -0.23408542122E+02  0.24356245011E+03  0.12500000000E+03 0.  0.
</event>
<event>
 5    0  0.5503691E-005  0.2338444E+03  0.7546771E-02  0.1123963E+00
         21   -1    0    0  502  501  0.00000000000E+00  0.00000000000E+00  0.63517138510E+03  0.63517138510E+03  0.00000000000E+00 0.  1.
         21   -1    0    0  501  502 -0.00000000000E+00 -0.00000000000E+00 -0.86092074403E+02  0.86092074403E+02  0.00000000000E+00 0.  1.
         25    1    1    2    0    0  0.10495459384E+03  0.46445023507E+02  0.31525728550E+03  0.35802899748E+03  0.12500000000E+03 0.  0.
         25    1    1    2    0    0 -0.51847766746E+02 -0.22495141031E+02  0.90549621621E+02  0.16437291828E+03  0.12500000000E+03 0.  0.
         25    1    1    2    0    0 -0.53106827094E+02 -0.23949882476E+02  0.14327240357E+03  0.19886154374E+03  0.12500000000E+03 0.  0.
</event>
<event>
 5    0  0.5503691E-005  0.3057184E+03  0.7546771E-02  0.1082416E+00
         21   -1    0    0  502  501  0.00000000000E+00  0.00000000000E+00  0.39988287126E+03  0.39988287126E+03  0.00000000000E+00 0. -1.
         21   -1    0    0  501  502 -0.00000000000E+00 -0.00000000000E+00 -0.23372784606E+03  0.23372784606E+03  0.00000000000E+00 0. -1.
         25    1    1    2    0    0  0.16843753957E+03  0.50707404953E+02  0.40711951094E+02  0.21960170449E+03  0.12500000000E+03 0.  0.
         25    1    1    2    0    0 -0.13255440182E+03 -0.34517925842E+01 -0.51519997904E+02  0.18937236994E+03  0.12500000000E+03 0.  0.
         25    1    1    2    0    0 -0.35883137749E+02 -0.47255612368E+02  0.17696307201E+03  0.22463664289E+03  0.12500000000E+03 0.  0.
</event>
<event>
 5    0  0.5503691E-005  0.2289897E+03  0.7546771E-02  0.1127353E+00
         21   -1    0    0  502  501  0.00000000000E+00  0.00000000000E+00  0.36711549325E+03  0.36711549325E+03  0.00000000000E+00 0.  1.
         21   -1    0    0  501  502 -0.00000000000E+00 -0.00000000000E+00 -0.14283314410E+03  0.14283314410E+03  0.00000000000E+00 0.  1.
         25    1    1    2    0    0  0.76893121992E+02  0.31602346853E+02  0.12778108252E+02  0.15066366711E+03  0.12500000000E+03 0.  0.
         25    1    1    2    0    0  0.24908318671E+02 -0.12377693048E+02  0.95585879971E+02  0.15979765979E+03  0.12500000000E+03 0.  0.
         25    1    1    2    0    0 -0.10180144066E+03 -0.19224653805E+02  0.11591836093E+03  0.19948731046E+03  0.12500000000E+03 0.  0.
</event>
<event>
 5    0  0.5503691E-005  0.2873440E+03  0.7546771E-02  0.1091744E+00
         21   -1    0    0  502  501  0.00000000000E+00  0.00000000000E+00  0.69713807540E+02  0.69713807540E+02  0.00000000000E+00 0.  1.
         21   -1    0    0  501  502 -0.00000000000E+00 -0.00000000000E+00 -0.11843645757E+04  0.11843645757E+04  0.00000000000E+00 0.  1.
         25    1    1    2    0    0  0.14343999863E+03 -0.57535868008E+02 -0.37645922697E+03  0.42571347041E+03  0.12500000000E+03 0.  0.
         25    1    1    2    0    0 -0.17665591900E+03 -0.23307748189E+02 -0.50264158977E+03  0.54774458702E+03  0.12500000000E+03 0.  0.
         25    1    1    2    0    0  0.33215920366E+02  0.80843616197E+02 -0.23554995142E+03  0.28062032581E+03  0.12500000000E+03 0.  0.
</event>
<event>
 5    0  0.5503691E-005  0.2565319E+03  0.7546771E-02  0.1109245E+00
         21   -1    0    0  502  501  0.00000000000E+00  0.00000000000E+00  0.18508636965E+03  0.18508636965E+03  0.00000000000E+00 0. -1.
         21   -1    0    0  501  502 -0.00000000000E+00 -0.00000000000E+00 -0.35555617448E+03  0.35555617448E+03  0.00000000000E+00 0. -1.
         25    1    1    2    0    0  0.94295295342E+02  0.95042824378E+02 -0.12399617849E+03  0.22118949674E+03  0.12500000000E+03 0.  0.
         25    1    1    2    0    0  0.43099588563E+00  0.46473174627E+01  0.92796152624E+01  0.12543083583E+03  0.12500000000E+03 0.  0.
         25    1    1    2    0    0 -0.94726291228E+02 -0.99690141840E+02 -0.55753241609E+02  0.19402221156E+03  0.12500000000E+03 0.  0.
</event>
<event>
 5    0  0.5503691E-005  0.3705746E+03  0.7546771E-02  0.1054473E+00
         21   -1    0    0  502  501  0.00000000000E+00  0.00000000000E+00  0.33870351380E+03  0.33870351380E+03  0.00000000000E+00 0.  1.
         21   -1    0    0  501  502 -0.00000000000E+00 -0.00000000000E+00 -0.40544466302E+03  0.40544466302E+03  0.00000000000E+00 0.  1.
         25    1    1    2    0    0  0.15103016746E+02  0.19305169768E+02  0.23593992919E+03  0.26812952258E+03  0.12500000000E+03 0.  0.
         25    1    1    2    0    0  0.11089870501E+03 -0.27292952692E+02 -0.69887745704E+02  0.18317402938E+03  0.12500000000E+03 0.  0.
         25    1    1    2    0    0 -0.12600172175E+03  0.79877829239E+01 -0.23279333270E+03  0.29284462486E+03  0.12500000000E+03 0.  0.
</event>
<event>
 5    0  0.6197013E-005  0.2762705E+03  0.7546771E-02  0.1097744E+00
         21   -1    0    0  502  501  0.00000000000E+00  0.00000000000E+00  0.57931388625E+03  0.57931388625E+03  0.00000000000E+00 0.  1.
         21   -1    0    0  501  502 -0.00000000000E+00 -0.00000000000E+00 -0.13175138323E+03  0.13175138323E+03  0.00000000000E+00 0.  1.
         25    1    1    2    0    0  0.10786361128E+02 -0.88392373178E+02  0.89113138820E+02  0.17747030381E+03  0.12500000000E+03 0.  0.
         25    1    1    2    0    0 -0.12888902337E+03  0.10423035976E+03  0.26688613263E+03  0.33812653849E+03  0.12500000000E+03 0.  0.
         25    1    1    2    0    0  0.11810266224E+03 -0.15837986580E+02  0.91563231567E+02  0.19546842718E+03  0.12500000000E+03 0.  0.
</event>
<event>
 5    0  0.5503691E-005  0.3610297E+03  0.7546771E-02  0.1058177E+00
         21   -1    0    0  502  501  0.00000000000E+00  0.00000000000E+00  0.28407493635E+04  0.28407493635E+04  0.00000000000E+00 0. -1.
         21   -1    0    0  501  502 -0.00000000000E+00 -0.00000000000E+00 -0.45883126257E+02  0.45883126257E+02  0.00000000000E+00 0. -1.
         25    1    1    2    0    0 -0.22272876673E+03 -0.38344295200E+02  0.14052265907E+04  0.14287635073E+04  0.12500000000E+03 0.  0.
         25    1    1    2    0    0  0.24891350678E+02  0.11813995291E+03  0.37151377090E+03  0.41015132546E+03  0.12500000000E+03 0.  0.
         25    1    1    2    0    0  0.19783741605E+03 -0.79795657706E+02  0.10181258756E+04  0.10477176570E+04  0.12500000000E+03 0.  0.
</event>
<event>
 5    0  0.5503691E-005  0.2840128E+03  0.7546771E-02  0.1093517E+00
         21   -1    0    0  502  501  0.00000000000E+00  0.00000000000E+00  0.26680714125E+04  0.26680714125E+04  0.00000000000E+00 0. -1.
         21   -1    0    0  501  502 -0.00000000000E+00 -0.00000000000E+00 -0.30232806572E+02  0.30232806572E+02  0.00000000000E+00 0. -1.
         25    1    1    2    0    0  0.93476286325E+02  0.40748436052E+02  0.53794234479E+03  0.56160948841E+03  0.12500000000E+03 0.  0.
         25    1    1    2    0    0 -0.47772431759E+02 -0.14985424175E+03  0.14717465783E+04  0.14853960717E+04  0.12500000000E+03 0.  0.
         25    1    1    2    0    0 -0.45703854567E+02  0.10910580570E+03  0.62814968283E+03  0.65129865898E+03  0.12500000000E+03 0.  0.
</event>
<event>
 5    0  0.5503691E-005  0.2946467E+03  0.7546771E-02  0.1087948E+00
         21   -1    0    0  502  501  0.00000000000E+00  0.00000000000E+00  0.13471288079E+04  0.13471288079E+04  0.00000000000E+00 0.  1.
         21   -1    0    0  501  502 -0.00000000000E+00 -0.00000000000E+00 -0.64445727406E+02  0.64445727406E+02  0.00000000000E+00 0.  1.
         25    1    1    2    0    0  0.13121537052E+03  0.27785151423E+02  0.14462259188E+03  0.23351698479E+03  0.12500000000E+03 0.  0.
         25    1    1    2    0    0 -0.11159829924E+03 -0.39240423795E+02  0.75920005724E+03  0.77846240639E+03  0.12500000000E+03 0.  0.
         25    1    1    2    0    0 -0.19617071276E+02  0.11455272371E+02  0.37886043132E+03  0.39959514408E+03  0.12500000000E+03 0.  0.
</event>
<event>
 5    0  0.5503691E-005  0.2924769E+03  0.7546771E-02  0.1089063E+00
         21   -1    0    0  502  501  0.00000000000E+00  0.00000000000E+00  0.51055410461E+03  0.51055410461E+03  0.00000000000E+00 0. -1.
         21   -1    0    0  501  502 -0.00000000000E+00 -0.00000000000E+00 -0.16754876159E+03  0.16754876159E+03  0.00000000000E+00 0. -1.
         25    1    1    2    0    0 -0.15908729609E+03 -0.31654749993E+02  0.14417891398E+03  0.25044630205E+03  0.12500000000E+03 0.  0.
         25    1    1    2    0    0  0.40892530279E+01 -0.45050768700E+02 -0.43641072094E+01  0.13300503443E+03  0.12500000000E+03 0.  0.
         25    1    1    2    0    0  0.15499804306E+03  0.76705518694E+02  0.20319053624E+03  0.29465152972E+03  0.12500000000E+03 0.  0.
</event>
<event>
 5    0  0.5503691E-005  0.5805333E+03  0.7546771E-02  0.9946637E-01
         21   -1    0    0  502  501  0.00000000000E+00  0.00000000000E+00  0.24732844520E+03  0.24732844520E+03  0.00000000000E+00 0. -1.
         21   -1    0    0  501  502 -0.00000000000E+00 -0.00000000000E+00 -0.13626369161E+04  0.13626369161E+04  0.00000000000E+00 0. -1.
         25    1    1    2    0    0 -0.32479364113E+02  0.24040158605E+03 -0.21159097053E+03  0.34531662352E+03  0.12500000000E+03 0.  0.
         25    1    1    2    0    0  0.12806044954E+03  0.28449882974E+03 -0.32140708773E+03  0.46504470635E+03  0.12500000000E+03 0.  0.
         25    1    1    2    0    0 -0.95581085429E+02 -0.52490041579E+03 -0.58231041260E+03  0.79960403139E+03  0.12500000000E+03 0.  0.
</event>
<event>
 5    0  0.5503691E-005  0.2827540E+03  0.7546771E-02  0.1094194E+00
         21   -1    0    0  502  501  0.00000000000E+00  0.00000000000E+00  0.11741715035E+03  0.11741715035E+03  0.00000000000E+00 0.  1.
         21   -1    0    0  501  502 -0.00000000000E+00 -0.00000000000E+00 -0.68090402269E+03  0.68090402269E+03  0.00000000000E+00 0.  1.
         25    1    1    2    0    0 -0.80333633696E+02 -0.52969019707E+02 -0.37664601100E+03  0.40834596527E+03  0.12500000000E+03 0.  0.
         25    1    1    2    0    0  0.69866765291E+02 -0.10832041822E+02  0.14485688138E+02  0.14433825960E+03  0.12500000000E+03 0.  0.
         25    1    1    2    0    0  0.10466868405E+02  0.63801061529E+02 -0.20132654947E+03  0.24563694818E+03  0.12500000000E+03 0.  0.
</event>
<event>
 5    0  0.5503691E-005  0.3160901E+03  0.7546771E-02  0.1077463E+00
         21   -1    0    0  502  501  0.00000000000E+00  0.00000000000E+00  0.20046879011E+04  0.20046879011E+04  0.00000000000E+00 0.  1.
         21   -1    0    0  501  502 -0.00000000000E+00 -0.00000000000E+00 -0.49839638782E+02  0.49839638782E+02  0.00000000000E+00 0.  1.
         25    1    1    2    0    0  0.45661918888E+02 -0.53827677478E+02  0.61776083098E+03  0.63422068241E+03  0.12500000000E+03 0.  0.
         25    1    1    2    0    0 -0.96373752441E+02  0.12355200399E+03  0.11971370965E+04  0.12138019714E+04  0.12500000000E+03 0.  0.
         25    1    1    2    0    0  0.50711833552E+02 -0.69724326509E+02  0.13995033483E+03  0.20650488611E+03  0.12500000000E+03 0.  0.
</event>
<event>
 5    0  0.5503691E-005  0.2609329E+03  0.7546771E-02  0.1106584E+00
         21   -1    0    0  502  501  0.00000000000E+00  0.00000000000E+00  0.24537245074E+03  0.24537245074E+03  0.00000000000E+00 0. -1.
         21   -1    0    0  501  502 -0.00000000000E+00 -0.00000000000E+00 -0.27748015752E+03  0.27748015752E+03  0.00000000000E+00 0. -1.
         25    1    1    2    0    0 -0.15550479205E+02 -0.14213309544E+03 -0.69908338689E+02  0.20237541857E+03  0.12500000000E+03 0.  0.
         25    1    1    2    0    0 -0.11936354268E+02  0.33744648063E+02  0.72989688361E+02  0.14910959873E+03  0.12500000000E+03 0.  0.
         25    1    1    2    0    0  0.27486833473E+02  0.10838844737E+03 -0.35189056459E+02  0.17136759096E+03  0.12500000000E+03 0.  0.
</event>
<event>
 5    0  0.5503691E-005  0.2984863E+03  0.7546771E-02  0.1086000E+00
         21   -1    0    0  502  501  0.00000000000E+00  0.00000000000E+00  0.38553543435E+03  0.38553543435E+03  0.00000000000E+00 0. -1.
         21   -1    0    0  501  502 -0.00000000000E+00 -0.00000000000E+00 -0.23109179571E+03  0.23109179571E+03  0.00000000000E+00 0. -1.
         25    1    1    2    0    0 -0.81210320186E+02 -0.13158584337E+03  0.21912293448E+02  0.20003774365E+03  0.12500000000E+03 0.  0.
         25    1    1    2    0    0 -0.89413731569E+02  0.83776869374E+02  0.33575123666E+02  0.17822925732E+03  0.12500000000E+03 0.  0.
         25    1    1    2    0    0  0.17062405175E+03  0.47808974001E+02  0.98956221521E+02  0.23836022909E+03  0.12500000000E+03 0.  0.
</event>
<event>
 5    0  0.5503691E-005  0.2327192E+03  0.7546771E-02  0.1124740E+00
         21   -1    0    0  502  501  0.00000000000E+00  0.00000000000E+00  0.21656256563E+02  0.21656256563E+02  0.00000000000E+00 0.  1.
         21   -1    0    0  501  502 -0.00000000000E+00 -0.00000000000E+00 -0.25008122220E+04  0.25008122220E+04  0.00000000000E+00 0.  1.
         25    1    1    2    0    0  0.29626268930E+02 -0.71503007437E+02 -0.11146517041E+04  0.11243059270E+04  0.12500000000E+03 0.  0.
         25    1    1    2    0    0 -0.21433708216E+02  0.80297171452E+02 -0.43405572573E+03  0.45927814299E+03  0.12500000000E+03 0.  0.
         25    1    1    2    0    0 -0.81925607146E+01 -0.87941640155E+01 -0.93044853561E+03  0.93888440864E+03  0.12500000000E+03 0.  0.
</event>
<event>
 5    0  0.5503691E-005  0.2657895E+03  0.7546771E-02  0.1103714E+00
         21   -1    0    0  502  501  0.00000000000E+00  0.00000000000E+00  0.24776864133E+03  0.24776864133E+03  0.00000000000E+00 0.  1.
         21   -1    0    0  501  502 -0.00000000000E+00 -0.00000000000E+00 -0.28512103064E+03  0.28512103064E+03  0.00000000000E+00 0.  1.
         25    1    1    2    0    0 -0.86336493106E+02 -0.77262243309E+02 -0.87242864205E+02  0.19146739053E+03  0.12500000000E+03 0.  0.
         25    1    1    2    0    0  0.27185052877E+02 -0.55435820032E+02  0.54546685649E+02  0.14970804306E+03  0.12500000000E+03 0.  0.
         25    1    1    2    0    0  0.59151440230E+02  0.13269806334E+03 -0.46562107607E+01  0.19171423837E+03  0.12500000000E+03 0.  0.
</event>
<event>
 5    0  0.5503691E-005  0.2873271E+03  0.7546771E-02  0.1091753E+00
         21   -1    0    0  502  501  0.00000000000E+00  0.00000000000E+00  0.24743466323E+03  0.24743466323E+03  0.00000000000E+00 0.  1.
         21   -1    0    0  501  502 -0.00000000000E+00 -0.00000000000E+00 -0.33365122309E+03  0.33365122309E+03  0.00000000000E+00 0.  1.
         25    1    1    2    0    0  0.72463399553E+02  0.95153098937E+02 -0.42730906806E+02  0.17820209569E+03  0.12500000000E+03 0.  0.
         25    1    1    2    0    0 -0.14367933152E+03 -0.63022996585E+01 -0.11133491493E+03  0.22068967482E+03  0.12500000000E+03 0.  0.
         25    1    1    2    0    0  0.71215931972E+02 -0.88850799279E+02  0.67849261880E+02  0.18219411581E+03  0.12500000000E+03 0.  0.
</event>
<event>
 5    0  0.5503691E-005  0.2231236E+03  0.7546771E-02  0.1131575E+00
         21   -1    0    0  502  501  0.00000000000E+00  0.00000000000E+00  0.13546565336E+04  0.13546565336E+04  0.00000000000E+00 0.  1.
         21   -1    0    0  501  502 -0.00000000000E+00 -0.00000000000E+00 -0.36750383864E+02  0.36750383864E+02  0.00000000000E+00 0.  1.
         25    1    1    2    0    0  0.18375904841E+02 -0.38790188452E+01  0.24055410972E+03  0.27174252587E+03  0.12500000000E+03 0.  0.
         25    1    1    2    0    0 -0.73505400997E+02  0.46062716628E+02  0.41388714160E+03  0.44096755416E+03  0.12500000000E+03 0.  0.
         25    1    1    2    0    0  0.55129496156E+02 -0.42183697783E+02  0.66346489839E+03  0.67869683741E+03  0.12500000000E+03 0.  0.
</event>
<event>
 5    0  0.5503691E-005  0.3066148E+03  0.7546771E-02  0.1081980E+00
         21   -1    0    0  502  501  0.00000000000E+00  0.00000000000E+00  0.49573918809E+03  0.49573918809E+03  0.00000000000E+00 0.  1.
         21   -1    0    0  501  502 -0.00000000000E+00 -0.00000000000E+00 -0.18964137816E+03  0.18964137816E+03  0.00000000000E+00 0.  1.
         25    1    1    2    0    0 -0.10291228380E+03 -0.50226364043E+02  0.11758221314E+03  0.20631093681E+03  0.12500000000E+03 0.  0.
         25    1    1    2    0    0  0.17867603815E+03  0.10947609268E+03  0.20738528379E+03  0.32022460463E+03  0.12500000000E+03 0.  0.
         25    1    1    2    0    0 -0.75763754349E+02 -0.59249728638E+02 -0.18869687001E+02  0.15884502480E+03  0.12500000000E+03 0.  0.
</event>
<event>
 5    0  0.5503691E-005  0.3712237E+03  0.7546771E-02  0.1054226E+00
         21   -1    0    0  502  501  0.00000000000E+00  0.00000000000E+00  0.33005243111E+03  0.33005243111E+03  0.00000000000E+00 0.  1.
         21   -1    0    0  501  502 -0.00000000000E+00 -0.00000000000E+00 -0.41753081159E+03  0.41753081159E+03  0.00000000000E+00 0.  1.
         25    1    1    2    0    0 -0.48679486175E+01 -0.76836155463E+02  0.16225438337E+03  0.21881265190E+03  0.12500000000E+03 0.  0.
         25    1    1    2    0    0 -0.30440271285E+02 -0.14664314329E+03 -0.16863050816E+03  0.25786056285E+03  0.12500000000E+03 0.  0.
         25    1    1    2    0    0  0.35308219902E+02  0.22347929876E+03 -0.81102255684E+02  0.27091002795E+03  0.12500000000E+03 0.  0.
</event>
<event>
 5    0  0.5503691E-005  0.7063175E+03  0.7546771E-02  0.9706489E-01
         21   -1    0    0  502  501  0.00000000000E+00  0.00000000000E+00  0.63509561187E+03  0.63509561187E+03  0.00000000000E+00 0. -1.
         21   -1    0    0  501  502 -0.00000000000E+00 -0.00000000000E+00 -0.78552649779E+03  0.78552649779E+03  0.00000000000E+00 0. -1.
         25    1    1    2    0    0  0.58187186381E+02  0.12210730459E+03 -0.10946516588E+03  0.21425117277E+03  0.12500000000E+03 0.  0.
         25    1    1    2    0    0  0.40000601723E+03  0.32398104240E+03 -0.13852582832E+03  0.54752436911E+03  0.12500000000E+03 0.  0.
         25    1    1    2    0    0 -0.45819320361E+03 -0.44608834699E+03  0.97560108273E+02  0.65884656778E+03  0.12500000000E+03 0.  0.
</event>
<event>
 5    0  0.5503691E-005  0.3225872E+03  0.7546771E-02  0.1074465E+00
         21   -1    0    0  502  501  0.00000000000E+00  0.00000000000E+00  0.31095901896E+03  0.31095901896E+03  0.00000000000E+00 0. -1.
         21   -1    0    0  501  502 -0.00000000000E+00 -0.00000000000E+00 -0.33465026101E+03  0.33465026101E+03  0.00000000000E+00 0. -1.
         25    1    1    2    0    0 -0.59909964063E+02 -0.13608061137E+03  0.23235781944E+02  0.19563240567E+03  0.12500000000E+03 0.  0.
         25    1    1    2    0    0  0.15686263567E+03  0.17412299562E+03 -0.92089075530E+02  0.28112293023E+03  0.12500000000E+03 0.  0.
         25    1    1    2    0    0 -0.96952671603E+02 -0.38042384250E+02  0.45162051528E+02  0.16885394407E+03  0.12500000000E+03 0.  0.
</event>
<event>
 5    0  0.5503691E-005  0.2555630E+03  0.7546771E-02  0.1109839E+00
         21   -1    0    0  502  501  0.00000000000E+00  0.00000000000E+00  0.10453034177E+04  0.10453034177E+04  0.00000000000E+00 0. -1.
         21   -1    0    0  501  502 -0.00000000000E+00 -0.00000000000E+00 -0.62481820145E+02  0.62481820145E+02  0.00000000000E+00 0. -1.
         25    1    1    2    0    0  0.42248149522E+02 -0.37779024634E+02  0.18860559774E+03  0.23325786662E+03  0.12500000000E+03 0.  0.
         25    1    1    2    0    0 -0.27310344711E+02 -0.35021276085E+02  0.10236732735E+03  0.16756018148E+03  0.12500000000E+03 0.  0.
         25    1    1    2    0    0 -0.14937804810E+02  0.72800300718E+02  0.69184867248E+03  0.70696718977E+03  0.12500000000E+03 0.  0.
</event>
<event>
 5    0  0.5503691E-005  0.4404980E+03  0.7546771E-02  0.1030594E+00
         21   -1    0    0  502  501  0.00000000000E+00  0.00000000000E+00  0.21823984954E+04  0.21823984954E+04  0.00000000000E+00 0. -1.
         21   -1    0    0  501  502 -0.00000000000E+00 -0.00000000000E+00 -0.88910674582E+02  0.88910674582E+02  0.00000000000E+00 0. -1.
         25    1    1    2    0    0  0.25498475231E+03 -0.46193308568E+02  0.59450865110E+03  0.66046694232E+03  0.12500000000E+03 0.  0.
         25    1    1    2    0    0 -0.26713716129E+03 -0.53342888203E+02  0.39785238022E+03  0.49811569249E+03  0.12500000000E+03 0.  0.
         25    1    1    2    0    0  0.12152408986E+02  0.99536196771E+02  0.11011267895E+04  0.11127265352E+04  0.12500000000E+03 0.  0.
</event>
<event>
 5    0  0.5503691E-005  0.3378959E+03  0.7546771E-02  0.1067696E+00
         21   -1    0    0  502  501  0.00000000000E+00  0.00000000000E+00  0.31277616080E+02  0.31277616080E+02  0.00000000000E+00 0. -1.
         21   -1    0    0  501  502 -0.00000000000E+00 -0.00000000000E+00 -0.36503295916E+04  0.36503295916E+04  0.00000000000E+00 0. -1.
         25    1    1    2    0    0 -0.12114182584E+03  0.47495585407E+02 -0.23204877411E+04  0.23274921115E+04  0.12500000000E+03 0.  0.
         25    1    1    2    0    0 -0.70669726554E+02  0.11474805483E+02 -0.58173312213E+03  0.59930318437E+03  0.12500000000E+03 0.  0.
         25    1    1    2    0    0  0.19181155239E+03 -0.58970390891E+02 -0.71683111231E+03  0.75481191180E+03  0.12500000000E+03 0.  0.
</event>
<event>
 5    0  0.5503691E-005  0.2667418E+03  0.7546771E-02  0.1103159E+00
         21   -1    0    0  502  501  0.00000000000E+00  0.00000000000E+00  0.55005069989E+02  0.55005069989E+02  0.00000000000E+00 0.  1.
         21   -1    0    0  501  502 -0.00000000000E+00 -0.00000000000E+00 -0.12935389822E+04  0.12935389822E+04  0.00000000000E+00 0.  1.
         25    1    1    2    0    0 -0.12063552289E+03  0.77624630967E+02 -0.38214114333E+03  0.42689034440E+03  0.12500000000E+03 0.  0.
         25    1    1    2    0    0 -0.26495470619E+02 -0.61428364158E+01 -0.24268983032E+03  0.27434120752E+03  0.12500000000E+03 0.  0.
         25    1    1    2    0    0  0.14713099351E+03 -0.71481794551E+02 -0.61370293853E+03  0.64731250024E+03  0.12500000000E+03 0.  0.
</event>
<event>
 5    0  0.5503691E-005  0.2458581E+03  0.7546771E-02  0.1115951E+00
         21   -1    0    0  502  501  0.00000000000E+00  0.00000000000E+00  0.28726456189E+03  0.28726456189E+03  0.00000000000E+00 0.  1.
         21   -1    0    0  501  502 -0.00000000000E+00 -0.00000000000E+00 -0.21041997911E+03  0.21041997911E+03  0.00000000000E+00 0.  1.
         25    1    1    2    0    0  0.96969247716E+02 -0.56297439917E+02  0.10177736189E+02  0.16822907911E+03  0.12500000000E+03 0.  0.
         25    1    1    2    0    0 -0.96279382767E+02 -0.14730243120E+02  0.92342205586E+02  0.18340878534E+03  0.12500000000E+03 0.  0.
         25    1    1    2    0    0 -0.68986494904E+00  0.71027683038E+02 -0.25675359002E+02  0.14604667655E+03  0.12500000000E+03 0.  0.
</event>
<event>
 5    0  0.5503691E-005  0.4519512E+03  0.7546771E-02  0.1027142E+00
         21   -1    0    0  502  501  0.00000000000E+00  0.00000000000E+00  0.12250408110E+03  0.12250408110E+03  0.00000000000E+00 0. -1.
         21   -1    0    0  501  502 -0.00000000000E+00 -0.00000000000E+00 -0.16673720594E+04  0.16673720594E+04  0.00000000000E+00 0. -1.
         25    1    1    2    0    0  0.28345213870E+02  0.17432565478E+03 -0.58251631959E+03  0.62140417415E+03  0.12500000000E+03 0.  0.
         25    1    1    2    0    0  0.28810858586E+02  0.21334931339E+03 -0.41250904394E+03  0.48180567289E+03  0.12500000000E+03 0.  0.
         25    1    1    2    0    0 -0.57156072455E+02 -0.38767496817E+03 -0.54984261482E+03  0.68666629351E+03  0.12500000000E+03 0.  0.
</event>
<event>
 5    0  0.5503691E-005  0.2597503E+03  0.7546771E-02  0.1107293E+00
         21   -1    0    0  502  501  0.00000000000E+00  0.00000000000E+00  0.31018432324E+03  0.31018432324E+03  0.00000000000E+00 0. -1.
         21   -1    0    0  501  502 -0.00000000000E+00 -0.00000000000E+00 -0.21751656237E+03  0.21751656237E+03  0.00000000000E+00 0. -1.
         25    1    1    2    0    0  0.32541472342E+02 -0.69393836679E+01  0.18931584488E+03  0.22928713786E+03  0.12500000000E+03 0.  0.
         25    1    1    2    0    0 -0.72053597972E+02 -0.25828685396E+02 -0.40353255721E+02  0.15202706081E+03  0.12500000000E+03 0.  0.
         25    1    1    2    0    0  0.39512125630E+02  0.32768069064E+02 -0.56294828292E+02  0.14638668694E+03  0.12500000000E+03 0.  0.
</event>
<event>
 5    0  0.5503691E-005  0.2960516E+03  0.7546771E-02  0.1087231E+00
         21   -1    0    0  502  501  0.00000000000E+00  0.00000000000E+00  0.79553677131E+03  0.79553677131E+03  0.00000000000E+00 0.  1.
         21   -1    0    0  501  502 -0.00000000000E+00 -0.00000000000E+00 -0.11017281960E+03  0.11017281960E+03  0.00000000000E+00 0.  1.
         25    1    1    2    0    0  0.14724565428E+03 -0.94173938249E+02  0.36420331623E+03  0.42287003784E+03  0.12500000000E+03 0.  0.
         25    1    1    2    0    0 -0.25442717030E+02  0.22766229961E+02  0.25350332799E+02  0.13203511824E+03  0.12500000000E+03 0.  0.
         25    1    1    2    0    0 -0.12180293725E+03  0.71407708288E+02  0.29581030268E+03  0.35080443483E+03  0.12500000000E+03 0.  0.
</event>
<event>
 5    0  0.5503691E-005  0.2756663E+03  0.7546771E-02  0.1098080E+00
         21   -1    0    0  502  501  0.00000000000E+00  0.00000000000E+00  0.35447445936E+02  0.35447445936E+02  0.00000000000E+00 0. -1.
         21   -1    0    0  501  502 -0.00000000000E+00 -0.00000000000E+00 -0.21437909705E+04  0.21437909705E+04  0.00000000000E+00 0. -1.
         25    1    1    2    0    0 -0.15274641585E+02  0.79880626441E+02 -0.67020474402E+03  0.68659568020E+03  0.12500000000E+03 0.  0.
         25    1    1    2    0    0 -0.83150247878E+02 -0.16178594092E+03 -0.80129405475E+03  0.83113525769E+03  0.12500000000E+03 0.  0.
         25    1    1    2    0    0  0.98424889463E+02  0.81905314479E+02 -0.63684472581E+03  0.66150747857E+03  0.12500000000E+03 0.  0.
</event>
<event>
 5    0  0.5503691E-005  0.3323831E+03  0.7546771E-02  0.1070087E+00
         21   -1    0    0  502  501  0.00000000000E+00  0.00000000000E+00  0.28018942168E+03  0.28018942168E+03  0.00000000000E+00 0.  1.
         21   -1    0    0  501  502 -0.00000000000E+00 -0.00000000000E+00 -0.39429939612E+03  0.39429939612E+03  0.00000000000E+00 0.  1.
         25    1    1    2    0    0  0.38070127340E+02  0.24193524581E+02  0.19130877002E+03  0.23293498388E+03  0.12500000000E+03 0.  0.
         25    1    1    2    0    0 -0.50609679940E+02  0.53263324827E+02 -0.23937573966E+03  0.27986437111E+03  0.12500000000E+03 0.  0.
         25    1    1    2    0    0  0.12539552600E+02 -0.77456849408E+02 -0.66043004801E+02  0.16168946281E+03  0.12500000000E+03 0.  0.
</event>
<event>
 5    0  0.5503691E-005  0.3150738E+03  0.7546771E-02  0.1077939E+00
         21   -1    0    0  502  501  0.00000000000E+00  0.00000000000E+00  0.11744106140E+03  0.11744106140E+03  0.00000000000E+00 0.  1.
         21   -1    0    0  501  502 -0.00000000000E+00 -0.00000000000E+00 -0.84528801483E+03  0.84528801483E+03  0.00000000000E+00 0.  1.
         25    1    1    2    0    0 -0.21016435960E+02  0.16354166626E+03 -0.71775673110E+02  0.21900756707E+03  0.12500000000E+03 0.  0.
         25    1    1    2    0    0 -0.28600187565E+02 -0.21285779775E+02 -0.40501206622E+03  0.42535964658E+03  0.12500000000E+03 0.  0.
         25    1    1    2    0    0  0.49616623525E+02 -0.14225588648E+03 -0.25105921410E+03  0.31836186259E+03  0.12500000000E+03 0.  0.
</event>
<event>
 5    0  0.5503691E-005  0.3140822E+03  0.7546771E-02  0.1078406E+00
         21   -1    0    0  502  501  0.00000000000E+00  0.00000000000E+00  0.14751176546E+03  0.14751176546E+03  0.00000000000E+00 0. -1.
         21   -1    0    0  501  502 -0.00000000000E+00 -0.00000000000E+00 -0.66874432240E+03  0.66874432240E+03  0.00000000000E+00 0. -1.
         25    1    1    2    0    0 -0.13783006075E+03 -0.44261237654E+02 -0.27928898351E+03  0.33850187461E+03  0.12500000000E+03 0.  0.
         25    1    1    2    0    0 -0.60255268854E+02  0.85271931790E+02 -0.15421178673E+03  0.22429506224E+03  0.12500000000E+03 0.  0.
         25    1    1    2    0    0  0.19808532960E+03 -0.41010694136E+02 -0.87731786690E+02  0.25345915101E+03  0.12500000000E+03 0.  0.
</event>
<event>
 5    0  0.5503691E-005  0.3824797E+03  0.7546771E-02  0.1050021E+00
         21   -1    0    0  502  501  0.00000000000E+00  0.00000000000E+00  0.16650521298E+04  0.16650521298E+04  0.00000000000E+00 0.  1.
         21   -1    0    0  501  502 -0.00000000000E+00 -0.00000000000E+00 -0.87859549969E+02  0.87859549969E+02  0.00000000000E+00 0.  1.
         25    1    1    2    0    0 -0.14403528906E+01 -0.14535398104E+03  0.53755679114E+03  0.57072073567E+03  0.12500000000E+03 0.  0.
         25    1    1    2    0    0  0.10239600949E+03 -0.15076324250E+03  0.48979704036E+03  0.53734592098E+03  0.12500000000E+03 0.  0.
         25    1    1    2    0    0 -0.10095565660E+03  0.29611722354E+03  0.54983874832E+03  0.64484502311E+03  0.12500000000E+03 0.  0.
</event>
<event>
 5    0  0.5503691E-005  0.4626150E+03  0.7546771E-02  0.1024026E+00
         21   -1    0    0  502  501  0.00000000000E+00  0.00000000000E+00  0.11246529416E+04  0.11246529416E+04  0.00000000000E+00 0.  1.
         21   -1    0    0  501  502 -0.00000000000E+00 -0.00000000000E+00 -0.19029214932E+03  0.19029214932E+03  0.00000000000E+00 0.  1.
         25    1    1    2    0    0  0.28776541843E+03 -0.77562172184E+02  0.36286469612E+03  0.48592243649E+03  0.12500000000E+03 0.  0.
         25    1    1    2    0    0 -0.15294431495E+03  0.35346749758E+02 -0.26105395258E+02  0.20235574579E+03  0.12500000000E+03 0.  0.
         25    1    1    2    0    0 -0.13482110348E+03  0.42215422426E+02  0.59760149137E+03  0.62666690859E+03  0.12500000000E+03 0.  0.
</event>
<event>
 5    0  0.5503691E-005  0.5111576E+03  0.7546771E-02  0.1010907E+00
         21   -1    0    0  502  501  0.00000000000E+00  0.00000000000E+00  0.24272773395E+03  0.24272773395E+03  0.00000000000E+00 0. -1.
         21   -1    0    0  501  502 -0.00000000000E+00 -0.00000000000E+00 -0.10764409410E+04  0.10764409410E+04  0.00000000000E+00 0.  1.
         25    1    1    2    0    0 -0.47251988467E+02 -0.37816331340E+03 -0.28380071204E+03  0.49133296874E+03  0.12500000000E+03 0.  0.
         25    1    1    2    0    0  0.13293683010E+03  0.35878240334E+03 -0.20743789805E+03  0.45282722454E+03  0.12500000000E+03 0.  0.
         25    1    1    2    0    0 -0.85684841629E+02  0.19380910058E+02 -0.34247459697E+03  0.37500848167E+03  0.12500000000E+03 0.  0.
</event>
<event>
 5    0  0.5503691E-005  0.2440202E+03  0.7546771E-02  0.1117143E+00
         21   -1    0    0  502  501  0.00000000000E+00  0.00000000000E+00  0.68475256361E+02  0.68475256361E+02  0.00000000000E+00 0. -1.
         21   -1    0    0  501  502 -0.00000000000E+00 -0.00000000000E+00 -0.86959683510E+03  0.86959683510E+03  0.00000000000E+00 0. -1.
         25    1    1    2    0    0 -0.21034469065E+02  0.17007183971E+02 -0.26249564772E+03  0.29199427780E+03  0.12500000000E+03 0.  0.
         25    1    1    2    0    0 -0.57294646107E+01  0.11043937539E+03 -0.18576840419E+03  0.24972901793E+03  0.12500000000E+03 0.  0.
         25    1    1    2    0    0  0.26763933676E+02 -0.12744655936E+03 -0.35285752682E+03  0.39634879573E+03  0.12500000000E+03 0.  0.
</event>
<event>
 5    0  0.5503691E-005  0.2590775E+03  0.7546771E-02  0.1107699E+00
         21   -1    0    0  502  501  0.00000000000E+00  0.00000000000E+00  0.17563982911E+03  0.17563982911E+03  0.00000000000E+00 0. -1.
         21   -1    0    0  501  502 -0.00000000000E+00 -0.00000000000E+00 -0.38215227566E+03  0.38215227566E+03  0.00000000000E+00 0. -1.
         25    1    1    2    0    0  0.57069666123E+02 -0.87905848371E+02 -0.22093738405E+02  0.16461323837E+03  0.12500000000E+03 0.  0.
         25    1    1    2    0    0 -0.10875847400E+02  0.14921437568E+03 -0.69998971672E+02  0.20714263202E+03  0.12500000000E+03 0.  0.
         25    1    1    2    0    0 -0.46193818722E+02 -0.61308527308E+02 -0.11441973648E+03  0.18603623439E+03  0.12500000000E+03 0.  0.
</event>
<event>
 5    0  0.5503691E-005  0.3187097E+03  0.7546771E-02  0.1076245E+00
         21   -1    0    0  502  501  0.00000000000E+00  0.00000000000E+00  0.64449994738E+02  0.64449994738E+02  0.00000000000E+00 0. -1.
         21   -1    0    0  501  502 -0.00000000000E+00 -0.00000000000E+00 -0.15760415823E+04  0.15760415823E+04  0.00000000000E+00 0. -1.
         25    1    1    2    0    0  0.25657909228E+02  0.28466389865E+02 -0.53883887060E+03  0.55447361716E+03  0.12500000000E+03 0.  0.
         25    1    1    2    0    0 -0.18799079882E+03  0.91346372191E+02 -0.54213667833E+03  0.59432472449E+03  0.12500000000E+03 0.  0.
         25    1    1    2    0    0  0.16233288959E+03 -0.11981276206E+03 -0.43061603864E+03  0.49169323539E+03  0.12500000000E+03 0.  0.
</event>
<event>
 5    0  0.5838491E-005  0.3350083E+03  0.7546771E-02  0.1068942E+00
         21   -1    0    0  502  501  0.00000000000E+00  0.00000000000E+00  0.56334492622E+03  0.56334492622E+03  0.00000000000E+00 0.  1.
         21   -1    0    0  501  502 -0.00000000000E+00 -0.00000000000E+00 -0.19922180418E+03  0.19922180418E+03  0.00000000000E+00 0.  1.
         25    1    1    2    0    0  0.10218395733E+03  0.41973232661E+02 -0.10106868795E+03  0.19504664334E+03  0.12500000000E+03 0.  0.
         25    1    1    2    0    0 -0.61091610973E+02  0.64367276622E+02  0.25709511868E+03  0.29932963649E+03  0.12500000000E+03 0.  0.
         25    1    1    2    0    0 -0.41092346354E+02 -0.10634050928E+03  0.20809669131E+03  0.26819045057E+03  0.12500000000E+03 0.  0.
</event>
<event>
 5    0  0.5503691E-005  0.2684953E+03  0.7546771E-02  0.1102144E+00
         21   -1    0    0  502  501  0.00000000000E+00  0.00000000000E+00  0.32305484616E+03  0.32305484616E+03  0.00000000000E+00 0. -1.
         21   -1    0    0  501  502 -0.00000000000E+00 -0.00000000000E+00 -0.22315016588E+03  0.22315016588E+03  0.00000000000E+00 0. -1.
         25    1    1    2    0    0  0.12248134599E+03  0.59393450011E+02  0.14194405258E+02  0.18535302307E+03  0.12500000000E+03 0.  0.
         25    1    1    2    0    0 -0.38209913513E+02 -0.10547105036E+03 -0.22772873811E+02  0.16949260673E+03  0.12500000000E+03 0.  0.
         25    1    1    2    0    0 -0.84271432481E+02  0.46077600353E+02  0.10848314883E+03  0.19135938223E+03  0.12500000000E+03 0.  0.
</event>
<event>
 5    0  0.5503691E-005  0.2875693E+03  0.7546771E-02  0.1091625E+00
         21   -1    0    0  502  501  0.00000000000E+00  0.00000000000E+00  0.17998723117E+03  0.17998723117E+03  0.00000000000E+00 0.  1.
         21   -1    0    0  501  502 -0.00000000000E+00 -0.00000000000E+00 -0.45945545521E+03  0.45945545521E+03  0.00000000000E+00 0.  1.
         25    1    1    2    0    0  0.11844459648E+02  0.94902279883E+02 -0.25900476067E+03  0.30307622804E+03  0.12500000000E+03 0.  0.
         25    1    1    2    0    0  0.18030111977E+02 -0.13114793328E+03  0.45146823183E+02  0.18758491673E+03  0.12500000000E+03 0.  0.
         25    1    1    2    0    0 -0.29874571625E+02  0.36245653400E+02 -0.65610286548E+02  0.14878154160E+03  0.12500000000E+03 0.  0.
</event>
<event>
 5    0  0.5503691E-005  0.2368452E+03  0.7546771E-02  0.1121912E+00
         21   -1    0    0  502  501  0.00000000000E+00  0.00000000000E+00  0.35537532306E+03  0.35537532306E+03  0.00000000000E+00 0. -1.
         21   -1    0    0  501  502 -0.00000000000E+00 -0.00000000000E+00 -0.15784900434E+03  0.15784900434E+03  0.00000000000E+00 0. -1.
         25    1    1    2    0    0 -0.64237850011E+02  0.21848140404E+02  0.10310963133E+03  0.17567139405E+03  0.12500000000E+03 0.  0.
         25    1    1    2    0    0  0.11019779866E+03  0.43288520917E+02  0.25452706521E+02  0.17404106166E+03  0.12500000000E+03 0.  0.
         25    1    1    2    0    0 -0.45959948651E+02 -0.65136661321E+02  0.68963980874E+02  0.16351187170E+03  0.12500000000E+03 0.  0.
</event>
<event>
 5    0  0.5503691E-005  0.3423885E+03  0.7546771E-02  0.1065783E+00
         21   -1    0    0  502  501  0.00000000000E+00  0.00000000000E+00  0.25252716796E+03  0.25252716796E+03  0.00000000000E+00 0.  1.
         21   -1    0    0  501  502 -0.00000000000E+00 -0.00000000000E+00 -0.46422685872E+03  0.46422685872E+03  0.00000000000E+00 0.  1.
         25    1    1    2    0    0  0.89714439676E+02 -0.26008784224E+02  0.75403397017E+01  0.15622738001E+03  0.12500000000E+03 0.  0.
         25    1    1    2    0    0 -0.15161246253E+03  0.15955468196E+03 -0.26032587689E+03  0.36309585168E+03  0.12500000000E+03 0.  0.
         25    1    1    2    0    0  0.61898022851E+02 -0.13354589773E+03  0.41085846430E+02  0.19743079499E+03  0.12500000000E+03 0.  0.
</event>
<event>
 5    0  0.5503691E-005  0.2765632E+03  0.7546771E-02  0.1097581E+00
         21   -1    0    0  502  501  0.00000000000E+00  0.00000000000E+00  0.39865703111E+03  0.39865703111E+03  0.00000000000E+00 0. -1.
         21   -1    0    0  501  502 -0.00000000000E+00 -0.00000000000E+00 -0.19186213053E+03  0.19186213053E+03  0.00000000000E+00 0. -1.
         25    1    1    2    0    0 -0.51215414962E+02  0.76335247717E+02  0.96782301043E+02  0.18287127322E+03  0.12500000000E+03 0.  0.
         25    1    1    2    0    0 -0.43185117764E+01  0.73616617375E+02  0.14098251278E+03  0.20233419090E+03  0.12500000000E+03 0.  0.
         25    1    1    2    0    0  0.55533926738E+02 -0.14995186509E+03 -0.30969913241E+02  0.20531369752E+03  0.12500000000E+03 0.  0.
</event>
<event>
 5    0  0.5503691E-005  0.3331198E+03  0.7546771E-02  0.1069765E+00
         21   -1    0    0  502  501  0.00000000000E+00  0.00000000000E+00  0.17428686033E+03  0.17428686033E+03  0.00000000000E+00 0. -1.
         21   -1    0    0  501  502 -0.00000000000E+00 -0.00000000000E+00 -0.63670223326E+03  0.63670223326E+03  0.00000000000E+00 0. -1.
         25    1    1    2    0    0  0.90265040276E+02 -0.91429265508E+02 -0.12106025137E+03  0.21630458282E+03  0.12500000000E+03 0.  0.
         25    1    1    2    0    0  0.23712567935E+02  0.15650870393E+03  0.71933746218E+01  0.20182667049E+03  0.12500000000E+03 0.  0.
         25    1    1    2    0    0 -0.11397760821E+03 -0.65079438422E+02 -0.34854849618E+03  0.39285784028E+03  0.12500000000E+03 0.  0.
</event>
<event>
 5    0  0.5503691E-005  0.2421565E+03  0.7546771E-02  0.1118364E+00
         21   -1    0    0  502  501  0.00000000000E+00  0.00000000000E+00  0.20674896645E+02  0.20674896645E+02  0.00000000000E+00 0. -1.
         21   -1    0    0  501  502 -0.00000000000E+00 -0.00000000000E+00 -0.28362796796E+04  0.28362796796E+04  0.00000000000E+00 0. -1.
         25    1    1    2    0    0 -0.16198369855E+01  0.12038905859E+03 -0.71153001139E+03  0.73239067881E+03  0.12500000000E+03 0.  0.
         25    1    1    2    0    0  0.14227429363E+02 -0.64900886247E+02 -0.72677471696E+03  0.74043300439E+03  0.12500000000E+03 0.  0.
         25    1    1    2    0    0 -0.12607592377E+02 -0.55488172340E+02 -0.13773000546E+04  0.13841308930E+04  0.12500000000E+03 0.  0.
</event>
<event>
 5    0  0.5503691E-005  0.2203364E+03  0.7546771E-02  0.1133632E+00
         21   -1    0    0  502  501  0.00000000000E+00  0.00000000000E+00  0.40435645708E+03  0.40435645708E+03  0.00000000000E+00 0.  1.
         21   -1    0    0  501  502 -0.00000000000E+00 -0.00000000000E+00 -0.12006274850E+03  0.12006274850E+03  0.00000000000E+00 0.  1.
         25    1    1    2    0    0 -0.36322131853E+02 -0.65094658628E+02  0.65958177060E+02  0.15978764960E+03  0.12500000000E+03 0.  0.
         25    1    1    2    0    0  0.69282049844E+02 -0.75820415232E+01  0.11909596929E+03  0.18618898916E+03  0.12500000000E+03 0.  0.
         25    1    1    2    0    0 -0.32959917991E+02  0.72676700151E+02  0.99239562234E+02  0.17844256681E+03  0.12500000000E+03 0.  0.
</event>
<event>
 5    0  0.5660623E-005  0.3346607E+03  0.7546771E-02  0.1069093E+00
         21   -1    0    0  502  501  0.00000000000E+00  0.00000000000E+00  0.37552231339E+03  0.37552231339E+03  0.00000000000E+00 0.  1.
         21   -1    0    0  501  502 -0.00000000000E+00 -0.00000000000E+00 -0.29824535411E+03  0.29824535411E+03  0.00000000000E+00 0.  1.
         25    1    1    2    0    0  0.59726073458E+02  0.13591991052E+03  0.20669758619E+03  0.28353186428E+03  0.12500000000E+03 0.  0.
         25    1    1    2    0    0  0.73457095362E+02 -0.95001511190E+02 -0.10181644170E+03  0.20102940031E+03  0.12500000000E+03 0.  0.
         25    1    1    2    0    0 -0.13318316882E+03 -0.40918399325E+02 -0.27604185211E+02  0.18920640291E+03  0.12500000000E+03 0.  0.
</event>
<event>
 5    0  0.5503691E-005  0.5065115E+03  0.7546771E-02  0.1012093E+00
         21   -1    0    0  502  501  0.00000000000E+00  0.00000000000E+00  0.93473836644E+03  0.93473836644E+03  0.00000000000E+00 0. -1.
         21   -1    0    0  501  502 -0.00000000000E+00 -0.00000000000E+00 -0.27446601238E+03  0.27446601238E+03  0.00000000000E+00 0. -1.
         25    1    1    2    0    0  0.22935351714E+03  0.85666401047E+02  0.13122349362E+03  0.30460855761E+03  0.12500000000E+03 0.  0.
         25    1    1    2    0    0 -0.32759158907E+03 -0.54545383680E+02  0.62325782435E+03  0.71719367239E+03  0.12500000000E+03 0.  0.
         25    1    1    2    0    0  0.98238071931E+02 -0.31121017367E+02 -0.94208963915E+02  0.18740214882E+03  0.12500000000E+03 0.  0.
</event>
<event>
 5    0  0.5503691E-005  0.2805375E+03  0.7546771E-02  0.1095396E+00
         21   -1    0    0  502  501  0.00000000000E+00  0.00000000000E+00  0.95641261709E+02  0.95641261709E+02  0.00000000000E+00 0. -1.
         21   -1    0    0  501  502 -0.00000000000E+00 -0.00000000000E+00 -0.82287990418E+03  0.82287990418E+03  0.00000000000E+00 0. -1.
         25    1    1    2    0    0 -0.83265694647E+02  0.12269809323E+03 -0.37157406477E+03  0.41914231903E+03  0.12500000000E+03 0.  0.
         25    1    1    2    0    0  0.20876478349E+02  0.40365008644E+02 -0.16742013347E+03  0.21382156664E+03  0.12500000000E+03 0.  0.
         25    1    1    2    0    0  0.62389216298E+02 -0.16306310187E+03 -0.18824444423E+03  0.28555728022E+03  0.12500000000E+03 0.  0.
</event>
<event>
 5    0  0.5721191E-005  0.2983240E+03  0.7546771E-02  0.1086081E+00
         21   -1    0    0  502  501  0.00000000000E+00  0.00000000000E+00  0.40867222828E+03  0.40867222828E+03  0.00000000000E+00 0. -1.
         21   -1    0    0  501  502 -0.00000000000E+00 -0.00000000000E+00 -0.21777154398E+03  0.21777154398E+03  0.00000000000E+00 0. -1.
         25    1    1    2    0    0  0.44946169316E+02 -0.96581041077E+02  0.16783424776E+02  0.16509009352E+03  0.12500000000E+03 0.  0.
         25    1    1    2    0    0  0.27953308691E+02  0.20426007667E+03  0.13664962327E+03  0.27713117098E+03  0.12500000000E+03 0.  0.
         25    1    1    2    0    0 -0.72899478007E+02 -0.10767903559E+03  0.37467636253E+02  0.18422250776E+03  0.12500000000E+03 0.  0.
</event>
<event>
 5    0  0.6426974E-005  0.6965551E+03  0.7546771E-02  0.9723142E-01
         21   -1    0    0  502  501  0.00000000000E+00  0.00000000000E+00  0.10086048031E+04  0.10086048031E+04  0.00000000000E+00 0. -1.
         21   -1    0    0  501  502 -0.00000000000E+00 -0.00000000000E+00 -0.48104970616E+03  0.48104970616E+03  0.00000000000E+00 0. -1.
         25    1    1    2    0    0 -0.11881876529E+03  0.22103015241E+03 -0.29151805173E+03  0.40445024632E+03  0.12500000000E+03 0.  0.
         25    1    1    2    0    0 -0.84927206662E+02 -0.38829076798E+03  0.42825166254E+03  0.59750049155E+03  0.12500000000E+03 0.  0.
         25    1    1    2    0    0  0.20374597195E+03  0.16726061557E+03  0.39082148614E+03  0.48770377140E+03  0.12500000000E+03 0.  0.
</event>
<event>
 5    0  0.5503691E-005  0.2319662E+03  0.7546771E-02  0.1125263E+00
         21   -1    0    0  502  501  0.00000000000E+00  0.00000000000E+00  0.28218861714E+03  0.28218861714E+03  0.00000000000E+00 0.  1.
         21   -1    0    0  501  502 -0.00000000000E+00 -0.00000000000E+00 -0.19068211567E+03  0.19068211567E+03  0.00000000000E+00 0.  1.
         25    1    1    2    0    0 -0.44917911881E+02 -0.10573532947E+02  0.33401862847E+02  0.13736849292E+03  0.12500000000E+03 0.  0.
         25    1    1    2    0    0 -0.78151988160E+02 -0.21529845543E+02  0.35979395556E+01  0.14902755675E+03  0.12500000000E+03 0.  0.
         25    1    1    2    0    0  0.12306990004E+03  0.32103378490E+02  0.54506699072E+02  0.18647468314E+03  0.12500000000E+03 0.  0.
</event>
<event>
 5    0  0.5773465E-005  0.3143564E+03  0.7546771E-02  0.1078276E+00
         21   -1    0    0  502  501  0.00000000000E+00  0.00000000000E+00  0.23702807489E+03  0.23702807489E+03  0.00000000000E+00 0.  1.
         21   -1    0    0  501  502 -0.00000000000E+00 -0.00000000000E+00 -0.41691248803E+03  0.41691248803E+03  0.00000000000E+00 0.  1.
         25    1    1    2    0    0  0.10701132858E+03  0.26038785893E+02 -0.16039177188E+03  0.23125735297E+03  0.12500000000E+03 0.  0.
         25    1    1    2    0    0 -0.18863623430E+03 -0.10473922697E+03 -0.40471394383E+02  0.25262000776E+03  0.12500000000E+03 0.  0.
         25    1    1    2    0    0  0.81624905714E+02  0.78700441076E+02  0.20978753124E+02  0.17006320220E+03  0.12500000000E+03 0.  0.
</event>
<event>
 5    0  0.5503691E-005  0.2146002E+03  0.7546771E-02  0.1137974E+00
         21   -1    0    0  502  501  0.00000000000E+00  0.00000000000E+00  0.36343012297E+03  0.36343012297E+03  0.00000000000E+00 0. -1.
         21   -1    0    0  501  502 -0.00000000000E+00 -0.00000000000E+00 -0.12671828738E+03  0.12671828738E+03  0.00000000000E+00 0. -1.
         25    1    1    2    0    0 -0.59134941373E+02  0.33170750540E+02  0.92697783633E+02  0.16975016664E+03  0.12500000000E+03 0.  0.
         25    1    1    2    0    0  0.23285683783E+02  0.40834166648E+02  0.44758945907E+02  0.14084749012E+03  0.12500000000E+03 0.  0.
         25    1    1    2    0    0  0.35849257590E+02 -0.74004917188E+02  0.99255106057E+02  0.17955075359E+03  0.12500000000E+03 0.  0.
</event>
<event>
 5    0  0.5503691E-005  0.2072969E+03  0.7546771E-02  0.1143725E+00
         21   -1    0    0  502  501  0.00000000000E+00  0.00000000000E+00  0.19221341127E+03  0.19221341127E+03  0.00000000000E+00 0.  1.
         21   -1    0    0  501  502 -0.00000000000E+00 -0.00000000000E+00 -0.22356402560E+03  0.22356402560E+03  0.00000000000E+00 0.  1.
         25    1    1    2    0    0 -0.27347497725E+02  0.21332210585E+02  0.53091925810E+01  0.12983118410E+03  0.12500000000E+03 0.  0.
         25    1    1    2    0    0 -0.54824174667E+01 -0.61122910860E+02  0.17359481195E+02  0.14032967869E+03  0.12500000000E+03 0.  0.
         25    1    1    2    0    0  0.32829915192E+02  0.39790700275E+02 -0.54019288106E+02  0.14561657408E+03  0.12500000000E+03 0.  0.
</event>
<event>
 5    0  0.5503691E-005  0.2820522E+03  0.7546771E-02  0.1094573E+00
         21   -1    0    0  502  501  0.00000000000E+00  0.00000000000E+00  0.35635387287E+03  0.35635387287E+03  0.00000000000E+00 0. -1.
         21   -1    0    0  501  502 -0.00000000000E+00 -0.00000000000E+00 -0.22324284928E+03  0.22324284928E+03  0.00000000000E+00 0. -1.
         25    1    1    2    0    0 -0.72515802372E+02 -0.60992480476E+02  0.17856665945E+03  0.23767556907E+03  0.12500000000E+03 0.  0.
         25    1    1    2    0    0  0.13580747335E+02 -0.66275346532E+02 -0.58269688568E+02  0.15361384984E+03  0.12500000000E+03 0.  0.
         25    1    1    2    0    0  0.58935055037E+02  0.12726782701E+03  0.12814052711E+02  0.18830730323E+03  0.12500000000E+03 0.  0.
</event>
<event>
 5    0  0.5503691E-005  0.4226847E+03  0.7546771E-02  0.1036196E+00
         21   -1    0    0  502  501  0.00000000000E+00  0.00000000000E+00  0.12692479304E+03  0.12692479304E+03  0.00000000000E+00 0.  1.
         21   -1    0    0  501  502 -0.00000000000E+00 -0.00000000000E+00 -0.14076236958E+04  0.14076236958E+04  0.00000000000E+00 0.  1.
         25    1    1    2    0    0  0.12374639583E+03 -0.39572891791E+02 -0.91516970808E+03  0.93275922875E+03  0.12500000000E+03 0.  0.
         25    1    1    2    0    0 -0.50178702839E+01  0.19051852144E+03 -0.94126128331E+02  0.24659118814E+03  0.12500000000E+03 0.  0.
         25    1    1    2    0    0 -0.11872852555E+03 -0.15094562965E+03 -0.27140306631E+03  0.35519807191E+03  0.12500000000E+03 0.  0.
</event>
<event>
 5    0  0.5503691E-005  0.2703956E+03  0.7546771E-02  0.1101053E+00
         21   -1    0    0  502  501  0.00000000000E+00  0.00000000000E+00  0.75089625731E+02  0.75089625731E+02  0.00000000000E+00 0. -1.
         21   -1    0    0  501  502 -0.00000000000E+00 -0.00000000000E+00 -0.97368691513E+03  0.97368691513E+03  0.00000000000E+00 0. -1.
         25    1    1    2    0    0 -0.54438898588E+02 -0.10260527361E+03 -0.17640536957E+03  0.24542878858E+03  0.12500000000E+03 0.  0.
         25    1    1    2    0    0  0.11851127431E+03 -0.88933171818E+01 -0.34769726371E+03  0.38812678395E+03  0.12500000000E+03 0.  0.
         25    1    1    2    0    0 -0.64072375719E+02  0.11149859079E+03 -0.37449465612E+03  0.41522096833E+03  0.12500000000E+03 0.  0.
</event>
<event>
 5    0  0.5994499E-005  0.2709272E+03  0.7546771E-02  0.1100750E+00
         21   -1    0    0  502  501  0.00000000000E+00  0.00000000000E+00  0.78243565116E+02  0.78243565116E+02  0.00000000000E+00 0. -1.
         21   -1    0    0  501  502 -0.00000000000E+00 -0.00000000000E+00 -0.93811643260E+03  0.93811643260E+03  0.00000000000E+00 0. -1.
         25    1    1    2    0    0 -0.62565307971E+02 -0.53950945993E+02 -0.25751853313E+03  0.29793609590E+03  0.12500000000E+03 0.  0.
         25    1    1    2    0    0 -0.39439118106E+02 -0.57841561046E+02 -0.88604021924E+02  0.16845403801E+03  0.12500000000E+03 0.  0.
         25    1    1    2    0    0  0.10200442608E+03  0.11179250704E+03 -0.51375031243E+03  0.54996986380E+03  0.12500000000E+03 0.  0.
</event>
<event>
 5    0  0.5503691E-005  0.2894206E+03  0.7546771E-02  0.1090652E+00
         21   -1    0    0  502  501  0.00000000000E+00  0.00000000000E+00  0.98461259211E+02  0.98461259211E+02  0.00000000000E+00 0. -1.
         21   -1    0    0  501  502 -0.00000000000E+00 -0.00000000000E+00 -0.85073321908E+03  0.85073321908E+03  0.00000000000E+00 0. -1.
         25    1    1    2    0    0  0.16138142575E+03 -0.77111794240E+01 -0.43274793321E+03  0.47853860927E+03  0.12500000000E+03 0.  0.
         25    1    1    2    0    0 -0.25206503176E+01 -0.47242313104E+02 -0.15219667686E+03  0.20255127320E+03  0.12500000000E+03 0.  0.
         25    1    1    2    0    0 -0.15886077543E+03  0.54953492528E+02 -0.16732734980E+03  0.26810459583E+03  0.12500000000E+03 0.  0.
</event>
<event>
 5    0  0.5503691E-005  0.2646671E+03  0.7546771E-02  0.1104371E+00
         21   -1    0    0  502  501  0.00000000000E+00  0.00000000000E+00  0.16047596208E+04  0.16047596208E+04  0.00000000000E+00 0.  1.
         21   -1    0    0  501  502 -0.00000000000E+00 -0.00000000000E+00 -0.43650571190E+02  0.43650571190E+02  0.00000000000E+00 0.  1.
         25    1    1    2    0    0 -0.15530809479E+02  0.38177329750E+02  0.49217307394E+03  0.50946839868E+03  0.12500000000E+03 0.  0.
         25    1    1    2    0    0 -0.11636170253E+03  0.66562400652E+02  0.48476774692E+03  0.51826187149E+03  0.12500000000E+03 0.  0.
         25    1    1    2    0    0  0.13189251200E+03 -0.10473973040E+03  0.58416822873E+03  0.62067992179E+03  0.12500000000E+03 0.  0.
</event>
<event>
 5    0  0.6904353E-005  0.2848805E+03  0.7546771E-02  0.1093053E+00
         21   -1    0    0  502  501  0.00000000000E+00  0.00000000000E+00  0.44513074171E+03  0.44513074171E+03  0.00000000000E+00 0.  1.
         21   -1    0    0  501  502 -0.00000000000E+00 -0.00000000000E+00 -0.18232143595E+03  0.18232143595E+03  0.00000000000E+00 0.  1.
         25    1    1    2    0    0 -0.50992273866E+02  0.17064056401E+03  0.50950977921E+02  0.22347128726E+03  0.12500000000E+03 0.  0.
         25    1    1    2    0    0 -0.42082736317E+02 -0.10592621868E+03  0.68305894371E+02  0.18243359259E+03  0.12500000000E+03 0.  0.
         25    1    1    2    0    0  0.93075010183E+02 -0.64714345326E+02  0.14355243347E+03  0.22154729781E+03  0.12500000000E+03 0.  0.
</event>
<event>
 5    0  0.5503691E-005  0.7019738E+03  0.7546771E-02  0.9713863E-01
         21   -1    0    0  502  501  0.00000000000E+00  0.00000000000E+00  0.10423987098E+04  0.10423987098E+04  0.00000000000E+00 0.  1.
         21   -1    0    0  501  502 -0.00000000000E+00 -0.00000000000E+00 -0.47272436528E+03  0.47272436528E+03  0.00000000000E+00 0.  1.
         25    1    1    2    0    0  0.28629428211E+03 -0.14158472428E+03 -0.21887657899E+02  0.34367822114E+03  0.12500000000E+03 0.  0.
         25    1    1    2    0    0 -0.59212813614E+03  0.23407319711E+03  0.49166305541E+03  0.81410291196E+03  0.12500000000E+03 0.  0.
         25    1    1    2    0    0  0.30583385403E+03 -0.92488472822E+02  0.99898946995E+02  0.35734194196E+03  0.12500000000E+03 0.  0.
</event>
<event>
 5    0  0.5503691E-005  0.2408143E+03  0.7546771E-02  0.1119252E+00
         21   -1    0    0  502  501  0.00000000000E+00  0.00000000000E+00  0.49663949484E+03  0.49663949484E+03  0.00000000000E+00 0.  1.
         21   -1    0    0  501  502 -0.00000000000E+00 -0.00000000000E+00 -0.11676789077E+03  0.11676789077E+03  0.00000000000E+00 0.  1.
         25    1    1    2    0    0 -0.79704346792E+02 -0.30373992216E+02  0.89938385246E+02  0.17603771028E+03  0.12500000000E+03 0.  0.
         25    1    1    2    0    0  0.39006946042E+02 -0.81970881395E+02  0.13291167460E+03  0.20379224833E+03  0.12500000000E+03 0.  0.
         25    1    1    2    0    0  0.40697400749E+02  0.11234487361E+03  0.15702154423E+03  0.23357742700E+03  0.12500000000E+03 0.  0.
</event>
<event>
 5    0  0.5503691E-005  0.3752099E+03  0.7546771E-02  0.1052719E+00
         21   -1    0    0  502  501  0.00000000000E+00  0.00000000000E+00  0.21757013713E+03  0.21757013713E+03  0.00000000000E+00 0.  1.
         21   -1    0    0  501  502 -0.00000000000E+00 -0.00000000000E+00 -0.64706696124E+03  0.64706696124E+03  0.00000000000E+00 0. -1.
         25    1    1    2    0    0  0.90274007773E+02 -0.15104765999E+02  0.89558383669E+02  0.17895042476E+03  0.12500000000E+03 0.  0.
         25    1    1    2    0    0  0.11461113022E+03 -0.67794518355E+02 -0.14313278320E+03  0.23204267176E+03  0.12500000000E+03 0.  0.
         25    1    1    2    0    0 -0.20488513799E+03  0.82899284354E+02 -0.37592242458E+03  0.45364400186E+03  0.12500000000E+03 0.  0.
</event>
<event>
 5    0  0.5503691E-005  0.4031314E+03  0.7546771E-02  0.1042701E+00
         21   -1    0    0  502  501  0.00000000000E+00  0.00000000000E+00  0.51427290731E+02  0.51427290731E+02  0.00000000000E+00 0. -1.
         21   -1    0    0  501  502 -0.00000000000E+00 -0.00000000000E+00 -0.31600907515E+04  0.31600907515E+04  0.00000000000E+00 0. -1.
         25    1    1    2    0    0 -0.70938470149E+02 -0.12866294715E+03 -0.72132849583E+03  0.74667678377E+03  0.12500000000E+03 0.  0.
         25    1    1    2    0    0  0.12582221230E+03 -0.17030701633E+03 -0.14696254437E+04  0.14900535741E+04  0.12500000000E+03 0.  0.
         25    1    1    2    0    0 -0.54883742148E+02  0.29896996348E+03 -0.91770952115E+03  0.97478768428E+03  0.12500000000E+03 0.  0.
</event>
<event>
 5    0  0.5503691E-005  0.2227225E+03  0.7546771E-02  0.1131869E+00
         21   -1    0    0  502  501  0.00000000000E+00  0.00000000000E+00  0.23583954232E+03  0.23583954232E+03  0.00000000000E+00 0.  1.
         21   -1    0    0  501  502 -0.00000000000E+00 -0.00000000000E+00 -0.21033498622E+03  0.21033498622E+03  0.00000000000E+00 0.  1.
         25    1    1    2    0    0 -0.59147278880E+02  0.39251480619E+02  0.93871360067E+02  0.17168550192E+03  0.12500000000E+03 0.  0.
         25    1    1    2    0    0  0.30408812032E+02 -0.97821662878E+01 -0.60916945704E+02  0.14267536893E+03  0.12500000000E+03 0.  0.
         25    1    1    2    0    0  0.28738466848E+02 -0.29469314331E+02 -0.74498582598E+01  0.13181365768E+03  0.12500000000E+03 0.  0.
</event>
<event>
 5    0  0.5503691E-005  0.2707676E+03  0.7546771E-02  0.1100841E+00
         21   -1    0    0  502  501  0.00000000000E+00  0.00000000000E+00  0.56306595249E+02  0.56306595249E+02  0.00000000000E+00 0.  1.
         21   -1    0    0  501  502 -0.00000000000E+00 -0.00000000000E+00 -0.13020689459E+04  0.13020689459E+04  0.00000000000E+00 0.  1.
         25    1    1    2    0    0  0.24107836635E+02  0.10463334471E+03 -0.57340790225E+03  0.59661624766E+03  0.12500000000E+03 0.  0.
         25    1    1    2    0    0  0.16143164581E+02 -0.27657373244E+02 -0.55431517458E+03  0.56913605124E+03  0.12500000000E+03 0.  0.
         25    1    1    2    0    0 -0.40251001216E+02 -0.76975971467E+02 -0.11803927379E+03  0.19262324221E+03  0.12500000000E+03 0.  0.
</event>
<event>
 5    0  0.5503691E-005  0.2612006E+03  0.7546771E-02  0.1106424E+00
         21   -1    0    0  502  501  0.00000000000E+00  0.00000000000E+00  0.26502501481E+03  0.26502501481E+03  0.00000000000E+00 0.  1.
         21   -1    0    0  501  502 -0.00000000000E+00 -0.00000000000E+00 -0.25743132911E+03  0.25743132911E+03  0.00000000000E+00 0.  1.
         25    1    1    2    0    0  0.67023085384E+02  0.16701648239E+01  0.15446839710E+03  0.20971497116E+03  0.12500000000E+03 0.  0.
         25    1    1    2    0    0  0.15133830478E+02 -0.95455038115E+00 -0.56833432668E+02  0.13814840955E+03  0.12500000000E+03 0.  0.
         25    1    1    2    0    0 -0.82156915862E+02 -0.71561444271E+00 -0.90041278731E+02  0.17459296321E+03  0.12500000000E+03 0.  0.
</event>
<event>
 5    0  0.5503691E-005  0.3845869E+03  0.7546771E-02  0.1049251E+00
         21   -1    0    0  502  501  0.00000000000E+00  0.00000000000E+00  0.39097079865E+03  0.39097079865E+03  0.00000000000E+00 0.  1.
         21   -1    0    0  501  502 -0.00000000000E+00 -0.00000000000E+00 -0.37830731322E+03  0.37830731322E+03  0.00000000000E+00 0.  1.
         25    1    1    2    0    0  0.71360987464E+02  0.11069846928E+03  0.94656414937E+02  0.20477152762E+03  0.12500000000E+03 0.  0.
         25    1    1    2    0    0 -0.24814574216E+03 -0.16621028328E+03 -0.10361812077E+03  0.33994688199E+03  0.12500000000E+03 0.  0.
         25    1    1    2    0    0  0.17678475469E+03  0.55511814002E+02  0.21625191267E+02  0.22455970227E+03  0.12500000000E+03 0.  0.
</event>
<event>
 5    0  0.5503691E-005  0.3876602E+03  0.7546771E-02  0.1048138E+00
         21   -1    0    0  502  501  0.00000000000E+00  0.00000000000E+00  0.21017500124E+03  0.21017500124E+03  0.00000000000E+00 0.  1.
         21   -1    0    0  501  502 -0.00000000000E+00 -0.00000000000E+00 -0.71502527608E+03  0.71502527608E+03  0.00000000000E+00 0.  1.
         25    1    1    2    0    0 -0.10769967083E+03 -0.14757970796E+03 -0.22118153036E+03  0.31293011787E+03  0.12500000000E+03 0.  0.
         25    1    1    2    0    0  0.33493876946E+02  0.18187769826E+03 -0.37557408554E+03  0.43690071028E+03  0.12500000000E+03 0.  0.
         25    1    1    2    0    0  0.74205793887E+02 -0.34297990298E+02  0.91905341062E+02  0.17536944917E+03  0.12500000000E+03 0.  0.
</event>
<event>
 5    0  0.5503691E-005  0.2152049E+03  0.7546771E-02  0.1137509E+00
         21   -1    0    0  502  501  0.00000000000E+00  0.00000000000E+00  0.60971799398E+02  0.60971799398E+02  0.00000000000E+00 0. -1.
         21   -1    0    0  501  502 -0.00000000000E+00 -0.00000000000E+00 -0.75958337714E+03  0.75958337714E+03  0.00000000000E+00 0. -1.
         25    1    1    2    0    0  0.16781789978E+02  0.16559312621E+02 -0.33321315305E+03  0.35666769503E+03  0.12500000000E+03 0.  0.
         25    1    1    2    0    0 -0.48023368697E+02  0.47107833122E+02 -0.18830481929E+03  0.23581581128E+03  0.12500000000E+03 0.  0.
         25    1    1    2    0    0  0.31241578719E+02 -0.63667145742E+02 -0.17709360541E+03  0.22807167023E+03  0.12500000000E+03 0.  0.
</event>
<event>
 5    0  0.5503691E-005  0.3098008E+03  0.7546771E-02  0.1080441E+00
         21   -1    0    0  502  501  0.00000000000E+00  0.00000000000E+00  0.70004016494E+03  0.70004016494E+03  0.00000000000E+00 0.  1.
         21   -1    0    0  501  502 -0.00000000000E+00 -0.00000000000E+00 -0.13710150875E+03  0.13710150875E+03  0.00000000000E+00 0.  1.
         25    1    1    2    0    0  0.68362110759E+01  0.18513435854E+03  0.16064447696E+03  0.27523283320E+03  0.12500000000E+03 0.  0.
         25    1    1    2    0    0 -0.12076984413E+03 -0.11717807253E+03  0.20239780953E+03  0.29138622005E+03  0.12500000000E+03 0.  0.
         25    1    1    2    0    0  0.11393363305E+03 -0.67956286005E+02  0.19989636970E+03  0.27052262043E+03  0.12500000000E+03 0.  0.
</event>
<event>
 5    0  0.5503691E-005  0.2473757E+03  0.7546771E-02  0.1114975E+00
         21   -1    0    0  502  501  0.00000000000E+00  0.00000000000E+00  0.46263758045E+02  0.46263758045E+02  0.00000000000E+00 0.  1.
         21   -1    0    0  501  502 -0.00000000000E+00 -0.00000000000E+00 -0.13227354544E+04  0.13227354544E+04  0.00000000000E+00 0.  1.
         25    1    1    2    0    0 -0.88319201229E+02  0.41735963997E+01 -0.38065199055E+03  0.41029091889E+03  0.12500000000E+03 0.  0.
         25    1    1    2    0    0  0.10298615971E+03 -0.70378441206E+02 -0.66101782838E+03  0.68419941794E+03  0.12500000000E+03 0.  0.
         25    1    1    2    0    0 -0.14666958476E+02  0.66204844807E+02 -0.23480187741E+03  0.27450887559E+03  0.12500000000E+03 0.  0.
</event>
<event>
 5    0  0.5503691E-005  0.3086524E+03  0.7546771E-02  0.1080994E+00
         21   -1    0    0  502  501  0.00000000000E+00  0.00000000000E+00  0.68505224864E+03  0.68505224864E+03  0.00000000000E+00 0.  1.
         21   -1    0    0  501  502 -0.00000000000E+00 -0.00000000000E+00 -0.13906432218E+03  0.13906432218E+03  0.00000000000E+00 0.  1.
         25    1    1    2    0    0  0.21352827170E+02 -0.13676473339E+03  0.28033197526E+03  0.33670692283E+03  0.12500000000E+03 0.  0.
         25    1    1    2    0    0  0.10699666714E+02  0.17064991630E+03  0.26366297652E+02  0.21343865267E+03  0.12500000000E+03 0.  0.
         25    1    1    2    0    0 -0.32052493884E+02 -0.33885182907E+02  0.23928965355E+03  0.27397099533E+03  0.12500000000E+03 0.  0.
</event>
<event>
 5    0  0.5503691E-005  0.4303372E+03  0.7546771E-02  0.1033753E+00
         21   -1    0    0  502  501  0.00000000000E+00  0.00000000000E+00  0.32818092791E+03  0.32818092791E+03  0.00000000000E+00 0. -1.
         21   -1    0    0  501  502 -0.00000000000E+00 -0.00000000000E+00 -0.56429273647E+03  0.56429273647E+03  0.00000000000E+00 0. -1.
         25    1    1    2    0    0 -0.13096234416E+03  0.31299618179E+03 -0.17595382463E+03  0.40212248607E+03  0.12500000000E+03 0.  0.
         25    1    1    2    0    0  0.11140474510E+03 -0.81287573409E+02  0.66354968912E+02  0.19760229938E+03  0.12500000000E+03 0.  0.
         25    1    1    2    0    0  0.19557599059E+02 -0.23170860838E+03 -0.12651295284E+03  0.29274887893E+03  0.12500000000E+03 0.  0.
</event>
<event>
 5    0  0.5503691E-005  0.2357035E+03  0.7546771E-02  0.1122689E+00
         21   -1    0    0  502  501  0.00000000000E+00  0.00000000000E+00  0.22839812694E+02  0.22839812694E+02  0.00000000000E+00 0.  1.
         21   -1    0    0  501  502 -0.00000000000E+00 -0.00000000000E+00 -0.24324249945E+04  0.24324249945E+04  0.00000000000E+00 0.  1.
         25    1    1    2    0    0 -0.16044648711E+02  0.88460581312E+02 -0.82098492342E+03  0.83529871883E+03  0.12500000000E+03 0.  0.
         25    1    1    2    0    0  0.60131245126E+02  0.24420623984E+02 -0.61496661386E+03  0.63088911044E+03  0.12500000000E+03 0.  0.
         25    1    1    2    0    0 -0.44086596415E+02 -0.11288120530E+03 -0.97363364448E+03  0.98907697788E+03  0.12500000000E+03 0.  0.
</event>
<event>
 5    0  0.5503691E-005  0.3872863E+03  0.7546771E-02  0.1048273E+00
         21   -1    0    0  502  501  0.00000000000E+00  0.00000000000E+00  0.30808224695E+03  0.30808224695E+03  0.00000000000E+00 0. -1.
         21   -1    0    0  501  502 -0.00000000000E+00 -0.00000000000E+00 -0.48685267951E+03  0.48685267951E+03  0.00000000000E+00 0. -1.
         25    1    1    2    0    0 -0.97763961113E+02  0.48710626792E+02 -0.15445125069E+03  0.22673929102E+03  0.12500000000E+03 0.  0.
         25    1    1    2    0    0 -0.11891667119E+03 -0.10976364705E+03  0.15314158935E+03  0.25547324574E+03  0.12500000000E+03 0.  0.
         25    1    1    2    0    0  0.21668063231E+03  0.61053020261E+02 -0.17746077121E+03  0.31272238970E+03  0.12500000000E+03 0.  0.
</event>
<event>
 5    0  0.5557143E-005  0.6764640E+03  0.7546771E-02  0.9758351E-01
         21   -1    0    0  502  501  0.00000000000E+00  0.00000000000E+00  0.83399974441E+03  0.83399974441E+03  0.00000000000E+00 0. -1.
         21   -1    0    0  501  502 -0.00000000000E+00 -0.00000000000E+00 -0.54868544793E+03  0.54868544793E+03  0.00000000000E+00 0. -1.
         25    1    1    2    0    0  0.85819369641E+02 -0.45746467577E+03  0.22420278733E+03  0.53153624865E+03  0.12500000000E+03 0.  0.
         25    1    1    2    0    0  0.28508018686E+03  0.14470601051E+03 -0.18900179565E+02  0.34379173812E+03  0.12500000000E+03 0.  0.
         25    1    1    2    0    0 -0.37089955650E+03  0.31275866527E+03  0.80011688715E+02  0.50735720557E+03  0.12500000000E+03 0.  0.
</event>
<event>
 5    0  0.5503691E-005  0.4077376E+03  0.7546771E-02  0.1041133E+00
         21   -1    0    0  502  501  0.00000000000E+00  0.00000000000E+00  0.41885751402E+03  0.41885751402E+03  0.00000000000E+00 0. -1.
         21   -1    0    0  501  502 -0.00000000000E+00 -0.00000000000E+00 -0.39691281458E+03  0.39691281458E+03  0.00000000000E+00 0. -1.
         25    1    1    2    0    0  0.11436051445E+03  0.12483481400E+03 -0.19901415931E+03  0.28964408100E+03  0.12500000000E+03 0.  0.
         25    1    1    2    0    0  0.88890378490E+02 -0.64636110984E+02 -0.36042648448E+02  0.17030384241E+03  0.12500000000E+03 0.  0.
         25    1    1    2    0    0 -0.20325089294E+03 -0.60198703020E+02  0.25700150721E+03  0.35582240519E+03  0.12500000000E+03 0.  0.
</event>
<event>
 5    0  0.5503691E-005  0.4852797E+03  0.7546771E-02  0.1017694E+00
         21   -1    0    0  502  501  0.00000000000E+00  0.00000000000E+00  0.54163834936E+03  0.54163834936E+03  0.00000000000E+00 0.  1.
         21   -1    0    0  501  502 -0.00000000000E+00 -0.00000000000E+00 -0.43478526807E+03  0.43478526807E+03  0.00000000000E+00 0.  1.
         25    1    1    2    0    0 -0.17585453472E+03 -0.28169605312E+03  0.29156683603E+03  0.45925341980E+03  0.12500000000E+03 0.  0.
         25    1    1    2    0    0  0.14523326264E+02  0.25382423045E+02  0.21316352977E+02  0.13013293707E+03  0.12500000000E+03 0.  0.
         25    1    1    2    0    0  0.16133120845E+03  0.25631363007E+03 -0.20603010772E+03  0.38703726057E+03  0.12500000000E+03 0.  0.
</event>
<event>
 5    0  0.5690596E-005  0.2757690E+03  0.7546771E-02  0.1098023E+00
         21   -1    0    0  502  501  0.00000000000E+00  0.00000000000E+00  0.19879906645E+03  0.19879906645E+03  0.00000000000E+00 0.  1.
         21   -1    0    0  501  502 -0.00000000000E+00 -0.00000000000E+00 -0.38253971689E+03  0.38253971689E+03  0.00000000000E+00 0.  1.
         25    1    1    2    0    0 -0.15142385133E+02 -0.49208961989E+02  0.24496477126E+02  0.13738955986E+03  0.12500000000E+03 0.  0.
         25    1    1    2    0    0 -0.97170283819E+02  0.12909639987E+03 -0.12972946775E+03  0.24199727130E+03  0.12500000000E+03 0.  0.
         25    1    1    2    0    0  0.11231266895E+03 -0.79887437879E+02 -0.78507659819E+02  0.20195195218E+03  0.12500000000E+03 0.  0.
</event>
<event>
 5    0  0.5503691E-005  0.2704255E+03  0.7546771E-02  0.1101036E+00
         21   -1    0    0  502  501  0.00000000000E+00  0.00000000000E+00  0.47522977935E+02  0.47522977935E+02  0.00000000000E+00 0. -1.
         21   -1    0    0  501  502 -0.00000000000E+00 -0.00000000000E+00 -0.15388333542E+04  0.15388333542E+04  0.00000000000E+00 0. -1.
         25    1    1    2    0    0  0.35329851826E+02 -0.51269571008E+01 -0.14734000538E+03  0.19649061379E+03  0.12500000000E+03 0.  0.
         25    1    1    2    0    0 -0.87271895292E+02  0.75747100932E+02 -0.98764996573E+03  0.10022132816E+04  0.12500000000E+03 0.  0.
         25    1    1    2    0    0  0.51942043466E+02 -0.70620143831E+02 -0.35632040519E+03  0.38765243679E+03  0.12500000000E+03 0.  0.
</event>
<event>
 5    0  0.5503691E-005  0.3390333E+03  0.7546771E-02  0.1067208E+00
         21   -1    0    0  502  501  0.00000000000E+00  0.00000000000E+00  0.66412886944E+03  0.66412886944E+03  0.00000000000E+00 0. -1.
         21   -1    0    0  501  502 -0.00000000000E+00 -0.00000000000E+00 -0.17307420648E+03  0.17307420648E+03  0.00000000000E+00 0. -1.
         25    1    1    2    0    0 -0.65709954221E+00  0.22402349888E+03  0.11837539407E+03  0.28253264192E+03  0.12500000000E+03 0.  0.
         25    1    1    2    0    0 -0.41888117108E+02 -0.16289133489E+03  0.34924278702E+03  0.40728825864E+03  0.12500000000E+03 0.  0.
         25    1    1    2    0    0  0.42545216651E+02 -0.61132163986E+02  0.23436481867E+02  0.14738217537E+03  0.12500000000E+03 0.  0.
</event>
<event>
 5    0  0.5503691E-005  0.2784587E+03  0.7546771E-02  0.1096534E+00
         21   -1    0    0  502  501  0.00000000000E+00  0.00000000000E+00  0.14097574143E+03  0.14097574143E+03  0.00000000000E+00 0. -1.
         21   -1    0    0  501  502 -0.00000000000E+00 -0.00000000000E+00 -0.55001824418E+03  0.55001824418E+03  0.00000000000E+00 0. -1.
         25    1    1    2    0    0  0.74787131140E+02  0.57807089849E+02 -0.32236570930E+03  0.35844026720E+03  0.12500000000E+03 0.  0.
         25    1    1    2    0    0  0.19534491071E+01  0.44919037692E+02 -0.76272524654E+02  0.15317974386E+03  0.12500000000E+03 0.  0.
         25    1    1    2    0    0 -0.76740580247E+02 -0.10272612754E+03 -0.10404268803E+02  0.17937397455E+03  0.12500000000E+03 0.  0.
</event>
<event>
 5    0  0.5503691E-005  0.2440133E+03  0.7546771E-02  0.1117148E+00
         21   -1    0    0  502  501  0.00000000000E+00  0.00000000000E+00  0.49051441713E+03  0.49051441713E+03  0.00000000000E+00 0. -1.
         21   -1    0    0  501  502 -0.00000000000E+00 -0.00000000000E+00 -0.12138782805E+03  0.12138782805E+03  0.00000000000E+00 0. -1.
         25    1    1    2    0    0  0.90203340959E+02 -0.94586597662E+02  0.21184992094E+03  0.27854740383E+03  0.12500000000E+03 0.  0.
         25    1    1    2    0    0 -0.71784968358E+02  0.22308337172E+02  0.10039594925E+03  0.17707368584E+03  0.12500000000E+03 0.  0.
         25    1    1    2    0    0 -0.18418372601E+02  0.72278260489E+02  0.56880718883E+02  0.15628115552E+03  0.12500000000E+03 0.  0.
</event>
<event>
 5    0  0.5503691E-005  0.2023533E+03  0.7546771E-02  0.1147769E+00
         21   -1    0    0  502  501  0.00000000000E+00  0.00000000000E+00  0.16246003791E+03  0.16246003791E+03  0.00000000000E+00 0. -1.
         21   -1    0    0  501  502 -0.00000000000E+00 -0.00000000000E+00 -0.25204272765E+03  0.25204272765E+03  0.00000000000E+00 0. -1.
         25    1    1    2    0    0  0.10683876113E+01  0.19522321305E+02 -0.70883348486E+02  0.14502314151E+03  0.12500000000E+03 0.  0.
         25    1    1    2    0    0 -0.31646586243E+00 -0.58245190520E+02 -0.12513079741E+02  0.13847086168E+03  0.12500000000E+03 0.  0.
         25    1    1    2    0    0 -0.75192174886E+00  0.38722869215E+02 -0.61862615107E+01  0.13100876237E+03  0.12500000000E+03 0.  0.
</event>
<event>
 5    0  0.5503691E-005  0.3267097E+03  0.7546771E-02  0.1072602E+00
         21   -1    0    0  502  501  0.00000000000E+00  0.00000000000E+00  0.28877319320E+03  0.28877319320E+03  0.00000000000E+00 0.  1.
         21   -1    0    0  501  502 -0.00000000000E+00 -0.00000000000E+00 -0.36963004197E+03  0.36963004197E+03  0.00000000000E+00 0.  1.
         25    1    1    2    0    0  0.74560992846E+02 -0.76957360337E+02 -0.18661247027E+03  0.24885938002E+03  0.12500000000E+03 0.  0.
         25    1    1    2    0    0 -0.17468807809E+03  0.86857487011E+02  0.35619766665E+02  0.23442251482E+03  0.12500000000E+03 0.  0.
         25    1    1    2    0    0  0.10012708524E+03 -0.99001266739E+01  0.70135854832E+02  0.17512134033E+03  0.12500000000E+03 0.  0.
</event>
<event>
 5    0  0.5503691E-005  0.3283305E+03  0.7546771E-02  0.1071878E+00
         21   -1    0    0  502  501  0.00000000000E+00  0.00000000000E+00  0.10961262998E+04  0.10961262998E+04  0.00000000000E+00 0.  1.
         21   -1    0    0  501  502 -0.00000000000E+00 -0.00000000000E+00 -0.98347153577E+02  0.98347153577E+02  0.00000000000E+00 0.  1.
         25    1    1    2    0    0  0.22270122702E+01 -0.47649766143E+02  0.24839801722E+02  0.13607893131E+03  0.12500000000E+03 0.  0.
         25    1    1    2    0    0 -0.53692816045E+01  0.14779784388E+03  0.79811174332E+03  0.82126754877E+03  0.12500000000E+03 0.  0.
         25    1    1    2    0    0  0.31422693342E+01 -0.10014807773E+03  0.17482760119E+03  0.23712697330E+03  0.12500000000E+03 0.  0.
</event>
<event>
 5    0  0.5503691E-005  0.2471187E+03  0.7546771E-02  0.1115139E+00
         21   -1    0    0  502  501  0.00000000000E+00  0.00000000000E+00  0.73129017664E+03  0.73129017664E+03  0.00000000000E+00 0.  1.
         21   -1    0    0  501  502 -0.00000000000E+00 -0.00000000000E+00 -0.83506732125E+02  0.83506732125E+02  0.00000000000E+00 0.  1.
         25    1    1    2    0    0  0.97418966205E+02 -0.90763647176E+02  0.14733000555E+03  0.23464787482E+03  0.12500000000E+03 0.  0.
         25    1    1    2    0    0 -0.78595760495E+02  0.40760195347E+02  0.21507795476E+03  0.26404964252E+03  0.12500000000E+03 0.  0.
         25    1    1    2    0    0 -0.18823205710E+02  0.50003451829E+02  0.28537548421E+03  0.31609939142E+03  0.12500000000E+03 0.  0.
</event>
<event>
 5    0  0.5503691E-005  0.2865904E+03  0.7546771E-02  0.1092143E+00
         21   -1    0    0  502  501  0.00000000000E+00  0.00000000000E+00  0.11316723953E+04  0.11316723953E+04  0.00000000000E+00 0. -1.
         21   -1    0    0  501  502 -0.00000000000E+00 -0.00000000000E+00 -0.72577609848E+02  0.72577609848E+02  0.00000000000E+00 0. -1.
         25    1    1    2    0    0  0.15679147579E+02 -0.12728191870E+03  0.34372042215E+03  0.38757612298E+03  0.12500000000E+03 0.  0.
         25    1    1    2    0    0 -0.35893303753E+02 -0.11329246077E+02  0.55380150844E+03  0.56897960580E+03  0.12500000000E+03 0.  0.
         25    1    1    2    0    0  0.20214156173E+02  0.13861116478E+03  0.16157285483E+03  0.24769427633E+03  0.12500000000E+03 0.  0.
</event>
<event>
 5    0  0.5503691E-005  0.2908183E+03  0.7546771E-02  0.1089923E+00
         21   -1    0    0  502  501  0.00000000000E+00  0.00000000000E+00  0.18119354828E+03  0.18119354828E+03  0.00000000000E+00 0. -1.
         21   -1    0    0  501  502 -0.00000000000E+00 -0.00000000000E+00 -0.46676760501E+03  0.46676760501E+03  0.00000000000E+00 0. -1.
         25    1    1    2    0    0  0.80031156176E+02  0.16648936517E+03 -0.11592905004E+03  0.25137270997E+03  0.12500000000E+03 0.  0.
         25    1    1    2    0    0 -0.68779223569E+02 -0.16588420520E+03 -0.15931825515E+03  0.27065745427E+03  0.12500000000E+03 0.  0.
         25    1    1    2    0    0 -0.11251932607E+02 -0.60515997641E+00 -0.10326751545E+02  0.12593098905E+03  0.12500000000E+03 0.  0.
</event>
<event>
 5    0  0.5503691E-005  0.2651336E+03  0.7546771E-02  0.1104098E+00
         21   -1    0    0  502  501  0.00000000000E+00  0.00000000000E+00  0.19906794539E+03  0.19906794539E+03  0.00000000000E+00 0.  1.
         21   -1    0    0  501  502 -0.00000000000E+00 -0.00000000000E+00 -0.35312468383E+03  0.35312468383E+03  0.00000000000E+00 0.  1.
         25    1    1    2    0    0 -0.12206110397E+03 -0.92783443868E+02 -0.95759178924E+02  0.21977829944E+03  0.12500000000E+03 0.  0.
         25    1    1    2    0    0  0.12849231473E+03  0.34430564389E+02 -0.65395805822E-01  0.18253970249E+03  0.12500000000E+03 0.  0.
         25    1    1    2    0    0 -0.64312107674E+01  0.58352879479E+02 -0.58232163707E+02  0.14987462729E+03  0.12500000000E+03 0.  0.
</event>
<event>
 5    0  0.5503691E-005  0.3583219E+03  0.7546771E-02  0.1059250E+00
         21   -1    0    0  502  501  0.00000000000E+00  0.00000000000E+00  0.61556970682E+03  0.61556970682E+03  0.00000000000E+00 0. -1.
         21   -1    0    0  501  502 -0.00000000000E+00 -0.00000000000E+00 -0.20857846227E+03  0.20857846227E+03  0.00000000000E+00 0. -1.
         25    1    1    2    0    0  0.10254163258E+03 -0.38074494925E+02 -0.34917160399E+02  0.16973114524E+03  0.12500000000E+03 0.  0.
         25    1    1    2    0    0 -0.20160258916E+03  0.14439475323E+03  0.33429193395E+03  0.43459123993E+03  0.12500000000E+03 0.  0.
         25    1    1    2    0    0  0.99060956581E+02 -0.10632025830E+03  0.10761647100E+03  0.21982578392E+03  0.12500000000E+03 0.  0.
</event>
<event>
 5    0  0.6101210E-005  0.6538803E+03  0.7546771E-02  0.9799525E-01
         21   -1    0    0  502  501  0.00000000000E+00  0.00000000000E+00  0.46997045525E+03  0.46997045525E+03  0.00000000000E+00 0. -1.
         21   -1    0    0  501  502 -0.00000000000E+00 -0.00000000000E+00 -0.90975811200E+03  0.90975811200E+03  0.00000000000E+00 0. -1.
         25    1    1    2    0    0 -0.82852224057E+02  0.22914174566E+03 -0.31822500883E+03  0.41983638108E+03  0.12500000000E+03 0.  0.
         25    1    1    2    0    0 -0.15000102378E+03 -0.48666936084E+03 -0.23387927894E+03  0.57417061144E+03  0.12500000000E+03 0.  0.
         25    1    1    2    0    0  0.23285324784E+03  0.25752761518E+03  0.11231663101E+03  0.38572157473E+03  0.12500000000E+03 0.  0.
</event>
<event>
 5    0  0.5503691E-005  0.2821365E+03  0.7546771E-02  0.1094528E+00
         21   -1    0    0  502  501  0.00000000000E+00  0.00000000000E+00  0.51913615501E+03  0.51913615501E+03  0.00000000000E+00 0. -1.
         21   -1    0    0  501  502 -0.00000000000E+00 -0.00000000000E+00 -0.15333362736E+03  0.15333362736E+03  0.00000000000E+00 0. -1.
         25    1    1    2    0    0  0.40033099465E+02  0.15618963389E+02  0.23874894840E+03  0.27289679630E+03  0.12500000000E+03 0.  0.
         25    1    1    2    0    0 -0.15435411477E+03 -0.40078194739E+02  0.10116726313E+03  0.22647575934E+03  0.12500000000E+03 0.  0.
         25    1    1    2    0    0  0.11432101531E+03  0.24459231350E+02  0.25886316122E+02  0.17309722673E+03  0.12500000000E+03 0.  0.
</event>
<event>
 5    0  0.5503691E-005  0.2966747E+03  0.7546771E-02  0.1086915E+00
         21   -1    0    0  502  501  0.00000000000E+00  0.00000000000E+00  0.63236332447E+03  0.63236332447E+03  0.00000000000E+00 0. -1.
         21   -1    0    0  501  502 -0.00000000000E+00 -0.00000000000E+00 -0.13918561101E+03  0.13918561101E+03  0.00000000000E+00 0. -1.
         25    1    1    2    0    0  0.80328535107E+02  0.26891347228E+02  0.14321817548E+03  0.20811598664E+03  0.12500000000E+03 0.  0.
         25    1    1    2    0    0 -0.18368297310E+03 -0.73133701180E+02  0.31304677707E+03  0.39078287768E+03  0.12500000000E+03 0.  0.
         25    1    1    2    0    0  0.10335443799E+03  0.46242353952E+02  0.36912760909E+02  0.17265007115E+03  0.12500000000E+03 0.  0.
</event>
<event>
 5    0  0.5503691E-005  0.2463654E+03  0.7546771E-02  0.1115624E+00
         21   -1    0    0  502  501  0.00000000000E+00  0.00000000000E+00  0.84754317738E+02  0.84754317738E+02  0.00000000000E+00 0.  1.
         21   -1    0    0  501  502 -0.00000000000E+00 -0.00000000000E+00 -0.71613973676E+03  0.71613973676E+03  0.00000000000E+00 0.  1.
         25    1    1    2    0    0  0.34725947264E+02 -0.82831719912E+02 -0.23776364259E+03  0.28323759456E+03  0.12500000000E+03 0.  0.
         25    1    1    2    0    0 -0.11165882297E+03  0.62266219713E+01 -0.16408698283E+03  0.23464015322E+03  0.12500000000E+03 0.  0.
         25    1    1    2    0    0  0.76932875703E+02  0.76605097940E+02 -0.22953479361E+03  0.28301630672E+03  0.12500000000E+03 0.  0.
</event>
<event>
 5    0  0.5503691E-005  0.3913463E+03  0.7546771E-02  0.1046818E+00
         21   -1    0    0  502  501  0.00000000000E+00  0.00000000000E+00  0.59631458444E+03  0.59631458444E+03  0.00000000000E+00 0. -1.
         21   -1    0    0  501  502 -0.00000000000E+00 -0.00000000000E+00 -0.25683075446E+03  0.25683075446E+03  0.00000000000E+00 0. -1.
         25    1    1    2    0    0  0.85997391195E+02  0.17755099629E+03  0.33175646950E+03  0.40571820594E+03  0.12500000000E+03 0.  0.
         25    1    1    2    0    0 -0.14417970915E+01 -0.95604978008E+02  0.15522856889E+03  0.22105044492E+03  0.12500000000E+03 0.  0.
         25    1    1    2    0    0 -0.84555594103E+02 -0.81946018283E+02 -0.14750120841E+03  0.22637668804E+03  0.12500000000E+03 0.  0.
</event>
<event>
 5    0  0.5503691E-005  0.3470758E+03  0.7546771E-02  0.1063822E+00
         21   -1    0    0  502  501  0.00000000000E+00  0.00000000000E+00  0.85430519811E+03  0.85430519811E+03  0.00000000000E+00 0.  1.
         21   -1    0    0  501  502 -0.00000000000E+00 -0.00000000000E+00 -0.14100537994E+03  0.14100537994E+03  0.00000000000E+00 0.  1.
         25    1    1    2    0    0  0.97892061734E+02  0.17124441188E+03  0.55399388148E+03  0.60120023708E+03  0.12500000000E+03 0.  0.
         25    1    1    2    0    0 -0.59198966432E+02 -0.34636926244E+02 -0.62664520470E+01  0.14271826340E+03  0.12500000000E+03 0.  0.
         25    1    1    2    0    0 -0.38693095302E+02 -0.13660748564E+03  0.16557238873E+03  0.25139207758E+03  0.12500000000E+03 0.  0.
</event>
<event>
 5    0  0.5503691E-005  0.5516703E+03  0.7546771E-02  0.1001108E+00
         21   -1    0    0  502  501  0.00000000000E+00  0.00000000000E+00  0.19707345417E+03  0.19707345417E+03  0.00000000000E+00 0. -1.
         21   -1    0    0  501  502 -0.00000000000E+00 -0.00000000000E+00 -0.15442979138E+04  0.15442979138E+04  0.00000000000E+00 0. -1.
         25    1    1    2    0    0  0.12916467169E+03  0.27695974443E+03 -0.45301001632E+02  0.33326775001E+03  0.12500000000E+03 0.  0.
         25    1    1    2    0    0 -0.17382440669E+03  0.15117045648E+02 -0.56369206228E+03  0.60317260424E+03  0.12500000000E+03 0.  0.
         25    1    1    2    0    0  0.44659735000E+02 -0.29207679007E+03 -0.73823139568E+03  0.80493101369E+03  0.12500000000E+03 0.  0.
</event>
<event>
 5    0  0.5503691E-005  0.3031542E+03  0.7546771E-02  0.1083674E+00
         21   -1    0    0  502  501  0.00000000000E+00  0.00000000000E+00  0.14157417183E+03  0.14157417183E+03  0.00000000000E+00 0.  1.
         21   -1    0    0  501  502 -0.00000000000E+00 -0.00000000000E+00 -0.64914698477E+03  0.64914698477E+03  0.00000000000E+00 0.  1.
         25    1    1    2    0    0  0.12239044999E+03 -0.78369968172E+02 -0.17825387140E+03  0.26176462104E+03  0.12500000000E+03 0.  0.
         25    1    1    2    0    0 -0.11120530843E+03 -0.31743976636E+02 -0.12392494421E+02  0.17074212893E+03  0.12500000000E+03 0.  0.
         25    1    1    2    0    0 -0.11185141568E+02  0.11011394481E+03 -0.31692644712E+03  0.35821440663E+03  0.12500000000E+03 0.  0.
</event>
<event>
 5    0  0.6360935E-005  0.2824316E+03  0.7546771E-02  0.1094368E+00
         21   -1    0    0  502  501  0.00000000000E+00  0.00000000000E+00  0.21321390953E+03  0.21321390953E+03  0.00000000000E+00 0.  1.
         21   -1    0    0  501  502 -0.00000000000E+00 -0.00000000000E+00 -0.37412013474E+03  0.37412013474E+03  0.00000000000E+00 0.  1.
         25    1    1    2    0    0  0.12762023319E+03 -0.23083231370E+02  0.17032398894E+00  0.18012436953E+03  0.12500000000E+03 0.  0.
         25    1    1    2    0    0 -0.15427158102E+02 -0.90771117892E+02 -0.12574276369E+02  0.15575784242E+03  0.12500000000E+03 0.  0.
         25    1    1    2    0    0 -0.11219307508E+03  0.11385434926E+03 -0.14850227283E+03  0.25145183232E+03  0.12500000000E+03 0.  0.
</event>
<event>
 5    0  0.5503691E-005  0.2524449E+03  0.7546771E-02  0.1111769E+00
         21   -1    0    0  502  501  0.00000000000E+00  0.00000000000E+00  0.22871127968E+03  0.22871127968E+03  0.00000000000E+00 0.  1.
         21   -1    0    0  501  502 -0.00000000000E+00 -0.00000000000E+00 -0.27864144196E+03  0.27864144196E+03  0.00000000000E+00 0.  1.
         25    1    1    2    0    0  0.10880117327E+02  0.61765620785E+02 -0.11151589218E+03  0.17886912275E+03  0.12500000000E+03 0.  0.
         25    1    1    2    0    0  0.91083433736E+02 -0.39937564336E+02  0.35317286576E+02  0.16359557353E+03  0.12500000000E+03 0.  0.
         25    1    1    2    0    0 -0.10196355106E+03 -0.21828056449E+02  0.26268443320E+02  0.16488802536E+03  0.12500000000E+03 0.  0.
</event>
<event>
 5    0  0.5503691E-005  0.3322217E+03  0.7546771E-02  0.1070158E+00
         21   -1    0    0  502  501  0.00000000000E+00  0.00000000000E+00  0.83781414263E+02  0.83781414263E+02  0.00000000000E+00 0. -1.
         21   -1    0    0  501  502 -0.00000000000E+00 -0.00000000000E+00 -0.13173716541E+04  0.13173716541E+04  0.00000000000E+00 0. -1.
         25    1    1    2    0    0  0.13127522147E+03 -0.11376437885E+03 -0.40013855726E+03  0.45377459456E+03  0.12500000000E+03 0.  0.
         25    1    1    2    0    0 -0.63392341542E+02  0.13802679693E+03 -0.76080847976E+03  0.78582728924E+03  0.12500000000E+03 0.  0.
         25    1    1    2    0    0 -0.67882879930E+02 -0.24262418081E+02 -0.72643202825E+02  0.16155118457E+03  0.12500000000E+03 0.  0.
</event>
<event>
 5    0  0.5503691E-005  0.3205710E+03  0.7546771E-02  0.1075387E+00
         21   -1    0    0  502  501  0.00000000000E+00  0.00000000000E+00  0.21013978295E+03  0.21013978295E+03  0.00000000000E+00 0.  1.
         21   -1    0    0  501  502 -0.00000000000E+00 -0.00000000000E+00 -0.48903514974E+03  0.48903514974E+03  0.00000000000E+00 0.  1.
         25    1    1    2    0    0  0.14080177019E+03 -0.94046973641E+02 -0.28817639346E+03  0.35684815466E+03  0.12500000000E+03 0.  0.
         25    1    1    2    0    0 -0.52917068554E+02  0.19888943861E+02 -0.70988032994E+02  0.15446710673E+03  0.12500000000E+03 0.  0.
         25    1    1    2    0    0 -0.87884701633E+02  0.74158029780E+02  0.80269059663E+02  0.18785967130E+03  0.12500000000E+03 0.  0.
</event>
<event>
 5    0  0.5503691E-005  0.3105932E+03  0.7546771E-02  0.1080062E+00
         21   -1    0    0  502  501  0.00000000000E+00  0.00000000000E+00  0.41732679420E+03  0.41732679420E+03  0.00000000000E+00 0.  1.
         21   -1    0    0  501  502 -0.00000000000E+00 -0.00000000000E+00 -0.23115728636E+03  0.23115728636E+03  0.00000000000E+00 0.  1.
         25    1    1    2    0    0  0.72629537872E+02  0.12633131660E+03 -0.15907100619E+02  0.19264653429E+03  0.12500000000E+03 0.  0.
         25    1    1    2    0    0 -0.62610839758E+02 -0.76471313776E+02 -0.52439139777E+02  0.16775828584E+03  0.12500000000E+03 0.  0.
         25    1    1    2    0    0 -0.10018698114E+02 -0.49860002823E+02  0.25451574823E+03  0.28807926044E+03  0.12500000000E+03 0.  0.
</event>
<event>
 5    0  0.5503691E-005  0.4583689E+03  0.7546771E-02  0.1025255E+00
         21   -1    0    0  502  501  0.00000000000E+00  0.00000000000E+00  0.14159296283E+03  0.14159296283E+03  0.00000000000E+00 0. -1.
         21   -1    0    0  501  502 -0.00000000000E+00 -0.00000000000E+00 -0.14838455088E+04  0.14838455088E+04  0.00000000000E+00 0. -1.
         25    1    1    2    0    0 -0.11652383870E+02  0.36867359561E+02  0.34264955582E+02  0.13525556340E+03  0.12500000000E+03 0.  0.
         25    1    1    2    0    0  0.30174443190E+02  0.42097790804E+02 -0.13259381843E+04  0.13328239905E+04  0.12500000000E+03 0.  0.
         25    1    1    2    0    0 -0.18522059320E+02 -0.78965150365E+02 -0.50579317219E+02  0.15735891771E+03  0.12500000000E+03 0.  0.
</event>
<event>
 5    0  0.5503691E-005  0.2788979E+03  0.7546771E-02  0.1096292E+00
         21   -1    0    0  502  501  0.00000000000E+00  0.00000000000E+00  0.72926146526E+03  0.72926146526E+03  0.00000000000E+00 0.  1.
         21   -1    0    0  501  502 -0.00000000000E+00 -0.00000000000E+00 -0.10666135938E+03  0.10666135938E+03  0.00000000000E+00 0.  1.
         25    1    1    2    0    0  0.29356868197E+02 -0.10357967197E+03  0.16018953756E+03  0.22994839008E+03  0.12500000000E+03 0.  0.
         25    1    1    2    0    0 -0.47546602644E+02  0.14563732703E+03  0.42331798035E+03  0.46721945907E+03  0.12500000000E+03 0.  0.
         25    1    1    2    0    0  0.18189734447E+02 -0.42057655061E+02  0.39092587966E+02  0.13875497549E+03  0.12500000000E+03 0.  0.
</event>
<event>
 5    0  0.5503691E-005  0.2550868E+03  0.7546771E-02  0.1110132E+00
         21   -1    0    0  502  501  0.00000000000E+00  0.00000000000E+00  0.13944562413E+03  0.13944562413E+03  0.00000000000E+00 0. -1.
         21   -1    0    0  501  502 -0.00000000000E+00 -0.00000000000E+00 -0.46662828858E+03  0.46662828858E+03  0.00000000000E+00 0. -1.
         25    1    1    2    0    0 -0.51855389473E+02 -0.36846458951E+02 -0.85951977219E+02  0.16449737184E+03  0.12500000000E+03 0.  0.
         25    1    1    2    0    0 -0.79004681473E+02 -0.65683668107E+02 -0.10156971066E+03  0.19104316286E+03  0.12500000000E+03 0.  0.
         25    1    1    2    0    0  0.13086007095E+03  0.10253012706E+03 -0.13966097657E+03  0.25053337801E+03  0.12500000000E+03 0.  0.
</event>
<event>
 5    0  0.5503691E-005  0.2125103E+03  0.7546771E-02  0.1139593E+00
         21   -1    0    0  502  501  0.00000000000E+00  0.00000000000E+00  0.51017874007E+03  0.51017874007E+03  0.00000000000E+00 0. -1.
         21   -1    0    0  501  502 -0.00000000000E+00 -0.00000000000E+00 -0.88519259063E+02  0.88519259063E+02  0.00000000000E+00 0. -1.
         25    1    1    2    0    0 -0.20433688345E+02  0.71369049926E+02  0.98851591790E+02  0.17580589895E+03  0.12500000000E+03 0.  0.
         25    1    1    2    0    0  0.24732485525E+02  0.30626576285E+01  0.15847261047E+03  0.20337070581E+03  0.12500000000E+03 0.  0.
         25    1    1    2    0    0 -0.42987971797E+01 -0.74431707554E+02  0.16433527874E+03  0.21952139437E+03  0.12500000000E+03 0.  0.
</event>
<event>
 5    0  0.5503691E-005  0.4302932E+03  0.7546771E-02  0.1033767E+00
         21   -1    0    0  502  501  0.00000000000E+00  0.00000000000E+00  0.12299367192E+03  0.12299367192E+03  0.00000000000E+00 0. -1.
         21   -1    0    0  501  502 -0.00000000000E+00 -0.00000000000E+00 -0.15053798962E+04  0.15053798962E+04  0.00000000000E+00 0. -1.
         25    1    1    2    0    0  0.36768462523E+03 -0.15059963222E+02 -0.69652591082E+03  0.79761653103E+03  0.12500000000E+03 0.  0.
         25    1    1    2    0    0 -0.16810311599E+03  0.80163701693E+02 -0.33882299939E+03  0.40633840772E+03  0.12500000000E+03 0.  0.
         25    1    1    2    0    0 -0.19958150923E+03 -0.65103738472E+02 -0.34703731406E+03  0.42441862935E+03  0.12500000000E+03 0.  0.
</event>
<event>
 5    0  0.5503691E-005  0.2483674E+03  0.7546771E-02  0.1114341E+00
         21   -1    0    0  502  501  0.00000000000E+00  0.00000000000E+00  0.50415010922E+03  0.50415010922E+03  0.00000000000E+00 0. -1.
         21   -1    0    0  501  502 -0.00000000000E+00 -0.00000000000E+00 -0.12235710649E+03  0.12235710649E+03  0.00000000000E+00 0. -1.
         25    1    1    2    0    0  0.12692028819E+02 -0.76891252420E+02  0.10965918884E+03  0.18363956543E+03  0.12500000000E+03 0.  0.
         25    1    1    2    0    0 -0.16809694476E+02 -0.41935999274E+02  0.22942195625E+03  0.26514265570E+03  0.12500000000E+03 0.  0.
         25    1    1    2    0    0  0.41176656570E+01  0.11882725169E+03  0.42711857645E+02  0.17772499458E+03  0.12500000000E+03 0.  0.
</event>
<event>
 5    0  0.5503691E-005  0.3449553E+03  0.7546771E-02  0.1064705E+00
         21   -1    0    0  502  501  0.00000000000E+00  0.00000000000E+00  0.91465350406E+02  0.91465350406E+02  0.00000000000E+00 0.  1.
         21   -1    0    0  501  502 -0.00000000000E+00 -0.00000000000E+00 -0.13009750060E+04  0.13009750060E+04  0.00000000000E+00 0.  1.
         25    1    1    2    0    0  0.95768584423E+02 -0.31427425191E+02 -0.53645010760E+03  0.55996698364E+03  0.12500000000E+03 0.  0.
         25    1    1    2    0    0  0.13324853095E+03  0.67175609067E+02 -0.43868701809E+03  0.47993648881E+03  0.12500000000E+03 0.  0.
         25    1    1    2    0    0 -0.22901711537E+03 -0.35748183875E+02 -0.23437252994E+03  0.35253688399E+03  0.12500000000E+03 0.  0.
</event>
<event>
 5    0  0.5503691E-005  0.2566029E+03  0.7546771E-02  0.1109202E+00
         21   -1    0    0  502  501  0.00000000000E+00  0.00000000000E+00  0.17927673461E+04  0.17927673461E+04  0.00000000000E+00 0. -1.
         21   -1    0    0  501  502 -0.00000000000E+00 -0.00000000000E+00 -0.36728161884E+02  0.36728161884E+02  0.00000000000E+00 0. -1.
         25    1    1    2    0    0 -0.57522123491E+02  0.22825232532E+02  0.94609515277E+03  0.95632150662E+03  0.12500000000E+03 0.  0.
         25    1    1    2    0    0 -0.38236556558E+02 -0.79077320172E+02  0.30248675157E+03  0.33887828449E+03  0.12500000000E+03 0.  0.
         25    1    1    2    0    0  0.95758680049E+02  0.56252087640E+02  0.50745727985E+03  0.53429571685E+03  0.12500000000E+03 0.  0.
</event>
<event>
 5    0  0.5503691E-005  0.3712164E+03  0.7546771E-02  0.1054229E+00
         21   -1    0    0  502  501  0.00000000000E+00  0.00000000000E+00  0.23986835320E+03  0.23986835320E+03  0.00000000000E+00 0. -1.
         21   -1    0    0  501  502 -0.00000000000E+00 -0.00000000000E+00 -0.57448866764E+03  0.57448866764E+03  0.00000000000E+00 0. -1.
         25    1    1    2    0    0  0.45539998818E+00  0.10808380893E+03 -0.28220069630E+03  0.32702377610E+03  0.12500000000E+03 0.  0.
         25    1    1    2    0    0 -0.88054982036E+02  0.10337572362E+03  0.72334116318E+02  0.19823583046E+03  0.12500000000E+03 0.  0.
         25    1    1    2    0    0  0.87599582047E+02 -0.21145953255E+03 -0.12475373447E+03  0.28909741428E+03  0.12500000000E+03 0.  0.
</event>
<event>
 5    0  0.5503691E-005  0.2693548E+03  0.7546771E-02  0.1101649E+00
         21   -1    0    0  502  501  0.00000000000E+00  0.00000000000E+00  0.10450086637E+04  0.10450086637E+04  0.00000000000E+00 0.  1.
         21   -1    0    0  501  502 -0.00000000000E+00 -0.00000000000E+00 -0.69427208131E+02  0.69427208131E+02  0.00000000000E+00 0.  1.
         25    1    1    2    0    0  0.11415462141E+03 -0.65309487115E+02  0.26975326979E+03  0.32509757498E+03  0.12500000000E+03 0.  0.
         25    1    1    2    0    0 -0.10251093034E+03 -0.63253713751E+02  0.35484021903E+03  0.39502671325E+03  0.12500000000E+03 0.  0.
         25    1    1    2    0    0 -0.11643691078E+02  0.12856320087E+03  0.35098796679E+03  0.39431158364E+03  0.12500000000E+03 0.  0.
</event>
<event>
 5    0  0.5503691E-005  0.2486196E+03  0.7546771E-02  0.1114180E+00
         21   -1    0    0  502  501  0.00000000000E+00  0.00000000000E+00  0.14053399923E+04  0.14053399923E+04  0.00000000000E+00 0.  1.
         21   -1    0    0  501  502 -0.00000000000E+00 -0.00000000000E+00 -0.43983451222E+02  0.43983451222E+02  0.00000000000E+00 0.  1.
         25    1    1    2    0    0  0.98777013132E+01  0.10003651960E+03  0.47235187881E+03  0.49884483725E+03  0.12500000000E+03 0.  0.
         25    1    1    2    0    0  0.50055667157E+02 -0.83450295942E+02  0.24674455963E+03  0.29321902976E+03  0.12500000000E+03 0.  0.
         25    1    1    2    0    0 -0.59933368470E+02 -0.16586223656E+02  0.64226010263E+03  0.65725957650E+03  0.12500000000E+03 0.  0.
</event>
<event>
 5    0  0.5503691E-005  0.2667658E+03  0.7546771E-02  0.1103145E+00
         21   -1    0    0  502  501  0.00000000000E+00  0.00000000000E+00  0.36790656149E+03  0.36790656149E+03  0.00000000000E+00 0. -1.
         21   -1    0    0  501  502 -0.00000000000E+00 -0.00000000000E+00 -0.19342946263E+03  0.19342946263E+03  0.00000000000E+00 0. -1.
         25    1    1    2    0    0 -0.13933339457E+03 -0.74580557388E+02  0.39917402287E+02  0.20541288516E+03  0.12500000000E+03 0.  0.
         25    1    1    2    0    0  0.20237063363E+02 -0.10311598568E+02  0.11560455822E+02  0.12757159534E+03  0.12500000000E+03 0.  0.
         25    1    1    2    0    0  0.11909633121E+03  0.84892155956E+02  0.12299924075E+03  0.22835154363E+03  0.12500000000E+03 0.  0.
</event>
<event>
 5    0  0.5503691E-005  0.3282712E+03  0.7546771E-02  0.1071904E+00
         21   -1    0    0  502  501  0.00000000000E+00  0.00000000000E+00  0.26456494293E+04  0.26456494293E+04  0.00000000000E+00 0.  1.
         21   -1    0    0  501  502 -0.00000000000E+00 -0.00000000000E+00 -0.40731762163E+02  0.40731762163E+02  0.00000000000E+00 0.  1.
         25    1    1    2    0    0  0.16232161794E+02 -0.49173903081E+02  0.20011875455E+03  0.24156587455E+03  0.12500000000E+03 0.  0.
         25    1    1    2    0    0 -0.97791798991E+02  0.12245716262E+03  0.60485469665E+03  0.63720734199E+03  0.12500000000E+03 0.  0.
         25    1    1    2    0    0  0.81559637198E+02 -0.73283259542E+02  0.17999442160E+04  0.18076079750E+04  0.12500000000E+03 0.  0.
</event>
<event>
 5    0  0.5503691E-005  0.3009284E+03  0.7546771E-02  0.1084777E+00
         21   -1    0    0  502  501  0.00000000000E+00  0.00000000000E+00  0.10853779678E+04  0.10853779678E+04  0.00000000000E+00 0.  1.
         21   -1    0    0  501  502 -0.00000000000E+00 -0.00000000000E+00 -0.83434446208E+02  0.83434446208E+02  0.00000000000E+00 0.  1.
         25    1    1    2    0    0 -0.15207594237E+02  0.16168212524E+03  0.17003372650E+03  0.26628715457E+03  0.12500000000E+03 0.  0.
         25    1    1    2    0    0  0.10507354576E+02 -0.18122747632E+03  0.58288876871E+03  0.62316780995E+03  0.12500000000E+03 0.  0.
         25    1    1    2    0    0  0.47002396614E+01  0.19545351083E+02  0.24902102642E+03  0.27935744951E+03  0.12500000000E+03 0.  0.
</event>
<event>
 5    0  0.5503691E-005  0.3169765E+03  0.7546771E-02  0.1077049E+00
         21   -1    0    0  502  501  0.00000000000E+00  0.00000000000E+00  0.36050046790E+03  0.36050046790E+03  0.00000000000E+00 0.  1.
         21   -1    0    0  501  502 -0.00000000000E+00 -0.00000000000E+00 -0.27870723588E+03  0.27870723588E+03  0.00000000000E+00 0.  1.
         25    1    1    2    0    0 -0.56663223122E+02  0.11410160399E+03  0.17842457429E+02  0.17936903349E+03  0.12500000000E+03 0.  0.
         25    1    1    2    0    0 -0.14055514965E+03 -0.17577392979E+02 -0.27971564311E+02  0.19097676102E+03  0.12500000000E+03 0.  0.
         25    1    1    2    0    0  0.19721837278E+03 -0.96524211011E+02  0.91922338898E+02  0.26886190928E+03  0.12500000000E+03 0.  0.
</event>
<event>
 5    0  0.5503691E-005  0.2437868E+03  0.7546771E-02  0.1117296E+00
         21   -1    0    0  502  501  0.00000000000E+00  0.00000000000E+00  0.41598525346E+03  0.41598525346E+03  0.00000000000E+00 0. -1.
         21   -1    0    0  501  502 -0.00000000000E+00 -0.00000000000E+00 -0.14287042084E+03  0.14287042084E+03  0.00000000000E+00 0. -1.
         25    1    1    2    0    0 -0.30392939301E+02  0.78355843737E+02  0.19968753199E+03  0.25012692665E+03  0.12500000000E+03 0.  0.
         25    1    1    2    0    0 -0.66901603638E+01 -0.20351690259E+01 -0.26001029068E+02  0.12786693737E+03  0.12500000000E+03 0.  0.
         25    1    1    2    0    0  0.37083099665E+02 -0.76320674711E+02  0.99428329710E+02  0.18086181028E+03  0.12500000000E+03 0.  0.
</event>
<event>
 5    0  0.6625723E-005  0.8450118E+03  0.7546771E-02  0.9497057E-01
         21   -1    0    0  502  501  0.00000000000E+00  0.00000000000E+00  0.51510018971E+03  0.51510018971E+03  0.00000000000E+00 0. -1.
         21   -1    0    0  501  502 -0.00000000000E+00 -0.00000000000E+00 -0.13862252645E+04  0.13862252645E+04  0.00000000000E+00 0. -1.
         25    1    1    2    0    0 -0.34562754559E+03 -0.21490260558E+03 -0.94490042223E+03  0.10363895687E+04  0.12500000000E+03 0.  0.
         25    1    1    2    0    0 -0.15276895413E+03  0.66913009937E+02  0.22751780211E+03  0.30855316320E+03  0.12500000000E+03 0.  0.
         25    1    1    2    0    0  0.49839649972E+03  0.14798959564E+03 -0.15374245470E+03  0.55638272235E+03  0.12500000000E+03 0.  0.
</event>
<event>
 5    0  0.5503691E-005  0.3541198E+03  0.7546771E-02  0.1060937E+00
         21   -1    0    0  502  501  0.00000000000E+00  0.00000000000E+00  0.71663718426E+03  0.71663718426E+03  0.00000000000E+00 0.  1.
         21   -1    0    0  501  502 -0.00000000000E+00 -0.00000000000E+00 -0.17498510573E+03  0.17498510573E+03  0.00000000000E+00 0.  1.
         25    1    1    2    0    0  0.15607387649E+03  0.14215173637E+02 -0.19056958968E+02  0.20136855208E+03  0.12500000000E+03 0.  0.
         25    1    1    2    0    0 -0.16786552501E+03 -0.10567833564E+03  0.24917485924E+03  0.34214011105E+03  0.12500000000E+03 0.  0.
         25    1    1    2    0    0  0.11791648526E+02  0.91463162005E+02  0.31153417826E+03  0.34811362686E+03  0.12500000000E+03 0.  0.
</event>
<event>
 5    0  0.5503691E-005  0.3166882E+03  0.7546771E-02  0.1077184E+00
         21   -1    0    0  502  501  0.00000000000E+00  0.00000000000E+00  0.26262712274E+03  0.26262712274E+03  0.00000000000E+00 0.  1.
         21   -1    0    0  501  502 -0.00000000000E+00 -0.00000000000E+00 -0.38187753890E+03  0.38187753890E+03  0.00000000000E+00 0.  1.
         25    1    1    2    0    0 -0.15497092389E+02  0.34406459232E+02 -0.11704521873E+03  0.17535263767E+03  0.12500000000E+03 0.  0.
         25    1    1    2    0    0 -0.17336527993E+03  0.49391526442E+02 -0.44923429968E+02  0.22391551471E+03  0.12500000000E+03 0.  0.
         25    1    1    2    0    0  0.18886237231E+03 -0.83797985673E+02  0.42718232540E+02  0.24523650925E+03  0.12500000000E+03 0.  0.
</event>
<event>
 5    0  0.5503691E-005  0.4523094E+03  0.7546771E-02  0.1027036E+00
         21   -1    0    0  502  501  0.00000000000E+00  0.00000000000E+00  0.14551036434E+04  0.14551036434E+04  0.00000000000E+00 0.  1.
         21   -1    0    0  501  502 -0.00000000000E+00 -0.00000000000E+00 -0.14059740205E+03  0.14059740205E+03  0.00000000000E+00 0.  1.
         25    1    1    2    0    0 -0.63258814111E+02 -0.74216684518E+02 -0.15993144435E+02  0.15934420131E+03  0.12500000000E+03 0.  0.
         25    1    1    2    0    0 -0.37684117207E+02  0.18724694911E+03  0.25159977018E+03  0.33971893823E+03  0.12500000000E+03 0.  0.
         25    1    1    2    0    0  0.10094293132E+03 -0.11303026459E+03  0.10788996156E+04  0.10966379059E+04  0.12500000000E+03 0.  0.
</event>
<event>
 5    0  0.5503691E-005  0.4742471E+03  0.7546771E-02  0.1020728E+00
         21   -1    0    0  502  501  0.00000000000E+00  0.00000000000E+00  0.11459039785E+04  0.11459039785E+04  0.00000000000E+00 0. -1.
         21   -1    0    0  501  502 -0.00000000000E+00 -0.00000000000E+00 -0.19627327590E+03  0.19627327590E+03  0.00000000000E+00 0. -1.
         25    1    1    2    0    0 -0.46334712032E+02  0.54833763310E+02  0.15722522976E+02  0.14500291330E+03  0.12500000000E+03 0.  0.
         25    1    1    2    0    0 -0.23849175129E+03  0.45731523852E+02  0.82722251965E+02  0.28537284152E+03  0.12500000000E+03 0.  0.
         25    1    1    2    0    0  0.28482646332E+03 -0.10056528716E+03  0.85118592762E+03  0.91180149954E+03  0.12500000000E+03 0.  0.
</event>
<event>
 5    0  0.5503691E-005  0.4331855E+03  0.7546771E-02  0.1032858E+00
         21   -1    0    0  502  501  0.00000000000E+00  0.00000000000E+00  0.89815548624E+02  0.89815548624E+02  0.00000000000E+00 0.  1.
         21   -1    0    0  501  502 -0.00000000000E+00 -0.00000000000E+00 -0.20892787888E+04  0.20892787888E+04  0.00000000000E+00 0.  1.
         25    1    1    2    0    0 -0.12887507980E+03 -0.11876415913E+02 -0.14827019481E+04  0.14935795601E+04  0.12500000000E+03 0.  0.
         25    1    1    2    0    0 -0.30566554377E+02 -0.55011396571E+02 -0.15583729542E+02  0.14081342488E+03  0.12500000000E+03 0.  0.
         25    1    1    2    0    0  0.15944163418E+03  0.66887812484E+02 -0.50117756251E+03  0.54470135243E+03  0.12500000000E+03 0.  0.
</event>
<event>
 5    0  0.5503691E-005  0.3717293E+03  0.7546771E-02  0.1054034E+00
         21   -1    0    0  502  501  0.00000000000E+00  0.00000000000E+00  0.80882871893E+02  0.80882871893E+02  0.00000000000E+00 0. -1.
         21   -1    0    0  501  502 -0.00000000000E+00 -0.00000000000E+00 -0.17084292299E+04  0.17084292299E+04  0.00000000000E+00 0. -1.
         25    1    1    2    0    0  0.14842844195E+03  0.99726556295E+01 -0.20092035058E+03  0.27950750172E+03  0.12500000000E+03 0.  0.
         25    1    1    2    0    0 -0.25195158861E+03 -0.10625917620E+03 -0.97597140440E+03  0.10212324896E+04  0.12500000000E+03 0.  0.
         25    1    1    2    0    0  0.10352314666E+03  0.96286520573E+02 -0.45065460305E+03  0.48857211053E+03  0.12500000000E+03 0.  0.
</event>
<event>
 5    0  0.5503691E-005  0.5723092E+03  0.7546771E-02  0.9964582E-01
         21   -1    0    0  502  501  0.00000000000E+00  0.00000000000E+00  0.21814319405E+03  0.21814319405E+03  0.00000000000E+00 0. -1.
         21   -1    0    0  501  502 -0.00000000000E+00 -0.00000000000E+00 -0.15014809120E+04  0.15014809120E+04  0.00000000000E+00 0. -1.
         25    1    1    2    0    0  0.15407270685E+03 -0.22498294070E+03 -0.15111944804E+03  0.33588362595E+03  0.12500000000E+03 0.  0.
         25    1    1    2    0    0 -0.23271342162E+03 -0.17119098330E+02 -0.55720072434E+02  0.27051492861E+03  0.12500000000E+03 0.  0.
         25    1    1    2    0    0  0.78640714769E+02  0.24210203903E+03 -0.10764981975E+04  0.11132255515E+04  0.12500000000E+03 0.  0.
</event>
<event>
 5    0  0.5503691E-005  0.2601808E+03  0.7546771E-02  0.1107035E+00
         21   -1    0    0  502  501  0.00000000000E+00  0.00000000000E+00  0.34995983736E+03  0.34995983736E+03  0.00000000000E+00 0.  1.
         21   -1    0    0  501  502 -0.00000000000E+00 -0.00000000000E+00 -0.19343371489E+03  0.19343371489E+03  0.00000000000E+00 0.  1.
         25    1    1    2    0    0  0.96191617812E+01 -0.53046612380E+02 -0.15334605762E+02  0.13699131904E+03  0.12500000000E+03 0.  0.
         25    1    1    2    0    0 -0.51546160653E+02  0.10010492457E+03  0.20232838598E+03  0.26313452524E+03  0.12500000000E+03 0.  0.
         25    1    1    2    0    0  0.41926998872E+02 -0.47058312188E+02 -0.30467657742E+02  0.14326770798E+03  0.12500000000E+03 0.  0.
</event>
<event>
 5    0  0.5503691E-005  0.3537348E+03  0.7546771E-02  0.1061092E+00
         21   -1    0    0  502  501  0.00000000000E+00  0.00000000000E+00  0.19133992087E+04  0.19133992087E+04  0.00000000000E+00 0.  1.
         21   -1    0    0  501  502 -0.00000000000E+00 -0.00000000000E+00 -0.65395823143E+02  0.65395823143E+02  0.00000000000E+00 0.  1.
         25    1    1    2    0    0 -0.59640750897E+02 -0.25356218431E+02  0.80900399134E+03  0.82116527873E+03  0.12500000000E+03 0.  0.
         25    1    1    2    0    0  0.69629251143E+02  0.27370020212E+02  0.40388076840E+02  0.15117389779E+03  0.12500000000E+03 0.  0.
         25    1    1    2    0    0 -0.99885002463E+01 -0.20138017814E+01  0.99861131735E+03  0.10064558553E+04  0.12500000000E+03 0.  0.
</event>
<event>
 5    0  0.5771000E-005  0.3264360E+03  0.7546771E-02  0.1072725E+00
         21   -1    0    0  502  501  0.00000000000E+00  0.00000000000E+00  0.10761049187E+03  0.10761049187E+03  0.00000000000E+00 0.  1.
         21   -1    0    0  501  502 -0.00000000000E+00 -0.00000000000E+00 -0.99024225659E+03  0.99024225659E+03  0.00000000000E+00 0.  1.
         25    1    1    2    0    0  0.62160131581E+02 -0.14649732090E+03 -0.37110506681E+03  0.42269293535E+03  0.12500000000E+03 0.  0.
         25    1    1    2    0    0 -0.10770292759E+03  0.87315739621E+02 -0.49449588076E+03  0.52855949059E+03  0.12500000000E+03 0.  0.
         25    1    1    2    0    0  0.45542796006E+02  0.59181581279E+02 -0.17030817142E+02  0.14660032252E+03  0.12500000000E+03 0.  0.
</event>
<event>
 5    0  0.5503691E-005  0.4625117E+03  0.7546771E-02  0.1024055E+00
         21   -1    0    0  502  501  0.00000000000E+00  0.00000000000E+00  0.36089688951E+03  0.36089688951E+03  0.00000000000E+00 0. -1.
         21   -1    0    0  501  502 -0.00000000000E+00 -0.00000000000E+00 -0.59273742807E+03  0.59273742807E+03  0.00000000000E+00 0.  1.
         25    1    1    2    0    0  0.29352663791E+02 -0.68818789443E+02 -0.39291246380E+03  0.41904988827E+03  0.12500000000E+03 0.  0.
         25    1    1    2    0    0 -0.18092775389E+03  0.12488723983E+03  0.20506481488E+03  0.32558908628E+03  0.12500000000E+03 0.  0.
         25    1    1    2    0    0  0.15157509010E+03 -0.56068450387E+02 -0.43992889645E+02  0.20899534303E+03  0.12500000000E+03 0.  0.
</event>
<event>
 5    0  0.5503691E-005  0.4564000E+03  0.7546771E-02  0.1025831E+00
         21   -1    0    0  502  501  0.00000000000E+00  0.00000000000E+00  0.23624497817E+04  0.23624497817E+04  0.00000000000E+00 0. -1.
         21   -1    0    0  501  502 -0.00000000000E+00 -0.00000000000E+00 -0.88171579273E+02  0.88171579273E+02  0.00000000000E+00 0. -1.
         25    1    1    2    0    0 -0.14528833775E+03  0.11432269889E+03  0.11116080217E+04  0.11337882406E+04  0.12500000000E+03 0.  0.
         25    1    1    2    0    0 -0.14265857832E+03  0.56168096771E+02  0.16653146897E+03  0.25858084851E+03  0.12500000000E+03 0.  0.
         25    1    1    2    0    0  0.28794691606E+03 -0.17049079566E+03  0.99613871179E+03  0.10582522719E+04  0.12500000000E+03 0.  0.
</event>
<event>
 5    0  0.5503691E-005  0.3100056E+03  0.7546771E-02  0.1080343E+00
         21   -1    0    0  502  501  0.00000000000E+00  0.00000000000E+00  0.13270241520E+04  0.13270241520E+04  0.00000000000E+00 0.  1.
         21   -1    0    0  501  502 -0.00000000000E+00 -0.00000000000E+00 -0.72420307704E+02  0.72420307704E+02  0.00000000000E+00 0.  1.
         25    1    1    2    0    0 -0.24177595790E+01  0.57641366640E+02  0.50499588162E+03  0.52342546094E+03  0.12500000000E+03 0.  0.
         25    1    1    2    0    0  0.16382342398E+03 -0.12165782640E+03  0.40338046924E+03  0.46901976924E+03  0.12500000000E+03 0.  0.
         25    1    1    2    0    0 -0.16140566440E+03  0.64016459763E+02  0.34622749343E+03  0.40699922952E+03  0.12500000000E+03 0.  0.
</event>
<event>
 5    0  0.5503691E-005  0.2446468E+03  0.7546771E-02  0.1116735E+00
         21   -1    0    0  502  501  0.00000000000E+00  0.00000000000E+00  0.99495707219E+03  0.99495707219E+03  0.00000000000E+00 0. -1.
         21   -1    0    0  501  502 -0.00000000000E+00 -0.00000000000E+00 -0.60155436187E+02  0.60155436187E+02  0.00000000000E+00 0. -1.
         25    1    1    2    0    0 -0.65854821568E+02 -0.10565758732E+02  0.53898092895E+03  0.55729160639E+03  0.12500000000E+03 0.  0.
         25    1    1    2    0    0  0.59035040290E+02  0.57884109419E+01  0.84214222623E+02  0.16197430962E+03  0.12500000000E+03 0.  0.
         25    1    1    2    0    0  0.68197812774E+01  0.47773477906E+01  0.31160648443E+03  0.33584659237E+03  0.12500000000E+03 0.  0.
</event>
<event>
 5    0  0.5503691E-005  0.4412515E+03  0.7546771E-02  0.1030364E+00
         21   -1    0    0  502  501  0.00000000000E+00  0.00000000000E+00  0.11897486185E+03  0.11897486185E+03  0.00000000000E+00 0.  1.
         21   -1    0    0  501  502 -0.00000000000E+00 -0.00000000000E+00 -0.16365047167E+04  0.16365047167E+04  0.00000000000E+00 0.  1.
         25    1    1    2    0    0  0.12173051678E+03 -0.10363089170E+03 -0.68782237946E+03  0.71713478936E+03  0.12500000000E+03 0.  0.
         25    1    1    2    0    0  0.17181532809E+03  0.10292290743E+03 -0.13043692804E+03  0.26972657273E+03  0.12500000000E+03 0.  0.
         25    1    1    2    0    0 -0.29354584488E+03  0.70798426316E+00 -0.69927054739E+03  0.76861821650E+03  0.12500000000E+03 0.  0.
</event>
<event>
 5    0  0.5503691E-005  0.2203465E+03  0.7546771E-02  0.1133625E+00
         21   -1    0    0  502  501  0.00000000000E+00  0.00000000000E+00  0.15911136802E+03  0.15911136802E+03  0.00000000000E+00 0.  1.
         21   -1    0    0  501  502 -0.00000000000E+00 -0.00000000000E+00 -0.30514843014E+03  0.30514843014E+03  0.00000000000E+00 0.  1.
         25    1    1    2    0    0  0.10882565947E+02  0.73802216293E+02 -0.81828718009E+02  0.16699142631E+03  0.12500000000E+03 0.  0.
         25    1    1    2    0    0 -0.31033018772E+02  0.18158336138E+02 -0.56696423437E+01  0.13019185178E+03  0.12500000000E+03 0.  0.
         25    1    1    2    0    0  0.20150452826E+02 -0.91960552431E+02 -0.58538701774E+02  0.16707652007E+03  0.12500000000E+03 0.  0.
</event>
<event>
 5    0  0.5503691E-005  0.4699234E+03  0.7546771E-02  0.1021942E+00
         21   -1    0    0  502  501  0.00000000000E+00  0.00000000000E+00  0.13634024775E+03  0.13634024775E+03  0.00000000000E+00 0. -1.
         21   -1    0    0  501  502 -0.00000000000E+00 -0.00000000000E+00 -0.16196833609E+04  0.16196833609E+04  0.00000000000E+00 0. -1.
         25    1    1    2    0    0  0.27066966182E+03 -0.22317520695E+02 -0.10392208758E+04  0.10813718908E+04  0.12500000000E+03 0.  0.
         25    1    1    2    0    0 -0.15531479935E+03 -0.16211145395E+03 -0.22476581131E+03  0.34139051002E+03  0.12500000000E+03 0.  0.
         25    1    1    2    0    0 -0.11535486247E+03  0.18442897464E+03 -0.21935642603E+03  0.33326120780E+03  0.12500000000E+03 0.  0.
</event>
<event>
 5    0  0.5503691E-005  0.5030825E+03  0.7546771E-02  0.1012977E+00
         21   -1    0    0  502  501  0.00000000000E+00  0.00000000000E+00  0.12823657986E+03  0.12823657986E+03  0.00000000000E+00 0. -1.
         21   -1    0    0  501  502 -0.00000000000E+00 -0.00000000000E+00 -0.19736337845E+04  0.19736337845E+04  0.00000000000E+00 0. -1.
         25    1    1    2    0    0 -0.11845753134E+03  0.21662848852E+03 -0.49759405716E+03  0.56937240404E+03  0.12500000000E+03 0.  0.
         25    1    1    2    0    0 -0.20365892184E+03 -0.28441480549E+03 -0.59536683002E+03  0.70175166570E+03  0.12500000000E+03 0.  0.
         25    1    1    2    0    0  0.32211645318E+03  0.67786316966E+02 -0.75243631743E+03  0.83074629458E+03  0.12500000000E+03 0.  0.
</event>
<event>
 5    0  0.5503691E-005  0.4000655E+03  0.7546771E-02  0.1043757E+00
         21   -1    0    0  502  501  0.00000000000E+00  0.00000000000E+00  0.73780184591E+03  0.73780184591E+03  0.00000000000E+00 0.  1.
         21   -1    0    0  501  502 -0.00000000000E+00 -0.00000000000E+00 -0.21693141720E+03  0.21693141720E+03  0.00000000000E+00 0.  1.
         25    1    1    2    0    0  0.23973578134E+02  0.15530732169E+03  0.30340628376E+03  0.36383439866E+03  0.12500000000E+03 0.  0.
         25    1    1    2    0    0  0.19923222900E+03 -0.16474749305E+03  0.70389349137E+02  0.29566007172E+03  0.12500000000E+03 0.  0.
         25    1    1    2    0    0 -0.22320580713E+03  0.94401713542E+01  0.14707479580E+03  0.29523879273E+03  0.12500000000E+03 0.  0.
</event>
<event>
 5    0  0.5503691E-005  0.4090214E+03  0.7546771E-02  0.1040700E+00
         21   -1    0    0  502  501  0.00000000000E+00  0.00000000000E+00  0.17011431005E+04  0.17011431005E+04  0.00000000000E+00 0.  1.
         21   -1    0    0  501  502 -0.00000000000E+00 -0.00000000000E+00 -0.98344766694E+02  0.98344766694E+02  0.00000000000E+00 0.  1.
         25    1    1    2    0    0 -0.20205306081E+03 -0.25271706393E+02  0.17982389346E+03  0.29904135364E+03  0.12500000000E+03 0.  0.
         25    1    1    2    0    0  0.25404334810E+03 -0.18221998464E+02  0.12204115971E+04  0.12529563162E+04  0.12500000000E+03 0.  0.
         25    1    1    2    0    0 -0.51990287289E+02  0.43493704857E+02  0.20256284329E+03  0.24749019741E+03  0.12500000000E+03 0.  0.
</event>
<event>
 5    0  0.5503691E-005  0.5357414E+03  0.7546771E-02  0.1004849E+00
         21   -1    0    0  502  501  0.00000000000E+00  0.00000000000E+00  0.49253353545E+03  0.49253353545E+03  0.00000000000E+00 0.  1.
         21   -1    0    0  501  502 -0.00000000000E+00 -0.00000000000E+00 -0.58273978207E+03  0.58273978207E+03  0.00000000000E+00 0.  1.
         25    1    1    2    0    0  0.94582523060E+01 -0.14307584253E+02 -0.53880934783E+03  0.55338474754E+03  0.12500000000E+03 0.  0.
         25    1    1    2    0    0 -0.37788815759E+02  0.37026714899E+01  0.16475379804E+03  0.21026297425E+03  0.12500000000E+03 0.  0.
         25    1    1    2    0    0  0.28330563453E+02  0.10604912763E+02  0.28384930317E+03  0.31162559573E+03  0.12500000000E+03 0.  0.
</event>
<event>
 5    0  0.9192914E-004  0.9683764E+03  0.7546771E-02  0.9343926E-01
         21   -1    0    0  502  501  0.00000000000E+00  0.00000000000E+00  0.51395976161E+03  0.51395976161E+03  0.00000000000E+00 0. -1.
         21   -1    0    0  501  502 -0.00000000000E+00 -0.00000000000E+00 -0.18245647529E+04  0.18245647529E+04  0.00000000000E+00 0. -1.
         25    1    1    2    0    0  0.44855114135E+03  0.33139058864E+01 -0.75421498436E+03  0.88638273393E+03  0.12500000000E+03 0.  0.
         25    1    1    2    0    0  0.76933422072E+01 -0.39780811753E+03  0.21159061940E+03  0.46766021437E+03  0.12500000000E+03 0.  0.
         25    1    1    2    0    0 -0.45624448356E+03  0.39449421164E+03 -0.76798062635E+03  0.98448156623E+03  0.12500000000E+03 0.  0.
</event>
<event>
 5    0  0.5503691E-005  0.2663486E+03  0.7546771E-02  0.1103388E+00
         21   -1    0    0  502  501  0.00000000000E+00  0.00000000000E+00  0.10015378805E+04  0.10015378805E+04  0.00000000000E+00 0.  1.
         21   -1    0    0  501  502 -0.00000000000E+00 -0.00000000000E+00 -0.70832668112E+02  0.70832668112E+02  0.00000000000E+00 0.  1.
         25    1    1    2    0    0 -0.23392277273E+02 -0.12307046544E+01  0.43247071794E+03  0.45078224804E+03  0.12500000000E+03 0.  0.
         25    1    1    2    0    0 -0.98859725794E+02  0.75675935974E+02  0.29193464661E+03  0.34110252206E+03  0.12500000000E+03 0.  0.
         25    1    1    2    0    0  0.12225200307E+03 -0.74445231320E+02  0.20629984780E+03  0.28048577846E+03  0.12500000000E+03 0.  0.
</event>
<event>
 5    0  0.5503691E-005  0.4473931E+03  0.7546771E-02  0.1028502E+00
         21   -1    0    0  502  501  0.00000000000E+00  0.00000000000E+00  0.14511841430E+04  0.14511841430E+04  0.00000000000E+00 0.  1.
         21   -1    0    0  501  502 -0.00000000000E+00 -0.00000000000E+00 -0.13792911949E+03  0.13792911949E+03  0.00000000000E+00 0.  1.
         25    1    1    2    0    0 -0.40742829341E+02  0.17871903544E+03  0.15528809272E+03  0.27081333703E+03  0.12500000000E+03 0.  0.
         25    1    1    2    0    0 -0.21056023675E+03 -0.15181475870E+03  0.86486823627E+03  0.91159497605E+03  0.12500000000E+03 0.  0.
         25    1    1    2    0    0  0.25130306609E+03 -0.26904276743E+02  0.29309869449E+03  0.40670494937E+03  0.12500000000E+03 0.  0.
</event>
<event>
 5    0  0.5503691E-005  0.2293928E+03  0.7546771E-02  0.1127068E+00
         21   -1    0    0  502  501  0.00000000000E+00  0.00000000000E+00  0.53012413592E+03  0.53012413592E+03  0.00000000000E+00 0.  1.
         21   -1    0    0  501  502 -0.00000000000E+00 -0.00000000000E+00 -0.99261724163E+02  0.99261724163E+02  0.00000000000E+00 0.  1.
         25    1    1    2    0    0  0.83885613389E+02 -0.21932397482E+02  0.42903858745E+02  0.15806190967E+03  0.12500000000E+03 0.  0.
         25    1    1    2    0    0 -0.37721459955E+02  0.25834993181E+02  0.21646588337E+03  0.25411185348E+03  0.12500000000E+03 0.  0.
         25    1    1    2    0    0 -0.46164153434E+02 -0.39025956996E+01  0.17149266964E+03  0.21721209693E+03  0.12500000000E+03 0.  0.
</event>
<event>
 5    0  0.5503691E-005  0.2697297E+03  0.7546771E-02  0.1101434E+00
         21   -1    0    0  502  501  0.00000000000E+00  0.00000000000E+00  0.45948425377E+03  0.45948425377E+03  0.00000000000E+00 0. -1.
         21   -1    0    0  501  502 -0.00000000000E+00 -0.00000000000E+00 -0.15833862129E+03  0.15833862129E+03  0.00000000000E+00 0. -1.
         25    1    1    2    0    0 -0.31856220009E+01 -0.31515846643E+02 -0.44718700566E+02  0.13648501367E+03  0.12500000000E+03 0.  0.
         25    1    1    2    0    0 -0.76802129881E+02  0.30451854666E+02  0.28289532474E+03  0.32012598671E+03  0.12500000000E+03 0.  0.
         25    1    1    2    0    0  0.79987751882E+02  0.10639919775E+01  0.62969008294E+02  0.16121187467E+03  0.12500000000E+03 0.  0.
</event>
<event>
 5    0  0.5503691E-005  0.2697080E+03  0.7546771E-02  0.1101447E+00
         21   -1    0    0  502  501  0.00000000000E+00  0.00000000000E+00  0.22789724735E+04  0.22789724735E+04  0.00000000000E+00 0.  1.
         21   -1    0    0  501  502 -0.00000000000E+00 -0.00000000000E+00 -0.31918937189E+02  0.31918937189E+02  0.00000000000E+00 0.  1.
         25    1    1    2    0    0  0.42175349236E+02 -0.98203671645E+02  0.11612544963E+04  0.11728425838E+04  0.12500000000E+03 0.  0.
         25    1    1    2    0    0 -0.78506856006E+02  0.98378654704E+02  0.36776855798E+03  0.40831409280E+03  0.12500000000E+03 0.  0.
         25    1    1    2    0    0  0.36331506770E+02 -0.17498305903E+00  0.71803048208E+03  0.72973473414E+03  0.12500000000E+03 0.  0.
</event>
<event>
 5    0  0.5503691E-005  0.3700774E+03  0.7546771E-02  0.1054663E+00
         21   -1    0    0  502  501  0.00000000000E+00  0.00000000000E+00  0.10946357442E+03  0.10946357442E+03  0.00000000000E+00 0.  1.
         21   -1    0    0  501  502 -0.00000000000E+00 -0.00000000000E+00 -0.12511674042E+04  0.12511674042E+04  0.00000000000E+00 0.  1.
         25    1    1    2    0    0 -0.72741169431E+02 -0.17763332954E+03 -0.37398202621E+03  0.43855721795E+03  0.12500000000E+03 0.  0.
         25    1    1    2    0    0  0.18799701297E+02  0.22123715941E+03 -0.73149196812E+03  0.77459977337E+03  0.12500000000E+03 0.  0.
         25    1    1    2    0    0  0.53941468134E+02 -0.43603829869E+02 -0.36229835491E+02  0.14747398734E+03  0.12500000000E+03 0.  0.
</event>
<event>
 5    0  0.5503691E-005  0.3119475E+03  0.7546771E-02  0.1079416E+00
         21   -1    0    0  502  501  0.00000000000E+00  0.00000000000E+00  0.81295765854E+02  0.81295765854E+02  0.00000000000E+00 0. -1.
         21   -1    0    0  501  502 -0.00000000000E+00 -0.00000000000E+00 -0.11970028269E+04  0.11970028269E+04  0.00000000000E+00 0. -1.
         25    1    1    2    0    0  0.98474592253E+02 -0.16316137241E+03 -0.22309346111E+03  0.31892721922E+03  0.12500000000E+03 0.  0.
         25    1    1    2    0    0 -0.93429113533E+02  0.24359045515E+02 -0.31668850980E+03  0.35389119033E+03  0.12500000000E+03 0.  0.
         25    1    1    2    0    0 -0.50454787202E+01  0.13880232690E+03 -0.57592509017E+03  0.60548018324E+03  0.12500000000E+03 0.  0.
</event>
<event>
 5    0  0.5503691E-005  0.4478871E+03  0.7546771E-02  0.1028354E+00
         21   -1    0    0  502  501  0.00000000000E+00  0.00000000000E+00  0.32406066136E+03  0.32406066136E+03  0.00000000000E+00 0.  1.
         21   -1    0    0  501  502 -0.00000000000E+00 -0.00000000000E+00 -0.61902881769E+03  0.61902881769E+03  0.00000000000E+00 0.  1.
         25    1    1    2    0    0 -0.17991010124E+02 -0.69691833337E+02 -0.25100195597E+03  0.28949544034E+03  0.12500000000E+03 0.  0.
         25    1    1    2    0    0 -0.93605310926E+02 -0.24011053357E+03 -0.85555248485E+02  0.29893096713E+03  0.12500000000E+03 0.  0.
         25    1    1    2    0    0  0.11159632105E+03  0.30980236691E+03  0.41589048127E+02  0.35466307158E+03  0.12500000000E+03 0.  0.
</event>
<event>
 5    0  0.5503691E-005  0.2746149E+03  0.7546771E-02  0.1098667E+00
         21   -1    0    0  502  501  0.00000000000E+00  0.00000000000E+00  0.82042606008E+02  0.82042606008E+02  0.00000000000E+00 0.  1.
         21   -1    0    0  501  502 -0.00000000000E+00 -0.00000000000E+00 -0.91919708101E+03  0.91919708101E+03  0.00000000000E+00 0.  1.
         25    1    1    2    0    0 -0.23805532849E+01 -0.14935199396E+03 -0.33605820534E+03  0.38842219622E+03  0.12500000000E+03 0.  0.
         25    1    1    2    0    0  0.11660844504E+02  0.14134854194E+03 -0.42702893559E+03  0.46700545760E+03  0.12500000000E+03 0.  0.
         25    1    1    2    0    0 -0.92802912191E+01  0.80034520194E+01 -0.74067334078E+02  0.14581203320E+03  0.12500000000E+03 0.  0.
</event>
<event>
 5    0  0.5503691E-005  0.3467780E+03  0.7546771E-02  0.1063945E+00
         21   -1    0    0  502  501  0.00000000000E+00  0.00000000000E+00  0.10953156342E+04  0.10953156342E+04  0.00000000000E+00 0.  1.
         21   -1    0    0  501  502 -0.00000000000E+00 -0.00000000000E+00 -0.10979022634E+03  0.10979022634E+03  0.00000000000E+00 0.  1.
         25    1    1    2    0    0  0.24990974052E+02 -0.87069025671E+02  0.75445911429E+03  0.77009033181E+03  0.12500000000E+03 0.  0.
         25    1    1    2    0    0  0.94622451651E+02  0.10587494775E+03  0.15716902381E+03  0.24594717921E+03  0.12500000000E+03 0.  0.
         25    1    1    2    0    0 -0.11961342570E+03 -0.18805922075E+02  0.73897269755E+02  0.18906834952E+03  0.12500000000E+03 0.  0.
</event>
<event>
 5    0  0.5503691E-005  0.3699369E+03  0.7546771E-02  0.1054717E+00
         21   -1    0    0  502  501  0.00000000000E+00  0.00000000000E+00  0.89727844867E+03  0.89727844867E+03  0.00000000000E+00 0. -1.
         21   -1    0    0  501  502 -0.00000000000E+00 -0.00000000000E+00 -0.15252048707E+03  0.15252048707E+03  0.00000000000E+00 0. -1.
         25    1    1    2    0    0  0.18566351875E+03  0.65972374476E+02  0.75824626164E+02  0.24535213535E+03  0.12500000000E+03 0.  0.
         25    1    1    2    0    0  0.11385486855E+02 -0.94913095155E+02  0.94032504251E+02  0.18331731178E+03  0.12500000000E+03 0.  0.
         25    1    1    2    0    0 -0.19704900561E+03  0.28940720679E+02  0.57490083119E+03  0.62112948861E+03  0.12500000000E+03 0.  0.
</event>
<event>
 5    0  0.5503691E-005  0.6930687E+03  0.7546771E-02  0.9729160E-01
         21   -1    0    0  502  501  0.00000000000E+00  0.00000000000E+00  0.93429111060E+03  0.93429111060E+03  0.00000000000E+00 0.  1.
         21   -1    0    0  501  502 -0.00000000000E+00 -0.00000000000E+00 -0.51412694900E+03  0.51412694900E+03  0.00000000000E+00 0.  1.
         25    1    1    2    0    0 -0.25514869302E+03  0.19840917344E+03  0.42882019404E+03  0.55134273775E+03  0.12500000000E+03 0.  0.
         25    1    1    2    0    0  0.50626451355E+03 -0.10160280217E+02 -0.13103063757E+03  0.53777413191E+03  0.12500000000E+03 0.  0.
         25    1    1    2    0    0 -0.25111582053E+03 -0.18824889322E+03  0.12237460512E+03  0.35930118995E+03  0.12500000000E+03 0.  0.
</event>
<event>
 5    0  0.5503691E-005  0.2687963E+03  0.7546771E-02  0.1101971E+00
         21   -1    0    0  502  501  0.00000000000E+00  0.00000000000E+00  0.24503516045E+04  0.24503516045E+04  0.00000000000E+00 0. -1.
         21   -1    0    0  501  502 -0.00000000000E+00 -0.00000000000E+00 -0.29486151169E+02  0.29486151169E+02  0.00000000000E+00 0. -1.
         25    1    1    2    0    0 -0.49750401826E+02  0.13102093360E+03  0.68872003073E+03  0.71386404045E+03  0.12500000000E+03 0.  0.
         25    1    1    2    0    0  0.78322859129E+02 -0.11483708657E+02  0.50037243540E+03  0.52178915276E+03  0.12500000000E+03 0.  0.
         25    1    1    2    0    0 -0.28572457303E+02 -0.11953722495E+03  0.12317729872E+04  0.12441845625E+04  0.12500000000E+03 0.  0.
</event>
<event>
 5    0  0.5503691E-005  0.4244980E+03  0.7546771E-02  0.1035612E+00
         21   -1    0    0  502  501  0.00000000000E+00  0.00000000000E+00  0.11648447285E+03  0.11648447285E+03  0.00000000000E+00 0.  1.
         21   -1    0    0  501  502 -0.00000000000E+00 -0.00000000000E+00 -0.15469745536E+04  0.15469745536E+04  0.00000000000E+00 0.  1.
         25    1    1    2    0    0 -0.23388496205E+02 -0.89425124159E+02 -0.20272752510E+03  0.25547470328E+03  0.12500000000E+03 0.  0.
         25    1    1    2    0    0 -0.18028176383E+03  0.19029362508E+03 -0.10600285943E+04  0.10990899867E+04  0.12500000000E+03 0.  0.
         25    1    1    2    0    0  0.20367026003E+03 -0.10086850092E+03 -0.16773396129E+03  0.30889433642E+03  0.12500000000E+03 0.  0.
</event>
<event>
 5    0  0.6141910E-005  0.2744331E+03  0.7546771E-02  0.1098769E+00
         21   -1    0    0  502  501  0.00000000000E+00  0.00000000000E+00  0.20803749757E+03  0.20803749757E+03  0.00000000000E+00 0.  1.
         21   -1    0    0  501  502 -0.00000000000E+00 -0.00000000000E+00 -0.36201911889E+03  0.36201911889E+03  0.00000000000E+00 0.  1.
         25    1    1    2    0    0  0.84659800370E+02  0.58341028566E+02 -0.24001151164E+02  0.16362155320E+03  0.12500000000E+03 0.  0.
         25    1    1    2    0    0 -0.13321030037E+03 -0.11658907566E+03 -0.93827241354E+01  0.21691249895E+03  0.12500000000E+03 0.  0.
         25    1    1    2    0    0  0.48550499998E+02  0.58248047097E+02 -0.12059774602E+03  0.18952256432E+03  0.12500000000E+03 0.  0.
</event>
<event>
 5    0  0.5503691E-005  0.4357973E+03  0.7546771E-02  0.1032044E+00
         21   -1    0    0  502  501  0.00000000000E+00  0.00000000000E+00  0.46004216439E+03  0.46004216439E+03  0.00000000000E+00 0. -1.
         21   -1    0    0  501  502 -0.00000000000E+00 -0.00000000000E+00 -0.41283020901E+03  0.41283020901E+03  0.00000000000E+00 0. -1.
         25    1    1    2    0    0 -0.51701578907E+02 -0.26409581999E+02 -0.17336098033E+03  0.22147132723E+03  0.12500000000E+03 0.  0.
         25    1    1    2    0    0  0.22011203547E+03  0.13050990749E+03  0.29072318003E+03  0.40697310909E+03  0.12500000000E+03 0.  0.
         25    1    1    2    0    0 -0.16841045657E+03 -0.10410032549E+03 -0.70150244322E+02  0.24442793708E+03  0.12500000000E+03 0.  0.
</event>
<event>
 5    0  0.5503691E-005  0.6308909E+03  0.7546771E-02  0.9843312E-01
         21   -1    0    0  502  501  0.00000000000E+00  0.00000000000E+00  0.20311082797E+03  0.20311082797E+03  0.00000000000E+00 0. -1.
         21   -1    0    0  501  502 -0.00000000000E+00 -0.00000000000E+00 -0.19596361643E+04  0.19596361643E+04  0.00000000000E+00 0. -1.
         25    1    1    2    0    0  0.67813277906E+02  0.50984874889E+03 -0.55693770489E+03  0.76834171729E+03  0.12500000000E+03 0.  0.
         25    1    1    2    0    0 -0.93937456104E+02 -0.20897122340E+03 -0.16348713668E+03  0.30797120275E+03  0.12500000000E+03 0.  0.
         25    1    1    2    0    0  0.26124178198E+02 -0.30087752550E+03 -0.10361004948E+04  0.10864340722E+04  0.12500000000E+03 0.  0.
</event>
<event>
 5    0  0.5503691E-005  0.3101225E+03  0.7546771E-02  0.1080287E+00
         21   -1    0    0  502  501  0.00000000000E+00  0.00000000000E+00  0.94991210132E+03  0.94991210132E+03  0.00000000000E+00 0. -1.
         21   -1    0    0  501  502 -0.00000000000E+00 -0.00000000000E+00 -0.10124723373E+03  0.10124723373E+03  0.00000000000E+00 0. -1.
         25    1    1    2    0    0  0.45476667861E+02  0.13133815540E+03  0.24004936828E+03  0.30424749399E+03  0.12500000000E+03 0.  0.
         25    1    1    2    0    0  0.48403070226E-01  0.96134444160E+02  0.14811595284E+03  0.21634502348E+03  0.12500000000E+03 0.  0.
         25    1    1    2    0    0 -0.45525070931E+02 -0.22747259956E+03  0.46049954647E+03  0.53056681759E+03  0.12500000000E+03 0.  0.
</event>
<event>
 5    0  0.5503691E-005  0.3133886E+03  0.7546771E-02  0.1078733E+00
         21   -1    0    0  502  501  0.00000000000E+00  0.00000000000E+00  0.13398611142E+04  0.13398611142E+04  0.00000000000E+00 0.  1.
         21   -1    0    0  501  502 -0.00000000000E+00 -0.00000000000E+00 -0.73300428638E+02  0.73300428638E+02  0.00000000000E+00 0.  1.
         25    1    1    2    0    0  0.13382339929E+03  0.92736380119E+01  0.20403993723E+03  0.27432097722E+03  0.12500000000E+03 0.  0.
         25    1    1    2    0    0 -0.13458386884E+02 -0.48223700017E+02  0.85499512295E+03  0.86553354279E+03  0.12500000000E+03 0.  0.
         25    1    1    2    0    0 -0.12036501240E+03  0.38950062005E+02  0.20752562541E+03  0.27330702286E+03  0.12500000000E+03 0.  0.
</event>
<event>
 5    0  0.5503691E-005  0.3165176E+03  0.7546771E-02  0.1077263E+00
         21   -1    0    0  502  501  0.00000000000E+00  0.00000000000E+00  0.77711880705E+03  0.77711880705E+03  0.00000000000E+00 0. -1.
         21   -1    0    0  501  502 -0.00000000000E+00 -0.00000000000E+00 -0.12891644015E+03  0.12891644015E+03  0.00000000000E+00 0. -1.
         25    1    1    2    0    0 -0.14348457477E+02  0.25341858434E+02  0.53295034695E+03  0.54818715813E+03  0.12500000000E+03 0.  0.
         25    1    1    2    0    0 -0.81801864200E+02  0.55058971588E+02  0.76524091765E+02  0.17664646036E+03  0.12500000000E+03 0.  0.
         25    1    1    2    0    0  0.96150321677E+02 -0.80400830022E+02  0.38727928183E+02  0.18120162871E+03  0.12500000000E+03 0.  0.
</event>
<event>
 5    0  0.5503691E-005  0.3227964E+03  0.7546771E-02  0.1074369E+00
         21   -1    0    0  502  501  0.00000000000E+00  0.00000000000E+00  0.11153539524E+03  0.11153539524E+03  0.00000000000E+00 0. -1.
         21   -1    0    0  501  502 -0.00000000000E+00 -0.00000000000E+00 -0.93421023455E+03  0.93421023455E+03  0.00000000000E+00 0. -1.
         25    1    1    2    0    0  0.86938242588E+02  0.39869481150E+02 -0.81387423424E+02  0.17719127022E+03  0.12500000000E+03 0.  0.
         25    1    1    2    0    0 -0.11539985194E+03  0.13991265916E+03 -0.27269147586E+03  0.35054003912E+03  0.12500000000E+03 0.  0.
         25    1    1    2    0    0  0.28461609352E+02 -0.17978214031E+03 -0.46859594003E+03  0.51801432045E+03  0.12500000000E+03 0.  0.
</event>
<event>
 5    0  0.5503691E-005  0.3668713E+03  0.7546771E-02  0.1055896E+00
         21   -1    0    0  502  501  0.00000000000E+00  0.00000000000E+00  0.37905416856E+03  0.37905416856E+03  0.00000000000E+00 0.  1.
         21   -1    0    0  501  502 -0.00000000000E+00 -0.00000000000E+00 -0.35507995294E+03  0.35507995294E+03  0.00000000000E+00 0.  1.
         25    1    1    2    0    0  0.87812255073E+01  0.63492179830E+02  0.53841611395E+02  0.15044030689E+03  0.12500000000E+03 0.  0.
         25    1    1    2    0    0 -0.25005344333E+03 -0.74120155663E+02 -0.94348483341E+02  0.30421564441E+03  0.12500000000E+03 0.  0.
         25    1    1    2    0    0  0.24127221782E+03  0.10627975833E+02  0.64481087571E+02  0.27947817020E+03  0.12500000000E+03 0.  0.
</event>
<event>
 5    0  0.5503691E-005  0.2772347E+03  0.7546771E-02  0.1097209E+00
         21   -1    0    0  502  501  0.00000000000E+00  0.00000000000E+00  0.21182955330E+04  0.21182955330E+04  0.00000000000E+00 0.  1.
         21   -1    0    0  501  502 -0.00000000000E+00 -0.00000000000E+00 -0.36283458768E+02  0.36283458768E+02  0.00000000000E+00 0.  1.
         25    1    1    2    0    0  0.11664539904E+02 -0.14038120136E+03  0.11284890296E+04  0.11440959020E+04  0.12500000000E+03 0.  0.
         25    1    1    2    0    0  0.66923200536E+02  0.99315747626E+02  0.39403556335E+03  0.43038512716E+03  0.12500000000E+03 0.  0.
         25    1    1    2    0    0 -0.78587740440E+02  0.41065453739E+02  0.55948748131E+03  0.58009796257E+03  0.12500000000E+03 0.  0.
</event>
<event>
 5    0  0.5503691E-005  0.2986838E+03  0.7546771E-02  0.1085900E+00
         21   -1    0    0  502  501  0.00000000000E+00  0.00000000000E+00  0.15203126036E+03  0.15203126036E+03  0.00000000000E+00 0.  1.
         21   -1    0    0  501  502 -0.00000000000E+00 -0.00000000000E+00 -0.58680029896E+03  0.58680029896E+03  0.00000000000E+00 0.  1.
         25    1    1    2    0    0  0.83425486404E+02  0.91327445738E+02 -0.22966507989E+03  0.28926037241E+03  0.12500000000E+03 0.  0.
         25    1    1    2    0    0 -0.96912191972E+02  0.47053093313E+02  0.90748632938E+01  0.16526741871E+03  0.12500000000E+03 0.  0.
         25    1    1    2    0    0  0.13486705568E+02 -0.13838053905E+03 -0.21417882201E+03  0.28430376820E+03  0.12500000000E+03 0.  0.
</event>
<event>
 5    0  0.5503691E-005  0.3543114E+03  0.7546771E-02  0.1060859E+00
         21   -1    0    0  502  501  0.00000000000E+00  0.00000000000E+00  0.83754535385E+02  0.83754535385E+02  0.00000000000E+00 0.  1.
         21   -1    0    0  501  502 -0.00000000000E+00 -0.00000000000E+00 -0.14988632056E+04  0.14988632056E+04  0.00000000000E+00 0.  1.
         25    1    1    2    0    0 -0.18830646796E+02 -0.10365143049E+03 -0.59839869375E+02  0.17408050514E+03  0.12500000000E+03 0.  0.
         25    1    1    2    0    0  0.31111917795E+02  0.43650130961E+02 -0.11643247881E+04  0.11722416549E+04  0.12500000000E+03 0.  0.
         25    1    1    2    0    0 -0.12281270999E+02  0.60001299530E+02 -0.19094401274E+03  0.23629558093E+03  0.12500000000E+03 0.  0.
</event>
<event>
 5    0  0.5503691E-005  0.2575384E+03  0.7546771E-02  0.1108631E+00
         21   -1    0    0  502  501  0.00000000000E+00  0.00000000000E+00  0.51944762616E+03  0.51944762616E+03  0.00000000000E+00 0. -1.
         21   -1    0    0  501  502 -0.00000000000E+00 -0.00000000000E+00 -0.12768565738E+03  0.12768565738E+03  0.00000000000E+00 0. -1.
         25    1    1    2    0    0  0.92347264904E+02  0.69112117088E+02  0.24702559932E+03  0.29991857025E+03  0.12500000000E+03 0.  0.
         25    1    1    2    0    0 -0.10884068183E+03 -0.12675455864E+02  0.32837525877E+02  0.16944103490E+03  0.12500000000E+03 0.  0.
         25    1    1    2    0    0  0.16493416924E+02 -0.56436661224E+02  0.11189884358E+03  0.17777367839E+03  0.12500000000E+03 0.  0.
</event>
<event>
 5    0  0.5503691E-005  0.2635694E+03  0.7546771E-02  0.1105017E+00
         21   -1    0    0  502  501  0.00000000000E+00  0.00000000000E+00  0.11860219172E+04  0.11860219172E+04  0.00000000000E+00 0.  1.
         21   -1    0    0  501  502 -0.00000000000E+00 -0.00000000000E+00 -0.58572960813E+02  0.58572960813E+02  0.00000000000E+00 0. -1.
         25    1    1    2    0    0  0.53946676343E+02  0.89407654973E+02  0.29384338661E+03  0.33596563591E+03  0.12500000000E+03 0.  0.
         25    1    1    2    0    0  0.19302394456E+02 -0.15678467365E+03  0.44601374639E+03  0.48939480820E+03  0.12500000000E+03 0.  0.
         25    1    1    2    0    0 -0.73249070799E+02  0.67377018674E+02  0.38759182340E+03  0.41923443392E+03  0.12500000000E+03 0.  0.
</event>
<event>
 5    0  0.5503691E-005  0.4049304E+03  0.7546771E-02  0.1042086E+00
         21   -1    0    0  502  501  0.00000000000E+00  0.00000000000E+00  0.63533990574E+03  0.63533990574E+03  0.00000000000E+00 0.  1.
         21   -1    0    0  501  502 -0.00000000000E+00 -0.00000000000E+00 -0.25808013900E+03  0.25808013900E+03  0.00000000000E+00 0.  1.
         25    1    1    2    0    0 -0.26844304062E+02  0.35203663002E+02  0.27542541211E+02  0.13543820039E+03  0.12500000000E+03 0.  0.
         25    1    1    2    0    0  0.20377728491E+03  0.40714116125E+02 -0.92652030726E+02  0.25960011536E+03  0.12500000000E+03 0.  0.
         25    1    1    2    0    0 -0.17693298085E+03 -0.75917779127E+02  0.44236925625E+03  0.49838172898E+03  0.12500000000E+03 0.  0.
</event>
<event>
 5    0  0.5503691E-005  0.2797139E+03  0.7546771E-02  0.1095845E+00
         21   -1    0    0  502  501  0.00000000000E+00  0.00000000000E+00  0.85172242846E+03  0.85172242846E+03  0.00000000000E+00 0.  1.
         21   -1    0    0  501  502 -0.00000000000E+00 -0.00000000000E+00 -0.91860731427E+02  0.91860731427E+02  0.00000000000E+00 0.  1.
         25    1    1    2    0    0 -0.50270722459E+02  0.38626860138E+02  0.24755187332E+03  0.28447514803E+03  0.12500000000E+03 0.  0.
         25    1    1    2    0    0  0.23814078054E+02 -0.42775603727E+02  0.51401890769E+03  0.53126010583E+03  0.12500000000E+03 0.  0.
         25    1    1    2    0    0  0.26456644405E+02  0.41487435888E+01 -0.17090839802E+01  0.12784790602E+03  0.12500000000E+03 0.  0.
</event>
<event>
 5    0  0.5503691E-005  0.2495325E+03  0.7546771E-02  0.1113601E+00
         21   -1    0    0  502  501  0.00000000000E+00  0.00000000000E+00  0.43250470552E+03  0.43250470552E+03  0.00000000000E+00 0.  1.
         21   -1    0    0  501  502 -0.00000000000E+00 -0.00000000000E+00 -0.14396718888E+03  0.14396718888E+03  0.00000000000E+00 0.  1.
         25    1    1    2    0    0  0.38838281510E+02 -0.94101668485E+02  0.52774406454E+02  0.16962804632E+03  0.12500000000E+03 0.  0.
         25    1    1    2    0    0 -0.10473417401E+03  0.50513191697E+02  0.18189368462E+03  0.24946170497E+03  0.12500000000E+03 0.  0.
         25    1    1    2    0    0  0.65895892504E+02  0.43588476789E+02  0.53869425567E+02  0.15738214311E+03  0.12500000000E+03 0.  0.
</event>
<event>
 5    0  0.5503691E-005  0.3146645E+03  0.7546771E-02  0.1078131E+00
         21   -1    0    0  502  501  0.00000000000E+00  0.00000000000E+00  0.36183003982E+03  0.36183003982E+03  0.00000000000E+00 0.  1.
         21   -1    0    0  501  502 -0.00000000000E+00 -0.00000000000E+00 -0.27364719883E+03  0.27364719883E+03  0.00000000000E+00 0.  1.
         25    1    1    2    0    0  0.14349868245E+03  0.30907154935E+02 -0.14490853735E+03  0.24118583766E+03  0.12500000000E+03 0.  0.
         25    1    1    2    0    0 -0.88252941579E+02 -0.40245267390E+02  0.19693046334E+03  0.25261605380E+03  0.12500000000E+03 0.  0.
         25    1    1    2    0    0 -0.55245740873E+02  0.93381124546E+01  0.36160915007E+02  0.14167534720E+03  0.12500000000E+03 0.  0.
</event>
<event>
 5    0  0.5503691E-005  0.2643282E+03  0.7546771E-02  0.1104570E+00
         21   -1    0    0  502  501  0.00000000000E+00  0.00000000000E+00  0.23275981058E+03  0.23275981058E+03  0.00000000000E+00 0. -1.
         21   -1    0    0  501  502 -0.00000000000E+00 -0.00000000000E+00 -0.30017801729E+03  0.30017801729E+03  0.00000000000E+00 0. -1.
         25    1    1    2    0    0  0.33970403756E+02 -0.76272916050E+02  0.10583501938E+03  0.18384122873E+03  0.12500000000E+03 0.  0.
         25    1    1    2    0    0 -0.63077560349E+01 -0.84741614355E+01 -0.14714408150E+03  0.19335971638E+03  0.12500000000E+03 0.  0.
         25    1    1    2    0    0 -0.27662647721E+02  0.84747077486E+02 -0.26109144589E+02  0.15573688276E+03  0.12500000000E+03 0.  0.
</event>
<event>
 5    0  0.5503691E-005  0.2976576E+03  0.7546771E-02  0.1086417E+00
         21   -1    0    0  502  501  0.00000000000E+00  0.00000000000E+00  0.43501022141E+03  0.43501022141E+03  0.00000000000E+00 0.  1.
         21   -1    0    0  501  502 -0.00000000000E+00 -0.00000000000E+00 -0.20367347053E+03  0.20367347053E+03  0.00000000000E+00 0.  1.
         25    1    1    2    0    0 -0.96940138678E+02  0.90159808591E+02  0.38372724401E+02  0.18607430653E+03  0.12500000000E+03 0.  0.
         25    1    1    2    0    0  0.37730640071E+02  0.47995862496E+02  0.21478682090E+03  0.25590150927E+03  0.12500000000E+03 0.  0.
         25    1    1    2    0    0  0.59209498607E+02 -0.13815567109E+03 -0.21822794415E+02  0.19670787614E+03  0.12500000000E+03 0.  0.
</event>
<event>
 5    0  0.5503691E-005  0.3803729E+03  0.7546771E-02  0.1050796E+00
         21   -1    0    0  502  501  0.00000000000E+00  0.00000000000E+00  0.42408597598E+03  0.42408597598E+03  0.00000000000E+00 0.  1.
         21   -1    0    0  501  502 -0.00000000000E+00 -0.00000000000E+00 -0.34116559952E+03  0.34116559952E+03  0.00000000000E+00 0.  1.
         25    1    1    2    0    0 -0.78299326861E+02  0.84183769884E+02 -0.90077293953E+02  0.19224102212E+03  0.12500000000E+03 0.  0.
         25    1    1    2    0    0  0.20090775431E+03 -0.18295105703E+03 -0.12658741725E+02  0.29936642890E+03  0.12500000000E+03 0.  0.
         25    1    1    2    0    0 -0.12260842745E+03  0.98767287141E+02  0.18565641214E+03  0.27364412448E+03  0.12500000000E+03 0.  0.
</event>
<event>
 5    0  0.5503691E-005  0.3079969E+03  0.7546771E-02  0.1081310E+00
         21   -1    0    0  502  501  0.00000000000E+00  0.00000000000E+00  0.31438015180E+03  0.31438015180E+03  0.00000000000E+00 0. -1.
         21   -1    0    0  501  502 -0.00000000000E+00 -0.00000000000E+00 -0.30174318103E+03  0.30174318103E+03  0.00000000000E+00 0. -1.
         25    1    1    2    0    0  0.84693654264E+02  0.17239560255E+03  0.56589430721E+02  0.23605216059E+03  0.12500000000E+03 0.  0.
         25    1    1    2    0    0  0.59362179885E+02 -0.75529498527E+02  0.14491912762E+02  0.15831484164E+03  0.12500000000E+03 0.  0.
         25    1    1    2    0    0 -0.14405583415E+03 -0.96866104021E+02 -0.58444372715E+02  0.22175633060E+03  0.12500000000E+03 0.  0.
</event>
<event>
 5    0  0.5503691E-005  0.2813575E+03  0.7546771E-02  0.1094950E+00
         21   -1    0    0  502  501  0.00000000000E+00  0.00000000000E+00  0.33673713522E+02  0.33673713522E+02  0.00000000000E+00 0.  1.
         21   -1    0    0  501  502 -0.00000000000E+00 -0.00000000000E+00 -0.23508552683E+04  0.23508552683E+04  0.00000000000E+00 0.  1.
         25    1    1    2    0    0  0.10885937843E+03  0.80501238109E+01 -0.60061581363E+03  0.62312079435E+03  0.12500000000E+03 0.  0.
         25    1    1    2    0    0  0.90001751863E+02 -0.36526385691E+02 -0.69497733330E+03  0.71277835685E+03  0.12500000000E+03 0.  0.
         25    1    1    2    0    0 -0.19886113029E+03  0.28476261880E+02 -0.10215884078E+04  0.10486298306E+04  0.12500000000E+03 0.  0.
</event>
<event>
 5    0  0.5503691E-005  0.3763546E+03  0.7546771E-02  0.1052289E+00
         21   -1    0    0  502  501  0.00000000000E+00  0.00000000000E+00  0.83993746483E+02  0.83993746483E+02  0.00000000000E+00 0.  1.
         21   -1    0    0  501  502 -0.00000000000E+00 -0.00000000000E+00 -0.16863494039E+04  0.16863494039E+04  0.00000000000E+00 0.  1.
         25    1    1    2    0    0 -0.38171644546E+02 -0.23506945501E+03 -0.66966426750E+03  0.72165778199E+03  0.12500000000E+03 0.  0.
         25    1    1    2    0    0  0.11866136300E+03  0.83376916552E+02 -0.16693274377E+03  0.25401529526E+03  0.12500000000E+03 0.  0.
         25    1    1    2    0    0 -0.80489718450E+02  0.15169253846E+03 -0.76575864610E+03  0.79467007310E+03  0.12500000000E+03 0.  0.
</event>
<event>
 5    0  0.5503691E-005  0.4805814E+03  0.7546771E-02  0.1018976E+00
         21   -1    0    0  502  501  0.00000000000E+00  0.00000000000E+00  0.27753689760E+03  0.27753689760E+03  0.00000000000E+00 0.  1.
         21   -1    0    0  501  502 -0.00000000000E+00 -0.00000000000E+00 -0.83217225068E+03  0.83217225068E+03  0.00000000000E+00 0.  1.
         25    1    1    2    0    0 -0.15469881707E+03 -0.13036872632E+02 -0.85471933994E+02  0.21686893635E+03  0.12500000000E+03 0.  0.
         25    1    1    2    0    0  0.42487366950E+03  0.38371100486E+02 -0.18826774210E+03  0.48276259083E+03  0.12500000000E+03 0.  0.
         25    1    1    2    0    0 -0.27017485242E+03 -0.25334227854E+02 -0.28089567699E+03  0.41007762111E+03  0.12500000000E+03 0.  0.
</event>
<event>
 5    0  0.5503691E-005  0.2340989E+03  0.7546771E-02  0.1123788E+00
         21   -1    0    0  502  501  0.00000000000E+00  0.00000000000E+00  0.15389640055E+04  0.15389640055E+04  0.00000000000E+00 0.  1.
         21   -1    0    0  501  502 -0.00000000000E+00 -0.00000000000E+00 -0.35609874831E+02  0.35609874831E+02  0.00000000000E+00 0.  1.
         25    1    1    2    0    0 -0.72334286880E+02  0.56394656684E+02  0.58852651369E+03  0.60860583605E+03  0.12500000000E+03 0.  0.
         25    1    1    2    0    0  0.66073139250E+02 -0.59917276310E+02  0.28421886579E+03  0.32304969185E+03  0.12500000000E+03 0.  0.
         25    1    1    2    0    0  0.62611476301E+01  0.35226196254E+01  0.63060875121E+03  0.64291835245E+03  0.12500000000E+03 0.  0.
</event>
<event>
 5    0  0.5503691E-005  0.3958090E+03  0.7546771E-02  0.1045241E+00
         21   -1    0    0  502  501  0.00000000000E+00  0.00000000000E+00  0.68301649237E+03  0.68301649237E+03  0.00000000000E+00 0. -1.
         21   -1    0    0  501  502 -0.00000000000E+00 -0.00000000000E+00 -0.22937180472E+03  0.22937180472E+03  0.00000000000E+00 0. -1.
         25    1    1    2    0    0 -0.15159652943E+03  0.24496947867E+03  0.11920647055E+03  0.33589691251E+03  0.12500000000E+03 0.  0.
         25    1    1    2    0    0  0.60530037823E+02 -0.26937438177E+03  0.27430529023E+03  0.40877235142E+03  0.12500000000E+03 0.  0.
         25    1    1    2    0    0  0.91066491606E+02  0.24404903103E+02  0.60132926865E+02  0.16771903315E+03  0.12500000000E+03 0.  0.
</event>
<event>
 5    0  0.5503691E-005  0.3834140E+03  0.7546771E-02  0.1049679E+00
         21   -1    0    0  502  501  0.00000000000E+00  0.00000000000E+00  0.39186008993E+03  0.39186008993E+03  0.00000000000E+00 0. -1.
         21   -1    0    0  501  502 -0.00000000000E+00 -0.00000000000E+00 -0.37514988690E+03  0.37514988690E+03  0.00000000000E+00 0. -1.
         25    1    1    2    0    0  0.24185753282E+03 -0.13848305567E+03 -0.12805247368E+03  0.33120244399E+03  0.12500000000E+03 0.  0.
         25    1    1    2    0    0 -0.18814968164E+03  0.10769584145E+03  0.15758318392E+03  0.29572987137E+03  0.12500000000E+03 0.  0.
         25    1    1    2    0    0 -0.53707851183E+02  0.30787214215E+02 -0.12820507214E+02  0.14007766147E+03  0.12500000000E+03 0.  0.
</event>
<event>
 5    0  0.5503691E-005  0.2299720E+03  0.7546771E-02  0.1126659E+00
         21   -1    0    0  502  501  0.00000000000E+00  0.00000000000E+00  0.39058051658E+03  0.39058051658E+03  0.00000000000E+00 0. -1.
         21   -1    0    0  501  502 -0.00000000000E+00 -0.00000000000E+00 -0.13540641578E+03  0.13540641578E+03  0.00000000000E+00 0. -1.
         25    1    1    2    0    0 -0.22376393203E+02 -0.11269267675E+02  0.64482281285E+02  0.14286589504E+03  0.12500000000E+03 0.  0.
         25    1    1    2    0    0  0.11477800495E+02 -0.10307056717E+03  0.88188411346E+02  0.18481741697E+03  0.12500000000E+03 0.  0.
         25    1    1    2    0    0  0.10898592707E+02  0.11433983484E+03  0.10250340817E+03  0.19830362034E+03  0.12500000000E+03 0.  0.
</event>
<event>
 5    0  0.5503691E-005  0.3570869E+03  0.7546771E-02  0.1059743E+00
         21   -1    0    0  502  501  0.00000000000E+00  0.00000000000E+00  0.53112062538E+02  0.53112062538E+02  0.00000000000E+00 0. -1.
         21   -1    0    0  501  502 -0.00000000000E+00 -0.00000000000E+00 -0.24007923826E+04  0.24007923826E+04  0.00000000000E+00 0. -1.
         25    1    1    2    0    0  0.11357085202E+03  0.21086440803E+03 -0.63729132774E+03  0.69219027255E+03  0.12500000000E+03 0.  0.
         25    1    1    2    0    0 -0.14505321153E+03 -0.18577938050E+03 -0.83656993702E+03  0.87808238334E+03  0.12500000000E+03 0.  0.
         25    1    1    2    0    0  0.31482359508E+02 -0.25085027532E+02 -0.87381905534E+03  0.88363178929E+03  0.12500000000E+03 0.  0.
</event>
<event>
 5    0  0.5503691E-005  0.3138953E+03  0.7546771E-02  0.1078494E+00
         21   -1    0    0  502  501  0.00000000000E+00  0.00000000000E+00  0.11643058602E+03  0.11643058602E+03  0.00000000000E+00 0.  1.
         21   -1    0    0  501  502 -0.00000000000E+00 -0.00000000000E+00 -0.84625732235E+03  0.84625732235E+03  0.00000000000E+00 0.  1.
         25    1    1    2    0    0  0.26866821076E+02 -0.12342160945E+03 -0.36554878868E+03  0.40645496264E+03  0.12500000000E+03 0.  0.
         25    1    1    2    0    0  0.11964165292E+03  0.13492180337E+03 -0.24731644758E+03  0.33061827442E+03  0.12500000000E+03 0.  0.
         25    1    1    2    0    0 -0.14650847399E+03 -0.11500193921E+02 -0.11696150007E+03  0.22561467131E+03  0.12500000000E+03 0.  0.
</event>
<event>
 5    0  0.5503691E-005  0.3643960E+03  0.7546771E-02  0.1056857E+00
         21   -1    0    0  502  501  0.00000000000E+00  0.00000000000E+00  0.37971655792E+03  0.37971655792E+03  0.00000000000E+00 0.  1.
         21   -1    0    0  501  502 -0.00000000000E+00 -0.00000000000E+00 -0.34969361740E+03  0.34969361740E+03  0.00000000000E+00 0.  1.
         25    1    1    2    0    0  0.63056848653E+02 -0.10314537119E+03 -0.32157525483E+02  0.17684524366E+03  0.12500000000E+03 0.  0.
         25    1    1    2    0    0  0.12298552188E+02 -0.49825596227E+02 -0.18385020088E+03  0.22816603777E+03  0.12500000000E+03 0.  0.
         25    1    1    2    0    0 -0.75355400842E+02  0.15297096742E+03  0.24603066689E+03  0.32439889390E+03  0.12500000000E+03 0.  0.
</event>
<event>
 5    0  0.5503691E-005  0.6212620E+03  0.7546771E-02  0.9862250E-01
         21   -1    0    0  502  501  0.00000000000E+00  0.00000000000E+00  0.32149648742E+03  0.32149648742E+03  0.00000000000E+00 0. -1.
         21   -1    0    0  501  502 -0.00000000000E+00 -0.00000000000E+00 -0.12005307500E+04  0.12005307500E+04  0.00000000000E+00 0. -1.
         25    1    1    2    0    0 -0.18858674765E+03 -0.30029633096E+03 -0.80351823872E+03  0.88713550697E+03  0.12500000000E+03 0.  0.
         25    1    1    2    0    0  0.31586641754E+02 -0.32918090893E+02  0.13754962973E+03  0.19137977240E+03  0.12500000000E+03 0.  0.
         25    1    1    2    0    0  0.15700010590E+03  0.33321442186E+03 -0.21306565360E+03  0.44351195805E+03  0.12500000000E+03 0.  0.
</event>
<event>
 5    0  0.5503691E-005  0.4414030E+03  0.7546771E-02  0.1030317E+00
         21   -1    0    0  502  501  0.00000000000E+00  0.00000000000E+00  0.37273831222E+03  0.37273831222E+03  0.00000000000E+00 0.  1.
         21   -1    0    0  501  502 -0.00000000000E+00 -0.00000000000E+00 -0.52271688071E+03  0.52271688071E+03  0.00000000000E+00 0.  1.
         25    1    1    2    0    0  0.20687326640E+03  0.25523640472E+02 -0.22622409215E+03  0.33203967299E+03  0.12500000000E+03 0.  0.
         25    1    1    2    0    0 -0.82148047402E+02  0.13189769642E+03  0.21168099200E+03  0.29082494114E+03  0.12500000000E+03 0.  0.
         25    1    1    2    0    0 -0.12472521899E+03 -0.15742133689E+03 -0.13543546835E+03  0.27259057880E+03  0.12500000000E+03 0.  0.
</event>
<event>
 5    0  0.5503691E-005  0.2885049E+03  0.7546771E-02  0.1091132E+00
         21   -1    0    0  502  501  0.00000000000E+00  0.00000000000E+00  0.75733837049E+03  0.75733837049E+03  0.00000000000E+00 0. -1.
         21   -1    0    0  501  502 -0.00000000000E+00 -0.00000000000E+00 -0.10990470845E+03  0.10990470845E+03  0.00000000000E+00 0. -1.
         25    1    1    2    0    0  0.86221892799E+02 -0.15679781275E+02  0.13527850335E+03  0.20397388021E+03  0.12500000000E+03 0.  0.
         25    1    1    2    0    0  0.88056902527E+02 -0.88363908310E+02  0.27641700738E+03  0.32801457337E+03  0.12500000000E+03 0.  0.
         25    1    1    2    0    0 -0.17427879533E+03  0.10404368959E+03  0.23573815131E+03  0.33525462536E+03  0.12500000000E+03 0.  0.
</event>
<event>
 5    0  0.5503691E-005  0.5162337E+03  0.7546771E-02  0.1009626E+00
         21   -1    0    0  502  501  0.00000000000E+00  0.00000000000E+00  0.55867366693E+03  0.55867366693E+03  0.00000000000E+00 0.  1.
         21   -1    0    0  501  502 -0.00000000000E+00 -0.00000000000E+00 -0.47701763264E+03  0.47701763264E+03  0.00000000000E+00 0.  1.
         25    1    1    2    0    0  0.29644524325E+03  0.25327790275E+03  0.10645830197E+03  0.42306955495E+03  0.12500000000E+03 0.  0.
         25    1    1    2    0    0 -0.18797896365E+03 -0.15309744905E+03 -0.21043744693E+03  0.34450520860E+03  0.12500000000E+03 0.  0.
         25    1    1    2    0    0 -0.10846627960E+03 -0.10018045369E+03  0.18563517925E+03  0.26811653602E+03  0.12500000000E+03 0.  0.
</event>
<event>
 5    0  0.5503691E-005  0.2920155E+03  0.7546771E-02  0.1089301E+00
         21   -1    0    0  502  501  0.00000000000E+00  0.00000000000E+00  0.67642597818E+03  0.67642597818E+03  0.00000000000E+00 0.  1.
         21   -1    0    0  501  502 -0.00000000000E+00 -0.00000000000E+00 -0.12606414509E+03  0.12606414509E+03  0.00000000000E+00 0.  1.
         25    1    1    2    0    0  0.61943157567E+02  0.55421770178E+00  0.20658589316E+03  0.24927894653E+03  0.12500000000E+03 0.  0.
         25    1    1    2    0    0 -0.13460703259E+03  0.10390688702E+00  0.37644594309E+01  0.18373414265E+03  0.12500000000E+03 0.  0.
         25    1    1    2    0    0  0.72663875021E+02 -0.65812458880E+00  0.34001148049E+03  0.36947703410E+03  0.12500000000E+03 0.  0.
</event>
<event>
 5    0  0.5503691E-005  0.3863365E+03  0.7546771E-02  0.1048616E+00
         21   -1    0    0  502  501  0.00000000000E+00  0.00000000000E+00  0.16518076822E+04  0.16518076822E+04  0.00000000000E+00 0.  1.
         21   -1    0    0  501  502 -0.00000000000E+00 -0.00000000000E+00 -0.90359123114E+02  0.90359123114E+02  0.00000000000E+00 0.  1.
         25    1    1    2    0    0 -0.21952101616E+03 -0.38197422348E+02  0.10047033094E+04  0.10366784745E+04  0.12500000000E+03 0.  0.
         25    1    1    2    0    0 -0.13617925338E+02  0.90148169374E+02  0.13716126042E+03  0.20676158176E+03  0.12500000000E+03 0.  0.
         25    1    1    2    0    0  0.23313894150E+03 -0.51950747027E+02  0.41958398929E+03  0.49872674906E+03  0.12500000000E+03 0.  0.
</event>
<event>
 5    0  0.5503691E-005  0.3165094E+03  0.7546771E-02  0.1077267E+00
         21   -1    0    0  502  501  0.00000000000E+00  0.00000000000E+00  0.12850171302E+03  0.12850171302E+03  0.00000000000E+00 0.  1.
         21   -1    0    0  501  502 -0.00000000000E+00 -0.00000000000E+00 -0.77958635545E+03  0.77958635545E+03  0.00000000000E+00 0.  1.
         25    1    1    2    0    0  0.19799614397E+01 -0.81473168065E+02 -0.35947020714E+03  0.38921154554E+03  0.12500000000E+03 0.  0.
         25    1    1    2    0    0  0.14496980970E+03  0.13689624732E+02 -0.24127100855E+03  0.30828615135E+03  0.12500000000E+03 0.  0.
         25    1    1    2    0    0 -0.14694977114E+03  0.67783543333E+02 -0.50343426739E+02  0.21059037158E+03  0.12500000000E+03 0.  0.
</event>
<event>
 5    0  0.5503691E-005  0.3519217E+03  0.7546771E-02  0.1061829E+00
         21   -1    0    0  502  501  0.00000000000E+00  0.00000000000E+00  0.77620023494E+02  0.77620023494E+02  0.00000000000E+00 0.  1.
         21   -1    0    0  501  502 -0.00000000000E+00 -0.00000000000E+00 -0.15955786727E+04  0.15955786727E+04  0.00000000000E+00 0.  1.
         25    1    1    2    0    0  0.12295068353E+03 -0.11796285861E+03 -0.48176168784E+03  0.52607169707E+03  0.12500000000E+03 0.  0.
         25    1    1    2    0    0  0.86690144390E+02  0.53004341196E+02 -0.74244626435E+03  0.75972106511E+03  0.12500000000E+03 0.  0.
         25    1    1    2    0    0 -0.20964082792E+03  0.64958517416E+02 -0.29375069703E+03  0.38740593403E+03  0.12500000000E+03 0.  0.
</event>
<event>
 5    0  0.5503691E-005  0.2936697E+03  0.7546771E-02  0.1088449E+00
         21   -1    0    0  502  501  0.00000000000E+00  0.00000000000E+00  0.87621745555E+03  0.87621745555E+03  0.00000000000E+00 0.  1.
         21   -1    0    0  501  502 -0.00000000000E+00 -0.00000000000E+00 -0.98425226658E+02  0.98425226658E+02  0.00000000000E+00 0.  1.
         25    1    1    2    0    0  0.46705857713E+02 -0.78086374851E+02  0.37888924293E+03  0.40921996223E+03  0.12500000000E+03 0.  0.
         25    1    1    2    0    0  0.84900227572E+02  0.61799987489E+02  0.48240585213E+02  0.17023349012E+03  0.12500000000E+03 0.  0.
         25    1    1    2    0    0 -0.13160608528E+03  0.16286387362E+02  0.35066240075E+03  0.39518922986E+03  0.12500000000E+03 0.  0.
</event>
<event>
 5    0  0.5503691E-005  0.2195043E+03  0.7546771E-02  0.1134253E+00
         21   -1    0    0  502  501  0.00000000000E+00  0.00000000000E+00  0.58237792894E+03  0.58237792894E+03  0.00000000000E+00 0. -1.
         21   -1    0    0  501  502 -0.00000000000E+00 -0.00000000000E+00 -0.82733431447E+02  0.82733431447E+02  0.00000000000E+00 0. -1.
         25    1    1    2    0    0  0.45931383212E+01 -0.11765812643E+02  0.24979320264E+03  0.27960896865E+03  0.12500000000E+03 0.  0.
         25    1    1    2    0    0  0.55054102453E+02  0.28953150948E+02  0.65343968418E+02  0.15415600331E+03  0.12500000000E+03 0.  0.
         25    1    1    2    0    0 -0.59647240774E+02 -0.17187338306E+02  0.18450732644E+03  0.23134638843E+03  0.12500000000E+03 0.  0.
</event>
<event>
 5    0  0.5503691E-005  0.2862014E+03  0.7546771E-02  0.1092349E+00
         21   -1    0    0  502  501  0.00000000000E+00  0.00000000000E+00  0.78469266305E+02  0.78469266305E+02  0.00000000000E+00 0. -1.
         21   -1    0    0  501  502 -0.00000000000E+00 -0.00000000000E+00 -0.10438643222E+04  0.10438643222E+04  0.00000000000E+00 0. -1.
         25    1    1    2    0    0  0.13516112604E+03 -0.11934881150E+03 -0.27296646311E+03  0.35021187699E+03  0.12500000000E+03 0.  0.
         25    1    1    2    0    0  0.80801064866E+01  0.26152955415E+02 -0.30169803412E+03  0.32771324201E+03  0.12500000000E+03 0.  0.
         25    1    1    2    0    0 -0.14324123253E+03  0.93195856088E+02 -0.39073055862E+03  0.44440846946E+03  0.12500000000E+03 0.  0.
</event>
<event>
 5    0  0.5503691E-005  0.2959562E+03  0.7546771E-02  0.1087280E+00
         21   -1    0    0  502  501  0.00000000000E+00  0.00000000000E+00  0.96949294537E+02  0.96949294537E+02  0.00000000000E+00 0.  1.
         21   -1    0    0  501  502 -0.00000000000E+00 -0.00000000000E+00 -0.90346270775E+03  0.90346270775E+03  0.00000000000E+00 0.  1.
         25    1    1    2    0    0  0.27928556330E+02 -0.17442131932E+03 -0.25095107205E+03  0.33136723051E+03  0.12500000000E+03 0.  0.
         25    1    1    2    0    0 -0.35570484429E+02  0.19384145802E+03 -0.27164973782E+03  0.35813174988E+03  0.12500000000E+03 0.  0.
         25    1    1    2    0    0  0.76419280987E+01 -0.19420138694E+02 -0.28391260334E+03  0.31091302190E+03  0.12500000000E+03 0.  0.
</event>
<event>
 5    0  0.5503691E-005  0.2694156E+03  0.7546771E-02  0.1101615E+00
         21   -1    0    0  502  501  0.00000000000E+00  0.00000000000E+00  0.19872506594E+04  0.19872506594E+04  0.00000000000E+00 0.  1.
         21   -1    0    0  501  502 -0.00000000000E+00 -0.00000000000E+00 -0.36525219658E+02  0.36525219658E+02  0.00000000000E+00 0.  1.
         25    1    1    2    0    0  0.11788351186E+03 -0.37875622046E+02  0.80137333370E+03  0.82046042261E+03  0.12500000000E+03 0.  0.
         25    1    1    2    0    0 -0.91769520352E+02 -0.86427739028E+02  0.53943386008E+03  0.56789549068E+03  0.12500000000E+03 0.  0.
         25    1    1    2    0    0 -0.26113991506E+02  0.12430336107E+03  0.60991824600E+03  0.63541996580E+03  0.12500000000E+03 0.  0.
</event>
<event>
 5    0  0.5503691E-005  0.3760597E+03  0.7546771E-02  0.1052400E+00
         21   -1    0    0  502  501  0.00000000000E+00  0.00000000000E+00  0.63747621329E+03  0.63747621329E+03  0.00000000000E+00 0. -1.
         21   -1    0    0  501  502 -0.00000000000E+00 -0.00000000000E+00 -0.22184496712E+03  0.22184496712E+03  0.00000000000E+00 0. -1.
         25    1    1    2    0    0 -0.53881458843E+02  0.29394014522E+03  0.11765277808E+03  0.34463197294E+03  0.12500000000E+03 0.  0.
         25    1    1    2    0    0  0.38554213907E+02 -0.10344816800E+03  0.42648165311E+02  0.17213894642E+03  0.12500000000E+03 0.  0.
         25    1    1    2    0    0  0.15327244935E+02 -0.19049197723E+03  0.25533030278E+03  0.34255026105E+03  0.12500000000E+03 0.  0.
</event>
<event>
 5    0  0.5503691E-005  0.3326530E+03  0.7546771E-02  0.1069969E+00
         21   -1    0    0  502  501  0.00000000000E+00  0.00000000000E+00  0.24517294230E+03  0.24517294230E+03  0.00000000000E+00 0. -1.
         21   -1    0    0  501  502 -0.00000000000E+00 -0.00000000000E+00 -0.45134678328E+03  0.45134678328E+03  0.00000000000E+00 0. -1.
         25    1    1    2    0    0  0.51041119853E+02  0.18422838011E+03 -0.14273760623E+03  0.26934052087E+03  0.12500000000E+03 0.  0.
         25    1    1    2    0    0  0.39505557030E+02  0.46252074118E+02  0.12524083515E+02  0.13957720467E+03  0.12500000000E+03 0.  0.
         25    1    1    2    0    0 -0.90546676883E+02 -0.23048045422E+03 -0.75960318259E+02  0.28760200003E+03  0.12500000000E+03 0.  0.
</event>
<event>
 5    0  0.5503691E-005  0.3619232E+03  0.7546771E-02  0.1057825E+00
         21   -1    0    0  502  501  0.00000000000E+00  0.00000000000E+00  0.10292543745E+04  0.10292543745E+04  0.00000000000E+00 0. -1.
         21   -1    0    0  501  502 -0.00000000000E+00 -0.00000000000E+00 -0.12726534620E+03  0.12726534620E+03  0.00000000000E+00 0. -1.
         25    1    1    2    0    0  0.57396497209E+02  0.11353939412E+03  0.30733981891E+03  0.35534253362E+03  0.12500000000E+03 0.  0.
         25    1    1    2    0    0  0.51744646180E+02 -0.19966498424E+03  0.56176031687E+03  0.61134545713E+03  0.12500000000E+03 0.  0.
         25    1    1    2    0    0 -0.10914114339E+03  0.86125590112E+02  0.32888892531E+02  0.18983172997E+03  0.12500000000E+03 0.  0.
</event>
<event>
 5    0  0.5503691E-005  0.3570137E+03  0.7546771E-02  0.1059773E+00
         21   -1    0    0  502  501  0.00000000000E+00  0.00000000000E+00  0.13288788178E+03  0.13288788178E+03  0.00000000000E+00 0.  1.
         21   -1    0    0  501  502 -0.00000000000E+00 -0.00000000000E+00 -0.95914546374E+03  0.95914546374E+03  0.00000000000E+00 0.  1.
         25    1    1    2    0    0  0.15999778941E+02 -0.72603376886E+02 -0.38930666349E+03  0.41558623834E+03  0.12500000000E+03 0.  0.
         25    1    1    2    0    0  0.83336332891E+02  0.12257974235E+03 -0.46773845724E+03  0.50633487140E+03  0.12500000000E+03 0.  0.
         25    1    1    2    0    0 -0.99336111832E+02 -0.49976365465E+02  0.30787538775E+02  0.17011223578E+03  0.12500000000E+03 0.  0.
</event>
<event>
 5    0  0.5503691E-005  0.2528311E+03  0.7546771E-02  0.1111529E+00
         21   -1    0    0  502  501  0.00000000000E+00  0.00000000000E+00  0.38869188184E+02  0.38869188184E+02  0.00000000000E+00 0.  1.
         21   -1    0    0  501  502 -0.00000000000E+00 -0.00000000000E+00 -0.16445823347E+04  0.16445823347E+04  0.00000000000E+00 0.  1.
         25    1    1    2    0    0 -0.34308582283E+02 -0.22229887071E+02 -0.53667620376E+03  0.55255551249E+03  0.12500000000E+03 0.  0.
         25    1    1    2    0    0  0.12293019446E+02  0.13518214560E+03 -0.39820765273E+03  0.43888456969E+03  0.12500000000E+03 0.  0.
         25    1    1    2    0    0  0.22015562837E+02 -0.11295225853E+03 -0.67082929004E+03  0.69201144072E+03  0.12500000000E+03 0.  0.
</event>
<event>
 5    0  0.5503691E-005  0.2654094E+03  0.7546771E-02  0.1103936E+00
         21   -1    0    0  502  501  0.00000000000E+00  0.00000000000E+00  0.18925786107E+03  0.18925786107E+03  0.00000000000E+00 0. -1.
         21   -1    0    0  501  502 -0.00000000000E+00 -0.00000000000E+00 -0.37220187346E+03  0.37220187346E+03  0.00000000000E+00 0. -1.
         25    1    1    2    0    0 -0.36549530177E+02 -0.16933917310E+03 -0.61486064655E+02  0.22229970726E+03  0.12500000000E+03 0.  0.
         25    1    1    2    0    0  0.46205809556E+02  0.11816172775E+03 -0.45217674313E+02  0.18375747280E+03  0.12500000000E+03 0.  0.
         25    1    1    2    0    0 -0.96562793789E+01  0.51177445352E+02 -0.76240273417E+02  0.15540255447E+03  0.12500000000E+03 0.  0.
</event>
<event>
 5    0  0.5503691E-005  0.2879262E+03  0.7546771E-02  0.1091437E+00
         21   -1    0    0  502  501  0.00000000000E+00  0.00000000000E+00  0.19951368061E+03  0.19951368061E+03  0.00000000000E+00 0.  1.
         21   -1    0    0  501  502 -0.00000000000E+00 -0.00000000000E+00 -0.41551787470E+03  0.41551787470E+03  0.00000000000E+00 0.  1.
         25    1    1    2    0    0  0.27705155943E+02  0.31925252115E+02 -0.12340898279E+03  0.18066979388E+03  0.12500000000E+03 0.  0.
         25    1    1    2    0    0  0.59141940777E+02  0.83166495309E+02 -0.16450650957E+03  0.23043833620E+03  0.12500000000E+03 0.  0.
         25    1    1    2    0    0 -0.86847096720E+02 -0.11509174742E+03  0.71911298271E+02  0.20392342522E+03  0.12500000000E+03 0.  0.
</event>
<event>
 5    0  0.5503691E-005  0.4759068E+03  0.7546771E-02  0.1020266E+00
         21   -1    0    0  502  501  0.00000000000E+00  0.00000000000E+00  0.25590921959E+03  0.25590921959E+03  0.00000000000E+00 0. -1.
         21   -1    0    0  501  502 -0.00000000000E+00 -0.00000000000E+00 -0.88502974996E+03  0.88502974996E+03  0.00000000000E+00 0. -1.
         25    1    1    2    0    0 -0.89321617916E+02  0.43915569712E+02 -0.17589316261E+03  0.23763487401E+03  0.12500000000E+03 0.  0.
         25    1    1    2    0    0  0.28720982267E+03  0.10871098054E+03  0.42474057811E+02  0.33427025760E+03  0.12500000000E+03 0.  0.
         25    1    1    2    0    0 -0.19788820475E+03 -0.15262655025E+03 -0.49570142556E+03  0.56903383794E+03  0.12500000000E+03 0.  0.
</event>
<event>
 5    0  0.5503691E-005  0.2929384E+03  0.7546771E-02  0.1088825E+00
         21   -1    0    0  502  501  0.00000000000E+00  0.00000000000E+00  0.15467086939E+03  0.15467086939E+03  0.00000000000E+00 0.  1.
         21   -1    0    0  501  502 -0.00000000000E+00 -0.00000000000E+00 -0.55480990614E+03  0.55480990614E+03  0.00000000000E+00 0.  1.
         25    1    1    2    0    0  0.36813910453E+02  0.48966200236E+02 -0.39925905176E+03  0.42283063179E+03  0.12500000000E+03 0.  0.
         25    1    1    2    0    0 -0.63674108512E+02  0.76030481928E+01 -0.30443137165E+02  0.14374972361E+03  0.12500000000E+03 0.  0.
         25    1    1    2    0    0  0.26860198059E+02 -0.56569248429E+02  0.29563152174E+02  0.14290042013E+03  0.12500000000E+03 0.  0.
</event>
<event>
 5    0  0.5503691E-005  0.3131563E+03  0.7546771E-02  0.1078843E+00
         21   -1    0    0  502  501  0.00000000000E+00  0.00000000000E+00  0.11022085600E+04  0.11022085600E+04  0.00000000000E+00 0.  1.
         21   -1    0    0  501  502 -0.00000000000E+00 -0.00000000000E+00 -0.88973044317E+02  0.88973044317E+02  0.00000000000E+00 0.  1.
         25    1    1    2    0    0  0.15448435142E+03 -0.66556144076E+02  0.15527992731E+03  0.26082942889E+03  0.12500000000E+03 0.  0.
         25    1    1    2    0    0 -0.16223529729E+03  0.96264647781E+02  0.61665339814E+03  0.65686649141E+03  0.12500000000E+03 0.  0.
         25    1    1    2    0    0  0.77509458672E+01 -0.29708503705E+02  0.24130219025E+03  0.27348568404E+03  0.12500000000E+03 0.  0.
</event>
<event>
 5    0  0.5503691E-005  0.4956509E+03  0.7546771E-02  0.1014920E+00
         21   -1    0    0  502  501  0.00000000000E+00  0.00000000000E+00  0.23630718222E+03  0.23630718222E+03  0.00000000000E+00 0.  1.
         21   -1    0    0  501  502 -0.00000000000E+00 -0.00000000000E+00 -0.10396204005E+04  0.10396204005E+04  0.00000000000E+00 0.  1.
         25    1    1    2    0    0 -0.19546862829E+03 -0.17948233329E+03 -0.74854369325E+03  0.80396800516E+03  0.12500000000E+03 0.  0.
         25    1    1    2    0    0  0.15556769417E+03  0.15583238598E+03  0.95914929119E+02  0.27075766585E+03  0.12500000000E+03 0.  0.
         25    1    1    2    0    0  0.39900934119E+02  0.23649947308E+02 -0.15068445411E+03  0.20120191168E+03  0.12500000000E+03 0.  0.
</event>
<event>
 5    0  0.5503691E-005  0.3563899E+03  0.7546771E-02  0.1060023E+00
         21   -1    0    0  502  501  0.00000000000E+00  0.00000000000E+00  0.18309391492E+04  0.18309391492E+04  0.00000000000E+00 0.  1.
         21   -1    0    0  501  502 -0.00000000000E+00 -0.00000000000E+00 -0.69370810657E+02  0.69370810657E+02  0.00000000000E+00 0.  1.
         25    1    1    2    0    0 -0.18592974184E+03 -0.21093089846E+02  0.32157897309E+03  0.39249563472E+03  0.12500000000E+03 0.  0.
         25    1    1    2    0    0  0.21411555273E+03  0.12888320125E+03  0.87512146350E+03  0.91865060026E+03  0.12500000000E+03 0.  0.
         25    1    1    2    0    0 -0.28185810895E+02 -0.10779011140E+03  0.56486790198E+03  0.58916372490E+03  0.12500000000E+03 0.  0.
</event>
<event>
 5    0  0.5503691E-005  0.2487106E+03  0.7546771E-02  0.1114122E+00
         21   -1    0    0  502  501  0.00000000000E+00  0.00000000000E+00  0.44533713094E+03  0.44533713094E+03  0.00000000000E+00 0.  1.
         21   -1    0    0  501  502 -0.00000000000E+00 -0.00000000000E+00 -0.13889919241E+03  0.13889919241E+03  0.00000000000E+00 0.  1.
         25    1    1    2    0    0  0.11032671303E+03 -0.29763346962E+02  0.11069985114E+03  0.20232967522E+03  0.12500000000E+03 0.  0.
         25    1    1    2    0    0 -0.11124260416E+02  0.61363500654E+02  0.17817803922E+02  0.14082507773E+03  0.12500000000E+03 0.  0.
         25    1    1    2    0    0 -0.99202452609E+02 -0.31600153693E+02  0.17792028347E+03  0.24108157040E+03  0.12500000000E+03 0.  0.
</event>
<event>
 5    0  0.5503691E-005  0.2713613E+03  0.7546771E-02  0.1100503E+00
         21   -1    0    0  502  501  0.00000000000E+00  0.00000000000E+00  0.18642200076E+03  0.18642200076E+03  0.00000000000E+00 0.  1.
         21   -1    0    0  501  502 -0.00000000000E+00 -0.00000000000E+00 -0.39500133268E+03  0.39500133268E+03  0.00000000000E+00 0.  1.
         25    1    1    2    0    0 -0.97865877815E+02 -0.36383961238E+02 -0.13014407946E+03  0.20848022471E+03  0.12500000000E+03 0.  0.
         25    1    1    2    0    0 -0.44476773146E+02  0.85383906312E+02 -0.80786989286E+02  0.17725724934E+03  0.12500000000E+03 0.  0.
         25    1    1    2    0    0  0.14234265096E+03 -0.48999945074E+02  0.23517368297E+01  0.19568585939E+03  0.12500000000E+03 0.  0.
</event>
<event>
 5    0  0.5503691E-005  0.5827982E+03  0.7546771E-02  0.9941751E-01
         21   -1    0    0  502  501  0.00000000000E+00  0.00000000000E+00  0.25636430749E+04  0.25636430749E+04  0.00000000000E+00 0.  1.
         21   -1    0    0  501  502 -0.00000000000E+00 -0.00000000000E+00 -0.13248869185E+03  0.13248869185E+03  0.00000000000E+00 0.  1.
         25    1    1    2    0    0  0.18349642158E+03 -0.47507821048E+03  0.11231113298E+04  0.12395056684E+04  0.12500000000E+03 0.  0.
         25    1    1    2    0    0 -0.20527236932E+02  0.18354166316E+02  0.16603622564E+03  0.20964558451E+03  0.12500000000E+03 0.  0.
         25    1    1    2    0    0 -0.16296918464E+03  0.45672404416E+03  0.11420068276E+04  0.12469805138E+04  0.12500000000E+03 0.  0.
</event>
<event>
 5    0  0.5503691E-005  0.3374471E+03  0.7546771E-02  0.1067888E+00
         21   -1    0    0  502  501  0.00000000000E+00  0.00000000000E+00  0.15121784176E+04  0.15121784176E+04  0.00000000000E+00 0.  1.
         21   -1    0    0  501  502 -0.00000000000E+00 -0.00000000000E+00 -0.75302306190E+02  0.75302306190E+02  0.00000000000E+00 0.  1.
         25    1    1    2    0    0 -0.88834451842E+02 -0.92995229790E+02  0.83232680462E+03  0.85142972833E+03  0.12500000000E+03 0.  0.
         25    1    1    2    0    0 -0.11841231084E+02  0.16047248846E+03  0.48153517434E+03  0.52286973372E+03  0.12500000000E+03 0.  0.
         25    1    1    2    0    0  0.10067568293E+03 -0.67477258670E+02  0.12301413241E+03  0.21318126171E+03  0.12500000000E+03 0.  0.
</event>
<event>
 5    0  0.5610672E-005  0.3098722E+03  0.7546771E-02  0.1080407E+00
         21   -1    0    0  502  501  0.00000000000E+00  0.00000000000E+00  0.10235653037E+03  0.10235653037E+03  0.00000000000E+00 0.  1.
         21   -1    0    0  501  502 -0.00000000000E+00 -0.00000000000E+00 -0.93810086314E+03  0.93810086314E+03  0.00000000000E+00 0.  1.
         25    1    1    2    0    0  0.10032689623E+02 -0.57505375127E+02 -0.42056629066E+03  0.44261555313E+03  0.12500000000E+03 0.  0.
         25    1    1    2    0    0 -0.40569493343E+02  0.12969171614E+03 -0.41062982470E+03  0.45023069415E+03  0.12500000000E+03 0.  0.
         25    1    1    2    0    0  0.30536803720E+02 -0.72186341011E+02 -0.45482174077E+01  0.14761114623E+03  0.12500000000E+03 0.  0.
</event>
<event>
 5    0  0.5503691E-005  0.2498045E+03  0.7546771E-02  0.1113428E+00
         21   -1    0    0  502  501  0.00000000000E+00  0.00000000000E+00  0.15554894384E+03  0.15554894384E+03  0.00000000000E+00 0.  1.
         21   -1    0    0  501  502 -0.00000000000E+00 -0.00000000000E+00 -0.40117449951E+03  0.40117449951E+03  0.00000000000E+00 0.  1.
         25    1    1    2    0    0 -0.25954136418E+02 -0.56405922787E+02 -0.99490403613E+02  0.17140182535E+03  0.12500000000E+03 0.  0.
         25    1    1    2    0    0 -0.50233750269E+02 -0.79332578678E+02 -0.74916996098E+02  0.17336275266E+03  0.12500000000E+03 0.  0.
         25    1    1    2    0    0  0.76187886687E+02  0.13573850147E+03 -0.71218155955E+02  0.21195886534E+03  0.12500000000E+03 0.  0.
</event>
<event>
 5    0  0.5503691E-005  0.2693403E+03  0.7546771E-02  0.1101658E+00
         21   -1    0    0  502  501  0.00000000000E+00  0.00000000000E+00  0.92765087027E+02  0.92765087027E+02  0.00000000000E+00 0. -1.
         21   -1    0    0  501  502 -0.00000000000E+00 -0.00000000000E+00 -0.78202072432E+03  0.78202072432E+03  0.00000000000E+00 0. -1.
         25    1    1    2    0    0  0.10969388617E+02 -0.13167184832E+03 -0.18205699593E+03  0.25734714472E+03  0.12500000000E+03 0.  0.
         25    1    1    2    0    0  0.39683685006E+02  0.50587862199E+02 -0.40770117036E+03  0.43125302430E+03  0.12500000000E+03 0.  0.
         25    1    1    2    0    0 -0.50653073623E+02  0.81083986120E+02 -0.99497471001E+02  0.18618564233E+03  0.12500000000E+03 0.  0.
</event>
<event>
 5    0  0.5503691E-005  0.3424651E+03  0.7546771E-02  0.1065751E+00
         21   -1    0    0  502  501  0.00000000000E+00  0.00000000000E+00  0.24058694563E+03  0.24058694563E+03  0.00000000000E+00 0. -1.
         21   -1    0    0  501  502 -0.00000000000E+00 -0.00000000000E+00 -0.48748429690E+03  0.48748429690E+03  0.00000000000E+00 0.  1.
         25    1    1    2    0    0  0.18323194834E+03  0.18376844344E+03 -0.31487786969E+02  0.28976070891E+03  0.12500000000E+03 0.  0.
         25    1    1    2    0    0 -0.86180853531E+02 -0.57038188793E+02 -0.32840629755E+02  0.16548112116E+03  0.12500000000E+03 0.  0.
         25    1    1    2    0    0 -0.97051094812E+02 -0.12673025465E+03 -0.18256893455E+03  0.27282941247E+03  0.12500000000E+03 0.  0.
</event>
<event>
 5    0  0.5503691E-005  0.2861287E+03  0.7546771E-02  0.1092388E+00
         21   -1    0    0  502  501  0.00000000000E+00  0.00000000000E+00  0.61427949985E+02  0.61427949985E+02  0.00000000000E+00 0. -1.
         21   -1    0    0  501  502 -0.00000000000E+00 -0.00000000000E+00 -0.13327753636E+04  0.13327753636E+04  0.00000000000E+00 0. -1.
         25    1    1    2    0    0  0.10234281028E+03  0.70151800791E+02 -0.54013148213E+03  0.56812176860E+03  0.12500000000E+03 0.  0.
         25    1    1    2    0    0  0.39723982173E+02 -0.75885294538E+02 -0.52370741056E+03  0.54518898060E+03  0.12500000000E+03 0.  0.
         25    1    1    2    0    0 -0.14206679245E+03  0.57334937471E+01 -0.20750852089E+03  0.28089256435E+03  0.12500000000E+03 0.  0.
</event>
<event>
 5    0  0.5503691E-005  0.2938006E+03  0.7546771E-02  0.1088381E+00
         21   -1    0    0  502  501  0.00000000000E+00  0.00000000000E+00  0.71945161801E+03  0.71945161801E+03  0.00000000000E+00 0. -1.
         21   -1    0    0  501  502 -0.00000000000E+00 -0.00000000000E+00 -0.11997861920E+03  0.11997861920E+03  0.00000000000E+00 0. -1.
         25    1    1    2    0    0 -0.72485297006E+02 -0.42937041094E+02  0.17943240801E+03  0.23434738493E+03  0.12500000000E+03 0.  0.
         25    1    1    2    0    0  0.12154724203E+03 -0.68206298806E+00  0.13676399558E+02  0.17488922540E+03  0.12500000000E+03 0.  0.
         25    1    1    2    0    0 -0.49061945027E+02  0.43619104082E+02  0.40636419124E+03  0.43019362689E+03  0.12500000000E+03 0.  0.
</event>
<event>
 5    0  0.5503691E-005  0.2510634E+03  0.7546771E-02  0.1112635E+00
         21   -1    0    0  502  501  0.00000000000E+00  0.00000000000E+00  0.62415571265E+03  0.62415571265E+03  0.00000000000E+00 0.  1.
         21   -1    0    0  501  502 -0.00000000000E+00 -0.00000000000E+00 -0.10098894628E+03  0.10098894628E+03  0.00000000000E+00 0.  1.
         25    1    1    2    0    0 -0.97663381022E+02  0.58863983221E+02  0.24233955232E+03  0.29556143716E+03  0.12500000000E+03 0.  0.
         25    1    1    2    0    0  0.37413827638E+01  0.49861635191E+02  0.11804178429E+03  0.17905039360E+03  0.12500000000E+03 0.  0.
         25    1    1    2    0    0  0.93921998258E+02 -0.10872561841E+03  0.16278542975E+03  0.25053282818E+03  0.12500000000E+03 0.  0.
</event>
<event>
 5    0  0.5503691E-005  0.2869897E+03  0.7546771E-02  0.1091931E+00
         21   -1    0    0  502  501  0.00000000000E+00  0.00000000000E+00  0.77587755853E+03  0.77587755853E+03  0.00000000000E+00 0. -1.
         21   -1    0    0  501  502 -0.00000000000E+00 -0.00000000000E+00 -0.10615475580E+03  0.10615475580E+03  0.00000000000E+00 0. -1.
         25    1    1    2    0    0 -0.49782414771E+02  0.68343472083E+01  0.22701614083E+02  0.13662122970E+03  0.12500000000E+03 0.  0.
         25    1    1    2    0    0 -0.12322686672E+01 -0.11937223197E+03  0.44636013191E+03  0.47865814065E+03  0.12500000000E+03 0.  0.
         25    1    1    2    0    0  0.51014683438E+02  0.11253788476E+03  0.20066105674E+03  0.26675294399E+03  0.12500000000E+03 0.  0.
</event>
<event>
 5    0  0.5503691E-005  0.3339941E+03  0.7546771E-02  0.1069383E+00
         21   -1    0    0  502  501  0.00000000000E+00  0.00000000000E+00  0.13529253917E+03  0.13529253917E+03  0.00000000000E+00 0.  1.
         21   -1    0    0  501  502 -0.00000000000E+00 -0.00000000000E+00 -0.82452505805E+03  0.82452505805E+03  0.00000000000E+00 0.  1.
         25    1    1    2    0    0 -0.95379555583E+02 -0.75290611358E+02  0.47713215710E+01  0.17439524446E+03  0.12500000000E+03 0.  0.
         25    1    1    2    0    0  0.67567679120E+02 -0.82534532246E+02 -0.32296759561E+03  0.36236778015E+03  0.12500000000E+03 0.  0.
         25    1    1    2    0    0  0.27811876463E+02  0.15782514360E+03 -0.37103624484E+03  0.42305457261E+03  0.12500000000E+03 0.  0.
</event>
<event>
 5    0  0.5503691E-005  0.6200054E+03  0.7546771E-02  0.9864749E-01
         21   -1    0    0  502  501  0.00000000000E+00  0.00000000000E+00  0.15171164767E+04  0.15171164767E+04  0.00000000000E+00 0. -1.
         21   -1    0    0  501  502 -0.00000000000E+00 -0.00000000000E+00 -0.25337979104E+03  0.25337979104E+03  0.00000000000E+00 0. -1.
         25    1    1    2    0    0  0.19111238376E+03 -0.90267131830E+01  0.52290574231E+02  0.23444557776E+03  0.12500000000E+03 0.  0.
         25    1    1    2    0    0 -0.38197226321E+03 -0.29212793224E+03  0.38916174306E+03  0.63112074987E+03  0.12500000000E+03 0.  0.
         25    1    1    2    0    0  0.19085987946E+03  0.30115464542E+03  0.82228436837E+03  0.90492994012E+03  0.12500000000E+03 0.  0.
</event>
<event>
 5    0  0.5503691E-005  0.3989036E+03  0.7546771E-02  0.1044160E+00
         21   -1    0    0  502  501  0.00000000000E+00  0.00000000000E+00  0.58457847239E+03  0.58457847239E+03  0.00000000000E+00 0.  1.
         21   -1    0    0  501  502 -0.00000000000E+00 -0.00000000000E+00 -0.27220308850E+03  0.27220308850E+03  0.00000000000E+00 0.  1.
         25    1    1    2    0    0 -0.14651807356E+03  0.10624200382E+03  0.36604673391E+03  0.42704814794E+03  0.12500000000E+03 0.  0.
         25    1    1    2    0    0  0.17809410572E+02 -0.15446930042E+03 -0.11958363617E+03  0.23260091555E+03  0.12500000000E+03 0.  0.
         25    1    1    2    0    0  0.12870866298E+03  0.48227296593E+02  0.65912286155E+02  0.19713249740E+03  0.12500000000E+03 0.  0.
</event>
<event>
 5    0  0.5503691E-005  0.2548852E+03  0.7546771E-02  0.1110256E+00
         21   -1    0    0  502  501  0.00000000000E+00  0.00000000000E+00  0.14513221284E+03  0.14513221284E+03  0.00000000000E+00 0. -1.
         21   -1    0    0  501  502 -0.00000000000E+00 -0.00000000000E+00 -0.44763640328E+03  0.44763640328E+03  0.00000000000E+00 0. -1.
         25    1    1    2    0    0 -0.44458572559E+02  0.53304396011E+02 -0.18815510299E+03  0.23631603011E+03  0.12500000000E+03 0.  0.
         25    1    1    2    0    0  0.19391248954E+02  0.61886541516E+02  0.14670140082E+02  0.14158452446E+03  0.12500000000E+03 0.  0.
         25    1    1    2    0    0  0.25067323605E+02 -0.11519093753E+03 -0.12901922753E+03  0.21486806155E+03  0.12500000000E+03 0.  0.
</event>
<event>
 5    0  0.5503691E-005  0.3754162E+03  0.7546771E-02  0.1052641E+00
         21   -1    0    0  502  501  0.00000000000E+00  0.00000000000E+00  0.49644742552E+03  0.49644742552E+03  0.00000000000E+00 0. -1.
         21   -1    0    0  501  502 -0.00000000000E+00 -0.00000000000E+00 -0.28389172389E+03  0.28389172389E+03  0.00000000000E+00 0. -1.
         25    1    1    2    0    0 -0.17267713309E+03 -0.15791347378E+03  0.15621409512E+03  0.30786669357E+03  0.12500000000E+03 0.  0.
         25    1    1    2    0    0  0.72267293953E+02 -0.67376457661E+02 -0.62951826655E+02  0.17131865427E+03  0.12500000000E+03 0.  0.
         25    1    1    2    0    0  0.10040983914E+03  0.22528993144E+03  0.11929343316E+03  0.30115380157E+03  0.12500000000E+03 0.  0.
</event>
<event>
 5    0  0.5503691E-005  0.2768032E+03  0.7546771E-02  0.1097448E+00
         21   -1    0    0  502  501  0.00000000000E+00  0.00000000000E+00  0.11890705856E+03  0.11890705856E+03  0.00000000000E+00 0. -1.
         21   -1    0    0  501  502 -0.00000000000E+00 -0.00000000000E+00 -0.64436886943E+03  0.64436886943E+03  0.00000000000E+00 0. -1.
         25    1    1    2    0    0  0.15116123482E+03  0.93662646528E+01 -0.23244590841E+03  0.30429187660E+03  0.12500000000E+03 0.  0.
         25    1    1    2    0    0 -0.72311596708E+02  0.65021219263E+02 -0.23553355259E+03  0.28382702544E+03  0.12500000000E+03 0.  0.
         25    1    1    2    0    0 -0.78849638111E+02 -0.74387483915E+02 -0.57482349859E+02  0.17515702595E+03  0.12500000000E+03 0.  0.
</event>
<event>
 5    0  0.5503691E-005  0.3676148E+03  0.7546771E-02  0.1055609E+00
         21   -1    0    0  502  501  0.00000000000E+00  0.00000000000E+00  0.61391552092E+03  0.61391552092E+03  0.00000000000E+00 0. -1.
         21   -1    0    0  501  502 -0.00000000000E+00 -0.00000000000E+00 -0.22012899522E+03  0.22012899522E+03  0.00000000000E+00 0. -1.
         25    1    1    2    0    0 -0.74248309474E+02 -0.54263138251E+02  0.49470442363E+03  0.51847349633E+03  0.12500000000E+03 0.  0.
         25    1    1    2    0    0 -0.32612891377E+02  0.25627911922E+02 -0.36713638663E+02  0.13672337700E+03  0.12500000000E+03 0.  0.
         25    1    1    2    0    0  0.10686120085E+03  0.28635226329E+02 -0.64204259266E+02  0.17884764282E+03  0.12500000000E+03 0.  0.
</event>
<event>
 5    0  0.5503691E-005  0.2793177E+03  0.7546771E-02  0.1096062E+00
         21   -1    0    0  502  501  0.00000000000E+00  0.00000000000E+00  0.75576453850E+02  0.75576453850E+02  0.00000000000E+00 0. -1.
         21   -1    0    0  501  502 -0.00000000000E+00 -0.00000000000E+00 -0.10323107116E+04  0.10323107116E+04  0.00000000000E+00 0. -1.
         25    1    1    2    0    0  0.11813698372E+02  0.19559859885E+02 -0.28805889432E+03  0.31484135399E+03  0.12500000000E+03 0.  0.
         25    1    1    2    0    0  0.12151941783E+03 -0.11621938703E+03 -0.25065302113E+03  0.32668922822E+03  0.12500000000E+03 0.  0.
         25    1    1    2    0    0 -0.13333311620E+03  0.96659527147E+02 -0.41802234226E+03  0.46635658320E+03  0.12500000000E+03 0.  0.
</event>
<event>
 5    0  0.5503691E-005  0.2604369E+03  0.7546771E-02  0.1106881E+00
         21   -1    0    0  502  501  0.00000000000E+00  0.00000000000E+00  0.38707961526E+03  0.38707961526E+03  0.00000000000E+00 0.  1.
         21   -1    0    0  501  502 -0.00000000000E+00 -0.00000000000E+00 -0.17522848947E+03  0.17522848947E+03  0.00000000000E+00 0.  1.
         25    1    1    2    0    0 -0.34794795070E+02  0.66027239031E+02  0.34197311455E+01  0.14562612616E+03  0.12500000000E+03 0.  0.
         25    1    1    2    0    0  0.14003713085E+03 -0.44392568924E+02  0.13935884506E+03  0.23796425338E+03  0.12500000000E+03 0.  0.
         25    1    1    2    0    0 -0.10524233578E+03 -0.21634670107E+02  0.69072549590E+02  0.17871772519E+03  0.12500000000E+03 0.  0.
</event>
<event>
 5    0  0.5503691E-005  0.2300099E+03  0.7546771E-02  0.1126633E+00
         21   -1    0    0  502  501  0.00000000000E+00  0.00000000000E+00  0.20994236198E+03  0.20994236198E+03  0.00000000000E+00 0.  1.
         21   -1    0    0  501  502 -0.00000000000E+00 -0.00000000000E+00 -0.25199571127E+03  0.25199571127E+03  0.00000000000E+00 0.  1.
         25    1    1    2    0    0 -0.70399756176E+02  0.36850237090E+02  0.37122654994E+02  0.15269956502E+03  0.12500000000E+03 0.  0.
         25    1    1    2    0    0  0.82770846967E+02  0.22959394684E+02 -0.53993328894E+01  0.15176396050E+03  0.12500000000E+03 0.  0.
         25    1    1    2    0    0 -0.12371090791E+02 -0.59809631774E+02 -0.73776671393E+02  0.15747454773E+03  0.12500000000E+03 0.  0.
</event>
<event>
 5    0  0.5503691E-005  0.3111554E+03  0.7546771E-02  0.1079793E+00
         21   -1    0    0  502  501  0.00000000000E+00  0.00000000000E+00  0.24921595560E+03  0.24921595560E+03  0.00000000000E+00 0.  1.
         21   -1    0    0  501  502 -0.00000000000E+00 -0.00000000000E+00 -0.38848917110E+03  0.38848917110E+03  0.00000000000E+00 0.  1.
         25    1    1    2    0    0 -0.78540944397E+01  0.35413397336E+02  0.40177662231E+02  0.13621688608E+03  0.12500000000E+03 0.  0.
         25    1    1    2    0    0 -0.77014447952E+02 -0.19220022318E+03 -0.14225799252E+03  0.28059666324E+03  0.12500000000E+03 0.  0.
         25    1    1    2    0    0  0.84868542392E+02  0.15678682585E+03 -0.37192885208E+02  0.22089157738E+03  0.12500000000E+03 0.  0.
</event>
<event>
 5    0  0.5503691E-005  0.3785904E+03  0.7546771E-02  0.1051456E+00
         21   -1    0    0  502  501  0.00000000000E+00  0.00000000000E+00  0.97097334450E+02  0.97097334450E+02  0.00000000000E+00 0.  1.
         21   -1    0    0  501  502 -0.00000000000E+00 -0.00000000000E+00 -0.14761547114E+04  0.14761547114E+04  0.00000000000E+00 0.  1.
         25    1    1    2    0    0 -0.95365234437E+02 -0.50838789843E+02 -0.12942488820E+03  0.20989262059E+03  0.12500000000E+03 0.  0.
         25    1    1    2    0    0  0.14087413534E+03  0.37687853921E+02 -0.12136585538E+03  0.22720160033E+03  0.12500000000E+03 0.  0.
         25    1    1    2    0    0 -0.45508900902E+02  0.13150935922E+02 -0.11282666334E+04  0.11361578250E+04  0.12500000000E+03 0.  0.
</event>
<event>
 5    0  0.5503691E-005  0.3145188E+03  0.7546771E-02  0.1078200E+00
         21   -1    0    0  502  501  0.00000000000E+00  0.00000000000E+00  0.31445611699E+03  0.31445611699E+03  0.00000000000E+00 0.  1.
         21   -1    0    0  501  502 -0.00000000000E+00 -0.00000000000E+00 -0.31458139644E+03  0.31458139644E+03  0.00000000000E+00 0.  1.
         25    1    1    2    0    0  0.40784657529E+02  0.10740775586E+03  0.52375075142E+02  0.17767375384E+03  0.12500000000E+03 0.  0.
         25    1    1    2    0    0 -0.10627490883E+03 -0.19092055918E+03 -0.11385532552E+03  0.27628436676E+03  0.12500000000E+03 0.  0.
         25    1    1    2    0    0  0.65490251306E+02  0.83512803319E+02  0.61354970928E+02  0.17507939282E+03  0.12500000000E+03 0.  0.
</event>
<event>
 5    0  0.5503691E-005  0.2393947E+03  0.7546771E-02  0.1120197E+00
         21   -1    0    0  502  501  0.00000000000E+00  0.00000000000E+00  0.19365305516E+03  0.19365305516E+03  0.00000000000E+00 0.  1.
         21   -1    0    0  501  502 -0.00000000000E+00 -0.00000000000E+00 -0.29594077855E+03  0.29594077855E+03  0.00000000000E+00 0.  1.
         25    1    1    2    0    0 -0.45691615644E+02  0.10406387524E+02 -0.38628321575E+02  0.13897180962E+03  0.12500000000E+03 0.  0.
         25    1    1    2    0    0  0.74154557863E+02 -0.13140286472E+02 -0.13930069250E+03  0.20174550431E+03  0.12500000000E+03 0.  0.
         25    1    1    2    0    0 -0.28462942218E+02  0.27338989484E+01  0.75641290687E+02  0.14887651977E+03  0.12500000000E+03 0.  0.
</event>
<event>
 5    0  0.5503691E-005  0.8410061E+03  0.7546771E-02  0.9502488E-01
         21   -1    0    0  502  501  0.00000000000E+00  0.00000000000E+00  0.19852581741E+04  0.19852581741E+04  0.00000000000E+00 0. -1.
         21   -1    0    0  501  502 -0.00000000000E+00 -0.00000000000E+00 -0.35627167649E+03  0.35627167649E+03  0.00000000000E+00 0. -1.
         25    1    1    2    0    0 -0.36577151449E+03 -0.22848934016E+03  0.18707805781E+03  0.48643538019E+03  0.12500000000E+03 0.  0.
         25    1    1    2    0    0  0.17283939269E+03 -0.40914703816E+03  0.39223296859E+03  0.60559595124E+03  0.12500000000E+03 0.  0.
         25    1    1    2    0    0  0.19293212180E+03  0.63763637832E+03  0.10496754713E+04  0.12494985192E+04  0.12500000000E+03 0.  0.
</event>
<event>
 5    0  0.5503691E-005  0.4492298E+03  0.7546771E-02  0.1027952E+00
         21   -1    0    0  502  501  0.00000000000E+00  0.00000000000E+00  0.67207287986E+03  0.67207287986E+03  0.00000000000E+00 0.  1.
         21   -1    0    0  501  502 -0.00000000000E+00 -0.00000000000E+00 -0.30027602703E+03  0.30027602703E+03  0.00000000000E+00 0.  1.
         25    1    1    2    0    0 -0.18221742040E+02 -0.40312386539E+02 -0.15227219488E+03  0.20191320345E+03  0.12500000000E+03 0.  0.
         25    1    1    2    0    0  0.18660949967E+03 -0.39027223064E+01  0.23441388407E+02  0.22586021186E+03  0.12500000000E+03 0.  0.
         25    1    1    2    0    0 -0.16838775763E+03  0.44215108845E+02  0.50062765931E+03  0.54457549159E+03  0.12500000000E+03 0.  0.
</event>
<event>
 5    0  0.5503691E-005  0.3241644E+03  0.7546771E-02  0.1073749E+00
         21   -1    0    0  502  501  0.00000000000E+00  0.00000000000E+00  0.91638940013E+02  0.91638940013E+02  0.00000000000E+00 0.  1.
         21   -1    0    0  501  502 -0.00000000000E+00 -0.00000000000E+00 -0.11467021911E+04  0.11467021911E+04  0.00000000000E+00 0.  1.
         25    1    1    2    0    0  0.90293091779E+02  0.53969338569E+02 -0.58236313991E+03  0.60484490462E+03  0.12500000000E+03 0.  0.
         25    1    1    2    0    0 -0.11535119836E+03 -0.15714143916E+03 -0.38029573105E+03  0.44525180956E+03  0.12500000000E+03 0.  0.
         25    1    1    2    0    0  0.25058106580E+02  0.10317210059E+03 -0.92404380172E+02  0.18824441697E+03  0.12500000000E+03 0.  0.
</event>
<event>
 5    0  0.5598558E-005  0.3140178E+03  0.7546771E-02  0.1078436E+00
         21   -1    0    0  502  501  0.00000000000E+00  0.00000000000E+00  0.15705989638E+03  0.15705989638E+03  0.00000000000E+00 0. -1.
         21   -1    0    0  501  502 -0.00000000000E+00 -0.00000000000E+00 -0.62783163327E+03  0.62783163327E+03  0.00000000000E+00 0. -1.
         25    1    1    2    0    0  0.38835110811E+02  0.10780680515E+03 -0.82262197491E+02  0.18847424812E+03  0.12500000000E+03 0.  0.
         25    1    1    2    0    0 -0.10197962238E+03 -0.58746265089E+02 -0.41185195169E+03  0.44620398603E+03  0.12500000000E+03 0.  0.
         25    1    1    2    0    0  0.63144511564E+02 -0.49060540060E+02  0.23342412295E+02  0.15021329549E+03  0.12500000000E+03 0.  0.
</event>
<event>
 5    0  0.5503691E-005  0.3414777E+03  0.7546771E-02  0.1066168E+00
         21   -1    0    0  502  501  0.00000000000E+00  0.00000000000E+00  0.41619365884E+03  0.41619365884E+03  0.00000000000E+00 0. -1.
         21   -1    0    0  501  502 -0.00000000000E+00 -0.00000000000E+00 -0.28017484989E+03  0.28017484989E+03  0.00000000000E+00 0. -1.
         25    1    1    2    0    0 -0.13147276463E+02  0.30022173658E+02  0.56442281100E+01  0.12934851797E+03  0.12500000000E+03 0.  0.
         25    1    1    2    0    0  0.18265930842E+03  0.10165189971E+03 -0.63755000708E+02  0.25176821043E+03  0.12500000000E+03 0.  0.
         25    1    1    2    0    0 -0.16951203195E+03 -0.13167407337E+03  0.19412958154E+03  0.31525178034E+03  0.12500000000E+03 0.  0.
</event>
<event>
 5    0  0.5503691E-005  0.3387424E+03  0.7546771E-02  0.1067333E+00
         21   -1    0    0  502  501  0.00000000000E+00  0.00000000000E+00  0.32746684876E+03  0.32746684876E+03  0.00000000000E+00 0.  1.
         21   -1    0    0  501  502 -0.00000000000E+00 -0.00000000000E+00 -0.35040610930E+03  0.35040610930E+03  0.00000000000E+00 0.  1.
         25    1    1    2    0    0  0.48541691365E+01 -0.38489451375E+02 -0.12864004226E+02  0.13151229384E+03  0.12500000000E+03 0.  0.
         25    1    1    2    0    0 -0.15597434086E+03 -0.98212402466E+02 -0.15079687403E+03  0.26895793021E+03  0.12500000000E+03 0.  0.
         25    1    1    2    0    0  0.15112017172E+03  0.13670185384E+03  0.14072161771E+03  0.27740273401E+03  0.12500000000E+03 0.  0.
</event>
<event>
 5    0  0.5503691E-005  0.3233516E+03  0.7546771E-02  0.1074117E+00
         21   -1    0    0  502  501  0.00000000000E+00  0.00000000000E+00  0.80891711188E+03  0.80891711188E+03  0.00000000000E+00 0. -1.
         21   -1    0    0  501  502 -0.00000000000E+00 -0.00000000000E+00 -0.12925457306E+03  0.12925457306E+03  0.00000000000E+00 0. -1.
         25    1    1    2    0    0  0.10006056257E+03 -0.50107469077E+02  0.80164004826E+02  0.18594123348E+03  0.12500000000E+03 0.  0.
         25    1    1    2    0    0 -0.10262275952E+03  0.19043889566E+02  0.60173744456E+03  0.62338355182E+03  0.12500000000E+03 0.  0.
         25    1    1    2    0    0  0.25621969531E+01  0.31063579510E+02 -0.22389105703E+01  0.12884689964E+03  0.12500000000E+03 0.  0.
</event>
<event>
 5    0  0.5503691E-005  0.2001379E+03  0.7546771E-02  0.1149623E+00
         21   -1    0    0  502  501  0.00000000000E+00  0.00000000000E+00  0.43424769881E+02  0.43424769881E+02  0.00000000000E+00 0.  1.
         21   -1    0    0  501  502 -0.00000000000E+00 -0.00000000000E+00 -0.92240432136E+03  0.92240432136E+03  0.00000000000E+00 0.  1.
         25    1    1    2    0    0  0.24164614263E+02  0.20753777727E+02 -0.21353524637E+03  0.24947334390E+03  0.12500000000E+03 0.  0.
         25    1    1    2    0    0  0.27658855387E+02  0.17978528913E+01 -0.31740267672E+03  0.34225385862E+03  0.12500000000E+03 0.  0.
         25    1    1    2    0    0 -0.51823469650E+02 -0.22551630618E+02 -0.34804162839E+03  0.37410188872E+03  0.12500000000E+03 0.  0.
</event>
<event>
 5    0  0.5503691E-005  0.2743044E+03  0.7546771E-02  0.1098841E+00
         21   -1    0    0  502  501  0.00000000000E+00  0.00000000000E+00  0.16655970596E+03  0.16655970596E+03  0.00000000000E+00 0. -1.
         21   -1    0    0  501  502 -0.00000000000E+00 -0.00000000000E+00 -0.45174727788E+03  0.45174727788E+03  0.00000000000E+00 0. -1.
         25    1    1    2    0    0 -0.56006269656E+02 -0.30794208267E+02  0.90300177250E+00  0.14039515987E+03  0.12500000000E+03 0.  0.
         25    1    1    2    0    0  0.11168264455E+03  0.27270858524E+02 -0.10445062093E+02  0.17014938184E+03  0.12500000000E+03 0.  0.
         25    1    1    2    0    0 -0.55676374895E+02  0.35233497431E+01 -0.27564551160E+03  0.30776244212E+03  0.12500000000E+03 0.  0.
</event>
<event>
 5    0  0.6314407E-005  0.3025832E+03  0.7546771E-02  0.1083956E+00
         21   -1    0    0  502  501  0.00000000000E+00  0.00000000000E+00  0.22767598266E+03  0.22767598266E+03  0.00000000000E+00 0. -1.
         21   -1    0    0  501  502 -0.00000000000E+00 -0.00000000000E+00 -0.40213546252E+03  0.40213546252E+03  0.00000000000E+00 0. -1.
         25    1    1    2    0    0 -0.11446981554E+02 -0.13833730908E+03 -0.66583580356E+02  0.19830939878E+03  0.12500000000E+03 0.  0.
         25    1    1    2    0    0  0.10663831060E+03  0.32793978834E+02 -0.16361982299E+03  0.23418714911E+03  0.12500000000E+03 0.  0.
         25    1    1    2    0    0 -0.95191329042E+02  0.10554333025E+03  0.55743923483E+02  0.19731489728E+03  0.12500000000E+03 0.  0.
</event>
<event>
 5    0  0.5503691E-005  0.2794112E+03  0.7546771E-02  0.1096011E+00
         21   -1    0    0  502  501  0.00000000000E+00  0.00000000000E+00  0.44048751783E+02  0.44048751783E+02  0.00000000000E+00 0.  1.
         21   -1    0    0  501  502 -0.00000000000E+00 -0.00000000000E+00 -0.17723679490E+04  0.17723679490E+04  0.00000000000E+00 0.  1.
         25    1    1    2    0    0 -0.53301721309E+02  0.17138280887E+03 -0.83176231633E+03  0.86003877328E+03  0.12500000000E+03 0.  0.
         25    1    1    2    0    0  0.83383114437E+02 -0.85922483505E+02 -0.55918271693E+03  0.58535948601E+03  0.12500000000E+03 0.  0.
         25    1    1    2    0    0 -0.30081393128E+02 -0.85460325366E+02 -0.33737416391E+03  0.37101844145E+03  0.12500000000E+03 0.  0.
</event>
<event>
 5    0  0.5503691E-005  0.3075839E+03  0.7546771E-02  0.1081510E+00
         21   -1    0    0  502  501  0.00000000000E+00  0.00000000000E+00  0.17528289670E+03  0.17528289670E+03  0.00000000000E+00 0.  1.
         21   -1    0    0  501  502 -0.00000000000E+00 -0.00000000000E+00 -0.53974379857E+03  0.53974379857E+03  0.00000000000E+00 0.  1.
         25    1    1    2    0    0 -0.92370563985E+02  0.85087759480E+02 -0.19892284238E+03  0.26639734444E+03  0.12500000000E+03 0.  0.
         25    1    1    2    0    0 -0.68926496377E+02 -0.16653957820E+02 -0.18300588023E+03  0.23268942480E+03  0.12500000000E+03 0.  0.
         25    1    1    2    0    0  0.16129706036E+03 -0.68433801660E+02  0.17467820748E+02  0.21593992603E+03  0.12500000000E+03 0.  0.
</event>
<event>
 5    0  0.5503691E-005  0.4349051E+03  0.7546771E-02  0.1032322E+00
         21   -1    0    0  502  501  0.00000000000E+00  0.00000000000E+00  0.13914057945E+04  0.13914057945E+04  0.00000000000E+00 0. -1.
         21   -1    0    0  501  502 -0.00000000000E+00 -0.00000000000E+00 -0.13593619012E+03  0.13593619012E+03  0.00000000000E+00 0. -1.
         25    1    1    2    0    0 -0.13588814106E+03  0.45907194868E+02  0.25861148423E+03  0.32105756057E+03  0.12500000000E+03 0.  0.
         25    1    1    2    0    0 -0.14348162938E+03  0.17022315871E+03  0.63919179666E+03  0.68829794032E+03  0.12500000000E+03 0.  0.
         25    1    1    2    0    0  0.27936977044E+03 -0.21613035357E+03  0.35766632349E+03  0.51798648373E+03  0.12500000000E+03 0.  0.
</event>
<event>
 5    0  0.5503691E-005  0.2810632E+03  0.7546771E-02  0.1095110E+00
         21   -1    0    0  502  501  0.00000000000E+00  0.00000000000E+00  0.17180100372E+03  0.17180100372E+03  0.00000000000E+00 0.  1.
         21   -1    0    0  501  502 -0.00000000000E+00 -0.00000000000E+00 -0.45981403822E+03  0.45981403822E+03  0.00000000000E+00 0.  1.
         25    1    1    2    0    0  0.69372851469E+02 -0.83466411296E+01  0.10919412085E+02  0.14361926229E+03  0.12500000000E+03 0.  0.
         25    1    1    2    0    0 -0.15048283465E+03 -0.44639007636E+02 -0.75788345096E+02  0.21449148649E+03  0.12500000000E+03 0.  0.
         25    1    1    2    0    0  0.81109983179E+02  0.52985648765E+02 -0.22314410149E+03  0.27350429316E+03  0.12500000000E+03 0.  0.
</event>
<event>
 5    0  0.5503691E-005  0.3249575E+03  0.7546771E-02  0.1073390E+00
         21   -1    0    0  502  501  0.00000000000E+00  0.00000000000E+00  0.97768322615E+02  0.97768322615E+02  0.00000000000E+00 0. -1.
         21   -1    0    0  501  502 -0.00000000000E+00 -0.00000000000E+00 -0.10800774379E+04  0.10800774379E+04  0.00000000000E+00 0. -1.
         25    1    1    2    0    0 -0.20592157345E+03  0.56118478279E+02 -0.31296033386E+03  0.39890117646E+03  0.12500000000E+03 0.  0.
         25    1    1    2    0    0  0.19710450467E+03 -0.93134639350E+02 -0.32627537303E+03  0.41183111327E+03  0.12500000000E+03 0.  0.
         25    1    1    2    0    0  0.88170687821E+01  0.37016161071E+02 -0.34307340842E+03  0.36711347081E+03  0.12500000000E+03 0.  0.
</event>
<event>
 5    0  0.5503691E-005  0.3281328E+03  0.7546771E-02  0.1071966E+00
         21   -1    0    0  502  501  0.00000000000E+00  0.00000000000E+00  0.11565492320E+03  0.11565492320E+03  0.00000000000E+00 0. -1.
         21   -1    0    0  501  502 -0.00000000000E+00 -0.00000000000E+00 -0.93096889837E+03  0.93096889837E+03  0.00000000000E+00 0. -1.
         25    1    1    2    0    0  0.83111998638E+02 -0.10000812105E+02  0.12636930141E+02  0.15097123091E+03  0.12500000000E+03 0.  0.
         25    1    1    2    0    0 -0.10407998994E+03 -0.66476195780E+02 -0.58817600517E+03  0.61386296677E+03  0.12500000000E+03 0.  0.
         25    1    1    2    0    0  0.20967991303E+02  0.76477007885E+02 -0.23977490013E+03  0.28178962388E+03  0.12500000000E+03 0.  0.
</event>
<event>
 5    0  0.5503691E-005  0.3542515E+03  0.7546771E-02  0.1060883E+00
         21   -1    0    0  502  501  0.00000000000E+00  0.00000000000E+00  0.29560420572E+03  0.29560420572E+03  0.00000000000E+00 0. -1.
         21   -1    0    0  501  502 -0.00000000000E+00 -0.00000000000E+00 -0.42453425381E+03  0.42453425381E+03  0.00000000000E+00 0. -1.
         25    1    1    2    0    0  0.92857377817E+02 -0.58884658881E+02  0.27775648133E+02  0.16877909318E+03  0.12500000000E+03 0.  0.
         25    1    1    2    0    0 -0.21752831482E+03 -0.76272172705E+01 -0.23803087304E+03  0.34591969980E+03  0.12500000000E+03 0.  0.
         25    1    1    2    0    0  0.12467093700E+03  0.66511876151E+02  0.81325176819E+02  0.20543966654E+03  0.12500000000E+03 0.  0.
</event>
<event>
 5    0  0.5583192E-005  0.3519164E+03  0.7546771E-02  0.1061831E+00
         21   -1    0    0  502  501  0.00000000000E+00  0.00000000000E+00  0.40941972770E+03  0.40941972770E+03  0.00000000000E+00 0.  1.
         21   -1    0    0  501  502 -0.00000000000E+00 -0.00000000000E+00 -0.30248942354E+03  0.30248942354E+03  0.00000000000E+00 0.  1.
         25    1    1    2    0    0 -0.96772373842E+02  0.10811860635E+03  0.97717009477E+02  0.21500730062E+03  0.12500000000E+03 0.  0.
         25    1    1    2    0    0 -0.41309181217E+02 -0.17311799870E+03 -0.13189485744E+03  0.25435711774E+03  0.12500000000E+03 0.  0.
         25    1    1    2    0    0  0.13808155506E+03  0.64999392354E+02  0.14110815212E+03  0.24254473288E+03  0.12500000000E+03 0.  0.
</event>
<event>
 5    0  0.5503691E-005  0.2868594E+03  0.7546771E-02  0.1092000E+00
         21   -1    0    0  502  501  0.00000000000E+00  0.00000000000E+00  0.21172451403E+02  0.21172451403E+02  0.00000000000E+00 0. -1.
         21   -1    0    0  501  502 -0.00000000000E+00 -0.00000000000E+00 -0.38865748205E+04  0.38865748205E+04  0.00000000000E+00 0. -1.
         25    1    1    2    0    0  0.36492586217E+02 -0.10803615169E+03 -0.14032013958E+04  0.14133657262E+04  0.12500000000E+03 0.  0.
         25    1    1    2    0    0 -0.85381771774E+02  0.15728623136E+03 -0.91897560658E+03  0.94454760124E+03  0.12500000000E+03 0.  0.
         25    1    1    2    0    0  0.48889185556E+02 -0.49250079667E+02 -0.15432253668E+04  0.15498339445E+04  0.12500000000E+03 0.  0.
</event>
<event>
 5    0  0.5503691E-005  0.2580804E+03  0.7546771E-02  0.1108302E+00
         21   -1    0    0  502  501  0.00000000000E+00  0.00000000000E+00  0.55129875349E+03  0.55129875349E+03  0.00000000000E+00 0.  1.
         21   -1    0    0  501  502 -0.00000000000E+00 -0.00000000000E+00 -0.12081562610E+03  0.12081562610E+03  0.00000000000E+00 0.  1.
         25    1    1    2    0    0  0.87175240248E+01 -0.13148187308E+03  0.13678354007E+03  0.22737241479E+03  0.12500000000E+03 0.  0.
         25    1    1    2    0    0  0.43824877585E+02  0.62026564292E+02  0.44892219941E+02  0.15299747052E+03  0.12500000000E+03 0.  0.
         25    1    1    2    0    0 -0.52542401610E+02  0.69455308784E+02  0.24880736738E+03  0.29174449429E+03  0.12500000000E+03 0.  0.
</event>
<event>
 5    0  0.5503691E-005  0.2148877E+03  0.7546771E-02  0.1137753E+00
         21   -1    0    0  502  501  0.00000000000E+00  0.00000000000E+00  0.17423324073E+03  0.17423324073E+03  0.00000000000E+00 0.  1.
         21   -1    0    0  501  502 -0.00000000000E+00 -0.00000000000E+00 -0.26502811712E+03  0.26502811712E+03  0.00000000000E+00 0.  1.
         25    1    1    2    0    0 -0.56057763018E+02  0.59817465406E+02 -0.34490196309E+02  0.15341178444E+03  0.12500000000E+03 0.  0.
         25    1    1    2    0    0  0.30578486345E+02 -0.79308327227E+02 -0.28056039094E+02  0.15374327928E+03  0.12500000000E+03 0.  0.
         25    1    1    2    0    0  0.25479276673E+02  0.19490861821E+02 -0.28248640986E+02  0.13210629414E+03  0.12500000000E+03 0.  0.
</event>
<event>
 5    0  0.5503691E-005  0.3162781E+03  0.7546771E-02  0.1077375E+00
         21   -1    0    0  502  501  0.00000000000E+00  0.00000000000E+00  0.70186473877E+02  0.70186473877E+02  0.00000000000E+00 0.  1.
         21   -1    0    0  501  502 -0.00000000000E+00 -0.00000000000E+00 -0.14252294997E+04  0.14252294997E+04  0.00000000000E+00 0.  1.
         25    1    1    2    0    0  0.42293118653E+02 -0.13077666939E+03 -0.41534029921E+03  0.45499869153E+03  0.12500000000E+03 0.  0.
         25    1    1    2    0    0  0.12061217807E+03  0.61583865040E+02 -0.66765017207E+03  0.69261939202E+03  0.12500000000E+03 0.  0.
         25    1    1    2    0    0 -0.16290529672E+03  0.69192804354E+02 -0.27205255451E+03  0.34779789001E+03  0.12500000000E+03 0.  0.
</event>
<event>
 5    0  0.5503691E-005  0.3305108E+03  0.7546771E-02  0.1070911E+00
         21   -1    0    0  502  501  0.00000000000E+00  0.00000000000E+00  0.35139272773E+03  0.35139272773E+03  0.00000000000E+00 0. -1.
         21   -1    0    0  501  502 -0.00000000000E+00 -0.00000000000E+00 -0.31086985895E+03  0.31086985895E+03  0.00000000000E+00 0. -1.
         25    1    1    2    0    0 -0.59054081954E+02 -0.31207453132E+02  0.13068213401E+03  0.19277995195E+03  0.12500000000E+03 0.  0.
         25    1    1    2    0    0 -0.15635859208E+03  0.62155294233E+02 -0.47299995154E+02  0.21488038408E+03  0.12500000000E+03 0.  0.
         25    1    1    2    0    0  0.21541267404E+03 -0.30947841101E+02 -0.42859270078E+02  0.25460225065E+03  0.12500000000E+03 0.  0.
</event>
<event>
 5    0  0.5503691E-005  0.4591639E+03  0.7546771E-02  0.1025024E+00
         21   -1    0    0  502  501  0.00000000000E+00  0.00000000000E+00  0.75441277423E+03  0.75441277423E+03  0.00000000000E+00 0. -1.
         21   -1    0    0  501  502 -0.00000000000E+00 -0.00000000000E+00 -0.27946435461E+03  0.27946435461E+03  0.00000000000E+00 0. -1.
         25    1    1    2    0    0 -0.16111187768E+03 -0.59298279175E+01  0.48715837252E+03  0.52814816094E+03  0.12500000000E+03 0.  0.
         25    1    1    2    0    0  0.83038199600E+02  0.74631115840E+02  0.18532873259E+03  0.24987373845E+03  0.12500000000E+03 0.  0.
         25    1    1    2    0    0  0.78073678076E+02 -0.68701287923E+02 -0.19753868549E+03  0.25585522945E+03  0.12500000000E+03 0.  0.
</event>
<event>
 5    0  0.5503691E-005  0.3374316E+03  0.7546771E-02  0.1067895E+00
         21   -1    0    0  502  501  0.00000000000E+00  0.00000000000E+00  0.14181551140E+04  0.14181551140E+04  0.00000000000E+00 0.  1.
         21   -1    0    0  501  502 -0.00000000000E+00 -0.00000000000E+00 -0.80287453338E+02  0.80287453338E+02  0.00000000000E+00 0.  1.
         25    1    1    2    0    0 -0.39989296762E+02 -0.99985131588E+02  0.64598449912E+03  0.66672118872E+03  0.12500000000E+03 0.  0.
         25    1    1    2    0    0  0.24559879834E+01 -0.83808075799E+02  0.62120148645E+02  0.16283039739E+03  0.12500000000E+03 0.  0.
         25    1    1    2    0    0  0.37533308778E+02  0.18379320739E+03  0.62976301293E+03  0.66889098125E+03  0.12500000000E+03 0.  0.
</event>
<event>
 5    0  0.5503691E-005  0.2384209E+03  0.7546771E-02  0.1120849E+00
         21   -1    0    0  502  501  0.00000000000E+00  0.00000000000E+00  0.90706120590E+02  0.90706120590E+02  0.00000000000E+00 0.  1.
         21   -1    0    0  501  502 -0.00000000000E+00 -0.00000000000E+00 -0.62668908878E+03  0.62668908878E+03  0.00000000000E+00 0.  1.
         25    1    1    2    0    0  0.48478256204E+02 -0.22020687284E+02 -0.17518163080E+02  0.13699247436E+03  0.12500000000E+03 0.  0.
         25    1    1    2    0    0 -0.58349879256E+01 -0.33137051054E+01 -0.27810092068E+03  0.30497565446E+03  0.12500000000E+03 0.  0.
         25    1    1    2    0    0 -0.42643268279E+02  0.25334392389E+02 -0.24036388443E+03  0.27542708056E+03  0.12500000000E+03 0.  0.
</event>
<event>
 5    0  0.5503691E-005  0.5264698E+03  0.7546771E-02  0.1007092E+00
         21   -1    0    0  502  501  0.00000000000E+00  0.00000000000E+00  0.93387445714E+03  0.93387445714E+03  0.00000000000E+00 0.  1.
         21   -1    0    0  501  502 -0.00000000000E+00 -0.00000000000E+00 -0.29679626211E+03  0.29679626211E+03  0.00000000000E+00 0.  1.
         25    1    1    2    0    0 -0.10934846212E+03  0.39345874899E+03  0.24105836753E+02  0.42775339238E+03  0.12500000000E+03 0.  0.
         25    1    1    2    0    0  0.15904996445E+03 -0.21879811810E+03  0.36195101958E+03  0.46883157771E+03  0.12500000000E+03 0.  0.
         25    1    1    2    0    0 -0.49701502328E+02 -0.17466063089E+03  0.25102133869E+03  0.33408574916E+03  0.12500000000E+03 0.  0.
</event>
<event>
 5    0  0.5503691E-005  0.3917464E+03  0.7546771E-02  0.1046676E+00
         21   -1    0    0  502  501  0.00000000000E+00  0.00000000000E+00  0.16049703523E+03  0.16049703523E+03  0.00000000000E+00 0.  1.
         21   -1    0    0  501  502 -0.00000000000E+00 -0.00000000000E+00 -0.95618727942E+03  0.95618727942E+03  0.00000000000E+00 0.  1.
         25    1    1    2    0    0 -0.41198157556E+02 -0.11813050290E+03 -0.20725323393E+02  0.17806359238E+03  0.12500000000E+03 0.  0.
         25    1    1    2    0    0 -0.17426266252E+03  0.23331919183E+02 -0.16061945477E+03  0.26895252973E+03  0.12500000000E+03 0.  0.
         25    1    1    2    0    0  0.21546082007E+03  0.94798583719E+02 -0.61434546603E+03  0.66966819253E+03  0.12500000000E+03 0.  0.
</event>
<event>
 5    0  0.5503691E-005  0.3066666E+03  0.7546771E-02  0.1081955E+00
         21   -1    0    0  502  501  0.00000000000E+00  0.00000000000E+00  0.74908515392E+03  0.74908515392E+03  0.00000000000E+00 0.  1.
         21   -1    0    0  501  502 -0.00000000000E+00 -0.00000000000E+00 -0.12554566778E+03  0.12554566778E+03  0.00000000000E+00 0.  1.
         25    1    1    2    0    0  0.13394845683E+01  0.61466233400E+02 -0.22369275305E+02  0.14108606077E+03  0.12500000000E+03 0.  0.
         25    1    1    2    0    0 -0.10935969040E+03 -0.23959518734E+02  0.23215537524E+03  0.28645194828E+03  0.12500000000E+03 0.  0.
         25    1    1    2    0    0  0.10802020584E+03 -0.37506714665E+02  0.41375338621E+03  0.44709281264E+03  0.12500000000E+03 0.  0.
</event>
<event>
 5    0  0.5503691E-005  0.2837875E+03  0.7546771E-02  0.1093638E+00
         21   -1    0    0  502  501  0.00000000000E+00  0.00000000000E+00  0.15690207060E+04  0.15690207060E+04  0.00000000000E+00 0. -1.
         21   -1    0    0  501  502 -0.00000000000E+00 -0.00000000000E+00 -0.51328401728E+02  0.51328401728E+02  0.00000000000E+00 0. -1.
         25    1    1    2    0    0  0.10006340887E+02 -0.15315339712E+03  0.55590212400E+03  0.59009173980E+03  0.12500000000E+03 0.  0.
         25    1    1    2    0    0 -0.80175247805E+02  0.97885749622E+02  0.28263389690E+03  0.33394102775E+03  0.12500000000E+03 0.  0.
         25    1    1    2    0    0  0.70168906917E+02  0.55267647501E+02  0.67915628341E+03  0.69631634022E+03  0.12500000000E+03 0.  0.
</event>
<event>
 5    0  0.5503691E-005  0.3323681E+03  0.7546771E-02  0.1070094E+00
         21   -1    0    0  502  501  0.00000000000E+00  0.00000000000E+00  0.88782697005E+03  0.88782697005E+03  0.00000000000E+00 0. -1.
         21   -1    0    0  501  502 -0.00000000000E+00 -0.00000000000E+00 -0.12442575920E+03  0.12442575920E+03  0.00000000000E+00 0. -1.
         25    1    1    2    0    0  0.14057853927E+03  0.18218090013E+03  0.35978453143E+03  0.44499675857E+03  0.12500000000E+03 0.  0.
         25    1    1    2    0    0 -0.16760785829E+03 -0.51293578832E+02  0.20705107328E+03  0.29869478123E+03  0.12500000000E+03 0.  0.
         25    1    1    2    0    0  0.27029319026E+02 -0.13088732130E+03  0.19656560614E+03  0.26856118945E+03  0.12500000000E+03 0.  0.
</event>
<event>
 5    0  0.5503691E-005  0.3193705E+03  0.7546771E-02  0.1075939E+00
         21   -1    0    0  502  501  0.00000000000E+00  0.00000000000E+00  0.32186350767E+03  0.32186350767E+03  0.00000000000E+00 0. -1.
         21   -1    0    0  501  502 -0.00000000000E+00 -0.00000000000E+00 -0.31689685192E+03  0.31689685192E+03  0.00000000000E+00 0. -1.
         25    1    1    2    0    0  0.14064958194E+03 -0.30476438374E+02 -0.11231507512E+01  0.19062365977E+03  0.12500000000E+03 0.  0.
         25    1    1    2    0    0 -0.24518692025E+03 -0.55164789067E+00 -0.34492952169E+02  0.27736563220E+03  0.12500000000E+03 0.  0.
         25    1    1    2    0    0  0.10453733830E+03  0.31028086264E+02  0.40582758670E+02  0.17077106763E+03  0.12500000000E+03 0.  0.
</event>
<event>
 5    0  0.6132796E-005  0.2786330E+03  0.7546771E-02  0.1096438E+00
         21   -1    0    0  502  501  0.00000000000E+00  0.00000000000E+00  0.47067602461E+03  0.47067602461E+03  0.00000000000E+00 0.  1.
         21   -1    0    0  501  502 -0.00000000000E+00 -0.00000000000E+00 -0.16494646127E+03  0.16494646127E+03  0.00000000000E+00 0.  1.
         25    1    1    2    0    0  0.11398897127E+03  0.24451727333E+02  0.18737385099E+03  0.25362439271E+03  0.12500000000E+03 0.  0.
         25    1    1    2    0    0 -0.10376639469E+03 -0.61643187266E+02 -0.38274805044E+02  0.17792500641E+03  0.12500000000E+03 0.  0.
         25    1    1    2    0    0 -0.10222576583E+02  0.37191459933E+02  0.15663051740E+03  0.20407308677E+03  0.12500000000E+03 0.  0.
</event>
<event>
 5    0  0.5828684E-005  0.5941053E+03  0.7546771E-02  0.9917712E-01
         21   -1    0    0  502  501  0.00000000000E+00  0.00000000000E+00  0.41926861829E+03  0.41926861829E+03  0.00000000000E+00 0.  1.
         21   -1    0    0  501  502 -0.00000000000E+00 -0.00000000000E+00 -0.84184959777E+03  0.84184959777E+03  0.00000000000E+00 0.  1.
         25    1    1    2    0    0  0.97061949277E+02 -0.43084245011E+03 -0.31227699798E+03  0.55514697359E+03  0.12500000000E+03 0.  0.
         25    1    1    2    0    0 -0.26922216920E+03  0.22484935144E+03 -0.16071076553E+03  0.40557460151E+03  0.12500000000E+03 0.  0.
         25    1    1    2    0    0  0.17216021993E+03  0.20599309867E+03  0.50406784025E+02  0.30039664096E+03  0.12500000000E+03 0.  0.
</event>
<event>
 5    0  0.5503691E-005  0.6068259E+03  0.7546771E-02  0.9891345E-01
         21   -1    0    0  502  501  0.00000000000E+00  0.00000000000E+00  0.66883952453E+03  0.66883952453E+03  0.00000000000E+00 0. -1.
         21   -1    0    0  501  502 -0.00000000000E+00 -0.00000000000E+00 -0.55056198232E+03  0.55056198232E+03  0.00000000000E+00 0. -1.
         25    1    1    2    0    0 -0.18626470474E+02 -0.67885220567E+02  0.11949853028E+03  0.18670899098E+03  0.12500000000E+03 0.  0.
         25    1    1    2    0    0 -0.25584109659E+03 -0.12549565153E+03  0.39216072724E+03  0.50061847873E+03  0.12500000000E+03 0.  0.
         25    1    1    2    0    0  0.27446756706E+03  0.19338087210E+03 -0.39338171530E+03  0.53207403714E+03  0.12500000000E+03 0.  0.
</event>
<event>
 5    0  0.5503691E-005  0.4091227E+03  0.7546771E-02  0.1040666E+00
         21   -1    0    0  502  501  0.00000000000E+00  0.00000000000E+00  0.38123306835E+03  0.38123306835E+03  0.00000000000E+00 0.  1.
         21   -1    0    0  501  502 -0.00000000000E+00 -0.00000000000E+00 -0.43905270227E+03  0.43905270227E+03  0.00000000000E+00 0.  1.
         25    1    1    2    0    0  0.14292010811E+03 -0.12501785777E+03  0.31005533346E+02  0.22943836899E+03  0.12500000000E+03 0.  0.
         25    1    1    2    0    0 -0.28900020582E+03  0.69433075344E+02 -0.18181145928E+03  0.37016547332E+03  0.12500000000E+03 0.  0.
         25    1    1    2    0    0  0.14608009771E+03  0.55584782429E+02  0.92986292010E+02  0.22068192832E+03  0.12500000000E+03 0.  0.
</event>
<event>
 5    0  0.5503691E-005  0.3040594E+03  0.7546771E-02  0.1083229E+00
         21   -1    0    0  502  501  0.00000000000E+00  0.00000000000E+00  0.20132573902E+03  0.20132573902E+03  0.00000000000E+00 0. -1.
         21   -1    0    0  501  502 -0.00000000000E+00 -0.00000000000E+00 -0.45921672866E+03  0.45921672866E+03  0.00000000000E+00 0. -1.
         25    1    1    2    0    0 -0.14183044731E+03  0.14058455480E+02 -0.99243367953E+02  0.21398075156E+03  0.12500000000E+03 0.  0.
         25    1    1    2    0    0  0.95224531524E+02  0.89959135396E+02  0.40216700264E+02  0.18547975745E+03  0.12500000000E+03 0.  0.
         25    1    1    2    0    0  0.46605915789E+02 -0.10401759088E+03 -0.19886432195E+03  0.26108195867E+03  0.12500000000E+03 0.  0.
</event>
<event>
 5    0  0.5503691E-005  0.2581680E+03  0.7546771E-02  0.1108249E+00
         21   -1    0    0  502  501  0.00000000000E+00  0.00000000000E+00  0.57910901210E+02  0.57910901210E+02  0.00000000000E+00 0.  1.
         21   -1    0    0  501  502 -0.00000000000E+00 -0.00000000000E+00 -0.11509187103E+04  0.11509187103E+04  0.00000000000E+00 0.  1.
         25    1    1    2    0    0 -0.30163776113E+02  0.64200173443E+02 -0.10764948907E+03  0.17956872822E+03  0.12500000000E+03 0.  0.
         25    1    1    2    0    0 -0.73848369002E+01  0.16111289333E+01 -0.25110104748E+03  0.28059555877E+03  0.12500000000E+03 0.  0.
         25    1    1    2    0    0  0.37548613014E+02 -0.65811302376E+02 -0.73425727250E+03  0.74866532448E+03  0.12500000000E+03 0.  0.
</event>
<event>
 5    0  0.5503691E-005  0.3401099E+03  0.7546771E-02  0.1066749E+00
         21   -1    0    0  502  501  0.00000000000E+00  0.00000000000E+00  0.30522490310E+03  0.30522490310E+03  0.00000000000E+00 0. -1.
         21   -1    0    0  501  502 -0.00000000000E+00 -0.00000000000E+00 -0.37898191336E+03  0.37898191336E+03  0.00000000000E+00 0. -1.
         25    1    1    2    0    0 -0.13796266544E+02  0.37046566871E+02 -0.77553124319E+02  0.15232292073E+03  0.12500000000E+03 0.  0.
         25    1    1    2    0    0 -0.10886256221E+03 -0.15881906394E+03  0.14915134408E+03  0.27376207912E+03  0.12500000000E+03 0.  0.
         25    1    1    2    0    0  0.12265882876E+03  0.12177249707E+03 -0.14535523002E+03  0.25812181661E+03  0.12500000000E+03 0.  0.
</event>
<event>
 5    0  0.5503691E-005  0.2259963E+03  0.7546771E-02  0.1129490E+00
         21   -1    0    0  502  501  0.00000000000E+00  0.00000000000E+00  0.22603911967E+03  0.22603911967E+03  0.00000000000E+00 0. -1.
         21   -1    0    0  501  502 -0.00000000000E+00 -0.00000000000E+00 -0.22595357109E+03  0.22595357109E+03  0.00000000000E+00 0. -1.
         25    1    1    2    0    0  0.35267831458E+02  0.10321712027E+03  0.10909920444E+02  0.16625769220E+03  0.12500000000E+03 0.  0.
         25    1    1    2    0    0 -0.39379074161E+02 -0.14472119786E+02 -0.11776339503E+02  0.13237762615E+03  0.12500000000E+03 0.  0.
         25    1    1    2    0    0  0.41112427033E+01 -0.88745000487E+02  0.95196763849E+00  0.15335737240E+03  0.12500000000E+03 0.  0.
</event>
<event>
 5    0  0.5503691E-005  0.4427612E+03  0.7546771E-02  0.1029903E+00
         21   -1    0    0  502  501  0.00000000000E+00  0.00000000000E+00  0.66424951300E+03  0.66424951300E+03  0.00000000000E+00 0.  1.
         21   -1    0    0  501  502 -0.00000000000E+00 -0.00000000000E+00 -0.29512631821E+03  0.29512631821E+03  0.00000000000E+00 0.  1.
         25    1    1    2    0    0 -0.37298784316E+02 -0.19421917916E+03  0.32254527214E+02  0.23617290995E+03  0.12500000000E+03 0.  0.
         25    1    1    2    0    0 -0.62996904789E+02 -0.18275924581E+03  0.12791050238E+03  0.26335460611E+03  0.12500000000E+03 0.  0.
         25    1    1    2    0    0  0.10029568911E+03  0.37697842498E+03  0.20895816520E+03  0.45984831516E+03  0.12500000000E+03 0.  0.
</event>
<event>
 5    0  0.5503691E-005  0.3376431E+03  0.7546771E-02  0.1067804E+00
         21   -1    0    0  502  501  0.00000000000E+00  0.00000000000E+00  0.33579950386E+04  0.33579950386E+04  0.00000000000E+00 0. -1.
         21   -1    0    0  501  502 -0.00000000000E+00 -0.00000000000E+00 -0.33949685213E+02  0.33949685213E+02  0.00000000000E+00 0. -1.
         25    1    1    2    0    0 -0.10262890946E+03 -0.49038053270E+02  0.24344951187E+03  0.29636141543E+03  0.12500000000E+03 0.  0.
         25    1    1    2    0    0  0.10635554527E+03  0.45543059579E+02  0.21283895575E+04  0.21351938509E+04  0.12500000000E+03 0.  0.
         25    1    1    2    0    0 -0.37266358141E+01  0.34949936911E+01  0.95220628405E+03  0.96038945755E+03  0.12500000000E+03 0.  0.
</event>
<event>
 5    0  0.5503691E-005  0.2747341E+03  0.7546771E-02  0.1098600E+00
         21   -1    0    0  502  501  0.00000000000E+00  0.00000000000E+00  0.31687489869E+03  0.31687489869E+03  0.00000000000E+00 0.  1.
         21   -1    0    0  501  502 -0.00000000000E+00 -0.00000000000E+00 -0.23819748886E+03  0.23819748886E+03  0.00000000000E+00 0.  1.
         25    1    1    2    0    0 -0.92094752846E+02  0.47231745307E+02  0.11588595087E+03  0.19941623523E+03  0.12500000000E+03 0.  0.
         25    1    1    2    0    0  0.10053278905E+03 -0.12110036184E+03  0.13967707673E+02  0.20147515025E+03  0.12500000000E+03 0.  0.
         25    1    1    2    0    0 -0.84380362042E+01  0.73868616532E+02 -0.51176248711E+02  0.15418100206E+03  0.12500000000E+03 0.  0.
</event>
<event>
 5    0  0.5503691E-005  0.4028649E+03  0.7546771E-02  0.1042792E+00
         21   -1    0    0  502  501  0.00000000000E+00  0.00000000000E+00  0.43456833495E+03  0.43456833495E+03  0.00000000000E+00 0. -1.
         21   -1    0    0  501  502 -0.00000000000E+00 -0.00000000000E+00 -0.37347443585E+03  0.37347443585E+03  0.00000000000E+00 0. -1.
         25    1    1    2    0    0 -0.12040926318E+03 -0.24114828264E+03  0.18053639544E+03  0.34766258780E+03  0.12500000000E+03 0.  0.
         25    1    1    2    0    0 -0.13818132865E+02  0.15595590738E-01 -0.92707953445E+02  0.15623925778E+03  0.12500000000E+03 0.  0.
         25    1    1    2    0    0  0.13422739605E+03  0.24113268705E+03 -0.26734542895E+02  0.30414092522E+03  0.12500000000E+03 0.  0.
</event>
<event>
 5    0  0.5503691E-005  0.2626884E+03  0.7546771E-02  0.1105539E+00
         21   -1    0    0  502  501  0.00000000000E+00  0.00000000000E+00  0.11985624082E+03  0.11985624082E+03  0.00000000000E+00 0.  1.
         21   -1    0    0  501  502 -0.00000000000E+00 -0.00000000000E+00 -0.57573317001E+03  0.57573317001E+03  0.00000000000E+00 0.  1.
         25    1    1    2    0    0 -0.48328083763E+02 -0.85427958233E+02 -0.11205522356E+03  0.19446056889E+03  0.12500000000E+03 0.  0.
         25    1    1    2    0    0 -0.59994932479E+02  0.76121434147E+02 -0.53703073471E+02  0.16704156596E+03  0.12500000000E+03 0.  0.
         25    1    1    2    0    0  0.10832301624E+03  0.93065240859E+01 -0.29011863216E+03  0.33408727597E+03  0.12500000000E+03 0.  0.
</event>
<event>
 5    0  0.5503691E-005  0.3716744E+03  0.7546771E-02  0.1054055E+00
         21   -1    0    0  502  501  0.00000000000E+00  0.00000000000E+00  0.38327602804E+03  0.38327602804E+03  0.00000000000E+00 0. -1.
         21   -1    0    0  501  502 -0.00000000000E+00 -0.00000000000E+00 -0.36042392543E+03  0.36042392543E+03  0.00000000000E+00 0. -1.
         25    1    1    2    0    0  0.22207104774E+03  0.33347077467E+02  0.48456212066E+02  0.26153504987E+03  0.12500000000E+03 0.  0.
         25    1    1    2    0    0 -0.14593719365E+03  0.11469743564E+03  0.93265574980E+02  0.24243892780E+03  0.12500000000E+03 0.  0.
         25    1    1    2    0    0 -0.76133854087E+02 -0.14804451311E+03 -0.11886968443E+03  0.23972597581E+03  0.12500000000E+03 0.  0.
</event>
<event>
 5    0  0.5503691E-005  0.2660539E+03  0.7546771E-02  0.1103560E+00
         21   -1    0    0  502  501  0.00000000000E+00  0.00000000000E+00  0.53124570888E+03  0.53124570888E+03  0.00000000000E+00 0.  1.
         21   -1    0    0  501  502 -0.00000000000E+00 -0.00000000000E+00 -0.13324279864E+03  0.13324279864E+03  0.00000000000E+00 0.  1.
         25    1    1    2    0    0  0.20337783773E+02 -0.11206073192E+03  0.22422411157E+03  0.28084281244E+03  0.12500000000E+03 0.  0.
         25    1    1    2    0    0  0.86032869382E+02  0.81841573210E+02  0.64094214256E+02  0.18393685335E+03  0.12500000000E+03 0.  0.
         25    1    1    2    0    0 -0.10637065316E+03  0.30219158714E+02  0.10968458441E+03  0.19970884173E+03  0.12500000000E+03 0.  0.
</event>
<event>
 5    0  0.5503691E-005  0.3258517E+03  0.7546771E-02  0.1072987E+00
         21   -1    0    0  502  501  0.00000000000E+00  0.00000000000E+00  0.10320191538E+03  0.10320191538E+03  0.00000000000E+00 0. -1.
         21   -1    0    0  501  502 -0.00000000000E+00 -0.00000000000E+00 -0.10288501682E+04  0.10288501682E+04  0.00000000000E+00 0. -1.
         25    1    1    2    0    0 -0.15433361082E+03 -0.96280159320E+02 -0.24464154851E+03  0.32948933179E+03  0.12500000000E+03 0.  0.
         25    1    1    2    0    0  0.11530017408E+03  0.11008619554E+03 -0.62928907551E+03  0.66109215783E+03  0.12500000000E+03 0.  0.
         25    1    1    2    0    0  0.39033436737E+02 -0.13806036220E+02 -0.51717628754E+02  0.14147059392E+03  0.12500000000E+03 0.  0.
</event>
<event>
 5    0  0.5503691E-005  0.3069759E+03  0.7546771E-02  0.1081805E+00
         21   -1    0    0  502  501  0.00000000000E+00  0.00000000000E+00  0.21898124805E+03  0.21898124805E+03  0.00000000000E+00 0.  1.
         21   -1    0    0  501  502 -0.00000000000E+00 -0.00000000000E+00 -0.43032996265E+03  0.43032996265E+03  0.00000000000E+00 0.  1.
         25    1    1    2    0    0  0.11128564274E+03  0.88590599033E+02 -0.85405913240E+02  0.20773049496E+03  0.12500000000E+03 0.  0.
         25    1    1    2    0    0 -0.15094633728E+03  0.46537512906E+02  0.21283894974E+02  0.20255503210E+03  0.12500000000E+03 0.  0.
         25    1    1    2    0    0  0.39660694534E+02 -0.13512811194E+03 -0.14722669634E+03  0.23902568364E+03  0.12500000000E+03 0.  0.
</event>
<event>
 5    0  0.5503691E-005  0.2693453E+03  0.7546771E-02  0.1101655E+00
         21   -1    0    0  502  501  0.00000000000E+00  0.00000000000E+00  0.34767816015E+03  0.34767816015E+03  0.00000000000E+00 0.  1.
         21   -1    0    0  501  502 -0.00000000000E+00 -0.00000000000E+00 -0.20866110698E+03  0.20866110698E+03  0.00000000000E+00 0.  1.
         25    1    1    2    0    0  0.57625734860E+02  0.36336641540E+02  0.79721486986E+01  0.14258201847E+03  0.12500000000E+03 0.  0.
         25    1    1    2    0    0  0.52366206404E+02 -0.13143864241E+02  0.19161619445E+03  0.23506753650E+03  0.12500000000E+03 0.  0.
         25    1    1    2    0    0 -0.10999194126E+03 -0.23192777299E+02 -0.60571289978E+02  0.17868971216E+03  0.12500000000E+03 0.  0.
</event>
<event>
 5    0  0.5503691E-005  0.2812177E+03  0.7546771E-02  0.1095026E+00
         21   -1    0    0  502  501  0.00000000000E+00  0.00000000000E+00  0.51299951928E+02  0.51299951928E+02  0.00000000000E+00 0. -1.
         21   -1    0    0  501  502 -0.00000000000E+00 -0.00000000000E+00 -0.15415876987E+04  0.15415876987E+04  0.00000000000E+00 0. -1.
         25    1    1    2    0    0  0.82756801599E+02 -0.30014662525E+02 -0.14094382933E+03  0.20794165336E+03  0.12500000000E+03 0.  0.
         25    1    1    2    0    0 -0.98501750178E+02  0.15345736920E+01 -0.99800986295E+03  0.10106204215E+04  0.12500000000E+03 0.  0.
         25    1    1    2    0    0  0.15744948579E+02  0.28480088833E+02 -0.35133405453E+03  0.37432557586E+03  0.12500000000E+03 0.  0.
</event>
<event>
 5    0  0.5503691E-005  0.2245750E+03  0.7546771E-02  0.1130517E+00
         21   -1    0    0  502  501  0.00000000000E+00  0.00000000000E+00  0.42335396287E+02  0.42335396287E+02  0.00000000000E+00 0.  1.
         21   -1    0    0  501  502 -0.00000000000E+00 -0.00000000000E+00 -0.11912948096E+04  0.11912948096E+04  0.00000000000E+00 0.  1.
         25    1    1    2    0    0  0.23092325922E+02 -0.52999731463E+02 -0.53675593712E+03  0.55414272808E+03  0.12500000000E+03 0.  0.
         25    1    1    2    0    0 -0.62311687831E+01  0.77470447953E+02 -0.20412004442E+03  0.25165549925E+03  0.12500000000E+03 0.  0.
         25    1    1    2    0    0 -0.16861157139E+02 -0.24470716490E+02 -0.40808343181E+03  0.42783197859E+03  0.12500000000E+03 0.  0.
</event>
<event>
 5    0  0.5503691E-005  0.3697988E+03  0.7546771E-02  0.1054770E+00
         21   -1    0    0  502  501  0.00000000000E+00  0.00000000000E+00  0.34538264958E+03  0.34538264958E+03  0.00000000000E+00 0. -1.
         21   -1    0    0  501  502 -0.00000000000E+00 -0.00000000000E+00 -0.39594098494E+03  0.39594098494E+03  0.00000000000E+00 0. -1.
         25    1    1    2    0    0  0.19739279033E+03  0.23477197934E+03 -0.58769775729E+02  0.33639364217E+03  0.12500000000E+03 0.  0.
         25    1    1    2    0    0 -0.65048534565E+02 -0.76192276234E+02 -0.21702509801E+02  0.16165572597E+03  0.12500000000E+03 0.  0.
         25    1    1    2    0    0 -0.13234425576E+03 -0.15857970310E+03  0.29913950173E+02  0.24327426638E+03  0.12500000000E+03 0.  0.
</event>
<event>
 5    0  0.5651889E-005  0.2803281E+03  0.7546771E-02  0.1095510E+00
         21   -1    0    0  502  501  0.00000000000E+00  0.00000000000E+00  0.51455798557E+03  0.51455798557E+03  0.00000000000E+00 0. -1.
         21   -1    0    0  501  502 -0.00000000000E+00 -0.00000000000E+00 -0.15272102436E+03  0.15272102436E+03  0.00000000000E+00 0. -1.
         25    1    1    2    0    0 -0.77889184577E+02  0.95200266945E+02  0.26298873741E+02  0.17733145987E+03  0.12500000000E+03 0.  0.
         25    1    1    2    0    0  0.90797891186E+02  0.46263121042E+02  0.10839461812E+03  0.19431656298E+03  0.12500000000E+03 0.  0.
         25    1    1    2    0    0 -0.12908706609E+02 -0.14146338799E+03  0.22714346936E+03  0.29563098708E+03  0.12500000000E+03 0.  0.
</event>
<event>
 5    0  0.5966425E-005  0.2998565E+03  0.7546771E-02  0.1085312E+00
         21   -1    0    0  502  501  0.00000000000E+00  0.00000000000E+00  0.17698391659E+03  0.17698391659E+03  0.00000000000E+00 0.  1.
         21   -1    0    0  501  502 -0.00000000000E+00 -0.00000000000E+00 -0.50803436209E+03  0.50803436209E+03  0.00000000000E+00 0.  1.
         25    1    1    2    0    0 -0.14002559450E+03 -0.54058195048E+02 -0.14935364704E+03  0.24588811978E+03  0.12500000000E+03 0.  0.
         25    1    1    2    0    0  0.13608563499E+02 -0.94482323890E+02 -0.24533646893E+02  0.15918229285E+03  0.12500000000E+03 0.  0.
         25    1    1    2    0    0  0.12641703101E+03  0.14854051894E+03 -0.15716315157E+03  0.27994786605E+03  0.12500000000E+03 0.  0.
</event>
<event>
 5    0  0.5503691E-005  0.3610339E+03  0.7546771E-02  0.1058175E+00
         21   -1    0    0  502  501  0.00000000000E+00  0.00000000000E+00  0.24315084286E+03  0.24315084286E+03  0.00000000000E+00 0.  1.
         21   -1    0    0  501  502 -0.00000000000E+00 -0.00000000000E+00 -0.53606850222E+03  0.53606850222E+03  0.00000000000E+00 0.  1.
         25    1    1    2    0    0 -0.39588798961E+02  0.57967132008E+02 -0.66464400154E+02  0.15801891622E+03  0.12500000000E+03 0.  0.
         25    1    1    2    0    0  0.21372669997E+03 -0.13421225937E+03 -0.26932479737E+03  0.38968304982E+03  0.12500000000E+03 0.  0.
         25    1    1    2    0    0 -0.17413790100E+03  0.76245127359E+02  0.42871538158E+02  0.23151737904E+03  0.12500000000E+03 0.  0.
</event>
<event>
 5    0  0.5503691E-005  0.2476582E+03  0.7546771E-02  0.1114794E+00
         21   -1    0    0  502  501  0.00000000000E+00  0.00000000000E+00  0.13343182119E+03  0.13343182119E+03  0.00000000000E+00 0. -1.
         21   -1    0    0  501  502 -0.00000000000E+00 -0.00000000000E+00 -0.45966981073E+03  0.45966981073E+03  0.00000000000E+00 0. -1.
         25    1    1    2    0    0 -0.65930141598E+02 -0.31869324078E+02 -0.18249922495E+03  0.23300945152E+03  0.12500000000E+03 0.  0.
         25    1    1    2    0    0  0.20909552065E+02  0.11164982392E+03 -0.10977408873E+03  0.20144042074E+03  0.12500000000E+03 0.  0.
         25    1    1    2    0    0  0.45020589533E+02 -0.79780499846E+02 -0.33964675861E+02  0.15865175966E+03  0.12500000000E+03 0.  0.
</event>
<event>
 5    0  0.5503691E-005  0.3542234E+03  0.7546771E-02  0.1060895E+00
         21   -1    0    0  502  501  0.00000000000E+00  0.00000000000E+00  0.25775353667E+04  0.25775353667E+04  0.00000000000E+00 0. -1.
         21   -1    0    0  501  502 -0.00000000000E+00 -0.00000000000E+00 -0.48679928720E+02  0.48679928720E+02  0.00000000000E+00 0. -1.
         25    1    1    2    0    0 -0.14089343594E+03  0.55138865825E+02  0.56960111068E+03  0.60246301140E+03  0.12500000000E+03 0.  0.
         25    1    1    2    0    0  0.27736635701E+03  0.18317035037E+02  0.12893635591E+04  0.13248965987E+04  0.12500000000E+03 0.  0.
         25    1    1    2    0    0 -0.13647292107E+03 -0.73455900862E+02  0.66989076826E+03  0.69885568536E+03  0.12500000000E+03 0.  0.
</event>
<event>
 5    0  0.5503691E-005  0.3870604E+03  0.7546771E-02  0.1048355E+00
         21   -1    0    0  502  501  0.00000000000E+00  0.00000000000E+00  0.90573202686E+03  0.90573202686E+03  0.00000000000E+00 0.  1.
         21   -1    0    0  501  502 -0.00000000000E+00 -0.00000000000E+00 -0.16540844864E+03  0.16540844864E+03  0.00000000000E+00 0.  1.
         25    1    1    2    0    0  0.16839971845E+03  0.10631357263E+03  0.29400433198E+03  0.37646326265E+03  0.12500000000E+03 0.  0.
         25    1    1    2    0    0 -0.29075002176E+03 -0.12047993401E+03  0.20348872492E+03  0.39507423457E+03  0.12500000000E+03 0.  0.
         25    1    1    2    0    0  0.12235030331E+03  0.14166361382E+02  0.24283052131E+03  0.29960297828E+03  0.12500000000E+03 0.  0.
</event>
<event>
 5    0  0.5503691E-005  0.3378353E+03  0.7546771E-02  0.1067722E+00
         21   -1    0    0  502  501  0.00000000000E+00  0.00000000000E+00  0.31989107942E+03  0.31989107942E+03  0.00000000000E+00 0.  1.
         21   -1    0    0  501  502 -0.00000000000E+00 -0.00000000000E+00 -0.35678616968E+03  0.35678616968E+03  0.00000000000E+00 0.  1.
         25    1    1    2    0    0  0.87660393936E+01 -0.14818807263E+03  0.13957613589E+03  0.23904611695E+03  0.12500000000E+03 0.  0.
         25    1    1    2    0    0 -0.17365784901E+02  0.13050031880E+03 -0.23603596581E+03  0.29777488284E+03  0.12500000000E+03 0.  0.
         25    1    1    2    0    0  0.85997455073E+01  0.17687753833E+02  0.59564739662E+02  0.13985624930E+03  0.12500000000E+03 0.  0.
</event>
<event>
 5    0  0.5503691E-005  0.3919551E+03  0.7546771E-02  0.1046601E+00
         21   -1    0    0  502  501  0.00000000000E+00  0.00000000000E+00  0.12053080116E+03  0.12053080116E+03  0.00000000000E+00 0. -1.
         21   -1    0    0  501  502 -0.00000000000E+00 -0.00000000000E+00 -0.12746018231E+04  0.12746018231E+04  0.00000000000E+00 0. -1.
         25    1    1    2    0    0 -0.65774555049E+02 -0.10989080687E+03 -0.96527190519E+03  0.98172151473E+03  0.12500000000E+03 0.  0.
         25    1    1    2    0    0  0.14372522722E+03  0.19509834016E+02 -0.12746300472E+03  0.23002041678E+03  0.12500000000E+03 0.  0.
         25    1    1    2    0    0 -0.77950672168E+02  0.90380972853E+02 -0.61336112021E+02  0.18339069274E+03  0.12500000000E+03 0.  0.
</event>
<event>
 5    0  0.5503691E-005  0.3514764E+03  0.7546771E-02  0.1062011E+00
         21   -1    0    0  502  501  0.00000000000E+00  0.00000000000E+00  0.86912622492E+03  0.86912622492E+03  0.00000000000E+00 0.  1.
         21   -1    0    0  501  502 -0.00000000000E+00 -0.00000000000E+00 -0.14213776283E+03  0.14213776283E+03  0.00000000000E+00 0.  1.
         25    1    1    2    0    0 -0.89430841136E+02 -0.30400873812E+02  0.47176986472E+02  0.16362382628E+03  0.12500000000E+03 0.  0.
         25    1    1    2    0    0 -0.15503279569E+03  0.33088023590E+02  0.15208783196E+03  0.25275619413E+03  0.12500000000E+03 0.  0.
         25    1    1    2    0    0  0.24446363682E+03 -0.26871497782E+01  0.52772364366E+03  0.59488396733E+03  0.12500000000E+03 0.  0.
</event>
<event>
 5    0  0.5503691E-005  0.2714469E+03  0.7546771E-02  0.1100454E+00
         21   -1    0    0  502  501  0.00000000000E+00  0.00000000000E+00  0.40888619260E+03  0.40888619260E+03  0.00000000000E+00 0.  1.
         21   -1    0    0  501  502 -0.00000000000E+00 -0.00000000000E+00 -0.18020523546E+03  0.18020523546E+03  0.00000000000E+00 0.  1.
         25    1    1    2    0    0  0.38309643342E+02 -0.37246722218E+01 -0.61230995006E+02  0.14441515400E+03  0.12500000000E+03 0.  0.
         25    1    1    2    0    0 -0.32481611078E+02  0.10629881281E+03  0.98808038726E+02  0.19427434514E+03  0.12500000000E+03 0.  0.
         25    1    1    2    0    0 -0.58280322639E+01 -0.10257414059E+03  0.19110391342E+03  0.25040192891E+03  0.12500000000E+03 0.  0.
</event>
<event>
 5    0  0.5784731E-005  0.3193476E+03  0.7546771E-02  0.1075950E+00
         21   -1    0    0  502  501  0.00000000000E+00  0.00000000000E+00  0.38582120240E+03  0.38582120240E+03  0.00000000000E+00 0.  1.
         21   -1    0    0  501  502 -0.00000000000E+00 -0.00000000000E+00 -0.26432689110E+03  0.26432689110E+03  0.00000000000E+00 0.  1.
         25    1    1    2    0    0 -0.18695265704E+02 -0.17424478670E+03  0.19181680622E+03  0.28832177476E+03  0.12500000000E+03 0.  0.
         25    1    1    2    0    0 -0.63456561499E+02  0.58351169977E+02 -0.81387432330E+02  0.17228031918E+03  0.12500000000E+03 0.  0.
         25    1    1    2    0    0  0.82151827204E+02  0.11589361672E+03  0.11064937408E+02  0.18954599956E+03  0.12500000000E+03 0.  0.
</event>
<event>
 5    0  0.5503691E-005  0.3670165E+03  0.7546771E-02  0.1055840E+00
         21   -1    0    0  502  501  0.00000000000E+00  0.00000000000E+00  0.74067166908E+02  0.74067166908E+02  0.00000000000E+00 0.  1.
         21   -1    0    0  501  502 -0.00000000000E+00 -0.00000000000E+00 -0.18186347807E+04  0.18186347807E+04  0.00000000000E+00 0.  1.
         25    1    1    2    0    0  0.44299349226E+02 -0.40544939855E+02 -0.59460961908E+03  0.61056688708E+03  0.12500000000E+03 0.  0.
         25    1    1    2    0    0 -0.23946867241E+03 -0.10439071527E+03 -0.66757848557E+03  0.72768722738E+03  0.12500000000E+03 0.  0.
         25    1    1    2    0    0  0.19516932318E+03  0.14493565512E+03 -0.48237950910E+03  0.55444783311E+03  0.12500000000E+03 0.  0.
</event>
<event>
 5    0  0.5503691E-005  0.2495853E+03  0.7546771E-02  0.1113567E+00
         21   -1    0    0  502  501  0.00000000000E+00  0.00000000000E+00  0.26064824285E+04  0.26064824285E+04  0.00000000000E+00 0. -1.
         21   -1    0    0  501  502 -0.00000000000E+00 -0.00000000000E+00 -0.23899187060E+02  0.23899187060E+02  0.00000000000E+00 0. -1.
         25    1    1    2    0    0  0.36317062120E+02  0.56212274856E+02  0.96496985971E+03  0.97533100996E+03  0.12500000000E+03 0.  0.
         25    1    1    2    0    0 -0.33899786413E+02 -0.13128616664E+03  0.11654834192E+04  0.11799838361E+04  0.12500000000E+03 0.  0.
         25    1    1    2    0    0 -0.24172757077E+01  0.75073891782E+02  0.45212996260E+03  0.47506676954E+03  0.12500000000E+03 0.  0.
</event>
<event>
 5    0  0.5503691E-005  0.8432744E+03  0.7546771E-02  0.9499409E-01
         21   -1    0    0  502  501  0.00000000000E+00  0.00000000000E+00  0.95777809807E+03  0.95777809807E+03  0.00000000000E+00 0. -1.
         21   -1    0    0  501  502 -0.00000000000E+00 -0.00000000000E+00 -0.74245978190E+03  0.74245978190E+03  0.00000000000E+00 0. -1.
         25    1    1    2    0    0  0.47407180083E+03  0.33242478448E+03  0.23861956496E+03  0.63860363799E+03  0.12500000000E+03 0.  0.
         25    1    1    2    0    0 -0.42847281927E+03 -0.58732941412E+03  0.10798096457E+03  0.74553986228E+03  0.12500000000E+03 0.  0.
         25    1    1    2    0    0 -0.45598981564E+02  0.25490462964E+03 -0.13128221336E+03  0.31609437969E+03  0.12500000000E+03 0.  0.
</event>
<event>
 5    0  0.5503691E-005  0.4303488E+03  0.7546771E-02  0.1033750E+00
         21   -1    0    0  502  501  0.00000000000E+00  0.00000000000E+00  0.16953709738E+04  0.16953709738E+04  0.00000000000E+00 0. -1.
         21   -1    0    0  501  502 -0.00000000000E+00 -0.00000000000E+00 -0.10923867200E+03  0.10923867200E+03  0.00000000000E+00 0. -1.
         25    1    1    2    0    0 -0.67297538055E+02 -0.22133199700E+03  0.36127646771E+03  0.44683609707E+03  0.12500000000E+03 0.  0.
         25    1    1    2    0    0 -0.20292323852E+03  0.95592512143E+02  0.63931798572E+03  0.68896172316E+03  0.12500000000E+03 0.  0.
         25    1    1    2    0    0  0.27022077658E+03  0.12573948486E+03  0.58553784834E+03  0.66881182554E+03  0.12500000000E+03 0.  0.
</event>
<event>
 5    0  0.5503691E-005  0.2185047E+03  0.7546771E-02  0.1135003E+00
         21   -1    0    0  502  501  0.00000000000E+00  0.00000000000E+00  0.15071533018E+04  0.15071533018E+04  0.00000000000E+00 0.  1.
         21   -1    0    0  501  502 -0.00000000000E+00 -0.00000000000E+00 -0.31678466024E+02  0.31678466024E+02  0.00000000000E+00 0.  1.
         25    1    1    2    0    0 -0.39811379479E+02 -0.77898109824E+02  0.47287096217E+03  0.49687524422E+03  0.12500000000E+03 0.  0.
         25    1    1    2    0    0 -0.55581956310E+01  0.10281740363E+02  0.33163350057E+03  0.35460172931E+03  0.12500000000E+03 0.  0.
         25    1    1    2    0    0  0.45369575110E+02  0.67616369461E+02  0.67097037306E+03  0.68735479433E+03  0.12500000000E+03 0.  0.
</event>
<event>
 5    0  0.5503691E-005  0.2819503E+03  0.7546771E-02  0.1094629E+00
         21   -1    0    0  502  501  0.00000000000E+00  0.00000000000E+00  0.10350098102E+03  0.10350098102E+03  0.00000000000E+00 0. -1.
         21   -1    0    0  501  502 -0.00000000000E+00 -0.00000000000E+00 -0.76806947184E+03  0.76806947184E+03  0.00000000000E+00 0. -1.
         25    1    1    2    0    0  0.17056806375E+02 -0.17348861881E+02 -0.63063521841E+02  0.14210533220E+03  0.12500000000E+03 0.  0.
         25    1    1    2    0    0 -0.12750317274E+02 -0.15285515381E+03 -0.24305995914E+03  0.31341731346E+03  0.12500000000E+03 0.  0.
         25    1    1    2    0    0 -0.43064891010E+01  0.17020401569E+03 -0.35844500984E+03  0.41604780721E+03  0.12500000000E+03 0.  0.
</event>
<event>
 5    0  0.5503691E-005  0.2756724E+03  0.7546771E-02  0.1098076E+00
         21   -1    0    0  502  501  0.00000000000E+00  0.00000000000E+00  0.67220997766E+03  0.67220997766E+03  0.00000000000E+00 0. -1.
         21   -1    0    0  501  502 -0.00000000000E+00 -0.00000000000E+00 -0.11305285421E+03  0.11305285421E+03  0.00000000000E+00 0. -1.
         25    1    1    2    0    0  0.38862580646E+02  0.53354222538E+02  0.98244762919E+02  0.17214530687E+03  0.12500000000E+03 0.  0.
         25    1    1    2    0    0 -0.14687894125E+03 -0.10380845025E+03  0.18073745615E+03  0.28397296664E+03  0.12500000000E+03 0.  0.
         25    1    1    2    0    0  0.10801636060E+03  0.50454227712E+02  0.28017490438E+03  0.32914455836E+03  0.12500000000E+03 0.  0.
</event>
<event>
 5    0  0.7139795E-005  0.3212188E+03  0.7546771E-02  0.1075090E+00
         21   -1    0    0  502  501  0.00000000000E+00  0.00000000000E+00  0.42999634972E+03  0.42999634972E+03  0.00000000000E+00 0.  1.
         21   -1    0    0  501  502 -0.00000000000E+00 -0.00000000000E+00 -0.23995898710E+03  0.23995898710E+03  0.00000000000E+00 0.  1.
         25    1    1    2    0    0  0.32516831740E+02 -0.29164726099E+02  0.21482579620E+03  0.25235500452E+03  0.12500000000E+03 0.  0.
         25    1    1    2    0    0 -0.17151617133E+03 -0.22497313395E+02  0.31306200936E+02  0.21570582828E+03  0.12500000000E+03 0.  0.
         25    1    1    2    0    0  0.13899933959E+03  0.51662039494E+02 -0.56094634516E+02  0.20189450402E+03  0.12500000000E+03 0.  0.
</event>
<event>
 5    0  0.5503691E-005  0.2651781E+03  0.7546771E-02  0.1104071E+00
         21   -1    0    0  502  501  0.00000000000E+00  0.00000000000E+00  0.15196608553E+04  0.15196608553E+04  0.00000000000E+00 0. -1.
         21   -1    0    0  501  502 -0.00000000000E+00 -0.00000000000E+00 -0.46273115996E+02  0.46273115996E+02  0.00000000000E+00 0. -1.
         25    1    1    2    0    0 -0.75616741510E+02 -0.35449377416E+02  0.97771839340E+03  0.98920817159E+03  0.12500000000E+03 0.  0.
         25    1    1    2    0    0  0.12926964284E+02 -0.23244881782E+02  0.13722455437E+03  0.18751802382E+03  0.12500000000E+03 0.  0.
         25    1    1    2    0    0  0.62689777225E+02  0.58694259198E+02  0.35844479154E+03  0.38920777589E+03  0.12500000000E+03 0.  0.
</event>
<event>
 5    0  0.5503691E-005  0.4758623E+03  0.7546771E-02  0.1020279E+00
         21   -1    0    0  502  501  0.00000000000E+00  0.00000000000E+00  0.13422526488E+04  0.13422526488E+04  0.00000000000E+00 0.  1.
         21   -1    0    0  501  502 -0.00000000000E+00 -0.00000000000E+00 -0.16870513823E+03  0.16870513823E+03  0.00000000000E+00 0.  1.
         25    1    1    2    0    0  0.11615330835E+03  0.23627545337E+02  0.46561905235E+02  0.17844568630E+03  0.12500000000E+03 0.  0.
         25    1    1    2    0    0  0.19036662766E+03 -0.92330365751E+02  0.12638184011E+03  0.27633624242E+03  0.12500000000E+03 0.  0.
         25    1    1    2    0    0 -0.30651993601E+03  0.68702820414E+02  0.10006037653E+04  0.10561758584E+04  0.12500000000E+03 0.  0.
</event>
<event>
 5    0  0.5503691E-005  0.3032556E+03  0.7546771E-02  0.1083624E+00
         21   -1    0    0  502  501  0.00000000000E+00  0.00000000000E+00  0.21670360224E+04  0.21670360224E+04  0.00000000000E+00 0.  1.
         21   -1    0    0  501  502 -0.00000000000E+00 -0.00000000000E+00 -0.42437660554E+02  0.42437660554E+02  0.00000000000E+00 0.  1.
         25    1    1    2    0    0  0.49716973993E+02  0.53028798139E+02  0.26331445050E+03  0.30040527754E+03  0.12500000000E+03 0.  0.
         25    1    1    2    0    0 -0.11322177488E+03  0.98439717954E+02  0.12159566994E+04  0.12315377555E+04  0.12500000000E+03 0.  0.
         25    1    1    2    0    0  0.63504800888E+02 -0.15146851609E+03  0.64532721196E+03  0.67753064993E+03  0.12500000000E+03 0.  0.
</event>
<event>
 5    0  0.5503691E-005  0.2565848E+03  0.7546771E-02  0.1109213E+00
         21   -1    0    0  502  501  0.00000000000E+00  0.00000000000E+00  0.14228285651E+04  0.14228285651E+04  0.00000000000E+00 0. -1.
         21   -1    0    0  501  502 -0.00000000000E+00 -0.00000000000E+00 -0.46271036231E+02  0.46271036231E+02  0.00000000000E+00 0. -1.
         25    1    1    2    0    0  0.48267677651E+02  0.27092751777E+02  0.82483681383E+03  0.83608884417E+03  0.12500000000E+03 0.  0.
         25    1    1    2    0    0 -0.79848728671E+02 -0.26522159664E+02  0.43025334705E+03  0.45587518804E+03  0.12500000000E+03 0.  0.
         25    1    1    2    0    0  0.31581051020E+02 -0.57059211324E+00  0.12146736798E+03  0.17713556911E+03  0.12500000000E+03 0.  0.
</event>
<event>
 5    0  0.5503691E-005  0.3347985E+03  0.7546771E-02  0.1069033E+00
         21   -1    0    0  502  501  0.00000000000E+00  0.00000000000E+00  0.31167829617E+04  0.31167829617E+04  0.00000000000E+00 0.  1.
         21   -1    0    0  501  502 -0.00000000000E+00 -0.00000000000E+00 -0.35963369381E+02  0.35963369381E+02  0.00000000000E+00 0.  1.
         25    1    1    2    0    0  0.10467262484E+03 -0.82426675892E+02  0.15927402173E+04  0.16031833691E+04  0.12500000000E+03 0.  0.
         25    1    1    2    0    0 -0.18171135666E+03 -0.16457559459E+02  0.51453402282E+03  0.56005368407E+03  0.12500000000E+03 0.  0.
         25    1    1    2    0    0  0.77038731814E+02  0.98884235351E+02  0.97354535221E+03  0.98950927788E+03  0.12500000000E+03 0.  0.
</event>
<event>
 5    0  0.5503691E-005  0.2742637E+03  0.7546771E-02  0.1098864E+00
         21   -1    0    0  502  501  0.00000000000E+00  0.00000000000E+00  0.13191959685E+03  0.13191959685E+03  0.00000000000E+00 0. -1.
         21   -1    0    0  501  502 -0.00000000000E+00 -0.00000000000E+00 -0.57020027202E+03  0.57020027202E+03  0.00000000000E+00 0. -1.
         25    1    1    2    0    0 -0.75044461298E+02  0.99534976934E+02 -0.87080932775E+02  0.19684250470E+03  0.12500000000E+03 0.  0.
         25    1    1    2    0    0 -0.66785081061E+01 -0.10321148817E+03 -0.51180269548E+02  0.17012240814E+03  0.12500000000E+03 0.  0.
         25    1    1    2    0    0  0.81722969404E+02  0.36765112339E+01 -0.30001947284E+03  0.33515495602E+03  0.12500000000E+03 0.  0.
</event>
<event>
 5    0  0.5503691E-005  0.3873188E+03  0.7546771E-02  0.1048261E+00
         21   -1    0    0  502  501  0.00000000000E+00  0.00000000000E+00  0.18745115886E+03  0.18745115886E+03  0.00000000000E+00 0.  1.
         21   -1    0    0  501  502 -0.00000000000E+00 -0.00000000000E+00 -0.80029282177E+03  0.80029282177E+03  0.00000000000E+00 0.  1.
         25    1    1    2    0    0 -0.38222979595E+02  0.15299984554E+03 -0.43143740950E+03  0.47606006682E+03  0.12500000000E+03 0.  0.
         25    1    1    2    0    0  0.41399438000E+02  0.10041453938E+03 -0.15676216842E+03  0.22802712697E+03  0.12500000000E+03 0.  0.
         25    1    1    2    0    0 -0.31764584046E+01 -0.25341438492E+03 -0.24642084992E+02  0.28365678685E+03  0.12500000000E+03 0.  0.
</event>
<event>
 5    0  0.5503691E-005  0.4880272E+03  0.7546771E-02  0.1016952E+00
         21   -1    0    0  502  501  0.00000000000E+00  0.00000000000E+00  0.24235807022E+04  0.24235807022E+04  0.00000000000E+00 0. -1.
         21   -1    0    0  501  502 -0.00000000000E+00 -0.00000000000E+00 -0.98272171695E+02  0.98272171695E+02  0.00000000000E+00 0. -1.
         25    1    1    2    0    0 -0.22174212203E+03  0.14157768612E+03  0.10280980129E+04  0.10685618064E+04  0.12500000000E+03 0.  0.
         25    1    1    2    0    0  0.14730882871E+03 -0.12255764913E+03  0.10438978034E+03  0.25148060485E+03  0.12500000000E+03 0.  0.
         25    1    1    2    0    0  0.74433293328E+02 -0.19020036995E+02  0.11928207373E+04  0.12018104627E+04  0.12500000000E+03 0.  0.
</event>
<event>
 5    0  0.5503691E-005  0.3587418E+03  0.7546771E-02  0.1059083E+00
         21   -1    0    0  502  501  0.00000000000E+00  0.00000000000E+00  0.70850404615E+03  0.70850404615E+03  0.00000000000E+00 0. -1.
         21   -1    0    0  501  502 -0.00000000000E+00 -0.00000000000E+00 -0.18164423106E+03  0.18164423106E+03  0.00000000000E+00 0. -1.
         25    1    1    2    0    0  0.29914551969E+02  0.15654463973E+02  0.26248735656E+03  0.29268507822E+03  0.12500000000E+03 0.  0.
         25    1    1    2    0    0 -0.37850674561E+02  0.20711820257E+03  0.23012203616E+02  0.24593735974E+03  0.12500000000E+03 0.  0.
         25    1    1    2    0    0  0.79361225919E+01 -0.22277266655E+03  0.24136025492E+03  0.35152583924E+03  0.12500000000E+03 0.  0.
</event>
<event>
 5    0  0.5503691E-005  0.3036337E+03  0.7546771E-02  0.1083438E+00
         21   -1    0    0  502  501  0.00000000000E+00  0.00000000000E+00  0.17985307717E+03  0.17985307717E+03  0.00000000000E+00 0. -1.
         21   -1    0    0  501  502 -0.00000000000E+00 -0.00000000000E+00 -0.51260408437E+03  0.51260408437E+03  0.00000000000E+00 0. -1.
         25    1    1    2    0    0  0.96865087606E+02 -0.77125521842E+02 -0.27079002318E+03  0.32292944736E+03  0.12500000000E+03 0.  0.
         25    1    1    2    0    0  0.18378367439E+02  0.71124333453E+02  0.63360919165E+02  0.15822781448E+03  0.12500000000E+03 0.  0.
         25    1    1    2    0    0 -0.11524345504E+03  0.60011883891E+01 -0.12532190318E+03  0.21129989969E+03  0.12500000000E+03 0.  0.
</event>
<event>
 5    0  0.5503691E-005  0.2413431E+03  0.7546771E-02  0.1118901E+00
         21   -1    0    0  502  501  0.00000000000E+00  0.00000000000E+00  0.95471731287E+03  0.95471731287E+03  0.00000000000E+00 0. -1.
         21   -1    0    0  501  502 -0.00000000000E+00 -0.00000000000E+00 -0.61009146147E+02  0.61009146147E+02  0.00000000000E+00 0. -1.
         25    1    1    2    0    0  0.68147356531E+02  0.77922290891E+01  0.10878741526E+03  0.17934459221E+03  0.12500000000E+03 0.  0.
         25    1    1    2    0    0 -0.98367059837E+02  0.97524311913E+00  0.46583278238E+03  0.49224202451E+03  0.12500000000E+03 0.  0.
         25    1    1    2    0    0  0.30219703306E+02 -0.87674722083E+01  0.31908796909E+03  0.34413984229E+03  0.12500000000E+03 0.  0.
</event>
<event>
 5    0  0.5503691E-005  0.4108034E+03  0.7546771E-02  0.1040102E+00
         21   -1    0    0  502  501  0.00000000000E+00  0.00000000000E+00  0.17787276685E+03  0.17787276685E+03  0.00000000000E+00 0.  1.
         21   -1    0    0  501  502 -0.00000000000E+00 -0.00000000000E+00 -0.94876477198E+03  0.94876477198E+03  0.00000000000E+00 0.  1.
         25    1    1    2    0    0  0.40639419782E+02  0.12879838716E+02 -0.10933521199E+03  0.17145448745E+03  0.12500000000E+03 0.  0.
         25    1    1    2    0    0  0.28519998984E+03 -0.52974862539E+02 -0.43345771411E+03  0.53633567865E+03  0.12500000000E+03 0.  0.
         25    1    1    2    0    0 -0.32583940962E+03  0.40095023823E+02 -0.22809907902E+03  0.41884737274E+03  0.12500000000E+03 0.  0.
</event>
<event>
 5    0  0.5503691E-005  0.3053689E+03  0.7546771E-02  0.1082587E+00
         21   -1    0    0  502  501  0.00000000000E+00  0.00000000000E+00  0.53153958198E+03  0.53153958198E+03  0.00000000000E+00 0. -1.
         21   -1    0    0  501  502 -0.00000000000E+00 -0.00000000000E+00 -0.17543403846E+03  0.17543403846E+03  0.00000000000E+00 0. -1.
         25    1    1    2    0    0 -0.94210312295E+02  0.22287675390E+02  0.18441567967E+03  0.24291246638E+03  0.12500000000E+03 0.  0.
         25    1    1    2    0    0 -0.73748470731E+02 -0.10116938569E+03  0.16237066618E+03  0.24013186955E+03  0.12500000000E+03 0.  0.
         25    1    1    2    0    0  0.16795878303E+03  0.78881710296E+02  0.93191976737E+01  0.22392928451E+03  0.12500000000E+03 0.  0.
</event>
<event>
 5    0  0.6082817E-005  0.4618310E+03  0.7546771E-02  0.1024252E+00
         21   -1    0    0  502  501  0.00000000000E+00  0.00000000000E+00  0.39849011920E+03  0.39849011920E+03  0.00000000000E+00 0.  1.
         21   -1    0    0  501  502 -0.00000000000E+00 -0.00000000000E+00 -0.53523998647E+03  0.53523998647E+03  0.00000000000E+00 0.  1.
         25    1    1    2    0    0 -0.53574833335E+02  0.33607371042E+02 -0.28045916287E+03  0.31349969728E+03  0.12500000000E+03 0.  0.
         25    1    1    2    0    0 -0.21203281661E+03 -0.57073871367E+02  0.19771749858E+03  0.32083103241E+03  0.12500000000E+03 0.  0.
         25    1    1    2    0    0  0.26560764995E+03  0.23466500325E+02 -0.54008202990E+02  0.29939937598E+03  0.12500000000E+03 0.  0.
</event>
<event>
 5    0  0.5503691E-005  0.2422809E+03  0.7546771E-02  0.1118283E+00
         21   -1    0    0  502  501  0.00000000000E+00  0.00000000000E+00  0.34854607191E+02  0.34854607191E+02  0.00000000000E+00 0. -1.
         21   -1    0    0  501  502 -0.00000000000E+00 -0.00000000000E+00 -0.16841397624E+04  0.16841397624E+04  0.00000000000E+00 0. -1.
         25    1    1    2    0    0  0.69413916888E+02 -0.30345391554E+02 -0.41598655518E+03  0.44091830166E+03  0.12500000000E+03 0.  0.
         25    1    1    2    0    0 -0.32658022652E+02  0.99831047846E+02 -0.40419615569E+03  0.43592696273E+03  0.12500000000E+03 0.  0.
         25    1    1    2    0    0 -0.36755894237E+02 -0.69485656292E+02 -0.82910244435E+03  0.84214910522E+03  0.12500000000E+03 0.  0.
</event>
<event>
 5    0  0.5503691E-005  0.2614274E+03  0.7546771E-02  0.1106289E+00
         21   -1    0    0  502  501  0.00000000000E+00  0.00000000000E+00  0.40952438100E+03  0.40952438100E+03  0.00000000000E+00 0. -1.
         21   -1    0    0  501  502 -0.00000000000E+00 -0.00000000000E+00 -0.16688691439E+03  0.16688691439E+03  0.00000000000E+00 0. -1.
         25    1    1    2    0    0  0.13245296984E+02  0.24886639159E+02  0.17919960846E+03  0.22030043661E+03  0.12500000000E+03 0.  0.
         25    1    1    2    0    0  0.50025621567E+02  0.71986501695E+02 -0.38700599258E+02  0.15750350987E+03  0.12500000000E+03 0.  0.
         25    1    1    2    0    0 -0.63270918550E+02 -0.96873140854E+02  0.10213845741E+03  0.19860734890E+03  0.12500000000E+03 0.  0.
</event>
<event>
 5    0  0.5503691E-005  0.3764389E+03  0.7546771E-02  0.1052258E+00
         21   -1    0    0  502  501  0.00000000000E+00  0.00000000000E+00  0.17157928673E+04  0.17157928673E+04  0.00000000000E+00 0. -1.
         21   -1    0    0  501  502 -0.00000000000E+00 -0.00000000000E+00 -0.82589360459E+02  0.82589360459E+02  0.00000000000E+00 0. -1.
         25    1    1    2    0    0  0.87317555689E+02  0.54768129714E+00  0.16423487222E+03  0.22410432557E+03  0.12500000000E+03 0.  0.
         25    1    1    2    0    0 -0.44465146283E+02  0.11133405819E+02  0.14297637179E+04  0.14359492996E+04  0.12500000000E+03 0.  0.
         25    1    1    2    0    0 -0.42852409406E+02 -0.11681087116E+02  0.39204916646E+02  0.13832860253E+03  0.12500000000E+03 0.  0.
</event>
<event>
 5    0  0.5503691E-005  0.3223274E+03  0.7546771E-02  0.1074583E+00
         21   -1    0    0  502  501  0.00000000000E+00  0.00000000000E+00  0.95094446964E+03  0.95094446964E+03  0.00000000000E+00 0. -1.
         21   -1    0    0  501  502 -0.00000000000E+00 -0.00000000000E+00 -0.10925447618E+03  0.10925447618E+03  0.00000000000E+00 0. -1.
         25    1    1    2    0    0 -0.79370094919E+02 -0.14303349140E+03  0.11376318055E+03  0.23521320728E+03  0.12500000000E+03 0.  0.
         25    1    1    2    0    0  0.16312837072E+03  0.79519867597E+02  0.47907484619E+03  0.52732531035E+03  0.12500000000E+03 0.  0.
         25    1    1    2    0    0 -0.83758275804E+02  0.63513623802E+02  0.24885196672E+03  0.29766042820E+03  0.12500000000E+03 0.  0.
</event>
<event>
 5    0  0.5503691E-005  0.3872099E+03  0.7546771E-02  0.1048301E+00
         21   -1    0    0  502  501  0.00000000000E+00  0.00000000000E+00  0.26901905088E+03  0.26901905088E+03  0.00000000000E+00 0.  1.
         21   -1    0    0  501  502 -0.00000000000E+00 -0.00000000000E+00 -0.55732674546E+03  0.55732674546E+03  0.00000000000E+00 0.  1.
         25    1    1    2    0    0 -0.18502401747E+03  0.23499537787E+02 -0.33170359891E+03  0.40054761621E+03  0.12500000000E+03 0.  0.
         25    1    1    2    0    0 -0.51566416417E+02  0.36968288410E+02  0.56541234206E+02  0.15115442705E+03  0.12500000000E+03 0.  0.
         25    1    1    2    0    0  0.23659043389E+03 -0.60467826197E+02 -0.13145329868E+02  0.27464375308E+03  0.12500000000E+03 0.  0.
</event>
<event>
 5    0  0.5503691E-005  0.3705893E+03  0.7546771E-02  0.1054468E+00
         21   -1    0    0  502  501  0.00000000000E+00  0.00000000000E+00  0.14339399714E+04  0.14339399714E+04  0.00000000000E+00 0.  1.
         21   -1    0    0  501  502 -0.00000000000E+00 -0.00000000000E+00 -0.95775591325E+02  0.95775591325E+02  0.00000000000E+00 0.  1.
         25    1    1    2    0    0 -0.21153690959E+01 -0.27052614881E+03  0.74532253518E+03  0.80269518089E+03  0.12500000000E+03 0.  0.
         25    1    1    2    0    0 -0.29593708139E+02  0.26028071907E+03  0.43487952603E+03  0.52284514193E+03  0.12500000000E+03 0.  0.
         25    1    1    2    0    0  0.31709077235E+02  0.10245429744E+02  0.15796231888E+03  0.20417523992E+03  0.12500000000E+03 0.  0.
</event>
<event>
 5    0  0.5503691E-005  0.2565569E+03  0.7546771E-02  0.1109230E+00
         21   -1    0    0  502  501  0.00000000000E+00  0.00000000000E+00  0.13319879879E+03  0.13319879879E+03  0.00000000000E+00 0.  1.
         21   -1    0    0  501  502 -0.00000000000E+00 -0.00000000000E+00 -0.49415953782E+03  0.49415953782E+03  0.00000000000E+00 0.  1.
         25    1    1    2    0    0 -0.13284108521E+03 -0.62836244094E+01 -0.15238980259E+03  0.23776856350E+03  0.12500000000E+03 0.  0.
         25    1    1    2    0    0  0.46029265559E+02 -0.61746983086E+02 -0.15731863105E+03  0.21518720892E+03  0.12500000000E+03 0.  0.
         25    1    1    2    0    0  0.86811819654E+02  0.68030607496E+02 -0.51252305396E+02  0.17440256419E+03  0.12500000000E+03 0.  0.
</event>
<event>
 5    0  0.5503691E-005  0.5356972E+03  0.7546771E-02  0.1004860E+00
         21   -1    0    0  502  501  0.00000000000E+00  0.00000000000E+00  0.30768834987E+03  0.30768834987E+03  0.00000000000E+00 0.  1.
         21   -1    0    0  501  502 -0.00000000000E+00 -0.00000000000E+00 -0.93266951353E+03  0.93266951353E+03  0.00000000000E+00 0. -1.
         25    1    1    2    0    0 -0.32133756949E+03 -0.22327571894E+03 -0.51167151562E+03  0.65615746596E+03  0.12500000000E+03 0.  0.
         25    1    1    2    0    0  0.36687319417E+03  0.13894980349E+03 -0.51289461767E+02  0.41491998913E+03  0.12500000000E+03 0.  0.
         25    1    1    2    0    0 -0.45535624683E+02  0.84325915455E+02 -0.62020186271E+02  0.16928040831E+03  0.12500000000E+03 0.  0.
</event>
<event>
 5    0  0.5503691E-005  0.2915415E+03  0.7546771E-02  0.1089547E+00
         21   -1    0    0  502  501  0.00000000000E+00  0.00000000000E+00  0.11483700159E+04  0.11483700159E+04  0.00000000000E+00 0. -1.
         21   -1    0    0  501  502 -0.00000000000E+00 -0.00000000000E+00 -0.74014881267E+02  0.74014881267E+02  0.00000000000E+00 0. -1.
         25    1    1    2    0    0  0.90136150744E+01  0.28122888561E+02  0.35174203223E+02  0.13317044225E+03  0.12500000000E+03 0.  0.
         25    1    1    2    0    0  0.92563669402E+02 -0.50747286274E+02  0.53241290732E+03  0.55698458133E+03  0.12500000000E+03 0.  0.
         25    1    1    2    0    0 -0.10157728448E+03  0.22624397713E+02  0.50676802406E+03  0.53222987356E+03  0.12500000000E+03 0.  0.
</event>
<event>
 5    0  0.5503691E-005  0.3039279E+03  0.7546771E-02  0.1083293E+00
         21   -1    0    0  502  501  0.00000000000E+00  0.00000000000E+00  0.13753315170E+03  0.13753315170E+03  0.00000000000E+00 0. -1.
         21   -1    0    0  501  502 -0.00000000000E+00 -0.00000000000E+00 -0.67163545458E+03  0.67163545458E+03  0.00000000000E+00 0. -1.
         25    1    1    2    0    0 -0.11011176361E+03 -0.19722500973E+01 -0.34754669913E+03  0.38541172573E+03  0.12500000000E+03 0.  0.
         25    1    1    2    0    0  0.12699253134E+03  0.64257986668E+02 -0.20814502459E+03  0.28143479374E+03  0.12500000000E+03 0.  0.
         25    1    1    2    0    0 -0.16880767728E+02 -0.62285736571E+02  0.21589420843E+02  0.14232208680E+03  0.12500000000E+03 0.  0.
</event>
<event>
 5    0  0.5503691E-005  0.2150309E+03  0.7546771E-02  0.1137643E+00
         21   -1    0    0  502  501  0.00000000000E+00  0.00000000000E+00  0.37893342449E+03  0.37893342449E+03  0.00000000000E+00 0. -1.
         21   -1    0    0  501  502 -0.00000000000E+00 -0.00000000000E+00 -0.12202220065E+03  0.12202220065E+03  0.00000000000E+00 0. -1.
         25    1    1    2    0    0 -0.59653299793E+02  0.34219498217E+02  0.38763146883E+02  0.14784137374E+03  0.12500000000E+03 0.  0.
         25    1    1    2    0    0 -0.20569962648E+02 -0.22453806334E+02  0.10325775440E+03  0.16496805941E+03  0.12500000000E+03 0.  0.
         25    1    1    2    0    0  0.80223262441E+02 -0.11765691883E+02  0.11489032255E+03  0.18814619199E+03  0.12500000000E+03 0.  0.
</event>
<event>
 5    0  0.5503691E-005  0.2879652E+03  0.7546771E-02  0.1091416E+00
         21   -1    0    0  502  501  0.00000000000E+00  0.00000000000E+00  0.20572170849E+04  0.20572170849E+04  0.00000000000E+00 0. -1.
         21   -1    0    0  501  502 -0.00000000000E+00 -0.00000000000E+00 -0.40308807919E+02  0.40308807919E+02  0.00000000000E+00 0. -1.
         25    1    1    2    0    0  0.16447652832E+03  0.41515321890E+02  0.12460035642E+04  0.12636953479E+04  0.12500000000E+03 0.  0.
         25    1    1    2    0    0 -0.10750338560E+03 -0.33586883490E+02  0.53381621881E+03  0.55970511175E+03  0.12500000000E+03 0.  0.
         25    1    1    2    0    0 -0.56973142722E+02 -0.79284383996E+01  0.23708849390E+03  0.27412543309E+03  0.12500000000E+03 0.  0.
</event>
<event>
 5    0  0.5503691E-005  0.2722996E+03  0.7546771E-02  0.1099971E+00
         21   -1    0    0  502  501  0.00000000000E+00  0.00000000000E+00  0.50872215320E+03  0.50872215320E+03  0.00000000000E+00 0. -1.
         21   -1    0    0  501  502 -0.00000000000E+00 -0.00000000000E+00 -0.14575159634E+03  0.14575159634E+03  0.00000000000E+00 0. -1.
         25    1    1    2    0    0  0.35748789272E+02  0.38112616509E+02  0.48946067618E+02  0.14405299374E+03  0.12500000000E+03 0.  0.
         25    1    1    2    0    0 -0.99381151373E+02  0.21433838926E+02 -0.28113026043E+00  0.16112449141E+03  0.12500000000E+03 0.  0.
         25    1    1    2    0    0  0.63632362101E+02 -0.59546455434E+02  0.31430561951E+03  0.34929626439E+03  0.12500000000E+03 0.  0.
</event>
<event>
 5    0  0.5503691E-005  0.3087792E+03  0.7546771E-02  0.1080933E+00
         21   -1    0    0  502  501  0.00000000000E+00  0.00000000000E+00  0.20913872107E+03  0.20913872107E+03  0.00000000000E+00 0. -1.
         21   -1    0    0  501  502 -0.00000000000E+00 -0.00000000000E+00 -0.45589161566E+03  0.45589161566E+03  0.00000000000E+00 0. -1.
         25    1    1    2    0    0  0.20653714738E+03  0.40259385633E+01 -0.15183373476E+03  0.28522321862E+03  0.12500000000E+03 0.  0.
         25    1    1    2    0    0 -0.39058979305E+02 -0.66454122762E+02 -0.15426386429E+02  0.14766423973E+03  0.12500000000E+03 0.  0.
         25    1    1    2    0    0 -0.16747816807E+03  0.62428184199E+02 -0.79492773405E+02  0.23214287839E+03  0.12500000000E+03 0.  0.
</event>
<event>
 5    0  0.6042954E-005  0.4564319E+03  0.7546771E-02  0.1025821E+00
         21   -1    0    0  502  501  0.00000000000E+00  0.00000000000E+00  0.45694508632E+03  0.45694508632E+03  0.00000000000E+00 0. -1.
         21   -1    0    0  501  502 -0.00000000000E+00 -0.00000000000E+00 -0.45591920456E+03  0.45591920456E+03  0.00000000000E+00 0. -1.
         25    1    1    2    0    0 -0.18720756841E+03  0.72509677608E+02  0.19550260336E+03  0.30683968931E+03  0.12500000000E+03 0.  0.
         25    1    1    2    0    0  0.28474357978E+03 -0.88761265391E+02  0.36446733370E+02  0.32543944573E+03  0.12500000000E+03 0.  0.
         25    1    1    2    0    0 -0.97536011376E+02  0.16251587784E+02 -0.23092345498E+03  0.28058515584E+03  0.12500000000E+03 0.  0.
</event>
<event>
 5    0  0.6163809E-005  0.3360235E+03  0.7546771E-02  0.1068502E+00
         21   -1    0    0  502  501  0.00000000000E+00  0.00000000000E+00  0.77456545208E+03  0.77456545208E+03  0.00000000000E+00 0.  1.
         21   -1    0    0  501  502 -0.00000000000E+00 -0.00000000000E+00 -0.14577439336E+03  0.14577439336E+03  0.00000000000E+00 0.  1.
         25    1    1    2    0    0 -0.69284351997E+00  0.56276418392E+02 -0.96494761142E+01  0.13742498932E+03  0.12500000000E+03 0.  0.
         25    1    1    2    0    0  0.70002741908E+02  0.74464694943E+02  0.54391695255E+03  0.56737644112E+03  0.12500000000E+03 0.  0.
         25    1    1    2    0    0 -0.69309898388E+02 -0.13074111334E+03  0.94523582284E+02  0.21553841499E+03  0.12500000000E+03 0.  0.
</event>
<event>
 5    0  0.5503691E-005  0.3449778E+03  0.7546771E-02  0.1064695E+00
         21   -1    0    0  502  501  0.00000000000E+00  0.00000000000E+00  0.13174272975E+04  0.13174272975E+04  0.00000000000E+00 0. -1.
         21   -1    0    0  501  502 -0.00000000000E+00 -0.00000000000E+00 -0.90334916368E+02  0.90334916368E+02  0.00000000000E+00 0. -1.
         25    1    1    2    0    0  0.57790950972E+02 -0.13884261092E+03  0.38234422233E+03  0.42945217309E+03  0.12500000000E+03 0.  0.
         25    1    1    2    0    0 -0.21464748447E+03  0.26196945024E+02  0.32467366488E+03  0.40963131129E+03  0.12500000000E+03 0.  0.
         25    1    1    2    0    0  0.15685653350E+03  0.11264566590E+03  0.52007449389E+03  0.56867872946E+03  0.12500000000E+03 0.  0.
</event>
<event>
 5    0  0.5503691E-005  0.4381802E+03  0.7546771E-02  0.1031307E+00
         21   -1    0    0  502  501  0.00000000000E+00  0.00000000000E+00  0.13101935305E+03  0.13101935305E+03  0.00000000000E+00 0.  1.
         21   -1    0    0  501  502 -0.00000000000E+00 -0.00000000000E+00 -0.14654466620E+04  0.14654466620E+04  0.00000000000E+00 0.  1.
         25    1    1    2    0    0 -0.17720285769E+03 -0.64044066473E+02 -0.53600101995E+03  0.58174271685E+03  0.12500000000E+03 0.  0.
         25    1    1    2    0    0  0.75503727259E+02 -0.19368252921E+03 -0.61158299210E+03  0.65793046074E+03  0.12500000000E+03 0.  0.
         25    1    1    2    0    0  0.10169913043E+03  0.25772659568E+03 -0.18684329685E+03  0.35679283741E+03  0.12500000000E+03 0.  0.
</event>
<event>
 5    0  0.5503691E-005  0.6176647E+03  0.7546771E-02  0.9869420E-01
         21   -1    0    0  502  501  0.00000000000E+00  0.00000000000E+00  0.61707267049E+03  0.61707267049E+03  0.00000000000E+00 0. -1.
         21   -1    0    0  501  502 -0.00000000000E+00 -0.00000000000E+00 -0.61825736248E+03  0.61825736248E+03  0.00000000000E+00 0. -1.
         25    1    1    2    0    0 -0.66692459732E+02 -0.11633646815E+03 -0.38156246026E+03  0.42331662982E+03  0.12500000000E+03 0.  0.
         25    1    1    2    0    0  0.17965904577E+03  0.87572801385E+02  0.53304093804E+03  0.58284132480E+03  0.12500000000E+03 0.  0.
         25    1    1    2    0    0 -0.11296658604E+03  0.28763666760E+02 -0.15266316977E+03  0.22917207834E+03  0.12500000000E+03 0.  0.
</event>
<event>
 5    0  0.5503691E-005  0.4203693E+03  0.7546771E-02  0.1036946E+00
         21   -1    0    0  502  501  0.00000000000E+00  0.00000000000E+00  0.13003431239E+03  0.13003431239E+03  0.00000000000E+00 0.  1.
         21   -1    0    0  501  502 -0.00000000000E+00 -0.00000000000E+00 -0.13589518077E+04  0.13589518077E+04  0.00000000000E+00 0. -1.
         25    1    1    2    0    0 -0.19913953829E+03  0.19985005508E+03 -0.92569904208E+03  0.97577677608E+03  0.12500000000E+03 0.  0.
         25    1    1    2    0    0  0.90672927738E+01 -0.11427761504E+03 -0.14552054053E+03  0.22347889568E+03  0.12500000000E+03 0.  0.
         25    1    1    2    0    0  0.19007224551E+03 -0.85572440044E+02 -0.15769791266E+03  0.28973044829E+03  0.12500000000E+03 0.  0.
</event>
<event>
 5    0  0.5503691E-005  0.3297177E+03  0.7546771E-02  0.1071262E+00
         21   -1    0    0  502  501  0.00000000000E+00  0.00000000000E+00  0.34856562694E+03  0.34856562694E+03  0.00000000000E+00 0.  1.
         21   -1    0    0  501  502 -0.00000000000E+00 -0.00000000000E+00 -0.31188897066E+03  0.31188897066E+03  0.00000000000E+00 0.  1.
         25    1    1    2    0    0 -0.42935905664E+01 -0.92690209584E+01 -0.11265380973E+03  0.16858300779E+03  0.12500000000E+03 0.  0.
         25    1    1    2    0    0  0.57447171112E+01  0.19637047340E+03  0.23434074776E+02  0.23402675159E+03  0.12500000000E+03 0.  0.
         25    1    1    2    0    0 -0.14511265448E+01 -0.18710145244E+03  0.12589639123E+03  0.25784483822E+03  0.12500000000E+03 0.  0.
</event>
<event>
 5    0  0.5503691E-005  0.3213255E+03  0.7546771E-02  0.1075041E+00
         21   -1    0    0  502  501  0.00000000000E+00  0.00000000000E+00  0.60488651739E+03  0.60488651739E+03  0.00000000000E+00 0. -1.
         21   -1    0    0  501  502 -0.00000000000E+00 -0.00000000000E+00 -0.17069326427E+03  0.17069326427E+03  0.00000000000E+00 0. -1.
         25    1    1    2    0    0 -0.20690506389E+02  0.12410497135E+03  0.24312090022E+03  0.30093672606E+03  0.12500000000E+03 0.  0.
         25    1    1    2    0    0 -0.82246581307E+01 -0.42548141947E+02 -0.86567931635E+02  0.15810438379E+03  0.12500000000E+03 0.  0.
         25    1    1    2    0    0  0.28915164520E+02 -0.81556829399E+02  0.27764028453E+03  0.31653867182E+03  0.12500000000E+03 0.  0.
</event>
<event>
 5    0  0.5503691E-005  0.2088618E+03  0.7546771E-02  0.1142470E+00
         21   -1    0    0  502  501  0.00000000000E+00  0.00000000000E+00  0.99746171731E+03  0.99746171731E+03  0.00000000000E+00 0.  1.
         21   -1    0    0  501  502 -0.00000000000E+00 -0.00000000000E+00 -0.43734272697E+02  0.43734272697E+02  0.00000000000E+00 0.  1.
         25    1    1    2    0    0  0.18994371588E+02 -0.62044293602E+02  0.26772475771E+03  0.30250921707E+03  0.12500000000E+03 0.  0.
         25    1    1    2    0    0  0.28506738889E+02  0.45785627421E+02  0.28917205645E+03  0.31961607605E+03  0.12500000000E+03 0.  0.
         25    1    1    2    0    0 -0.47501110477E+02  0.16258666181E+02  0.39683063045E+03  0.41907069689E+03  0.12500000000E+03 0.  0.
</event>
<event>
 5    0  0.5503691E-005  0.5000263E+03  0.7546771E-02  0.1013772E+00
         21   -1    0    0  502  501  0.00000000000E+00  0.00000000000E+00  0.11952764126E+04  0.11952764126E+04  0.00000000000E+00 0.  1.
         21   -1    0    0  501  502 -0.00000000000E+00 -0.00000000000E+00 -0.20917861607E+03  0.20917861607E+03  0.00000000000E+00 0.  1.
         25    1    1    2    0    0  0.23943281121E+03  0.26860652214E+03  0.60638440526E+03  0.71610375070E+03  0.12500000000E+03 0.  0.
         25    1    1    2    0    0 -0.84724455181E+02 -0.89167807673E+02 -0.49664116942E+02  0.18226534433E+03  0.12500000000E+03 0.  0.
         25    1    1    2    0    0 -0.15470835603E+03 -0.17943871447E+03  0.42937750823E+03  0.50608593366E+03  0.12500000000E+03 0.  0.
</event>
<event>
 5    0  0.5503691E-005  0.2430928E+03  0.7546771E-02  0.1117749E+00
         21   -1    0    0  502  501  0.00000000000E+00  0.00000000000E+00  0.98101233292E+03  0.98101233292E+03  0.00000000000E+00 0. -1.
         21   -1    0    0  501  502 -0.00000000000E+00 -0.00000000000E+00 -0.60237885579E+02  0.60237885579E+02  0.00000000000E+00 0. -1.
         25    1    1    2    0    0 -0.16630974664E+02 -0.76000522439E+02  0.25534664538E+03  0.29475341904E+03  0.12500000000E+03 0.  0.
         25    1    1    2    0    0 -0.91326237640E+02  0.43488420864E+02  0.23912857316E+03  0.28816522853E+03  0.12500000000E+03 0.  0.
         25    1    1    2    0    0  0.10795721230E+03  0.32512101574E+02  0.42629922880E+03  0.45833157093E+03  0.12500000000E+03 0.  0.
</event>
<event>
 5    0  0.5503691E-005  0.3163064E+03  0.7546771E-02  0.1077362E+00
         21   -1    0    0  502  501  0.00000000000E+00  0.00000000000E+00  0.80901406130E+03  0.80901406130E+03  0.00000000000E+00 0.  1.
         21   -1    0    0  501  502 -0.00000000000E+00 -0.00000000000E+00 -0.12366875267E+03  0.12366875267E+03  0.00000000000E+00 0.  1.
         25    1    1    2    0    0 -0.25408972528E+02 -0.17340019535E+03  0.76180366631E+02  0.22834555370E+03  0.12500000000E+03 0.  0.
         25    1    1    2    0    0 -0.46254218145E+02  0.60400244440E+02  0.40222276443E+03  0.42801377834E+03  0.12500000000E+03 0.  0.
         25    1    1    2    0    0  0.71663190673E+02  0.11299995091E+03  0.20694217757E+03  0.27632348192E+03  0.12500000000E+03 0.  0.
</event>
<event>
 5    0  0.5503691E-005  0.2787623E+03  0.7546771E-02  0.1096367E+00
         21   -1    0    0  502  501  0.00000000000E+00  0.00000000000E+00  0.74682934888E+02  0.74682934888E+02  0.00000000000E+00 0. -1.
         21   -1    0    0  501  502 -0.00000000000E+00 -0.00000000000E+00 -0.10405110839E+04  0.10405110839E+04  0.00000000000E+00 0. -1.
         25    1    1    2    0    0  0.45522978144E+02 -0.69531657890E+02 -0.33630968265E+03  0.36828819643E+03  0.12500000000E+03 0.  0.
         25    1    1    2    0    0  0.65067500868E+02 -0.56167089446E+02 -0.43779443494E+03  0.46333302156E+03  0.12500000000E+03 0.  0.
         25    1    1    2    0    0 -0.11059047901E+03  0.12569874734E+03 -0.19172403146E+03  0.28357280082E+03  0.12500000000E+03 0.  0.
</event>
<event>
 5    0  0.5503691E-005  0.3470171E+03  0.7546771E-02  0.1063846E+00
         21   -1    0    0  502  501  0.00000000000E+00  0.00000000000E+00  0.84671084277E+03  0.84671084277E+03  0.00000000000E+00 0. -1.
         21   -1    0    0  501  502 -0.00000000000E+00 -0.00000000000E+00 -0.14222191538E+03  0.14222191538E+03  0.00000000000E+00 0. -1.
         25    1    1    2    0    0 -0.59280087354E+02 -0.23999246121E+03  0.24236756946E+03  0.36807274949E+03  0.12500000000E+03 0.  0.
         25    1    1    2    0    0 -0.69029494523E+02  0.76360047684E+02  0.25389954652E+03  0.30114100969E+03  0.12500000000E+03 0.  0.
         25    1    1    2    0    0  0.12830958188E+03  0.16363241352E+03  0.20822181141E+03  0.31971899897E+03  0.12500000000E+03 0.  0.
</event>
<event>
 5    0  0.5503691E-005  0.3076948E+03  0.7546771E-02  0.1081456E+00
         21   -1    0    0  502  501  0.00000000000E+00  0.00000000000E+00  0.17888050270E+03  0.17888050270E+03  0.00000000000E+00 0.  1.
         21   -1    0    0  501  502 -0.00000000000E+00 -0.00000000000E+00 -0.52926997558E+03  0.52926997558E+03  0.00000000000E+00 0.  1.
         25    1    1    2    0    0  0.96323565187E+02  0.26796768051E+02 -0.66414096684E+02  0.17329780214E+03  0.12500000000E+03 0.  0.
         25    1    1    2    0    0 -0.53386550197E+02  0.73228119676E+02 -0.32871602811E+03  0.36316898049E+03  0.12500000000E+03 0.  0.
         25    1    1    2    0    0 -0.42937014990E+02 -0.10002488773E+03  0.44740651912E+02  0.17168369566E+03  0.12500000000E+03 0.  0.
</event>
<event>
 5    0  0.5503691E-005  0.2414570E+03  0.7546771E-02  0.1118826E+00
         21   -1    0    0  502  501  0.00000000000E+00  0.00000000000E+00  0.56159356792E+02  0.56159356792E+02  0.00000000000E+00 0.  1.
         21   -1    0    0  501  502 -0.00000000000E+00 -0.00000000000E+00 -0.10381438482E+04  0.10381438482E+04  0.00000000000E+00 0.  1.
         25    1    1    2    0    0 -0.73196770818E+02 -0.65015402203E+01 -0.39792198668E+03  0.42351734884E+03  0.12500000000E+03 0.  0.
         25    1    1    2    0    0  0.11476922780E+03 -0.33769095304E+02 -0.20959253085E+03  0.27178365741E+03  0.12500000000E+03 0.  0.
         25    1    1    2    0    0 -0.41572456980E+02  0.40270635525E+02 -0.37446997384E+03  0.39900219870E+03  0.12500000000E+03 0.  0.
</event>
<event>
 5    0  0.5503691E-005  0.2242664E+03  0.7546771E-02  0.1130742E+00
         21   -1    0    0  502  501  0.00000000000E+00  0.00000000000E+00  0.84007638652E+03  0.84007638652E+03  0.00000000000E+00 0.  1.
         21   -1    0    0  501  502 -0.00000000000E+00 -0.00000000000E+00 -0.59870063546E+02  0.59870063546E+02  0.00000000000E+00 0.  1.
         25    1    1    2    0    0  0.77961800361E+01 -0.50252627177E+02  0.17154976745E+03  0.21826687718E+03  0.12500000000E+03 0.  0.
         25    1    1    2    0    0  0.45613142066E+02  0.42110299914E+02  0.45709681832E+03  0.47792921798E+03  0.12500000000E+03 0.  0.
         25    1    1    2    0    0 -0.53409322102E+02  0.81423272635E+01  0.15155973721E+03  0.20375035490E+03  0.12500000000E+03 0.  0.
</event>
<event>
 5    0  0.5503691E-005  0.2250540E+03  0.7546771E-02  0.1130170E+00
         21   -1    0    0  502  501  0.00000000000E+00  0.00000000000E+00  0.38636059978E+03  0.38636059978E+03  0.00000000000E+00 0.  1.
         21   -1    0    0  501  502 -0.00000000000E+00 -0.00000000000E+00 -0.13109331737E+03  0.13109331737E+03  0.00000000000E+00 0.  1.
         25    1    1    2    0    0  0.73823153789E+02 -0.25155178780E+02  0.50403789726E+02  0.15571828112E+03  0.12500000000E+03 0.  0.
         25    1    1    2    0    0 -0.89012817909E+02  0.16522164409E+02  0.17243788042E+03  0.23142187941E+03  0.12500000000E+03 0.  0.
         25    1    1    2    0    0  0.15189664120E+02  0.86330143713E+01  0.32425612272E+02  0.13031375662E+03  0.12500000000E+03 0.  0.
</event>
<event>
 5    0  0.5503691E-005  0.3781010E+03  0.7546771E-02  0.1051638E+00
         21   -1    0    0  502  501  0.00000000000E+00  0.00000000000E+00  0.87967412346E+03  0.87967412346E+03  0.00000000000E+00 0. -1.
         21   -1    0    0  501  502 -0.00000000000E+00 -0.00000000000E+00 -0.16251517006E+03  0.16251517006E+03  0.00000000000E+00 0. -1.
         25    1    1    2    0    0  0.21505910466E+03  0.66377413249E+02  0.61628775943E+03  0.66790117675E+03  0.12500000000E+03 0.  0.
         25    1    1    2    0    0 -0.16968516844E+03 -0.75046251549E+02  0.88005460152E+02  0.24040581789E+03  0.12500000000E+03 0.  0.
         25    1    1    2    0    0 -0.45373936223E+02  0.86688383000E+01  0.12865733822E+02  0.13388229888E+03  0.12500000000E+03 0.  0.
</event>
<event>
 5    0  0.5503691E-005  0.3748857E+03  0.7546771E-02  0.1052840E+00
         21   -1    0    0  502  501  0.00000000000E+00  0.00000000000E+00  0.12981607095E+03  0.12981607095E+03  0.00000000000E+00 0. -1.
         21   -1    0    0  501  502 -0.00000000000E+00 -0.00000000000E+00 -0.10826032466E+04  0.10826032466E+04  0.00000000000E+00 0. -1.
         25    1    1    2    0    0  0.18514290978E+03  0.16579776896E+03 -0.48125081069E+03  0.55587241344E+03  0.12500000000E+03 0.  0.
         25    1    1    2    0    0 -0.15254772539E+03 -0.10813554022E+03 -0.46309963873E+03  0.51483043711E+03  0.12500000000E+03 0.  0.
         25    1    1    2    0    0 -0.32595184387E+02 -0.57662228739E+02 -0.84367262209E+01  0.14171646700E+03  0.12500000000E+03 0.  0.
</event>
<event>
 5    0  0.5695786E-005  0.3681414E+03  0.7546771E-02  0.1055406E+00
         21   -1    0    0  502  501  0.00000000000E+00  0.00000000000E+00  0.72138727697E+03  0.72138727697E+03  0.00000000000E+00 0.  1.
         21   -1    0    0  501  502 -0.00000000000E+00 -0.00000000000E+00 -0.18787143175E+03  0.18787143175E+03  0.00000000000E+00 0.  1.
         25    1    1    2    0    0  0.61833112419E+02 -0.36345119321E+01 -0.83763452237E+02  0.16272018744E+03  0.12500000000E+03 0.  0.
         25    1    1    2    0    0  0.10985323519E+03  0.87357408754E+02  0.32806494737E+03  0.37808816411E+03  0.12500000000E+03 0.  0.
         25    1    1    2    0    0 -0.17168634761E+03 -0.83722896822E+02  0.28921435009E+03  0.36845035718E+03  0.12500000000E+03 0.  0.
</event>
<event>
 5    0  0.5503691E-005  0.3935787E+03  0.7546771E-02  0.1046026E+00
         21   -1    0    0  502  501  0.00000000000E+00  0.00000000000E+00  0.96438898673E+03  0.96438898673E+03  0.00000000000E+00 0. -1.
         21   -1    0    0  501  502 -0.00000000000E+00 -0.00000000000E+00 -0.16062421799E+03  0.16062421799E+03  0.00000000000E+00 0. -1.
         25    1    1    2    0    0 -0.11692790734E+03 -0.19701166633E+03  0.66409514931E+02  0.26929715160E+03  0.12500000000E+03 0.  0.
         25    1    1    2    0    0 -0.68295927458E+01  0.79739637973E+02  0.87407713468E+02  0.17225028759E+03  0.12500000000E+03 0.  0.
         25    1    1    2    0    0  0.12375750009E+03  0.11727202836E+03  0.64994754034E+03  0.68346576554E+03  0.12500000000E+03 0.  0.
</event>
<event>
 5    0  0.5503691E-005  0.2901053E+03  0.7546771E-02  0.1090294E+00
         21   -1    0    0  502  501  0.00000000000E+00  0.00000000000E+00  0.32792026515E+03  0.32792026515E+03  0.00000000000E+00 0.  1.
         21   -1    0    0  501  502 -0.00000000000E+00 -0.00000000000E+00 -0.25665114862E+03  0.25665114862E+03  0.00000000000E+00 0. -1.
         25    1    1    2    0    0  0.29082432062E+02 -0.27932919640E+02 -0.53776383118E+02  0.14192580891E+03  0.12500000000E+03 0.  0.
         25    1    1    2    0    0 -0.16751802892E+03  0.78854198177E+02  0.10918854466E+03  0.24865118715E+03  0.12500000000E+03 0.  0.
         25    1    1    2    0    0  0.13843559686E+03 -0.50921278537E+02  0.15856954982E+02  0.19399441772E+03  0.12500000000E+03 0.  0.
</event>
<event>
 5    0  0.5503691E-005  0.3774471E+03  0.7546771E-02  0.1051881E+00
         21   -1    0    0  502  501  0.00000000000E+00  0.00000000000E+00  0.30088728322E+03  0.30088728322E+03  0.00000000000E+00 0.  1.
         21   -1    0    0  501  502 -0.00000000000E+00 -0.00000000000E+00 -0.47348729148E+03  0.47348729148E+03  0.00000000000E+00 0.  1.
         25    1    1    2    0    0 -0.23181955308E+03 -0.16837162042E+03 -0.13237604164E+03  0.33946682335E+03  0.12500000000E+03 0.  0.
         25    1    1    2    0    0  0.18158647765E+02  0.41186425628E+02 -0.77987016355E+02  0.15405529158E+03  0.12500000000E+03 0.  0.
         25    1    1    2    0    0  0.21366090532E+03  0.12718519479E+03  0.37763049737E+02  0.28085245977E+03  0.12500000000E+03 0.  0.
</event>
<event>
 5    0  0.5503691E-005  0.4299425E+03  0.7546771E-02  0.1033878E+00
         21   -1    0    0  502  501  0.00000000000E+00  0.00000000000E+00  0.17572925500E+03  0.17572925500E+03  0.00000000000E+00 0. -1.
         21   -1    0    0  501  502 -0.00000000000E+00 -0.00000000000E+00 -0.10519055569E+04  0.10519055569E+04  0.00000000000E+00 0. -1.
         25    1    1    2    0    0  0.65734499293E+02 -0.16863374080E+02  0.10590837317E+03  0.17733296730E+03  0.12500000000E+03 0.  0.
         25    1    1    2    0    0  0.10067636641E+03  0.11479251896E+02 -0.36066740714E+03  0.39493478265E+03  0.12500000000E+03 0.  0.
         25    1    1    2    0    0 -0.16641086570E+03  0.53841221836E+01 -0.62141726793E+03  0.65536706194E+03  0.12500000000E+03 0.  0.
</event>
<event>
 5    0  0.5503691E-005  0.2528001E+03  0.7546771E-02  0.1111548E+00
         21   -1    0    0  502  501  0.00000000000E+00  0.00000000000E+00  0.64222517389E+02  0.64222517389E+02  0.00000000000E+00 0.  1.
         21   -1    0    0  501  502 -0.00000000000E+00 -0.00000000000E+00 -0.99510088563E+03  0.99510088563E+03  0.00000000000E+00 0.  1.
         25    1    1    2    0    0 -0.93866519696E+02 -0.39463539434E+02 -0.42606958854E+03  0.45555305810E+03  0.12500000000E+03 0.  0.
         25    1    1    2    0    0  0.10764416476E+03  0.94684160518E+02 -0.33647693760E+03  0.38651531146E+03  0.12500000000E+03 0.  0.
         25    1    1    2    0    0 -0.13777645059E+02 -0.55220621084E+02 -0.16833184209E+03  0.21725503345E+03  0.12500000000E+03 0.  0.
</event>
<event>
 5    0  0.5503691E-005  0.2791043E+03  0.7546771E-02  0.1096179E+00
         21   -1    0    0  502  501  0.00000000000E+00  0.00000000000E+00  0.21779362074E+03  0.21779362074E+03  0.00000000000E+00 0. -1.
         21   -1    0    0  501  502 -0.00000000000E+00 -0.00000000000E+00 -0.35767434550E+03  0.35767434550E+03  0.00000000000E+00 0. -1.
         25    1    1    2    0    0 -0.12058783620E+03  0.83770989784E+02  0.54711903182E+01  0.19290914673E+03  0.12500000000E+03 0.  0.
         25    1    1    2    0    0  0.62206384077E+02  0.60874849956E+02 -0.81310928944E+02  0.17266108057E+03  0.12500000000E+03 0.  0.
         25    1    1    2    0    0  0.58381452122E+02 -0.14464583974E+03 -0.64040986142E+02  0.20989773894E+03  0.12500000000E+03 0.  0.
</event>
<event>
 5    0  0.5503691E-005  0.2690928E+03  0.7546771E-02  0.1101800E+00
         21   -1    0    0  502  501  0.00000000000E+00  0.00000000000E+00  0.43548420121E+02  0.43548420121E+02  0.00000000000E+00 0.  1.
         21   -1    0    0  501  502 -0.00000000000E+00 -0.00000000000E+00 -0.16627679136E+04  0.16627679136E+04  0.00000000000E+00 0.  1.
         25    1    1    2    0    0  0.15627759147E+01 -0.33501844022E+02 -0.35178613582E+03  0.37483769978E+03  0.12500000000E+03 0.  0.
         25    1    1    2    0    0 -0.13876945666E+03  0.31940596079E+02 -0.90108471838E+03  0.92079087391E+03  0.12500000000E+03 0.  0.
         25    1    1    2    0    0  0.13720668075E+03  0.15612479426E+01 -0.36634863928E+03  0.41068776003E+03  0.12500000000E+03 0.  0.
</event>
<event>
 5    0  0.5503691E-005  0.5725019E+03  0.7546771E-02  0.9964158E-01
         21   -1    0    0  502  501  0.00000000000E+00  0.00000000000E+00  0.39072204185E+03  0.39072204185E+03  0.00000000000E+00 0.  1.
         21   -1    0    0  501  502 -0.00000000000E+00 -0.00000000000E+00 -0.83885315917E+03  0.83885315917E+03  0.00000000000E+00 0.  1.
         25    1    1    2    0    0  0.37743376831E+03  0.29164272818E+03 -0.22408594835E+02  0.49359788845E+03  0.12500000000E+03 0.  0.
         25    1    1    2    0    0 -0.30364455208E+03 -0.18171798192E+03 -0.14701276631E+03  0.40306226866E+03  0.12500000000E+03 0.  0.
         25    1    1    2    0    0 -0.73789216235E+02 -0.10992474625E+03 -0.27870975617E+03  0.33291504391E+03  0.12500000000E+03 0.  0.
</event>
