<event>
 6    0  0.7258365E+002  0.4409185E+03  0.7546771E-02  0.1030465E+00
         -2   -1    0    0    0  501 -0.00000000000E+00  0.00000000000E+00  0.11257897355E+04  0.11257897355E+04  0.00000000000E+00 0. -1.
         21   -1    0    0  504  502  0.00000000000E+00 -0.00000000000E+00 -0.27505279703E+03  0.27505279703E+03  0.00000000000E+00 0. -1.
         21    1    1    2  503  505  0.15914659770E+03  0.40731899371E+03  0.35346349066E+03  0.56229248743E+03  0.00000000000E+00 0. -1.
         21    1    1    2  504  501 -0.13763500752E+03 -0.41591835161E+03  0.18129198190E+03  0.47412894153E+03  0.00000000000E+00 0. -1.
         21    1    1    2  505  502 -0.45849364895E+02 -0.94412712161E+01 -0.17980444320E+00  0.46811688637E+02  0.00000000000E+00 0.  1.
         -2    1    1    2    0  503  0.24337774717E+02  0.18040629115E+02  0.31616127032E+03  0.31760941490E+03  0.00000000000E+00 0. -1.
<scales pt_clust_3="440.91848" pt_clust_4="14000.00000" pt_clust_5="46.02084" pt_clust_6="30.29508"></scales>
<clustering>
<clus scale="   30.295">  1  6  2 -1</clus>
<clus scale="   46.021">  2  5  1 -1</clus>
<clus scale="  440.918">  1  3  2 -1</clus>
<clus scale="   46.021">  2  3  1 -1</clus>
</clustering>
</event>
<event>
 6    0  0.7258365E+002  0.1604861E+03  0.7546771E-02  0.1188149E+00
         21   -1    0    0  504  502  0.00000000000E+00  0.00000000000E+00  0.74418846788E+03  0.74418846788E+03  0.00000000000E+00 0.  1.
          4   -1    0    0  505    0 -0.00000000000E+00 -0.00000000000E+00 -0.14129670564E+04  0.14129670564E+04  0.00000000000E+00 0. -1.
         21    1    1    2  503  502  0.89327136796E+02 -0.13277941907E+03  0.16676055838E+03  0.23112506426E+03  0.00000000000E+00 0.  1.
         21    1    1    2  504  501  0.30037055442E+02  0.37999688658E+02  0.48127995979E+03  0.48371127828E+03  0.00000000000E+00 0.  1.
         21    1    1    2  505  503 -0.14737402217E+03  0.13023907022E+03 -0.92806365269E+02  0.21747261726E+03  0.00000000000E+00 0.  1.
          4    1    1    2  501    0  0.28009829929E+02 -0.35459339808E+02 -0.12240127414E+04  0.12248465645E+04  0.00000000000E+00 0. -1.
<scales pt_clust_3="14000.00000" pt_clust_4="48.37106" pt_clust_5="160.48610" pt_clust_6="45.18756"></scales>
<clustering>
<clus scale="   45.188">  2  6  1 -1</clus>
<clus scale="   48.371">  1  4  2 -1</clus>
<clus scale="  160.486">  2  5  1 -1</clus>
<clus scale="   48.371">  1  3  2 -1</clus>
</clustering>
</event>
<event>
 6    0  0.7258365E+002  0.9169086E+02  0.7546771E-02  0.1298808E+00
         21   -1    0    0  504  502  0.00000000000E+00  0.00000000000E+00  0.91163574579E+03  0.91163574579E+03  0.00000000000E+00 0.  1.
          1   -1    0    0  503    0 -0.00000000000E+00 -0.00000000000E+00 -0.99037286955E+03  0.99037286955E+03  0.00000000000E+00 0.  1.
         21    1    1    2  503  502  0.29472361818E+02 -0.34379297022E+02 -0.49879757373E+02  0.67368734369E+02  0.00000000000E+00 0.  1.
         21    1    1    2  504  505  0.26865441984E+02  0.18712237733E+02  0.81963574162E+03  0.82028936891E+03  0.00000000000E+00 0.  1.
         21    1    1    2  505  501 -0.59673666272E+02  0.10678157348E+03  0.34157038872E+02  0.12700375658E+03  0.00000000000E+00 0.  1.
          1    1    1    2  501    0  0.33358624707E+01 -0.91114514187E+02 -0.88265014688E+03  0.88734675548E+03  0.00000000000E+00 0.  1.
<scales pt_clust_3="45.70158" pt_clust_4="32.73988" pt_clust_5="14000.00000" pt_clust_6="91.69086"></scales>
<clustering>
<clus scale="   32.740">  1  4  2 -1</clus>
<clus scale="   45.702">  1  3  2 -1</clus>
<clus scale="   91.691">  2  6  1 -1</clus>
<clus scale="   32.740">  1  3  2 -1</clus>
</clustering>
</event>
<event>
 6    0  0.7258365E+002  0.6674730E+02  0.7546771E-02  0.1371517E+00
          4   -1    0    0  504    0 -0.00000000000E+00  0.00000000000E+00  0.24251420335E+03  0.24251420335E+03  0.00000000000E+00 0. -1.
         21   -1    0    0  503  502  0.00000000000E+00 -0.00000000000E+00 -0.16946081359E+04  0.16946081359E+04  0.00000000000E+00 0. -1.
         21    1    1    2  503  501  0.32162694311E+02 -0.84526204324E+01 -0.14978952327E+04  0.14982643338E+04  0.00000000000E+00 0. -1.
         21    1    1    2  504  505 -0.27829270120E+02 -0.28992613501E+02  0.25580368867E+02  0.47638169407E+02  0.00000000000E+00 0. -1.
         21    1    1    2  505  502 -0.94128710837E+02  0.52027292455E+01 -0.16091314583E+03  0.18649483397E+03  0.00000000000E+00 0. -1.
          4    1    1    2  501    0  0.89795286646E+02  0.32242504688E+02  0.18113407710E+03  0.20472500213E+03  0.00000000000E+00 0. -1.
<scales pt_clust_3="33.25486" pt_clust_4="39.31372" pt_clust_5="14000.00000" pt_clust_6="66.74730"></scales>
<clustering>
<clus scale="   33.255">  2  3  1 -1</clus>
<clus scale="   39.314">  1  4  2 -1</clus>
<clus scale="   66.747">  1  6  2 -1</clus>
<clus scale="   33.255">  2  3  1 -1</clus>
</clustering>
</event>
<event>
 6    0  0.7258365E+002  0.1188592E+03  0.7546771E-02  0.1244991E+00
         21   -1    0    0  505  502  0.00000000000E+00  0.00000000000E+00  0.13144401464E+04  0.13144401464E+04  0.00000000000E+00 0. -1.
          2   -1    0    0  503    0 -0.00000000000E+00 -0.00000000000E+00 -0.17495047644E+03  0.17495047644E+03  0.00000000000E+00 0.  1.
         21    1    1    2  503  504  0.13303197708E+03  0.13294829992E+01  0.67263344159E+02  0.14907592669E+03  0.00000000000E+00 0.  1.
         21    1    1    2  504  502 -0.11735753269E+03 -0.24266715941E+01  0.94733420948E+03  0.95457885147E+03  0.00000000000E+00 0. -1.
         21    1    1    2  505  501  0.13250240142E+02  0.63974636256E+02  0.24147471243E+03  0.25015667029E+03  0.00000000000E+00 0. -1.
          2    1    1    2  501    0 -0.28924684539E+02 -0.62877447661E+02 -0.11658259613E+03  0.13557917436E+03  0.00000000000E+00 0.  1.
<scales pt_clust_3="118.85924" pt_clust_4="14000.00000" pt_clust_5="65.33240" pt_clust_6="68.64566"></scales>
<clustering>
<clus scale="   65.332">  1  5  2 -1</clus>
<clus scale="   68.646">  2  6  1 -1</clus>
<clus scale="  118.859">  2  3  1 -1</clus>
<clus scale="   65.332">  1  3  2 -1</clus>
</clustering>
</event>
<event>
 6    0  0.1004624E+003  0.8388650E+02  0.7546771E-02  0.1318370E+00
         21   -1    0    0  505  502  0.00000000000E+00  0.00000000000E+00  0.33065974929E+03  0.33065974929E+03  0.00000000000E+00 0. -1.
          2   -1    0    0  503    0 -0.00000000000E+00 -0.00000000000E+00 -0.71638250275E+03  0.71638250275E+03  0.00000000000E+00 0.  1.
         21    1    1    2  503  502  0.67943564876E+02 -0.99538989884E+02  0.24871001964E+03  0.27637114970E+03  0.00000000000E+00 0. -1.
         21    1    1    2  504  501 -0.48307445977E+02  0.94895736442E+01 -0.39668165426E+01  0.49390251855E+02  0.00000000000E+00 0. -1.
         21    1    1    2  505  504  0.23747278870E+02  0.18674736361E+02  0.37476124823E+02  0.48136669636E+02  0.00000000000E+00 0.  1.
          2    1    1    2  501    0 -0.43383397768E+02  0.71374679879E+02 -0.66794208138E+03  0.67314418085E+03  0.00000000000E+00 0.  1.
<scales pt_clust_3="14000.00000" pt_clust_4="47.71041" pt_clust_5="30.21058" pt_clust_6="83.88650"></scales>
<clustering>
<clus scale="   30.211">  1  5  2 -1</clus>
<clus scale="   47.710">  1  4  2 -1</clus>
<clus scale="   83.886">  2  6  1 -1</clus>
<clus scale="   30.211">  1  3  2 -1</clus>
</clustering>
</event>
<event>
 6    0  0.7258365E+002  0.8666978E+02  0.7546771E-02  0.1311123E+00
         21   -1    0    0  504  502  0.00000000000E+00  0.00000000000E+00  0.15981781354E+03  0.15981781354E+03  0.00000000000E+00 0. -1.
         -2   -1    0    0    0  501 -0.00000000000E+00 -0.00000000000E+00 -0.54753201777E+03  0.54753201777E+03  0.00000000000E+00 0. -1.
         21    1    1    2  503  501  0.68278976687E+02  0.81004421092E+02 -0.11754009014E+03  0.15823845197E+03  0.00000000000E+00 0. -1.
         21    1    1    2  504  503 -0.26839001561E+02 -0.31262699724E+02  0.60097124688E+01  0.41638984651E+02  0.00000000000E+00 0. -1.
         21    1    1    2  505  502 -0.26508345636E+02  0.33756117084E+02  0.10685574160E+03  0.11515345128E+03  0.00000000000E+00 0. -1.
         -2    1    1    2    0  505 -0.14931629490E+02 -0.83497838452E+02 -0.38303956816E+03  0.39231894341E+03  0.00000000000E+00 0. -1.
<scales pt_clust_3="14000.00000" pt_clust_4="41.20301" pt_clust_5="49.11151" pt_clust_6="86.66978"></scales>
<clustering>
<clus scale="   41.203">  1  4  2 -1</clus>
<clus scale="   49.112">  1  5  2 -1</clus>
<clus scale="   86.670">  2  6  1 -1</clus>
<clus scale="   41.203">  1  3  2 -1</clus>
</clustering>
</event>
<event>
 6    0  0.7258365E+002  0.6988374E+02  0.7546771E-02  0.1360489E+00
         -2   -1    0    0    0  501 -0.00000000000E+00  0.00000000000E+00  0.80419702284E+03  0.80419702284E+03  0.00000000000E+00 0. -1.
         21   -1    0    0  503  502  0.00000000000E+00 -0.00000000000E+00 -0.38061434861E+03  0.38061434861E+03  0.00000000000E+00 0. -1.
         21    1    1    2  503  505  0.52155060582E+02 -0.25374537680E+02 -0.27996030916E+03  0.28590521543E+03  0.00000000000E+00 0. -1.
         21    1    1    2  504  502 -0.58847488491E+02  0.87396858519E+02 -0.23755614450E+02  0.10800725438E+03  0.00000000000E+00 0.  1.
         21    1    1    2  505  501 -0.24725981798E+02 -0.59112219302E+02  0.11707921208E+01  0.64085875206E+02  0.00000000000E+00 0.  1.
         -2    1    1    2    0  504  0.31418409707E+02 -0.29101015366E+01  0.72612780572E+03  0.72681302644E+03  0.00000000000E+00 0. -1.
<scales pt_clust_3="59.13080" pt_clust_4="69.88374" pt_clust_5="14000.00000" pt_clust_6="31.55289"></scales>
<clustering>
<clus scale="   31.553">  1  6  2 -1</clus>
<clus scale="   59.131">  2  3  1 -1</clus>
<clus scale="   69.884">  2  4  1 -1</clus>
<clus scale="   59.131">  2  3  1 -1</clus>
</clustering>
</event>
<event>
 6    0  0.7258365E+002  0.8568639E+02  0.7546771E-02  0.1313647E+00
         21   -1    0    0  503  502  0.00000000000E+00  0.00000000000E+00  0.58008053859E+02  0.58008053859E+02  0.00000000000E+00 0.  1.
          1   -1    0    0  504    0 -0.00000000000E+00 -0.00000000000E+00 -0.29896694291E+04  0.29896694291E+04  0.00000000000E+00 0. -1.
         21    1    1    2  503  505 -0.90202025298E+01 -0.63198140352E+02 -0.20700742605E+02  0.67111025488E+02  0.00000000000E+00 0.  1.
         21    1    1    2  504  502 -0.64130338148E+02 -0.30092093795E+01 -0.18228635701E+03  0.19326166605E+03  0.00000000000E+00 0.  1.
         21    1    1    2  505  501  0.94998261628E+02 -0.17752188136E+02 -0.52994654422E+02  0.11021906955E+03  0.00000000000E+00 0.  1.
          1    1    1    2  501    0 -0.21847720950E+02  0.83959537867E+02 -0.26756796212E+04  0.26770857219E+04  0.00000000000E+00 0. -1.
<scales pt_clust_3="63.83862" pt_clust_4="66.82422" pt_clust_5="14000.00000" pt_clust_6="85.68639"></scales>
<clustering>
<clus scale="   63.839">  1  3  2 -1</clus>
<clus scale="   66.824">  1  4  2 -1</clus>
<clus scale="   85.686">  2  6  1 -1</clus>
<clus scale="   63.839">  1  3  2 -1</clus>
</clustering>
</event>
<event>
 6    0  0.7258365E+002  0.8302302E+02  0.7546771E-02  0.1320685E+00
          2   -1    0    0  504    0 -0.00000000000E+00  0.00000000000E+00  0.38103916618E+03  0.38103916618E+03  0.00000000000E+00 0.  1.
         21   -1    0    0  503  502  0.00000000000E+00 -0.00000000000E+00 -0.96814717037E+02  0.96814717037E+02  0.00000000000E+00 0.  1.
         21    1    1    2  503  505  0.52838773206E+02  0.33713863785E+02 -0.26032018616E+02  0.67869187106E+02  0.00000000000E+00 0.  1.
         21    1    1    2  504  502 -0.57140709860E+02 -0.68393637525E+02  0.13928059469E+03  0.16535366471E+03  0.00000000000E+00 0.  1.
         21    1    1    2  505  501 -0.38087232275E+02  0.79773006391E+02  0.34709837433E+02  0.94969166710E+02  0.00000000000E+00 0.  1.
          2    1    1    2  501    0  0.42389168928E+02 -0.45093232651E+02  0.13626603563E+03  0.14966186468E+03  0.00000000000E+00 0.  1.
<scales pt_clust_3="63.91067" pt_clust_4="14000.00000" pt_clust_5="83.02302" pt_clust_6="61.88894"></scales>
<clustering>
<clus scale="   61.889">  1  6  2 -1</clus>
<clus scale="   63.911">  2  3  1 -1</clus>
<clus scale="   83.023">  2  5  1 -1</clus>
<clus scale="   63.911">  2  3  1 -1</clus>
</clustering>
</event>
<event>
 6    0  0.7258365E+002  0.9558203E+02  0.7546771E-02  0.1289871E+00
          2   -1    0    0  503    0 -0.00000000000E+00  0.00000000000E+00  0.64322558381E+03  0.64322558381E+03  0.00000000000E+00 0.  1.
         21   -1    0    0  501  502  0.00000000000E+00 -0.00000000000E+00 -0.20530804858E+03  0.20530804858E+03  0.00000000000E+00 0.  1.
         21    1    1    2  503  505 -0.57625972071E+02  0.44154533038E+02  0.48601757228E+03  0.49140966211E+03  0.00000000000E+00 0.  1.
         21    1    1    2  504  502 -0.56560724035E+02 -0.20185621438E+02 -0.65793003135E+02  0.89080267611E+02  0.00000000000E+00 0.  1.
         21    1    1    2  505  504  0.10700908732E+03 -0.62577154160E+02 -0.90147589590E+02  0.15327567616E+03  0.00000000000E+00 0.  1.
          2    1    1    2  501    0  0.71776087815E+01  0.38608242560E+02  0.10784055568E+03  0.11476802651E+03  0.00000000000E+00 0.  1.
<scales pt_clust_3="95.58203" pt_clust_4="59.62736" pt_clust_5="14000.00000" pt_clust_6="39.26977"></scales>
<clustering>
<clus scale="   39.270">  1  6  2 -1</clus>
<clus scale="   59.627">  2  4  1 -1</clus>
<clus scale="   95.582">  1  3  2 -1</clus>
<clus scale="   59.627">  2  3  1 -1</clus>
</clustering>
</event>
<event>
 6    0  0.7258365E+002  0.1970238E+03  0.7546771E-02  0.1152275E+00
          1   -1    0    0  504    0 -0.00000000000E+00  0.00000000000E+00  0.12851159256E+04  0.12851159256E+04  0.00000000000E+00 0. -1.
         21   -1    0    0  505  502  0.00000000000E+00 -0.00000000000E+00 -0.85532051799E+02  0.85532051799E+02  0.00000000000E+00 0.  1.
         21    1    1    2  503  502 -0.95247358230E+02  0.18120146152E+03  0.14330565014E+03  0.24988505011E+03  0.00000000000E+00 0.  1.
         21    1    1    2  504  503 -0.30197146694E+02  0.27485385057E+02  0.15965730191E+03  0.16479614108E+03  0.00000000000E+00 0. -1.
         21    1    1    2  505  501  0.41915191481E+02 -0.18332114291E+03  0.30772513483E+03  0.36063594291E+03  0.00000000000E+00 0. -1.
          1    1    1    2  501    0  0.83529313442E+02 -0.25365703672E+02  0.58889578692E+03  0.59533084330E+03  0.00000000000E+00 0. -1.
<scales pt_clust_3="197.02382" pt_clust_4="40.83276" pt_clust_5="14000.00000" pt_clust_6="68.47464"></scales>
<clustering>
<clus scale="   40.833">  1  4  2 -1</clus>
<clus scale="   68.475">  1  6  2 -1</clus>
<clus scale="  197.024">  2  3  1 -1</clus>
<clus scale="  197.024">  2  3  1 -1</clus>
</clustering>
</event>
<event>
 6    0  0.7258365E+002  0.7955704E+02  0.7546771E-02  0.1330313E+00
         21   -1    0    0  504  502  0.00000000000E+00  0.00000000000E+00  0.16624136742E+03  0.16624136742E+03  0.00000000000E+00 0.  1.
          1   -1    0    0  505    0 -0.00000000000E+00 -0.00000000000E+00 -0.59854292055E+03  0.59854292055E+03  0.00000000000E+00 0. -1.
         21    1    1    2  503  501  0.23326139167E+02 -0.48012020282E+02 -0.21514020292E+03  0.22166318994E+03  0.00000000000E+00 0. -1.
         21    1    1    2  504  503  0.33742728588E+02  0.32674767101E+01 -0.19740454523E+02  0.39229245231E+02  0.00000000000E+00 0.  1.
         21    1    1    2  505  502 -0.10858204033E+03  0.37194306505E+02  0.12938978349E+03  0.17296008785E+03  0.00000000000E+00 0.  1.
          1    1    1    2  501    0  0.51513172576E+02  0.75502370665E+01 -0.32681067918E+03  0.33093176495E+03  0.00000000000E+00 0. -1.
<scales pt_clust_3="79.55704" pt_clust_4="33.90056" pt_clust_5="14000.00000" pt_clust_6="52.50937"></scales>
<clustering>
<clus scale="   33.901">  1  4  2 -1</clus>
<clus scale="   52.509">  2  6  1 -1</clus>
<clus scale="   79.557">  2  3  1 -1</clus>
<clus scale="   33.901">  1  3  2 -1</clus>
</clustering>
</event>
<event>
 6    0  0.7258365E+002  0.1463290E+03  0.7546771E-02  0.1205058E+00
         21   -1    0    0  504  502  0.00000000000E+00  0.00000000000E+00  0.37944707325E+03  0.37944707325E+03  0.00000000000E+00 0.  1.
          1   -1    0    0  505    0 -0.00000000000E+00 -0.00000000000E+00 -0.83655698872E+03  0.83655698872E+03  0.00000000000E+00 0.  1.
         21    1    1    2  503  502  0.85548688375E+02  0.10009280784E+03  0.19334764165E+03  0.23392404493E+03  0.00000000000E+00 0.  1.
         21    1    1    2  504  501  0.42763192817E+02  0.72370035302E+02 -0.11789167260E+03  0.14479143324E+03  0.00000000000E+00 0.  1.
         21    1    1    2  505  503 -0.58593788284E+02 -0.21016914946E+03  0.70303539149E+02  0.22923108652E+03  0.00000000000E+00 0.  1.
          1    1    1    2  501    0 -0.69718092908E+02  0.37706306324E+02 -0.60286942366E+03  0.60805749728E+03  0.00000000000E+00 0.  1.
<scales pt_clust_3="146.32905" pt_clust_4="93.85285" pt_clust_5="14000.00000" pt_clust_6="79.26145"></scales>
<clustering>
<clus scale="   79.261">  2  6  1 -1</clus>
<clus scale="   93.853">  2  4  1 -1</clus>
<clus scale="  146.329">  1  3  2 -1</clus>
<clus scale="  146.329">  1  3  2 -1</clus>
</clustering>
</event>
<event>
 6    0  0.7258365E+002  0.2104183E+03  0.7546771E-02  0.1141235E+00
         21   -1    0    0  504  502  0.00000000000E+00  0.00000000000E+00  0.87865939133E+03  0.87865939133E+03  0.00000000000E+00 0.  1.
          2   -1    0    0  505    0 -0.00000000000E+00 -0.00000000000E+00 -0.80329292958E+03  0.80329292958E+03  0.00000000000E+00 0. -1.
         21    1    1    2  503  501 -0.23379035263E+03  0.11217193903E+03  0.16343143406E+03  0.30651314250E+03  0.00000000000E+00 0. -1.
         21    1    1    2  504  503  0.10763140443E+03  0.17836726396E+02  0.52510962631E+03  0.53632339840E+03  0.00000000000E+00 0.  1.
         21    1    1    2  505  502  0.15722112773E+03 -0.12556784369E+03  0.22682250338E+02  0.20248518675E+03  0.00000000000E+00 0.  1.
          2    1    1    2  501    0 -0.31062179523E+02 -0.44408217326E+01 -0.63585684896E+03  0.63663059325E+03  0.00000000000E+00 0. -1.
<scales pt_clust_3="14000.00000" pt_clust_4="108.04643" pt_clust_5="210.41833" pt_clust_6="31.37802"></scales>
<clustering>
<clus scale="   31.378">  2  6  1 -1</clus>
<clus scale="  108.046">  1  4  2 -1</clus>
<clus scale="  210.418">  2  5  1 -1</clus>
<clus scale="  108.046">  1  3  2 -1</clus>
</clustering>
</event>
<event>
 6    0  0.7258365E+002  0.1342056E+03  0.7546771E-02  0.1221345E+00
          1   -1    0    0  504    0 -0.00000000000E+00  0.00000000000E+00  0.25492979913E+03  0.25492979913E+03  0.00000000000E+00 0. -1.
         21   -1    0    0  505  502  0.00000000000E+00 -0.00000000000E+00 -0.13592450388E+03  0.13592450388E+03  0.00000000000E+00 0.  1.
         21    1    1    2  503  501 -0.22878593542E+02  0.62008262878E+02 -0.34023955722E+01  0.66181802659E+02  0.00000000000E+00 0. -1.
         21    1    1    2  504  502  0.19644463996E+02 -0.10376617110E+03  0.10426796009E+03  0.14840866124E+03  0.00000000000E+00 0. -1.
         21    1    1    2  505  503 -0.49157840362E+02  0.47983450848E+02 -0.53656645050E+02  0.87166165353E+02  0.00000000000E+00 0.  1.
          1    1    1    2  501    0  0.52391969908E+02 -0.62255426270E+01  0.71796375786E+02  0.89097673751E+02  0.00000000000E+00 0. -1.
<scales pt_clust_3="53.50300" pt_clust_4="122.63241" pt_clust_5="53.50300" pt_clust_6="52.76055"></scales>
<clustering>
<clus scale="   52.761">  1  6  2 -1</clus>
<clus scale="   53.503">  3  5 -1 -1</clus>
<clus scale="  122.632">  1  4  2 -1</clus>
<clus scale="  134.206">  2  3  1 -1</clus>
</clustering>
</event>
<event>
 6    0  0.1593622E+003  0.1142004E+03  0.7546771E-02  0.1252983E+00
          2   -1    0    0  503    0 -0.00000000000E+00  0.00000000000E+00  0.71850167866E+03  0.71850167866E+03  0.00000000000E+00 0. -1.
         21   -1    0    0  505  502  0.00000000000E+00 -0.00000000000E+00 -0.82745897998E+03  0.82745897998E+03  0.00000000000E+00 0.  1.
         21    1    1    2  503  504 -0.30549816498E+02 -0.25044474378E+02 -0.67729657430E+00  0.39509185205E+02  0.00000000000E+00 0. -1.
         21    1    1    2  504  502  0.12625158706E+03  0.54737587965E+02 -0.71959870489E+02  0.15528647633E+03  0.00000000000E+00 0. -1.
         21    1    1    2  505  501 -0.11083122122E+03  0.28684529873E+02 -0.68761697528E+03  0.69708210889E+03  0.00000000000E+00 0.  1.
          2    1    1    2  501    0  0.15129450665E+02 -0.58377643461E+02  0.65129684102E+03  0.65408288821E+03  0.00000000000E+00 0. -1.
<scales pt_clust_3="39.50338" pt_clust_4="14000.00000" pt_clust_5="114.20040" pt_clust_6="82.84967"></scales>
<clustering>
<clus scale="   39.503">  1  3  2 -1</clus>
<clus scale="   82.850">  1  6  2 -1</clus>
<clus scale="  114.200">  2  5  1 -1</clus>
<clus scale="  114.200">  2  3  1 -1</clus>
</clustering>
</event>
<event>
 6    0  0.7258365E+002  0.1640092E+03  0.7546771E-02  0.1184243E+00
         21   -1    0    0  505  502  0.00000000000E+00  0.00000000000E+00  0.70389738495E+03  0.70389738495E+03  0.00000000000E+00 0. -1.
         -1   -1    0    0    0  501 -0.00000000000E+00 -0.00000000000E+00 -0.20686937226E+04  0.20686937226E+04  0.00000000000E+00 0.  1.
         21    1    1    2  503  502 -0.17596974889E+03  0.47379135143E+01 -0.26893264615E+03  0.32142272557E+03  0.00000000000E+00 0.  1.
         21    1    1    2  504  501 -0.22757830874E+02 -0.68945501917E+02 -0.26434035209E+01  0.72652520141E+02  0.00000000000E+00 0.  1.
         21    1    1    2  505  504  0.14456721354E+03  0.78259904902E+02  0.63167384050E+03  0.65271443428E+03  0.00000000000E+00 0. -1.
         -1    1    1    2    0  503  0.54160366228E+02 -0.14052316500E+02 -0.17248941285E+04  0.17258014276E+04  0.00000000000E+00 0.  1.
<scales pt_clust_3="14000.00000" pt_clust_4="72.46522" pt_clust_5="164.00920" pt_clust_6="55.95367"></scales>
<clustering>
<clus scale="   55.954">  2  6  1 -1</clus>
<clus scale="   72.465">  2  4  1 -1</clus>
<clus scale="  164.009">  1  5  2 -1</clus>
<clus scale="  164.009">  1  3  2 -1</clus>
</clustering>
</event>
<event>
 6    0  0.7258365E+002  0.1181694E+03  0.7546771E-02  0.1246148E+00
          1   -1    0    0  504    0 -0.00000000000E+00  0.00000000000E+00  0.32295173953E+03  0.32295173953E+03  0.00000000000E+00 0.  1.
         21   -1    0    0  503  502  0.00000000000E+00 -0.00000000000E+00 -0.14200212921E+04  0.14200212921E+04  0.00000000000E+00 0. -1.
         21    1    1    2  503  501  0.79942319374E+01 -0.12521709407E+03 -0.13034265060E+04  0.13094517497E+04  0.00000000000E+00 0. -1.
         21    1    1    2  504  505 -0.58052047980E+02  0.91001108192E+01  0.18768861422E+02  0.61685674599E+02  0.00000000000E+00 0. -1.
         21    1    1    2  505  502 -0.52818112775E+02  0.16432409281E+02 -0.62601250691E+02  0.83538576119E+02  0.00000000000E+00 0.  1.
          1    1    1    2  501    0  0.10287592882E+03  0.99684573972E+02  0.25018934266E+03  0.28829703120E+03  0.00000000000E+00 0.  1.
<scales pt_clust_3="118.16937" pt_clust_4="59.63295" pt_clust_5="55.31525" pt_clust_6="14000.00000"></scales>
<clustering>
<clus scale="   55.315">  2  5  1 -1</clus>
<clus scale="   59.633">  1  4  2 -1</clus>
<clus scale="  118.169">  2  3  1 -1</clus>
<clus scale="   55.315">  2  3  1 -1</clus>
</clustering>
</event>
<event>
 6    0  0.7258365E+002  0.1152083E+03  0.7546771E-02  0.1251218E+00
          2   -1    0    0  504    0 -0.00000000000E+00  0.00000000000E+00  0.35182823027E+03  0.35182823027E+03  0.00000000000E+00 0. -1.
         21   -1    0    0  505  502  0.00000000000E+00 -0.00000000000E+00 -0.11708816516E+03  0.11708816516E+03  0.00000000000E+00 0.  1.
         21    1    1    2  503  501  0.54755743348E+02  0.32612355994E+02  0.11271524175E+03  0.12948545446E+03  0.00000000000E+00 0. -1.
         21    1    1    2  504  502 -0.40384099841E+02 -0.10010429483E+03 -0.35035074172E+02  0.11348657095E+03  0.00000000000E+00 0.  1.
         21    1    1    2  505  503 -0.37589104255E+02  0.27853058393E+02 -0.13991879298E+02  0.48831406972E+02  0.00000000000E+00 0.  1.
          2    1    1    2  501    0  0.23217460748E+02  0.39638880443E+02  0.17105177682E+03  0.17711296305E+03  0.00000000000E+00 0. -1.
<scales pt_clust_3="39.62931" pt_clust_4="105.32876" pt_clust_5="46.78390" pt_clust_6="39.62931"></scales>
<clustering>
<clus scale="   39.629">  3  6 -1 -1</clus>
<clus scale="   46.784">  2  5  1 -1</clus>
<clus scale="  105.329">  2  4  1 -1</clus>
<clus scale="   46.784">  2  3  1 -1</clus>
</clustering>
</event>
<event>
 6    0  0.7258365E+002  0.1373043E+03  0.7546771E-02  0.1217003E+00
         21   -1    0    0  505  502  0.00000000000E+00  0.00000000000E+00  0.17654194240E+03  0.17654194240E+03  0.00000000000E+00 0. -1.
          2   -1    0    0  503    0 -0.00000000000E+00 -0.00000000000E+00 -0.33475181901E+04  0.33475181901E+04  0.00000000000E+00 0.  1.
         21    1    1    2  503  502  0.13908575091E+03 -0.83956043428E+02 -0.33227040889E+03  0.36986090352E+03  0.00000000000E+00 0. -1.
         21    1    1    2  504  501  0.20279478369E+02  0.43727689532E+02 -0.95884651058E+02  0.10731837859E+03  0.00000000000E+00 0. -1.
         21    1    1    2  505  504 -0.11981926859E+03  0.62570347964E+02  0.12176792129E+03  0.18193166911E+03  0.00000000000E+00 0. -1.
          2    1    1    2  501    0 -0.39545960690E+02 -0.22341994068E+02 -0.28645891091E+04  0.28649491813E+04  0.00000000000E+00 0.  1.
<scales pt_clust_3="14000.00000" pt_clust_4="40.81600" pt_clust_5="137.30433" pt_clust_6="45.42078"></scales>
<clustering>
<clus scale="   45.421">  2  6  1 -1</clus>
<clus scale="   40.816">  2  4  1 -1</clus>
<clus scale="  137.304">  1  5  2 -1</clus>
<clus scale="  137.304">  1  3  2 -1</clus>
</clustering>
</event>
<event>
 6    0  0.7258365E+002  0.1164888E+03  0.7546771E-02  0.1249004E+00
         -2   -1    0    0    0  501 -0.00000000000E+00  0.00000000000E+00  0.19761457592E+04  0.19761457592E+04  0.00000000000E+00 0. -1.
         21   -1    0    0  503  502  0.00000000000E+00 -0.00000000000E+00 -0.31602776812E+03  0.31602776812E+03  0.00000000000E+00 0. -1.
         21    1    1    2  503  505 -0.30148684335E+02 -0.25614597270E+01 -0.14336502441E+02  0.33481928638E+02  0.00000000000E+00 0.  1.
         21    1    1    2  504  502  0.12365103593E+03  0.27473620361E+02 -0.24101690474E+03  0.27227472683E+03  0.00000000000E+00 0. -1.
         21    1    1    2  505  501 -0.98832403819E+02 -0.13960534966E+03  0.18430632104E+03  0.25144843939E+03  0.00000000000E+00 0. -1.
         -2    1    1    2    0  504  0.53300522270E+01  0.11469318902E+03  0.17311650772E+04  0.17349684325E+04  0.00000000000E+00 0. -1.
<scales pt_clust_3="30.25730" pt_clust_4="100.38393" pt_clust_5="116.48877" pt_clust_6="14000.00000"></scales>
<clustering>
<clus scale="   30.257">  2  3  1 -1</clus>
<clus scale="  100.384">  2  4  1 -1</clus>
<clus scale="  116.489">  2  5  1 -1</clus>
<clus scale="   30.257">  2  3  1 -1</clus>
</clustering>
</event>
<event>
 6    0  0.7258365E+002  0.9422339E+02  0.7546771E-02  0.1292935E+00
          3   -1    0    0  502    0 -0.00000000000E+00  0.00000000000E+00  0.45698211147E+02  0.45698211147E+02  0.00000000000E+00 0.  1.
         21   -1    0    0  503  502  0.00000000000E+00 -0.00000000000E+00 -0.15024249724E+04  0.15024249724E+04  0.00000000000E+00 0.  1.
         21    1    1    2  503  504 -0.45963454047E+01  0.57580859341E+02 -0.87666809047E+03  0.87856907674E+03  0.00000000000E+00 0.  1.
         21    1    1    2  504  505 -0.15692480647E+02 -0.45599316671E+02 -0.27342989796E+03  0.27764988876E+03  0.00000000000E+00 0.  1.
         21    1    1    2  505  501  0.37607251043E+02 -0.80621533310E+02 -0.30851795497E+03  0.32108794045E+03  0.00000000000E+00 0.  1.
          3    1    1    2  501    0 -0.17318424991E+02  0.68639990640E+02  0.18891821765E+01  0.70816277568E+02  0.00000000000E+00 0.  1.
<scales pt_clust_3="57.76402" pt_clust_4="43.00486" pt_clust_5="43.00486" pt_clust_6="73.93458"></scales>
<clustering>
<clus scale="   43.005">  4  5 -1 -1</clus>
<clus scale="   57.764">  2  3  1 -1</clus>
<clus scale="   73.935">  1  6  2 -1</clus>
<clus scale="   57.764">  2  3  1 -1</clus>
</clustering>
</event>
<event>
 6    0  0.7258365E+002  0.8797412E+02  0.7546771E-02  0.1307833E+00
         21   -1    0    0  503  502  0.00000000000E+00  0.00000000000E+00  0.26400535812E+02  0.26400535812E+02  0.00000000000E+00 0.  1.
          2   -1    0    0  505    0 -0.00000000000E+00 -0.00000000000E+00 -0.15327006299E+04  0.15327006299E+04  0.00000000000E+00 0. -1.
         21    1    1    2  503  501 -0.31569412400E+02 -0.57408838972E+01 -0.35138533980E+02  0.47584683643E+02  0.00000000000E+00 0.  1.
         21    1    1    2  504  502  0.49133368165E+02  0.43756833296E+02 -0.63393276131E+02  0.91364412032E+02  0.00000000000E+00 0.  1.
         21    1    1    2  505  504  0.62478636226E+02  0.24215943901E+02 -0.28305720461E+03  0.29088034139E+03  0.00000000000E+00 0. -1.
          2    1    1    2  501    0 -0.80042591991E+02 -0.62231893299E+02 -0.11247110794E+04  0.11292717287E+04  0.00000000000E+00 0. -1.
<scales pt_clust_3="32.08716" pt_clust_4="48.21741" pt_clust_5="14000.00000" pt_clust_6="87.97412"></scales>
<clustering>
<clus scale="   32.087">  1  3  2 -1</clus>
<clus scale="   48.217">  1  4  2 -1</clus>
<clus scale="   87.974">  2  6  1 -1</clus>
<clus scale="   32.087">  1  3  2 -1</clus>
</clustering>
</event>
<event>
 6    0  0.7258365E+002  0.1874336E+03  0.7546771E-02  0.1160797E+00
         21   -1    0    0  504  502  0.00000000000E+00  0.00000000000E+00  0.58405406647E+03  0.58405406647E+03  0.00000000000E+00 0. -1.
          2   -1    0    0  503    0 -0.00000000000E+00 -0.00000000000E+00 -0.35051464543E+04  0.35051464543E+04  0.00000000000E+00 0.  1.
         21    1    1    2  503  502  0.39509332382E+02  0.14154176128E+02  0.12278490662E+03  0.12975924376E+03  0.00000000000E+00 0. -1.
         21    1    1    2  504  505  0.74685176474E+02 -0.87211082634E+02  0.44623767888E+02  0.12318656250E+03  0.00000000000E+00 0.  1.
         21    1    1    2  505  501 -0.30053467321E+03  0.83341038178E+02  0.30582524017E+03  0.43680189557E+03  0.00000000000E+00 0. -1.
          2    1    1    2  501    0  0.18634016435E+03 -0.10284131672E+02 -0.33943263025E+04  0.33994528189E+04  0.00000000000E+00 0.  1.
<scales pt_clust_3="41.96818" pt_clust_4="117.77941" pt_clust_5="187.43361" pt_clust_6="14000.00000"></scales>
<clustering>
<clus scale="   41.968">  1  3  2 -1</clus>
<clus scale="  117.779">  1  4  2 -1</clus>
<clus scale="  187.434">  1  5  2 -1</clus>
<clus scale="   41.968">  1  3  2 -1</clus>
</clustering>
</event>
<event>
 6    0  0.7258365E+002  0.1207695E+03  0.7546771E-02  0.1241833E+00
         21   -1    0    0  504  502  0.00000000000E+00  0.00000000000E+00  0.17404726806E+04  0.17404726806E+04  0.00000000000E+00 0.  1.
          1   -1    0    0  505    0 -0.00000000000E+00 -0.00000000000E+00 -0.44498042512E+03  0.44498042512E+03  0.00000000000E+00 0.  1.
         21    1    1    2  503  502  0.50079617084E+02  0.51102531361E+02  0.17742258423E+03  0.19130658680E+03  0.00000000000E+00 0. -1.
         21    1    1    2  504  501  0.48876622191E+02 -0.25405203921E+02  0.14761193040E+04  0.14771467592E+04  0.00000000000E+00 0.  1.
         21    1    1    2  505  503 -0.10114262527E+03  0.97476433592E+02 -0.22613580619E+01  0.14048700827E+03  0.00000000000E+00 0. -1.
          1    1    1    2  501    0  0.21863859978E+01 -0.12317376103E+03 -0.35578827462E+03  0.37651275151E+03  0.00000000000E+00 0.  1.
<scales pt_clust_3="90.59518" pt_clust_4="55.08492" pt_clust_5="14000.00000" pt_clust_6="120.76953"></scales>
<clustering>
<clus scale="   55.085">  1  4  2 -1</clus>
<clus scale="   90.595">  1  3  2 -1</clus>
<clus scale="  120.770">  2  6  1 -1</clus>
<clus scale="   55.085">  1  3  2 -1</clus>
</clustering>
</event>
<event>
 6    0  0.7258365E+002  0.1239669E+03  0.7546771E-02  0.1236693E+00
          1   -1    0    0  504    0 -0.00000000000E+00  0.00000000000E+00  0.25420903835E+03  0.25420903835E+03  0.00000000000E+00 0.  1.
         21   -1    0    0  505  502  0.00000000000E+00 -0.00000000000E+00 -0.55695990371E+03  0.55695990371E+03  0.00000000000E+00 0.  1.
         21    1    1    2  503  502  0.87113402673E+02  0.81599073275E+01 -0.61152292771E+02  0.10674704644E+03  0.00000000000E+00 0.  1.
         21    1    1    2  504  503  0.32506388222E+02 -0.48083474889E+02  0.11842713301E+02  0.59236270063E+02  0.00000000000E+00 0. -1.
         21    1    1    2  505  501 -0.60889659823E+02  0.12138688017E+03 -0.42512388606E+03  0.44628762457E+03  0.00000000000E+00 0.  1.
          1    1    1    2  501    0 -0.58730131072E+02 -0.81463312607E+02  0.17168260017E+03  0.19889800099E+03  0.00000000000E+00 0.  1.
<scales pt_clust_3="90.55705" pt_clust_4="58.04038" pt_clust_5="123.96694" pt_clust_6="14000.00000"></scales>
<clustering>
<clus scale="   58.040">  1  4  2 -1</clus>
<clus scale="   90.557">  2  3  1 -1</clus>
<clus scale="  123.967">  2  5  1 -1</clus>
<clus scale="   90.557">  2  3  1 -1</clus>
</clustering>
</event>
<event>
 6    0  0.7258365E+002  0.1222353E+03  0.7546771E-02  0.1239454E+00
         21   -1    0    0  505  502  0.00000000000E+00  0.00000000000E+00  0.88664277253E+02  0.88664277253E+02  0.00000000000E+00 0.  1.
          2   -1    0    0  503    0 -0.00000000000E+00 -0.00000000000E+00 -0.29945171269E+04  0.29945171269E+04  0.00000000000E+00 0. -1.
         21    1    1    2  503  504  0.66748263947E+02  0.37922736424E+02 -0.16502005713E+03  0.18200297781E+03  0.00000000000E+00 0.  1.
         21    1    1    2  504  502  0.66184901728E+02  0.89028606869E+01  0.28973502431E+02  0.72795370652E+02  0.00000000000E+00 0.  1.
         21    1    1    2  505  501 -0.13874743457E+01 -0.74543100684E+02 -0.22623454022E+02  0.77912897627E+02  0.00000000000E+00 0.  1.
          2    1    1    2  501    0 -0.13154569133E+03  0.27717503574E+02 -0.27471828410E+04  0.27504701581E+04  0.00000000000E+00 0. -1.
<scales pt_clust_3="122.23529" pt_clust_4="66.78100" pt_clust_5="82.70945" pt_clust_6="14000.00000"></scales>
<clustering>
<clus scale="   66.781">  1  4  2 -1</clus>
<clus scale="   82.709">  1  5  2 -1</clus>
<clus scale="  122.235">  1  3  2 -1</clus>
<clus scale="   66.781">  1  3  2 -1</clus>
</clustering>
</event>
<event>
 6    0  0.7258365E+002  0.1092216E+03  0.7546771E-02  0.1262018E+00
         21   -1    0    0  503  502  0.00000000000E+00  0.00000000000E+00  0.21233910205E+03  0.21233910205E+03  0.00000000000E+00 0. -1.
          1   -1    0    0  504    0 -0.00000000000E+00 -0.00000000000E+00 -0.27397527038E+03  0.27397527038E+03  0.00000000000E+00 0. -1.
         21    1    1    2  503  505 -0.64681629211E+02 -0.75402910791E+02  0.11440399133E+03  0.15151760738E+03  0.00000000000E+00 0. -1.
         21    1    1    2  504  502  0.10143699078E+03  0.13476955201E+03 -0.47236194108E+02  0.17516721521E+03  0.00000000000E+00 0. -1.
         21    1    1    2  505  501 -0.15976508128E+01 -0.59078866904E+02 -0.82804199268E+02  0.10173200293E+03  0.00000000000E+00 0.  1.
          1    1    1    2  501    0 -0.35157710760E+02 -0.28777431841E+00 -0.45999766293E+02  0.57897546917E+02  0.00000000000E+00 0. -1.
<scales pt_clust_3="14000.00000" pt_clust_4="109.22159" pt_clust_5="61.37723" pt_clust_6="35.15889"></scales>
<clustering>
<clus scale="   35.159">  2  6  1 -1</clus>
<clus scale="   61.377">  2  5  1 -1</clus>
<clus scale="  109.222">  2  4  1 -1</clus>
<clus scale="  109.222">  1  3  2 -1</clus>
</clustering>
</event>
<event>
 6    0  0.7258365E+002  0.6198798E+02  0.7546771E-02  0.1389674E+00
         21   -1    0    0  505  502  0.00000000000E+00  0.00000000000E+00  0.84587286712E+03  0.84587286712E+03  0.00000000000E+00 0.  1.
         -1   -1    0    0    0  501 -0.00000000000E+00 -0.00000000000E+00 -0.25779055967E+02  0.25779055967E+02  0.00000000000E+00 0.  1.
         21    1    1    2  503  504  0.57242981456E+02  0.53186958510E+01  0.11781943802E+03  0.13109716788E+03  0.00000000000E+00 0. -1.
         21    1    1    2  504  501 -0.20018718644E+02  0.88564283875E+02  0.33242159449E+03  0.34459903941E+03  0.00000000000E+00 0.  1.
         21    1    1    2  505  503 -0.24376460215E+02 -0.38036455857E+02  0.30931471831E+03  0.31259651110E+03  0.00000000000E+00 0.  1.
         -1    1    1    2    0  502 -0.12847802598E+02 -0.55846523869E+02  0.60538060333E+02  0.83359204703E+02  0.00000000000E+00 0.  1.
<scales pt_clust_3="51.69210" pt_clust_4="61.98798" pt_clust_5="45.17725" pt_clust_6="14000.00000"></scales>
<clustering>
<clus scale="   45.177">  1  5  2 -1</clus>
<clus scale="   51.692">  1  3  2 -1</clus>
<clus scale="   61.988">  1  4  2 -1</clus>
<clus scale="   45.177">  1  3  2 -1</clus>
</clustering>
</event>
<event>
 6    0  0.7258365E+002  0.3050614E+03  0.7546771E-02  0.1082737E+00
          1   -1    0    0  503    0 -0.00000000000E+00  0.00000000000E+00  0.10053839468E+03  0.10053839468E+03  0.00000000000E+00 0. -1.
         21   -1    0    0  504  502  0.00000000000E+00 -0.00000000000E+00 -0.24670042294E+04  0.24670042294E+04  0.00000000000E+00 0. -1.
         21    1    1    2  503  502  0.18807726158E+03  0.23599146833E+03 -0.19739941076E+03  0.36059888632E+03  0.00000000000E+00 0. -1.
         21    1    1    2  504  505 -0.95888897714E+02 -0.14032237434E+02 -0.11744875032E+04  0.11784788838E+04  0.00000000000E+00 0. -1.
         21    1    1    2  505  501 -0.36707101386E+02 -0.11915020530E+03 -0.70960730728E+03  0.72047672638E+03  0.00000000000E+00 0. -1.
          1    1    1    2  501    0 -0.55481262481E+02 -0.10280902559E+03 -0.28497161341E+03  0.30798812750E+03  0.00000000000E+00 0. -1.
<scales pt_clust_3="286.83505" pt_clust_4="96.91019" pt_clust_5="95.45724" pt_clust_6="95.45724"></scales>
<clustering>
<clus scale="   96.910">  2  4  1 -1</clus>
<clus scale="   95.457">  5  6 -1 -1</clus>
<clus scale="  286.835">  1  3  2 -1</clus>
<clus scale="   96.910">  2  3  1 -1</clus>
</clustering>
</event>
<event>
 6    0  0.7258365E+002  0.1803031E+03  0.7546771E-02  0.1167510E+00
         21   -1    0    0  504  502  0.00000000000E+00  0.00000000000E+00  0.15687142014E+03  0.15687142014E+03  0.00000000000E+00 0. -1.
          2   -1    0    0  503    0 -0.00000000000E+00 -0.00000000000E+00 -0.29124988768E+04  0.29124988768E+04  0.00000000000E+00 0. -1.
         21    1    1    2  503  505  0.31257498723E+02 -0.23986733755E+03 -0.51263459404E+03  0.56684001082E+03  0.00000000000E+00 0. -1.
         21    1    1    2  504  501 -0.89286034008E+02  0.17414779838E+03  0.25561537750E+01  0.19571914948E+03  0.00000000000E+00 0. -1.
         21    1    1    2  505  502  0.19904953466E+02 -0.24443118462E+02  0.21174961987E+02  0.37974362770E+02  0.00000000000E+00 0. -1.
          2    1    1    2  501    0  0.38123581819E+02  0.90162657634E+02 -0.22667239783E+04  0.22688367738E+04  0.00000000000E+00 0. -1.
<scales pt_clust_3="180.30314" pt_clust_4="14000.00000" pt_clust_5="31.52258" pt_clust_6="97.76910"></scales>
<clustering>
<clus scale="   31.523">  1  5  2 -1</clus>
<clus scale="   97.769">  2  6  1 -1</clus>
<clus scale="  180.303">  2  3  1 -1</clus>
<clus scale="   31.523">  1  3  2 -1</clus>
</clustering>
</event>
<event>
 6    0  0.7258365E+002  0.6973814E+02  0.7546771E-02  0.1360986E+00
         21   -1    0    0  503  502  0.00000000000E+00  0.00000000000E+00  0.33961393385E+03  0.33961393385E+03  0.00000000000E+00 0. -1.
          2   -1    0    0  504    0 -0.00000000000E+00 -0.00000000000E+00 -0.38294789523E+03  0.38294789523E+03  0.00000000000E+00 0.  1.
         21    1    1    2  503  501 -0.25298962081E+02  0.70909346581E+02  0.15825075514E+03  0.17524689560E+03  0.00000000000E+00 0. -1.
         21    1    1    2  504  505  0.26533881962E+02 -0.77126676708E+02 -0.22900710029E+02  0.84717257225E+02  0.00000000000E+00 0.  1.
         21    1    1    2  505  502 -0.40271092827E+02 -0.38930847634E+02  0.13349224411E+03  0.14476723059E+03  0.00000000000E+00 0. -1.
          2    1    1    2  501    0  0.39036172946E+02  0.45148177761E+02 -0.31217625060E+03  0.31783044567E+03  0.00000000000E+00 0.  1.
<scales pt_clust_3="14000.00000" pt_clust_4="69.73814" pt_clust_5="56.01225" pt_clust_6="58.89736"></scales>
<clustering>
<clus scale="   56.012">  1  5  2 -1</clus>
<clus scale="   58.897">  2  6  1 -1</clus>
<clus scale="   69.738">  2  4  1 -1</clus>
<clus scale="   56.012">  1  3  2 -1</clus>
</clustering>
</event>
<event>
 6    0  0.1162496E+003  0.9595871E+02  0.7546771E-02  0.1289031E+00
         21   -1    0    0  503  502  0.00000000000E+00  0.00000000000E+00  0.12192445028E+04  0.12192445028E+04  0.00000000000E+00 0.  1.
          2   -1    0    0  505    0 -0.00000000000E+00 -0.00000000000E+00 -0.17125793101E+04  0.17125793101E+04  0.00000000000E+00 0. -1.
         21    1    1    2  503  501 -0.22502881888E+01 -0.30863312488E+02  0.97043866057E+03  0.97093192439E+03  0.00000000000E+00 0.  1.
         21    1    1    2  504  502 -0.54361898972E+02  0.10866795934E+03  0.22835924764E+03  0.25867332184E+03  0.00000000000E+00 0.  1.
         21    1    1    2  505  504  0.11735569488E+01 -0.83108125637E+02 -0.38360365525E+03  0.39250490711E+03  0.00000000000E+00 0.  1.
          2    1    1    2  501    0  0.55438630212E+02  0.53034787874E+01 -0.13085290603E+04  0.13097136596E+04  0.00000000000E+00 0. -1.
<scales pt_clust_3="30.94524" pt_clust_4="95.95871" pt_clust_5="14000.00000" pt_clust_6="55.67943"></scales>
<clustering>
<clus scale="   30.945">  1  3  2 -1</clus>
<clus scale="   55.679">  2  6  1 -1</clus>
<clus scale="   95.959">  1  4  2 -1</clus>
<clus scale="   30.945">  1  3  2 -1</clus>
</clustering>
</event>
<event>
 6    0  0.7258365E+002  0.3045035E+03  0.7546771E-02  0.1083011E+00
          2   -1    0    0  505    0 -0.00000000000E+00  0.00000000000E+00  0.41837385922E+04  0.41837385922E+04  0.00000000000E+00 0. -1.
         21   -1    0    0  504  502  0.00000000000E+00 -0.00000000000E+00 -0.12400074529E+03  0.12400074529E+03  0.00000000000E+00 0.  1.
         21    1    1    2  503  501 -0.47603321449E+02 -0.14423785938E+02 -0.55625605071E+01  0.50050613314E+02  0.00000000000E+00 0. -1.
         21    1    1    2  504  503  0.28567392582E+02  0.22762477339E+02 -0.42869973972E+02  0.56321052564E+02  0.00000000000E+00 0.  1.
         21    1    1    2  505  502  0.25964881746E+03 -0.19033387652E+03  0.60582654099E+03  0.68605414563E+03  0.00000000000E+00 0.  1.
          2    1    1    2  501    0 -0.24061288860E+03  0.18199518512E+03  0.35023438404E+04  0.35153135260E+04  0.00000000000E+00 0. -1.
<scales pt_clust_3="37.39822" pt_clust_4="36.52706" pt_clust_5="14000.00000" pt_clust_6="304.50351"></scales>
<clustering>
<clus scale="   36.527">  2  4  1 -1</clus>
<clus scale="   37.398">  2  3  1 -1</clus>
<clus scale="  304.504">  1  6  2 -1</clus>
<clus scale="   36.527">  2  3  1 -1</clus>
</clustering>
</event>
<event>
 6    0  0.7258365E+002  0.9534721E+02  0.7546771E-02  0.1290396E+00
          1   -1    0    0  504    0 -0.00000000000E+00  0.00000000000E+00  0.31204518151E+03  0.31204518151E+03  0.00000000000E+00 0.  1.
         21   -1    0    0  503  502  0.00000000000E+00 -0.00000000000E+00 -0.10969181651E+04  0.10969181651E+04  0.00000000000E+00 0.  1.
         21    1    1    2  503  505  0.36106739706E+02  0.41501385904E+02 -0.37001223075E+03  0.37407901917E+03  0.00000000000E+00 0.  1.
         21    1    1    2  504  502  0.22705031044E+02 -0.47404747284E+02 -0.94055254349E+02  0.10774562344E+03  0.00000000000E+00 0.  1.
         21    1    1    2  505  501 -0.13330404616E+03  0.64435026598E+02 -0.60745554081E+03  0.62523921457E+03  0.00000000000E+00 0.  1.
          1    1    1    2  501    0  0.74492275413E+02 -0.58531665218E+02  0.28665004234E+03  0.30189948941E+03  0.00000000000E+00 0.  1.
<scales pt_clust_3="50.53944" pt_clust_4="52.56166" pt_clust_5="95.34721" pt_clust_6="14000.00000"></scales>
<clustering>
<clus scale="   52.562">  2  4  1 -1</clus>
<clus scale="   50.539">  2  3  1 -1</clus>
<clus scale="   95.347">  2  5  1 -1</clus>
<clus scale="   52.562">  2  3  1 -1</clus>
</clustering>
</event>
<event>
 6    0  0.7258365E+002  0.7468789E+02  0.7546771E-02  0.1344840E+00
         21   -1    0    0  501  502  0.00000000000E+00  0.00000000000E+00  0.63059419051E+02  0.63059419051E+02  0.00000000000E+00 0.  1.
          2   -1    0    0  503    0 -0.00000000000E+00 -0.00000000000E+00 -0.34741280446E+03  0.34741280446E+03  0.00000000000E+00 0. -1.
         21    1    1    2  503  505  0.34917538302E+02 -0.13228999266E+02 -0.38583474542E+02  0.53692880444E+02  0.00000000000E+00 0.  1.
         21    1    1    2  504  502  0.27626998217E+02 -0.63805199692E+02 -0.32617017649E+01  0.69605985638E+02  0.00000000000E+00 0.  1.
         21    1    1    2  505  504 -0.13560731756E+02  0.97092062584E+02 -0.12986369758E+03  0.16271245193E+03  0.00000000000E+00 0. -1.
          2    1    1    2  501    0 -0.48983804763E+02 -0.20057863626E+02 -0.11264451152E+03  0.12446090550E+03  0.00000000000E+00 0. -1.
<scales pt_clust_3="37.33954" pt_clust_4="14000.00000" pt_clust_5="74.68789" pt_clust_6="43.36310"></scales>
<clustering>
<clus scale="   37.340">  2  3  1 -1</clus>
<clus scale="   43.363">  2  6  1 -1</clus>
<clus scale="   74.688">  2  5  1 -1</clus>
<clus scale="   74.688">  1  3  2 -1</clus>
</clustering>
</event>
<event>
 6    0  0.7258365E+002  0.1173631E+03  0.7546771E-02  0.1247512E+00
          2   -1    0    0  504    0 -0.00000000000E+00  0.00000000000E+00  0.12380847433E+04  0.12380847433E+04  0.00000000000E+00 0.  1.
         21   -1    0    0  503  502  0.00000000000E+00 -0.00000000000E+00 -0.18106054572E+04  0.18106054572E+04  0.00000000000E+00 0.  1.
         21    1    1    2  503  505  0.65193479764E+01 -0.36786618616E+02 -0.15228843619E+04  0.15233425541E+04  0.00000000000E+00 0.  1.
         21    1    1    2  504  502  0.43028544926E+02  0.66867004505E+01  0.25797540804E+02  0.50613049235E+02  0.00000000000E+00 0.  1.
         21    1    1    2  505  501 -0.76357187399E+02 -0.84354192331E+02 -0.26028446504E+03  0.28406698607E+03  0.00000000000E+00 0.  1.
          2    1    1    2  501    0  0.26809294497E+02  0.11445411050E+03  0.11848505722E+04  0.11906676111E+04  0.00000000000E+00 0.  1.
<scales pt_clust_3="37.35983" pt_clust_4="43.60904" pt_clust_5="14000.00000" pt_clust_6="117.36310"></scales>
<clustering>
<clus scale="   37.360">  2  3  1 -1</clus>
<clus scale="   43.609">  2  4  1 -1</clus>
<clus scale="  117.363">  1  6  2 -1</clus>
<clus scale="   37.360">  2  3  1 -1</clus>
</clustering>
</event>
<event>
 6    0  0.7258365E+002  0.1222277E+03  0.7546771E-02  0.1239467E+00
         21   -1    0    0  503  502  0.00000000000E+00  0.00000000000E+00  0.43949145748E+03  0.43949145748E+03  0.00000000000E+00 0.  1.
          2   -1    0    0  505    0 -0.00000000000E+00 -0.00000000000E+00 -0.93395792369E+03  0.93395792369E+03  0.00000000000E+00 0.  1.
         21    1    1    2  503  501 -0.16332592284E+02 -0.96934643109E+02  0.14942912917E+03  0.17886347657E+03  0.00000000000E+00 0.  1.
         21    1    1    2  504  502  0.13208454583E+03  0.12990419212E+03  0.23322617855E+03  0.29785210548E+03  0.00000000000E+00 0.  1.
         21    1    1    2  505  504 -0.13617095119E+03  0.91577894207E+01 -0.71852990314E+03  0.73137652052E+03  0.00000000000E+00 0.  1.
          2    1    1    2  501    0  0.20418997646E+02 -0.42127338435E+02 -0.15859187079E+03  0.16535727861E+03  0.00000000000E+00 0.  1.
<scales pt_clust_3="99.02959" pt_clust_4="122.22774" pt_clust_5="14000.00000" pt_clust_6="46.81504"></scales>
<clustering>
<clus scale="   46.815">  2  6  1 -1</clus>
<clus scale="   99.030">  1  3  2 -1</clus>
<clus scale="  122.228">  1  4  2 -1</clus>
<clus scale="   99.030">  1  3  2 -1</clus>
</clustering>
</event>
<event>
 6    0  0.7258365E+002  0.9327174E+02  0.7546771E-02  0.1295117E+00
         21   -1    0    0  504  502  0.00000000000E+00  0.00000000000E+00  0.30339705512E+03  0.30339705512E+03  0.00000000000E+00 0. -1.
         -4   -1    0    0    0  501 -0.00000000000E+00 -0.00000000000E+00 -0.22987234791E+03  0.22987234791E+03  0.00000000000E+00 0.  1.
         21    1    1    2  503  502 -0.65188411072E+02  0.19452447248E+02 -0.40427107667E+02  0.79134554251E+02  0.00000000000E+00 0.  1.
         21    1    1    2  504  505  0.62484201692E+01 -0.31931648896E+02  0.85215009772E+02  0.91215518670E+02  0.00000000000E+00 0. -1.
         21    1    1    2  505  501  0.95748720740E+02  0.40351751892E+02  0.17831404316E+03  0.20637824351E+03  0.00000000000E+00 0. -1.
         -4    1    1    2    0  503 -0.36808729836E+02 -0.27872550245E+02 -0.14957723806E+03  0.15654108660E+03  0.00000000000E+00 0.  1.
<scales pt_clust_3="93.27174" pt_clust_4="32.53725" pt_clust_5="14000.00000" pt_clust_6="46.40473"></scales>
<clustering>
<clus scale="   32.537">  1  4  2 -1</clus>
<clus scale="   46.405">  2  6  1 -1</clus>
<clus scale="   93.272">  2  3  1 -1</clus>
<clus scale="   32.537">  1  3  2 -1</clus>
</clustering>
</event>
<event>
 6    0  0.7258365E+002  0.1167003E+03  0.7546771E-02  0.1248642E+00
          2   -1    0    0  505    0 -0.00000000000E+00  0.00000000000E+00  0.13545352684E+04  0.13545352684E+04  0.00000000000E+00 0.  1.
         21   -1    0    0  504  502  0.00000000000E+00 -0.00000000000E+00 -0.80671703234E+03  0.80671703234E+03  0.00000000000E+00 0.  1.
         21    1    1    2  503  501 -0.59579353517E+02  0.87568445512E+02  0.34864009458E+03  0.36437322564E+03  0.00000000000E+00 0.  1.
         21    1    1    2  504  503  0.46078855173E+02  0.44165949402E+02 -0.72701946730E+03  0.72981586569E+03  0.00000000000E+00 0.  1.
         21    1    1    2  505  502  0.47600669878E+02 -0.11881030115E+03 -0.11637802418E+02  0.12851906426E+03  0.00000000000E+00 0.  1.
          2    1    1    2  501    0 -0.34100171533E+02 -0.12924093763E+02  0.93783541118E+03  0.93854414513E+03  0.00000000000E+00 0.  1.
<scales pt_clust_3="116.70034" pt_clust_4="63.71436" pt_clust_5="14000.00000" pt_clust_6="36.46716"></scales>
<clustering>
<clus scale="   36.467">  1  6  2 -1</clus>
<clus scale="   63.714">  2  4  1 -1</clus>
<clus scale="  116.700">  1  3  2 -1</clus>
<clus scale="   63.714">  2  3  1 -1</clus>
</clustering>
</event>
<event>
 6    0  0.7258365E+002  0.1032325E+03  0.7546771E-02  0.1273642E+00
         21   -1    0    0  504  502  0.00000000000E+00  0.00000000000E+00  0.38594601457E+03  0.38594601457E+03  0.00000000000E+00 0.  1.
         -1   -1    0    0    0  501 -0.00000000000E+00 -0.00000000000E+00 -0.14653065857E+03  0.14653065857E+03  0.00000000000E+00 0.  1.
         21    1    1    2  503  505 -0.63686000710E+02  0.10724395445E+03  0.14838763479E+03  0.19384546064E+03  0.00000000000E+00 0.  1.
         21    1    1    2  504  503  0.10832307976E+03 -0.10799170395E+02  0.16317673845E+03  0.19615595749E+03  0.00000000000E+00 0.  1.
         21    1    1    2  505  501 -0.31720410847E+02 -0.80033421569E+01 -0.26569432805E+02  0.42144664070E+02  0.00000000000E+00 0.  1.
         -1    1    1    2    0  502 -0.12916668197E+02 -0.88441441900E+02 -0.45579584425E+02  0.10033059094E+03  0.00000000000E+00 0.  1.
<scales pt_clust_3="14000.00000" pt_clust_4="103.23246" pt_clust_5="32.71449" pt_clust_6="99.47404"></scales>
<clustering>
<clus scale="   32.714">  2  5  1 -1</clus>
<clus scale="   99.474">  2  6  1 -1</clus>
<clus scale="  103.232">  1  4  2 -1</clus>
<clus scale="  103.232">  1  3  2 -1</clus>
</clustering>
</event>
<event>
 6    0  0.7258365E+002  0.8231896E+02  0.7546771E-02  0.1322596E+00
         21   -1    0    0  504  502  0.00000000000E+00  0.00000000000E+00  0.41165397517E+02  0.41165397517E+02  0.00000000000E+00 0. -1.
          1   -1    0    0  503    0 -0.00000000000E+00 -0.00000000000E+00 -0.91812071141E+03  0.91812071141E+03  0.00000000000E+00 0.  1.
         21    1    1    2  503  505 -0.44009805165E+02 -0.63439323126E+02 -0.10944134793E+03  0.13393587759E+03  0.00000000000E+00 0. -1.
         21    1    1    2  504  501  0.20844286699E+02 -0.52644238635E+02 -0.21154572705E+02  0.60443495066E+02  0.00000000000E+00 0. -1.
         21    1    1    2  505  502 -0.71234621131E+01  0.38021086723E+02 -0.48476830809E+02  0.62018947696E+02  0.00000000000E+00 0. -1.
          1    1    1    2  501    0  0.30288980579E+02  0.78062475037E+02 -0.69788256246E+03  0.70288778858E+03  0.00000000000E+00 0.  1.
<scales pt_clust_3="14000.00000" pt_clust_4="35.18503" pt_clust_5="38.68264" pt_clust_6="82.31896"></scales>
<clustering>
<clus scale="   38.683">  1  5  2 -1</clus>
<clus scale="   35.185">  1  4  2 -1</clus>
<clus scale="   82.319">  2  6  1 -1</clus>
<clus scale="   38.683">  1  3  2 -1</clus>
</clustering>
</event>
<event>
 6    0  0.7258365E+002  0.7937740E+02  0.7546771E-02  0.1330828E+00
         -2   -1    0    0    0  501 -0.00000000000E+00  0.00000000000E+00  0.27708332346E+03  0.27708332346E+03  0.00000000000E+00 0.  1.
         21   -1    0    0  503  502  0.00000000000E+00 -0.00000000000E+00 -0.33341420818E+03  0.33341420818E+03  0.00000000000E+00 0.  1.
         21    1    1    2  503  501  0.38044585477E+02  0.75714032078E+02 -0.21773967249E+03  0.23364624994E+03  0.00000000000E+00 0.  1.
         21    1    1    2  504  505  0.79454266372E+02 -0.54808232373E+02  0.39203273799E+02  0.10418166565E+03  0.00000000000E+00 0.  1.
         21    1    1    2  505  502 -0.42215475022E+02 -0.35637798870E+02 -0.55993559666E+02  0.78660522269E+02  0.00000000000E+00 0. -1.
         -2    1    1    2    0  504 -0.75283376827E+02  0.14731999165E+02  0.17819907364E+03  0.19400909378E+03  0.00000000000E+00 0.  1.
<scales pt_clust_3="45.54135" pt_clust_4="14000.00000" pt_clust_5="55.24671" pt_clust_6="79.37740"></scales>
<clustering>
<clus scale="   55.247">  2  5  1 -1</clus>
<clus scale="   45.541">  2  3  1 -1</clus>
<clus scale="   79.377">  1  6  2 -1</clus>
<clus scale="   55.247">  2  3  1 -1</clus>
</clustering>
</event>
<event>
 6    0  0.7258365E+002  0.1062360E+03  0.7546771E-02  0.1267703E+00
         21   -1    0    0  503  502  0.00000000000E+00  0.00000000000E+00  0.15286174619E+03  0.15286174619E+03  0.00000000000E+00 0.  1.
          1   -1    0    0  504    0 -0.00000000000E+00 -0.00000000000E+00 -0.10857920672E+04  0.10857920672E+04  0.00000000000E+00 0.  1.
         21    1    1    2  503  501 -0.40757150397E+02  0.17012244344E+01 -0.51468311050E+03  0.51629714671E+03  0.00000000000E+00 0.  1.
         21    1    1    2  504  505  0.96058137055E+02  0.10801823704E+03 -0.11054717827E+02  0.14497348728E+03  0.00000000000E+00 0.  1.
         21    1    1    2  505  502 -0.60128574897E+02 -0.71618597651E+02  0.58372896208E+02  0.11023640080E+03  0.00000000000E+00 0.  1.
          1    1    1    2  501    0  0.48275882394E+01 -0.38100863822E+02 -0.46556538892E+03  0.46714677864E+03  0.00000000000E+00 0.  1.
<scales pt_clust_3="47.43591" pt_clust_4="106.23604" pt_clust_5="14000.00000" pt_clust_6="38.40549"></scales>
<clustering>
<clus scale="   38.405">  2  6  1 -1</clus>
<clus scale="   47.436">  2  3  1 -1</clus>
<clus scale="  106.236">  2  4  1 -1</clus>
<clus scale="  106.236">  1  3  2 -1</clus>
</clustering>
</event>
<event>
 6    0  0.7258365E+002  0.1190712E+03  0.7546771E-02  0.1244637E+00
         21   -1    0    0  504  502  0.00000000000E+00  0.00000000000E+00  0.47013255617E+03  0.47013255617E+03  0.00000000000E+00 0.  1.
          1   -1    0    0  505    0 -0.00000000000E+00 -0.00000000000E+00 -0.40284923477E+03  0.40284923477E+03  0.00000000000E+00 0. -1.
         21    1    1    2  503  502  0.77677817762E+02  0.27666914939E+02  0.11568620619E+03  0.14206547736E+03  0.00000000000E+00 0.  1.
         21    1    1    2  504  501 -0.12276858782E+02  0.37388644946E+02  0.13150752339E+03  0.13726930006E+03  0.00000000000E+00 0.  1.
         21    1    1    2  505  503  0.45488611325E+02 -0.11259118249E+03  0.17826638306E+03  0.21569629451E+03  0.00000000000E+00 0.  1.
          1    1    1    2  501    0 -0.11088957030E+03  0.47535622606E+02 -0.35817679124E+03  0.37795071901E+03  0.00000000000E+00 0. -1.
<scales pt_clust_3="84.19918" pt_clust_4="39.35266" pt_clust_5="14000.00000" pt_clust_6="119.07117"></scales>
<clustering>
<clus scale="   39.353">  1  4  2 -1</clus>
<clus scale="   84.199">  1  3  2 -1</clus>
<clus scale="  119.071">  2  6  1 -1</clus>
<clus scale="   39.353">  1  3  2 -1</clus>
</clustering>
</event>
<event>
 6    0  0.7258365E+002  0.1419672E+03  0.7546771E-02  0.1210706E+00
         21   -1    0    0  504  502  0.00000000000E+00  0.00000000000E+00  0.23659921533E+04  0.23659921533E+04  0.00000000000E+00 0. -1.
         -2   -1    0    0    0  501 -0.00000000000E+00 -0.00000000000E+00 -0.11741552660E+04  0.11741552660E+04  0.00000000000E+00 0. -1.
         21    1    1    2  503  505  0.57284298806E+01 -0.14178507765E+03  0.13177078000E+03  0.19364751900E+03  0.00000000000E+00 0.  1.
         21    1    1    2  504  501 -0.75942260092E+02  0.78611386989E+02 -0.13569940374E+03  0.17424495748E+03  0.00000000000E+00 0.  1.
         21    1    1    2  505  502  0.79628319548E+02  0.93337350192E+01  0.21825179035E+04  0.21839899695E+04  0.00000000000E+00 0. -1.
         -2    1    1    2    0  503 -0.94144893369E+01  0.53839955644E+02 -0.98675239248E+03  0.98826497332E+03  0.00000000000E+00 0. -1.
<scales pt_clust_3="141.96721" pt_clust_4="14000.00000" pt_clust_5="80.16162" pt_clust_6="54.65687"></scales>
<clustering>
<clus scale="   54.657">  2  6  1 -1</clus>
<clus scale="   80.162">  1  5  2 -1</clus>
<clus scale="  141.967">  1  3  2 -1</clus>
<clus scale="   80.162">  1  3  2 -1</clus>
</clustering>
</event>
<event>
 6    0  0.7258365E+002  0.8705028E+02  0.7546771E-02  0.1310156E+00
          2   -1    0    0  504    0 -0.00000000000E+00  0.00000000000E+00  0.14484079740E+04  0.14484079740E+04  0.00000000000E+00 0.  1.
         21   -1    0    0  505  502  0.00000000000E+00 -0.00000000000E+00 -0.45060149372E+03  0.45060149372E+03  0.00000000000E+00 0. -1.
         21    1    1    2  503  501  0.50016019979E+02 -0.43485166010E+02  0.17278694357E+03  0.18506185394E+03  0.00000000000E+00 0.  1.
         21    1    1    2  504  502 -0.94443394981E+02 -0.50259274257E+02  0.77000537784E+02  0.13181286858E+03  0.00000000000E+00 0. -1.
         21    1    1    2  505  503 -0.21919743827E+02  0.39009544339E+02 -0.41426401796E+03  0.41667360883E+03  0.00000000000E+00 0. -1.
          2    1    1    2  501    0  0.66347118829E+02  0.54734895928E+02  0.11622830169E+04  0.11654611363E+04  0.00000000000E+00 0.  1.
<scales pt_clust_3="58.97407" pt_clust_4="14000.00000" pt_clust_5="44.74617" pt_clust_6="87.05028"></scales>
<clustering>
<clus scale="   44.746">  2  5  1 -1</clus>
<clus scale="   58.974">  2  3  1 -1</clus>
<clus scale="   87.050">  1  6  2 -1</clus>
<clus scale="   44.746">  2  3  1 -1</clus>
</clustering>
</event>
<event>
 6    0  0.7258365E+002  0.8881330E+02  0.7546771E-02  0.1305751E+00
         21   -1    0    0  504  502  0.00000000000E+00  0.00000000000E+00  0.26395567259E+03  0.26395567259E+03  0.00000000000E+00 0. -1.
          2   -1    0    0  505    0 -0.00000000000E+00 -0.00000000000E+00 -0.22362788131E+03  0.22362788131E+03  0.00000000000E+00 0. -1.
         21    1    1    2  503  502  0.41457285215E+02 -0.60131918284E+02  0.94220463241E+02  0.11921430194E+03  0.00000000000E+00 0. -1.
         21    1    1    2  504  501 -0.84448760679E+02  0.97463006023E+02  0.10081207354E+03  0.16368782757E+03  0.00000000000E+00 0. -1.
         21    1    1    2  505  503  0.75378984480E+02 -0.53372854960E+02 -0.82091223595E+02  0.12357031172E+03  0.00000000000E+00 0. -1.
          2    1    1    2  501    0 -0.32387509015E+02  0.16041767221E+02 -0.72613521898E+02  0.81111112668E+02  0.00000000000E+00 0. -1.
<scales pt_clust_3="88.81330" pt_clust_4="14000.00000" pt_clust_5="67.46191" pt_clust_6="36.14262"></scales>
<clustering>
<clus scale="   36.143">  2  6  1 -1</clus>
<clus scale="   67.462">  2  5  1 -1</clus>
<clus scale="   88.813">  1  3  2 -1</clus>
<clus scale="   88.813">  1  3  2 -1</clus>
</clustering>
</event>
<event>
 6    0  0.7258365E+002  0.7793543E+02  0.7546771E-02  0.1335015E+00
         21   -1    0    0  504  502  0.00000000000E+00  0.00000000000E+00  0.22392751364E+04  0.22392751364E+04  0.00000000000E+00 0. -1.
          2   -1    0    0  505    0 -0.00000000000E+00 -0.00000000000E+00 -0.33209129750E+03  0.33209129750E+03  0.00000000000E+00 0.  1.
         21    1    1    2  503  502 -0.77697195593E+02 -0.33855987495E+02  0.13051297680E+04  0.13078787380E+04  0.00000000000E+00 0. -1.
         21    1    1    2  504  501  0.54092675525E+02 -0.46997322568E+02  0.80152550933E+03  0.80472225518E+03  0.00000000000E+00 0.  1.
         21    1    1    2  505  503  0.42143921490E+02  0.57076933625E+02  0.11917491529E+03  0.13869587919E+03  0.00000000000E+00 0.  1.
          2    1    1    2  501    0 -0.18539401423E+02  0.23776376438E+02 -0.31864635370E+03  0.32006956151E+03  0.00000000000E+00 0.  1.
<scales pt_clust_3="14000.00000" pt_clust_4="67.94695" pt_clust_5="77.93543" pt_clust_6="30.15005"></scales>
<clustering>
<clus scale="   30.150">  2  6  1 -1</clus>
<clus scale="   67.947">  1  4  2 -1</clus>
<clus scale="   77.935">  2  5  1 -1</clus>
<clus scale="   67.947">  1  3  2 -1</clus>
</clustering>
</event>
<event>
 6    0  0.7258365E+002  0.1755995E+03  0.7546771E-02  0.1172131E+00
          1   -1    0    0  504    0 -0.00000000000E+00  0.00000000000E+00  0.15674098688E+04  0.15674098688E+04  0.00000000000E+00 0. -1.
         21   -1    0    0  501  502  0.00000000000E+00 -0.00000000000E+00 -0.29652963323E+03  0.29652963323E+03  0.00000000000E+00 0. -1.
         21    1    1    2  503  505  0.87441679165E+02  0.10049398082E+02 -0.15840278538E+03  0.18121390695E+03  0.00000000000E+00 0. -1.
         21    1    1    2  504  503 -0.14802233975E+03  0.25367962476E+02  0.46454805042E+03  0.48822027584E+03  0.00000000000E+00 0.  1.
         21    1    1    2  505  502  0.85955024627E+02 -0.28386152663E+01 -0.98332916088E+02  0.13063570102E+03  0.00000000000E+00 0. -1.
          1    1    1    2  501    0 -0.25374364041E+02 -0.32578745291E+02  0.10630678866E+04  0.10638696182E+04  0.00000000000E+00 0. -1.
<scales pt_clust_3="34.50571" pt_clust_4="172.09482" pt_clust_5="34.50571" pt_clust_6="41.29447"></scales>
<clustering>
<clus scale="   34.506">  3  5 -1 -1</clus>
<clus scale="   41.294">  1  6  2 -1</clus>
<clus scale="  172.095">  1  4  2 -1</clus>
<clus scale="  175.599">  2  3  1 -1</clus>
</clustering>
</event>
<event>
 6    0  0.7258365E+002  0.5385804E+02  0.7546771E-02  0.1425578E+00
          1   -1    0    0  505    0 -0.00000000000E+00  0.00000000000E+00  0.44117787633E+03  0.44117787633E+03  0.00000000000E+00 0.  1.
         21   -1    0    0  503  502  0.00000000000E+00 -0.00000000000E+00 -0.67008828001E+03  0.67008828001E+03  0.00000000000E+00 0. -1.
         21    1    1    2  503  504 -0.63157286992E+02 -0.49108121470E+02 -0.52157527993E+03  0.52767530085E+03  0.00000000000E+00 0. -1.
         21    1    1    2  504  501  0.49249870141E+02 -0.40630286208E+02 -0.20279587509E+01  0.63878654361E+02  0.00000000000E+00 0. -1.
         21    1    1    2  505  502  0.34392656547E+02  0.40100712635E+02 -0.10440927441E+03  0.11701375373E+03  0.00000000000E+00 0.  1.
          1    1    1    2  501    0 -0.20485239696E+02  0.49637695043E+02  0.39910210940E+03  0.40269844740E+03  0.00000000000E+00 0.  1.
<scales pt_clust_3="32.97134" pt_clust_4="14000.00000" pt_clust_5="52.82918" pt_clust_6="53.85804"></scales>
<clustering>
<clus scale="   52.829">  2  5  1 -1</clus>
<clus scale="   32.971">  2  3  1 -1</clus>
<clus scale="   53.858">  1  6  2 -1</clus>
<clus scale="   52.829">  2  3  1 -1</clus>
</clustering>
</event>
<event>
 6    0  0.7258365E+002  0.1412973E+03  0.7546771E-02  0.1211594E+00
          1   -1    0    0  504    0 -0.00000000000E+00  0.00000000000E+00  0.19946810038E+04  0.19946810038E+04  0.00000000000E+00 0.  1.
         21   -1    0    0  505  502  0.00000000000E+00 -0.00000000000E+00 -0.10769760278E+03  0.10769760278E+03  0.00000000000E+00 0.  1.
         21    1    1    2  503  502 -0.81936285981E+01 -0.14714352987E+03  0.11886690724E+02  0.14785008403E+03  0.00000000000E+00 0.  1.
         21    1    1    2  504  503  0.90238877297E+02  0.12680110853E+03  0.26629369183E+03  0.30843784854E+03  0.00000000000E+00 0.  1.
         21    1    1    2  505  501 -0.33166429654E+02  0.15974414375E+02  0.27473296478E+00  0.36813984420E+02  0.00000000000E+00 0.  1.
          1    1    1    2  501    0 -0.48878819045E+02  0.43680069639E+01  0.16085282855E+04  0.16092766896E+04  0.00000000000E+00 0.  1.
<scales pt_clust_3="141.29732" pt_clust_4="14000.00000" pt_clust_5="36.81296" pt_clust_6="49.21781"></scales>
<clustering>
<clus scale="   36.813">  2  5  1 -1</clus>
<clus scale="   49.218">  1  6  2 -1</clus>
<clus scale="  141.297">  2  3  1 -1</clus>
<clus scale="   36.813">  2  3  1 -1</clus>
</clustering>
</event>
<event>
 6    0  0.7258365E+002  0.6026124E+02  0.7546771E-02  0.1396739E+00
          2   -1    0    0  503    0 -0.00000000000E+00  0.00000000000E+00  0.21788816095E+04  0.21788816095E+04  0.00000000000E+00 0.  1.
         21   -1    0    0  501  502  0.00000000000E+00 -0.00000000000E+00 -0.71249670153E+03  0.71249670153E+03  0.00000000000E+00 0. -1.
         21    1    1    2  503  504 -0.62709916541E+02 -0.53560562724E+02  0.67378007060E+02  0.10649442871E+03  0.00000000000E+00 0. -1.
         21    1    1    2  504  505 -0.46207317339E+02  0.23871888647E+02 -0.20887861908E+03  0.21525626763E+03  0.00000000000E+00 0. -1.
         21    1    1    2  505  502  0.70798156726E+02  0.47796066300E+01 -0.47800344340E+03  0.48324167404E+03  0.00000000000E+00 0. -1.
          2    1    1    2  501    0  0.38119077154E+02  0.24909067447E+02  0.20858889634E+04  0.20863859407E+04  0.00000000000E+00 0.  1.
<scales pt_clust_3="40.50357" pt_clust_4="60.26124" pt_clust_5="14000.00000" pt_clust_6="45.53598"></scales>
<clustering>
<clus scale="   45.536">  1  6  2 -1</clus>
<clus scale="   40.504">  1  3  2 -1</clus>
<clus scale="   60.261">  1  4  2 -1</clus>
<clus scale="   60.261">  2  3  1 -1</clus>
</clustering>
</event>
<event>
 6    0  0.7258365E+002  0.8792892E+02  0.7546771E-02  0.1307946E+00
         21   -1    0    0  504  502  0.00000000000E+00  0.00000000000E+00  0.79762257282E+03  0.79762257282E+03  0.00000000000E+00 0. -1.
          3   -1    0    0  505    0 -0.00000000000E+00 -0.00000000000E+00 -0.42905791991E+03  0.42905791991E+03  0.00000000000E+00 0.  1.
         21    1    1    2  503  501  0.76749572388E+01 -0.10629582198E+03  0.53189185592E+03  0.54246350396E+03  0.00000000000E+00 0. -1.
         21    1    1    2  504  503  0.28016843377E+02  0.26585774807E+02  0.24191713759E+03  0.24498091434E+03  0.00000000000E+00 0. -1.
         21    1    1    2  505  502 -0.31308590935E+02 -0.27704352824E+02 -0.37706802257E+02  0.56298862938E+02  0.00000000000E+00 0.  1.
          3    1    1    2  501    0 -0.43832096813E+01  0.10741440000E+03 -0.36753753834E+03  0.38293721149E+03  0.00000000000E+00 0.  1.
<scales pt_clust_3="14000.00000" pt_clust_4="38.62314" pt_clust_5="41.15872" pt_clust_6="87.92892"></scales>
<clustering>
<clus scale="   38.623">  1  4  2 -1</clus>
<clus scale="   41.159">  2  5  1 -1</clus>
<clus scale="   87.929">  2  6  1 -1</clus>
<clus scale="   38.623">  1  3  2 -1</clus>
</clustering>
</event>
<event>
 6    0  0.7258365E+002  0.2087359E+03  0.7546771E-02  0.1142571E+00
          1   -1    0    0  505    0 -0.00000000000E+00  0.00000000000E+00  0.11799969913E+04  0.11799969913E+04  0.00000000000E+00 0.  1.
         21   -1    0    0  504  502  0.00000000000E+00 -0.00000000000E+00 -0.19471892002E+03  0.19471892002E+03  0.00000000000E+00 0. -1.
         21    1    1    2  503  501  0.21850631888E+02 -0.45416075435E+02 -0.77948844030E+01  0.50998335705E+02  0.00000000000E+00 0.  1.
         21    1    1    2  504  503 -0.78604605178E+02 -0.12611618361E+03 -0.60896356674E+01  0.14873150099E+03  0.00000000000E+00 0. -1.
         21    1    1    2  505  502  0.10863557292E+03  0.17730162814E+03  0.36750205128E+02  0.21115902212E+03  0.00000000000E+00 0. -1.
          1    1    1    2  501    0 -0.51881599633E+02 -0.57693690915E+01  0.96241238622E+03  0.96382705251E+03  0.00000000000E+00 0.  1.
<scales pt_clust_3="48.91449" pt_clust_4="48.91449" pt_clust_5="191.09101" pt_clust_6="52.20140"></scales>
<clustering>
<clus scale="   48.914">  3  4 -1 -1</clus>
<clus scale="   52.201">  1  6  2 -1</clus>
<clus scale="  191.091">  1  5  2 -1</clus>
<clus scale="  208.736">  2  3  1 -1</clus>
</clustering>
</event>
<event>
 6    0  0.7258365E+002  0.9068998E+02  0.7546771E-02  0.1301189E+00
         21   -1    0    0  503  502  0.00000000000E+00  0.00000000000E+00  0.17007196491E+04  0.17007196491E+04  0.00000000000E+00 0. -1.
          2   -1    0    0  502    0 -0.00000000000E+00 -0.00000000000E+00 -0.15426419211E+04  0.15426419211E+04  0.00000000000E+00 0.  1.
         21    1    1    2  503  504 -0.18072167098E+02  0.28796215048E+02  0.85729573497E+03  0.85796958129E+03  0.00000000000E+00 0. -1.
         21    1    1    2  504  505  0.25616264123E+02 -0.11808967875E+03  0.81730586115E+03  0.82619019353E+03  0.00000000000E+00 0. -1.
         21    1    1    2  505  501 -0.37424142350E+02  0.10064657320E+03 -0.11509190070E+03  0.15740535167E+03  0.00000000000E+00 0.  1.
          2    1    1    2  501    0  0.29880045324E+02 -0.11353109503E+02 -0.14014319674E+04  0.14017964437E+04  0.00000000000E+00 0.  1.
<scales pt_clust_3="33.93654" pt_clust_4="14000.00000" pt_clust_5="90.68998" pt_clust_6="31.96420"></scales>
<clustering>
<clus scale="   31.964">  2  6  1 -1</clus>
<clus scale="   33.937">  1  3  2 -1</clus>
<clus scale="   90.690">  2  5  1 -1</clus>
<clus scale="   33.937">  1  3  2 -1</clus>
</clustering>
</event>
<event>
 6    0  0.7258365E+002  0.1270714E+03  0.7546771E-02  0.1231867E+00
         21   -1    0    0  501  502  0.00000000000E+00  0.00000000000E+00  0.76233150917E+02  0.76233150917E+02  0.00000000000E+00 0. -1.
          2   -1    0    0  505    0 -0.00000000000E+00 -0.00000000000E+00 -0.12329691906E+04  0.12329691906E+04  0.00000000000E+00 0.  1.
         21    1    1    2  503  504  0.78625017851E+02 -0.41421106979E+02 -0.17356607141E+03  0.19499431448E+03  0.00000000000E+00 0.  1.
         21    1    1    2  504  502 -0.13767852919E+03  0.47914461043E+02 -0.28378636212E+02  0.14851437631E+03  0.00000000000E+00 0. -1.
         21    1    1    2  505  503 -0.34433351251E+02 -0.21721134937E+02 -0.15288736270E+03  0.15821507214E+03  0.00000000000E+00 0. -1.
          2    1    1    2  501    0  0.93486862591E+02  0.15227780873E+02 -0.80190396941E+03  0.80747857863E+03  0.00000000000E+00 0.  1.
<scales pt_clust_3="127.07136" pt_clust_4="14000.00000" pt_clust_5="40.71196" pt_clust_6="67.77693"></scales>
<clustering>
<clus scale="   40.712">  2  5  1 -1</clus>
<clus scale="   67.777">  2  6  1 -1</clus>
<clus scale="  127.071">  2  3  1 -1</clus>
<clus scale="  127.071">  1  3  2 -1</clus>
</clustering>
</event>
<event>
 6    0  0.7258365E+002  0.8583773E+02  0.7546771E-02  0.1313256E+00
         21   -1    0    0  501  502  0.00000000000E+00  0.00000000000E+00  0.43851878326E+03  0.43851878326E+03  0.00000000000E+00 0. -1.
          3   -1    0    0  505    0 -0.00000000000E+00 -0.00000000000E+00 -0.11220209599E+04  0.11220209599E+04  0.00000000000E+00 0.  1.
         21    1    1    2  503  502 -0.25322865806E+02  0.21357085790E+02  0.26673858258E+03  0.26878773053E+03  0.00000000000E+00 0. -1.
         21    1    1    2  504  503  0.46738241827E+02 -0.10352650598E+03  0.14480086127E+03  0.18403665427E+03  0.00000000000E+00 0. -1.
         21    1    1    2  505  504  0.58299145635E+02  0.20734940804E+02 -0.29887020886E+03  0.30520833851E+03  0.00000000000E+00 0.  1.
          3    1    1    2  501    0 -0.79714521655E+02  0.61434479386E+02 -0.79617141164E+03  0.80250701987E+03  0.00000000000E+00 0.  1.
<scales pt_clust_3="33.12662" pt_clust_4="85.83773" pt_clust_5="61.56903" pt_clust_6="14000.00000"></scales>
<clustering>
<clus scale="   33.127">  1  3  2 -1</clus>
<clus scale="   61.569">  2  5  1 -1</clus>
<clus scale="   85.838">  1  4  2 -1</clus>
<clus scale="   33.127">  1  3  2 -1</clus>
</clustering>
</event>
<event>
 6    0  0.7258365E+002  0.7405006E+02  0.7546771E-02  0.1346838E+00
          1   -1    0    0  504    0 -0.00000000000E+00  0.00000000000E+00  0.94305363006E+03  0.94305363006E+03  0.00000000000E+00 0. -1.
         21   -1    0    0  505  502  0.00000000000E+00 -0.00000000000E+00 -0.95404577699E+02  0.95404577699E+02  0.00000000000E+00 0. -1.
         21    1    1    2  503  502 -0.27072883587E+02 -0.22923644026E+02  0.66650860985E+01  0.36095122300E+02  0.00000000000E+00 0. -1.
         21    1    1    2  504  503  0.23485763898E+02  0.53581583261E+02  0.67171470485E+02  0.89076223638E+02  0.00000000000E+00 0. -1.
         21    1    1    2  505  501  0.77538616813E+02 -0.31287257691E+02 -0.42387412204E+02  0.93743385391E+02  0.00000000000E+00 0. -1.
          1    1    1    2  501    0 -0.73951497123E+02  0.62931845673E+00  0.81619990798E+03  0.81954347643E+03  0.00000000000E+00 0. -1.
<scales pt_clust_3="35.47442" pt_clust_4="54.21903" pt_clust_5="74.05006" pt_clust_6="14000.00000"></scales>
<clustering>
<clus scale="   35.474">  2  3  1 -1</clus>
<clus scale="   54.219">  2  4  1 -1</clus>
<clus scale="   74.050">  2  5  1 -1</clus>
<clus scale="   35.474">  2  3  1 -1</clus>
</clustering>
</event>
<event>
 6    0  0.7258365E+002  0.1131625E+03  0.7546771E-02  0.1254823E+00
          1   -1    0    0  503    0 -0.00000000000E+00  0.00000000000E+00  0.11921096799E+04  0.11921096799E+04  0.00000000000E+00 0. -1.
         21   -1    0    0  501  502  0.00000000000E+00 -0.00000000000E+00 -0.10331280564E+04  0.10331280564E+04  0.00000000000E+00 0.  1.
         21    1    1    2  503  505 -0.49334900250E+02 -0.12894537220E+03  0.75097052802E+01  0.13826509707E+03  0.00000000000E+00 0. -1.
         21    1    1    2  504  502  0.38541259789E+02  0.33487391087E+02 -0.76079254330E+03  0.76250385443E+03  0.00000000000E+00 0.  1.
         21    1    1    2  505  504  0.71535325903E+02  0.33242558435E+02 -0.19679003686E+03  0.21201105903E+03  0.00000000000E+00 0. -1.
          1    1    1    2  501    0 -0.60741685442E+02  0.62215422683E+02  0.11090544984E+04  0.11124577257E+04  0.00000000000E+00 0. -1.
<scales pt_clust_3="14000.00000" pt_clust_4="51.05716" pt_clust_5="113.16249" pt_clust_6="86.93207"></scales>
<clustering>
<clus scale="   51.057">  2  4  1 -1</clus>
<clus scale="   86.932">  1  6  2 -1</clus>
<clus scale="  113.162">  2  5  1 -1</clus>
<clus scale="   51.057">  2  3  1 -1</clus>
</clustering>
</event>
<event>
 6    0  0.7258365E+002  0.3058753E+03  0.7546771E-02  0.1082340E+00
          2   -1    0    0  505    0 -0.00000000000E+00  0.00000000000E+00  0.21907342918E+04  0.21907342918E+04  0.00000000000E+00 0.  1.
         21   -1    0    0  503  502  0.00000000000E+00 -0.00000000000E+00 -0.52720655604E+03  0.52720655604E+03  0.00000000000E+00 0. -1.
         21    1    1    2  503  504  0.59318900298E+02 -0.70581256163E+01 -0.27184262468E+03  0.27832887321E+03  0.00000000000E+00 0. -1.
         21    1    1    2  504  501 -0.31829765213E+03  0.17261227734E+03 -0.87077381590E+02  0.37241222325E+03  0.00000000000E+00 0.  1.
         21    1    1    2  505  502  0.94384377273E+02 -0.54237356380E+02  0.15612406266E+03  0.19032820191E+03  0.00000000000E+00 0. -1.
          2    1    1    2  501    0  0.16459437456E+03 -0.11131679535E+03  0.18663236794E+04  0.18768715495E+04  0.00000000000E+00 0.  1.
<scales pt_clust_3="59.73733" pt_clust_4="305.87525" pt_clust_5="112.59671" pt_clust_6="14000.00000"></scales>
<clustering>
<clus scale="   59.737">  2  3  1 -1</clus>
<clus scale="  112.597">  1  5  2 -1</clus>
<clus scale="  305.875">  2  4  1 -1</clus>
<clus scale="   59.737">  2  3  1 -1</clus>
</clustering>
</event>
<event>
 6    0  0.7258365E+002  0.1016898E+03  0.7546771E-02  0.1276782E+00
         21   -1    0    0  501  502  0.00000000000E+00  0.00000000000E+00  0.76773396469E+02  0.76773396469E+02  0.00000000000E+00 0. -1.
          1   -1    0    0  504    0 -0.00000000000E+00 -0.00000000000E+00 -0.10577349641E+04  0.10577349641E+04  0.00000000000E+00 0. -1.
         21    1    1    2  503  502  0.20758226904E+02  0.28387946323E+02  0.33703266976E+02  0.48710262630E+02  0.00000000000E+00 0. -1.
         21    1    1    2  504  505 -0.10728634289E+03 -0.67135230065E+02 -0.16200605069E+03  0.20558078448E+03  0.00000000000E+00 0. -1.
         21    1    1    2  505  503  0.31350218720E+02 -0.44059672103E+02 -0.57788917531E+02  0.79143224025E+02  0.00000000000E+00 0. -1.
          1    1    1    2  501    0  0.55177897262E+02  0.82806955845E+02 -0.79486986639E+03  0.80107408944E+03  0.00000000000E+00 0. -1.
<scales pt_clust_3="35.16788" pt_clust_4="101.68979" pt_clust_5="51.72345" pt_clust_6="14000.00000"></scales>
<clustering>
<clus scale="   35.168">  1  3  2 -1</clus>
<clus scale="   51.723">  1  5  2 -1</clus>
<clus scale="  101.690">  1  4  2 -1</clus>
<clus scale="   35.168">  1  3  2 -1</clus>
</clustering>
</event>
<event>
 6    0  0.7258365E+002  0.1293432E+03  0.7546771E-02  0.1228434E+00
          1   -1    0    0  503    0 -0.00000000000E+00  0.00000000000E+00  0.25786408411E+04  0.25786408411E+04  0.00000000000E+00 0.  1.
         21   -1    0    0  501  502  0.00000000000E+00 -0.00000000000E+00 -0.44590688041E+02  0.44590688041E+02  0.00000000000E+00 0.  1.
         21    1    1    2  503  504  0.34445611569E+02 -0.14163189812E+03  0.20186817198E+04  0.20239372472E+04  0.00000000000E+00 0.  1.
         21    1    1    2  504  505  0.70401804621E+02  0.66056394824E+02  0.28573886874E+03  0.30160663537E+03  0.00000000000E+00 0.  1.
         21    1    1    2  505  502 -0.34720850041E+02  0.16515315478E+02 -0.11158704183E+02  0.40035106493E+02  0.00000000000E+00 0.  1.
          1    1    1    2  501    0 -0.70126566150E+02  0.59060187821E+02  0.24078826867E+03  0.25765254005E+03  0.00000000000E+00 0.  1.
<scales pt_clust_3="14000.00000" pt_clust_4="91.90801" pt_clust_5="38.44858" pt_clust_6="129.34320"></scales>
<clustering>
<clus scale="   38.449">  2  5  1 -1</clus>
<clus scale="   91.908">  2  4  1 -1</clus>
<clus scale="  129.343">  2  6  1 -1</clus>
<clus scale="   38.449">  2  3  1 -1</clus>
</clustering>
</event>
<event>
 6    0  0.7258365E+002  0.9416628E+02  0.7546771E-02  0.1293065E+00
         21   -1    0    0  504  502  0.00000000000E+00  0.00000000000E+00  0.76438791060E+03  0.76438791060E+03  0.00000000000E+00 0. -1.
         -2   -1    0    0    0  501 -0.00000000000E+00 -0.00000000000E+00 -0.57204099578E+02  0.57204099578E+02  0.00000000000E+00 0. -1.
         21    1    1    2  503  505  0.52004647305E+01 -0.39830351310E+02  0.10027576215E+03  0.10802189683E+03  0.00000000000E+00 0. -1.
         21    1    1    2  504  503 -0.28164692415E+02 -0.12077521932E+02  0.39071448865E+03  0.39191443974E+03  0.00000000000E+00 0. -1.
         21    1    1    2  505  501  0.11231432391E+03  0.41022741902E+02  0.19570569125E+03  0.22934273543E+03  0.00000000000E+00 0. -1.
         -2    1    1    2    0  502 -0.89350096225E+02  0.10885131340E+02  0.20487868966E+02  0.92312938175E+02  0.00000000000E+00 0. -1.
<scales pt_clust_3="43.28391" pt_clust_4="30.64501" pt_clust_5="94.16628" pt_clust_6="14000.00000"></scales>
<clustering>
<clus scale="   30.645">  1  4  2 -1</clus>
<clus scale="   43.284">  1  3  2 -1</clus>
<clus scale="   94.166">  1  5  2 -1</clus>
<clus scale="   30.645">  1  3  2 -1</clus>
</clustering>
</event>
<event>
 6    0  0.7258365E+002  0.8541531E+02  0.7546771E-02  0.1314350E+00
         21   -1    0    0  503  502  0.00000000000E+00  0.00000000000E+00  0.53739202612E+03  0.53739202612E+03  0.00000000000E+00 0. -1.
         -1   -1    0    0    0  501 -0.00000000000E+00 -0.00000000000E+00 -0.21998371132E+03  0.21998371132E+03  0.00000000000E+00 0. -1.
         21    1    1    2  503  501 -0.25799232276E+02  0.24300330467E+02  0.28683243461E+02  0.45594241986E+02  0.00000000000E+00 0.  1.
         21    1    1    2  504  505  0.66858485152E+02  0.88385051912E+02 -0.48153169908E+02  0.12083336547E+03  0.00000000000E+00 0.  1.
         21    1    1    2  505  502 -0.60200795768E+02 -0.39335062703E+02  0.44948555572E+03  0.45520176600E+03  0.00000000000E+00 0. -1.
         -1    1    1    2    0  504  0.19141542892E+02 -0.73350319676E+02 -0.11260731447E+03  0.13574636398E+03  0.00000000000E+00 0. -1.
<scales pt_clust_3="35.44159" pt_clust_4="14000.00000" pt_clust_5="85.41531" pt_clust_6="75.11359"></scales>
<clustering>
<clus scale="   35.442">  1  3  2 -1</clus>
<clus scale="   75.114">  2  6  1 -1</clus>
<clus scale="   85.415">  1  5  2 -1</clus>
<clus scale="   35.442">  1  3  2 -1</clus>
</clustering>
</event>
<event>
 6    0  0.7258365E+002  0.1092586E+03  0.7546771E-02  0.1261949E+00
          4   -1    0    0  505    0 -0.00000000000E+00  0.00000000000E+00  0.49941608635E+03  0.49941608635E+03  0.00000000000E+00 0. -1.
         21   -1    0    0  503  502  0.00000000000E+00 -0.00000000000E+00 -0.12905646271E+03  0.12905646271E+03  0.00000000000E+00 0. -1.
         21    1    1    2  503  504 -0.30482074829E+02 -0.23050505599E+02 -0.70450939605E+02  0.80148721671E+02  0.00000000000E+00 0. -1.
         21    1    1    2  504  501 -0.46864573938E+02 -0.66961291876E+02  0.18819776209E+02  0.83870655635E+02  0.00000000000E+00 0. -1.
         21    1    1    2  505  502 -0.45296886626E+02  0.15258799401E+02  0.75316179423E+02  0.89202947149E+02  0.00000000000E+00 0.  1.
          4    1    1    2  501    0  0.12264353539E+03  0.74752998074E+02  0.34667460762E+03  0.37525022460E+03  0.00000000000E+00 0. -1.
<scales pt_clust_3="38.21626" pt_clust_4="14000.00000" pt_clust_5="50.74276" pt_clust_6="109.25857"></scales>
<clustering>
<clus scale="   38.216">  2  3  1 -1</clus>
<clus scale="   50.743">  1  5  2 -1</clus>
<clus scale="  109.259">  1  6  2 -1</clus>
<clus scale="   38.216">  2  3  1 -1</clus>
</clustering>
</event>
<event>
 6    0  0.7258365E+002  0.9610675E+02  0.7546771E-02  0.1288703E+00
          2   -1    0    0  504    0 -0.00000000000E+00  0.00000000000E+00  0.14770205300E+04  0.14770205300E+04  0.00000000000E+00 0. -1.
         21   -1    0    0  505  502  0.00000000000E+00 -0.00000000000E+00 -0.15462052673E+04  0.15462052673E+04  0.00000000000E+00 0.  1.
         21    1    1    2  503  502  0.12832708980E+03 -0.68665860086E+02 -0.13258842086E+04  0.13338484835E+04  0.00000000000E+00 0.  1.
         21    1    1    2  504  503 -0.16161212634E+02  0.82793756887E+02  0.95307539757E+01  0.84893028245E+02  0.00000000000E+00 0.  1.
         21    1    1    2  505  501 -0.71151028977E+02 -0.12034577356E+02 -0.17106169953E+03  0.18565937903E+03  0.00000000000E+00 0.  1.
          2    1    1    2  501    0 -0.41014848191E+02 -0.20933194457E+01  0.14182304170E+04  0.14188249065E+04  0.00000000000E+00 0. -1.
<scales pt_clust_3="14000.00000" pt_clust_4="96.10675" pt_clust_5="77.25371" pt_clust_6="41.06823"></scales>
<clustering>
<clus scale="   41.068">  1  6  2 -1</clus>
<clus scale="   77.254">  2  5  1 -1</clus>
<clus scale="   96.107">  1  4  2 -1</clus>
<clus scale="   77.254">  2  3  1 -1</clus>
</clustering>
</event>
<event>
 6    0  0.7258365E+002  0.6689944E+02  0.7546771E-02  0.1370966E+00
          1   -1    0    0  504    0 -0.00000000000E+00  0.00000000000E+00  0.87059950106E+03  0.87059950106E+03  0.00000000000E+00 0.  1.
         21   -1    0    0  505  502  0.00000000000E+00 -0.00000000000E+00 -0.35368370853E+03  0.35368370853E+03  0.00000000000E+00 0.  1.
         21    1    1    2  503  502  0.19199122655E+02  0.91814523743E+02 -0.32128809232E+03  0.33470068920E+03  0.00000000000E+00 0.  1.
         21    1    1    2  504  503  0.23657118546E+02 -0.32304722940E+02  0.77646842645E+02  0.87362958712E+02  0.00000000000E+00 0.  1.
         21    1    1    2  505  501  0.28481256594E+02 -0.44761369980E+02  0.17891442763E+02  0.55989873582E+02  0.00000000000E+00 0.  1.
          1    1    1    2  501    0 -0.71337497795E+02 -0.14748430824E+02  0.74266559944E+03  0.74622968810E+03  0.00000000000E+00 0.  1.
<scales pt_clust_3="66.89944" pt_clust_4="40.04066" pt_clust_5="54.92730" pt_clust_6="14000.00000"></scales>
<clustering>
<clus scale="   40.041">  1  4  2 -1</clus>
<clus scale="   54.927">  2  5  1 -1</clus>
<clus scale="   66.899">  2  3  1 -1</clus>
<clus scale="   54.927">  2  3  1 -1</clus>
</clustering>
</event>
<event>
 6    0  0.7258365E+002  0.7395278E+02  0.7546771E-02  0.1347145E+00
          1   -1    0    0  504    0 -0.00000000000E+00  0.00000000000E+00  0.90675204706E+03  0.90675204706E+03  0.00000000000E+00 0.  1.
         21   -1    0    0  505  502  0.00000000000E+00 -0.00000000000E+00 -0.13697999249E+04  0.13697999249E+04  0.00000000000E+00 0.  1.
         21    1    1    2  503  501  0.48119855919E+01  0.54664149456E+02 -0.40674383310E+01  0.55026071055E+02  0.00000000000E+00 0. -1.
         21    1    1    2  504  502  0.42790262916E+02  0.31831701881E+02  0.22718523203E+03  0.23336107965E+03  0.00000000000E+00 0. -1.
         21    1    1    2  505  503  0.33605136472E+02 -0.67130127495E+02 -0.13334285786E+04  0.13355401654E+04  0.00000000000E+00 0.  1.
          1    1    1    2  501    0 -0.81207384981E+02 -0.19365723843E+02  0.64726290703E+03  0.65262465587E+03  0.00000000000E+00 0.  1.
<scales pt_clust_3="73.95278" pt_clust_4="53.33164" pt_clust_5="14000.00000" pt_clust_6="41.63514"></scales>
<clustering>
<clus scale="   53.332">  1  4  2 -1</clus>
<clus scale="   41.635">  1  6  2 -1</clus>
<clus scale="   73.953">  1  3  2 -1</clus>
<clus scale="   73.953">  2  3  1 -1</clus>
</clustering>
</event>
<event>
 6    0  0.7258365E+002  0.8338604E+02  0.7546771E-02  0.1319708E+00
         21   -1    0    0  503  502  0.00000000000E+00  0.00000000000E+00  0.16355365642E+04  0.16355365642E+04  0.00000000000E+00 0. -1.
          4   -1    0    0  504    0 -0.00000000000E+00 -0.00000000000E+00 -0.71465782487E+03  0.71465782487E+03  0.00000000000E+00 0.  1.
         21    1    1    2  503  505  0.77905981323E+01  0.47242140768E+02  0.15471609847E+04  0.15479016848E+04  0.00000000000E+00 0. -1.
         21    1    1    2  504  502  0.10001749539E+03  0.50226230988E+01 -0.14855437398E+03  0.17915671396E+03  0.00000000000E+00 0.  1.
         21    1    1    2  505  501 -0.86104484253E+02 -0.25123177934E+02  0.44240587163E+02  0.10001192844E+03  0.00000000000E+00 0.  1.
          4    1    1    2  501    0 -0.21703609270E+02 -0.27141585933E+02 -0.52196845857E+03  0.52312406185E+03  0.00000000000E+00 0.  1.
<scales pt_clust_3="47.82177" pt_clust_4="14000.00000" pt_clust_5="83.38604" pt_clust_6="34.75216"></scales>
<clustering>
<clus scale="   34.752">  2  6  1 -1</clus>
<clus scale="   47.822">  1  3  2 -1</clus>
<clus scale="   83.386">  1  5  2 -1</clus>
<clus scale="   47.822">  1  3  2 -1</clus>
</clustering>
</event>
<event>
 6    0  0.7258365E+002  0.7035911E+02  0.7546771E-02  0.1358876E+00
         21   -1    0    0  505  502  0.00000000000E+00  0.00000000000E+00  0.92194860295E+03  0.92194860295E+03  0.00000000000E+00 0. -1.
          4   -1    0    0  503    0 -0.00000000000E+00 -0.00000000000E+00 -0.97185631931E+02  0.97185631931E+02  0.00000000000E+00 0.  1.
         21    1    1    2  503  502  0.44190075347E+02 -0.66378249309E+01  0.37462410639E+03  0.37727979613E+03  0.00000000000E+00 0. -1.
         21    1    1    2  504  501 -0.78568943987E+02 -0.11627425688E+02  0.10281775924E+03  0.12992215978E+03  0.00000000000E+00 0.  1.
         21    1    1    2  505  504 -0.26835484362E+02  0.54762659238E+02  0.41151850627E+03  0.41601270782E+03  0.00000000000E+00 0. -1.
          4    1    1    2  501    0  0.61214353002E+02 -0.36497408619E+02 -0.64197400880E+02  0.95919571148E+02  0.00000000000E+00 0.  1.
<scales pt_clust_3="44.68583" pt_clust_4="14000.00000" pt_clust_5="50.17537" pt_clust_6="70.35911"></scales>
<clustering>
<clus scale="   44.686">  1  3  2 -1</clus>
<clus scale="   50.175">  1  5  2 -1</clus>
<clus scale="   70.359">  2  6  1 -1</clus>
<clus scale="   44.686">  1  3  2 -1</clus>
</clustering>
</event>
<event>
 6    0  0.7258365E+002  0.7069244E+02  0.7546771E-02  0.1357754E+00
         21   -1    0    0  504  502  0.00000000000E+00  0.00000000000E+00  0.97315913074E+03  0.97315913074E+03  0.00000000000E+00 0.  1.
          2   -1    0    0  505    0 -0.00000000000E+00 -0.00000000000E+00 -0.21373367309E+04  0.21373367309E+04  0.00000000000E+00 0. -1.
         21    1    1    2  503  502  0.48445750080E+02 -0.51494951534E+02  0.95798129949E+03  0.96058674304E+03  0.00000000000E+00 0.  1.
         21    1    1    2  504  501  0.24306088861E+02  0.31863714670E+02 -0.18028611938E+03  0.18468667280E+03  0.00000000000E+00 0. -1.
         21    1    1    2  505  503 -0.10458479320E+03 -0.39769928075E+01 -0.22780833689E+03  0.25069988791E+03  0.00000000000E+00 0. -1.
          2    1    1    2  501    0  0.31832954258E+02  0.23608229671E+02 -0.17140644434E+04  0.17145225579E+04  0.00000000000E+00 0. -1.
<scales pt_clust_3="70.69244" pt_clust_4="56.69975" pt_clust_5="14000.00000" pt_clust_6="39.63187"></scales>
<clustering>
<clus scale="   39.632">  2  6  1 -1</clus>
<clus scale="   56.700">  2  4  1 -1</clus>
<clus scale="   70.692">  1  3  2 -1</clus>
<clus scale="   70.692">  1  3  2 -1</clus>
</clustering>
</event>
<event>
 6    0  0.7258365E+002  0.1447495E+03  0.7546771E-02  0.1207077E+00
         21   -1    0    0  503  502  0.00000000000E+00  0.00000000000E+00  0.24905281512E+03  0.24905281512E+03  0.00000000000E+00 0. -1.
          2   -1    0    0  502    0 -0.00000000000E+00 -0.00000000000E+00 -0.74645225210E+03  0.74645225210E+03  0.00000000000E+00 0. -1.
         21    1    1    2  503  504  0.64520586315E+02 -0.40843399898E+02  0.62585736961E+02  0.98732283700E+02  0.00000000000E+00 0. -1.
         21    1    1    2  504  505  0.53755217123E+02 -0.19612524478E+02  0.13317157095E+03  0.14494461630E+03  0.00000000000E+00 0. -1.
         21    1    1    2  505  501 -0.89957874116E+02  0.10585217049E+03 -0.14404220820E+03  0.20011311515E+03  0.00000000000E+00 0. -1.
          2    1    1    2  501    0 -0.28317929323E+02 -0.45396246109E+02 -0.54911453668E+03  0.55171505207E+03  0.00000000000E+00 0. -1.
<scales pt_clust_3="50.57506" pt_clust_4="50.57506" pt_clust_5="132.43488" pt_clust_6="53.50443"></scales>
<clustering>
<clus scale="   50.575">  3  4 -1 -1</clus>
<clus scale="   53.504">  2  6  1 -1</clus>
<clus scale="  132.435">  2  5  1 -1</clus>
<clus scale="  144.750">  1  3  2 -1</clus>
</clustering>
</event>
<event>
 6    0  0.7258365E+002  0.9039598E+02  0.7546771E-02  0.1301896E+00
         21   -1    0    0  503  502  0.00000000000E+00  0.00000000000E+00  0.21222460356E+03  0.21222460356E+03  0.00000000000E+00 0. -1.
          2   -1    0    0  504    0 -0.00000000000E+00 -0.00000000000E+00 -0.31101460527E+03  0.31101460527E+03  0.00000000000E+00 0. -1.
         21    1    1    2  503  505  0.37175106251E+02 -0.22296007258E+02  0.10270419841E+03  0.11147758893E+03  0.00000000000E+00 0. -1.
         21    1    1    2  504  502  0.13069568175E+02  0.53335972651E+02  0.58284033439E+02  0.80078512379E+02  0.00000000000E+00 0.  1.
         21    1    1    2  505  501  0.46976258785E+02 -0.59317212868E+02 -0.31504407868E+02  0.81962359330E+02  0.00000000000E+00 0. -1.
          2    1    1    2  501    0 -0.97220933211E+02  0.28277247474E+02 -0.22827382569E+03  0.24972074819E+03  0.00000000000E+00 0. -1.
<scales pt_clust_3="43.34859" pt_clust_4="53.88498" pt_clust_5="14000.00000" pt_clust_6="90.39598"></scales>
<clustering>
<clus scale="   43.349">  1  3  2 -1</clus>
<clus scale="   53.885">  1  4  2 -1</clus>
<clus scale="   90.396">  2  6  1 -1</clus>
<clus scale="   43.349">  1  3  2 -1</clus>
</clustering>
</event>
<event>
 6    0  0.7258365E+002  0.1064186E+03  0.7546771E-02  0.1267350E+00
          2   -1    0    0  505    0 -0.00000000000E+00  0.00000000000E+00  0.19995789772E+04  0.19995789772E+04  0.00000000000E+00 0. -1.
         21   -1    0    0  501  502  0.00000000000E+00 -0.00000000000E+00 -0.13149188415E+03  0.13149188415E+03  0.00000000000E+00 0. -1.
         21    1    1    2  503  504 -0.47489479925E+02 -0.24319155895E+02  0.54165169320E+02  0.76029846866E+02  0.00000000000E+00 0. -1.
         21    1    1    2  504  502  0.60819300808E+02 -0.26621945618E+02 -0.93044548635E+02  0.11430224569E+03  0.00000000000E+00 0. -1.
         21    1    1    2  505  503 -0.98161595849E+02  0.86267196605E+01  0.13983920727E+03  0.17107052079E+03  0.00000000000E+00 0. -1.
          2    1    1    2  501    0  0.84831774966E+02  0.42314381852E+02  0.17671272651E+04  0.17696682480E+04  0.00000000000E+00 0. -1.
<scales pt_clust_3="32.58000" pt_clust_4="66.39063" pt_clust_5="32.58000" pt_clust_6="96.77036"></scales>
<clustering>
<clus scale="   32.580">  3  5 -1 -1</clus>
<clus scale="   66.391">  2  4  1 -1</clus>
<clus scale="   96.770">  1  6  2 -1</clus>
<clus scale="   66.391">  2  3  1 -1</clus>
</clustering>
</event>
<event>
 6    0  0.7258365E+002  0.1144457E+03  0.7546771E-02  0.1252552E+00
         21   -1    0    0  505  502  0.00000000000E+00  0.00000000000E+00  0.33007358072E+03  0.33007358072E+03  0.00000000000E+00 0. -1.
          2   -1    0    0  503    0 -0.00000000000E+00 -0.00000000000E+00 -0.90158976463E+03  0.90158976463E+03  0.00000000000E+00 0. -1.
         21    1    1    2  503  502  0.28477492522E+02 -0.59844285909E+02  0.14530021042E+03  0.15970114992E+03  0.00000000000E+00 0. -1.
         21    1    1    2  504  501  0.36974375908E+02 -0.33405848364E+02 -0.43856694289E+02  0.66381208280E+02  0.00000000000E+00 0. -1.
         21    1    1    2  505  504 -0.31104984120E+02 -0.17261595169E+02  0.16036286216E+03  0.16426116481E+03  0.00000000000E+00 0. -1.
          2    1    1    2  501    0 -0.34346884310E+02  0.11051172944E+03 -0.83332256220E+03  0.84131982235E+03  0.00000000000E+00 0. -1.
<scales pt_clust_3="114.44569" pt_clust_4="49.10972" pt_clust_5="35.57362" pt_clust_6="14000.00000"></scales>
<clustering>
<clus scale="   35.574">  1  5  2 -1</clus>
<clus scale="   49.110">  1  4  2 -1</clus>
<clus scale="  114.446">  1  3  2 -1</clus>
<clus scale="   35.574">  1  3  2 -1</clus>
</clustering>
</event>
<event>
 6    0  0.7258365E+002  0.7832108E+02  0.7546771E-02  0.1333885E+00
         21   -1    0    0  505  502  0.00000000000E+00  0.00000000000E+00  0.12846927060E+03  0.12846927060E+03  0.00000000000E+00 0. -1.
          3   -1    0    0  504    0 -0.00000000000E+00 -0.00000000000E+00 -0.99532208539E+03  0.99532208539E+03  0.00000000000E+00 0. -1.
         21    1    1    2  503  501  0.87056728864E+02 -0.59091081290E+02  0.42870291487E+02  0.11361554392E+03  0.00000000000E+00 0. -1.
         21    1    1    2  504  502  0.16207068902E+02  0.30109456855E+02 -0.86966253524E+01  0.35282853725E+02  0.00000000000E+00 0. -1.
         21    1    1    2  505  503 -0.39667678345E+02 -0.15763179591E+02  0.22395112185E+02  0.48203149128E+02  0.00000000000E+00 0. -1.
          3    1    1    2  501    0 -0.63596119421E+02  0.44744804027E+02 -0.92342159311E+03  0.92668980922E+03  0.00000000000E+00 0. -1.
<scales pt_clust_3="14000.00000" pt_clust_4="34.19428" pt_clust_5="35.31058" pt_clust_6="78.32108"></scales>
<clustering>
<clus scale="   34.194">  1  4  2 -1</clus>
<clus scale="   35.311">  1  5  2 -1</clus>
<clus scale="   78.321">  2  6  1 -1</clus>
<clus scale="   34.194">  1  3  2 -1</clus>
</clustering>
</event>
<event>
 6    0  0.7258365E+002  0.7539802E+02  0.7546771E-02  0.1342643E+00
          1   -1    0    0  505    0 -0.00000000000E+00  0.00000000000E+00  0.13212443198E+04  0.13212443198E+04  0.00000000000E+00 0.  1.
         21   -1    0    0  504  502  0.00000000000E+00 -0.00000000000E+00 -0.62577283225E+02  0.62577283225E+02  0.00000000000E+00 0. -1.
         21    1    1    2  503  502  0.76163639520E+02  0.73250163617E+01  0.67560226511E+02  0.10207320930E+03  0.00000000000E+00 0. -1.
         21    1    1    2  504  501 -0.39160134313E+02 -0.67890428581E+02  0.28600379872E+01  0.78427075871E+02  0.00000000000E+00 0. -1.
         21    1    1    2  505  503 -0.32098443861E+02  0.98715889161E+02  0.37319478700E+03  0.38736221539E+03  0.00000000000E+00 0. -1.
          1    1    1    2  501    0 -0.49050613455E+01 -0.38150476941E+02  0.81505198511E+03  0.81595910250E+03  0.00000000000E+00 0.  1.
<scales pt_clust_3="75.34672" pt_clust_4="14000.00000" pt_clust_5="75.39802" pt_clust_6="38.46451"></scales>
<clustering>
<clus scale="   38.465">  1  6  2 -1</clus>
<clus scale="   75.347">  2  3  1 -1</clus>
<clus scale="   75.398">  1  5  2 -1</clus>
<clus scale="   75.347">  2  3  1 -1</clus>
</clustering>
</event>
<event>
 6    0  0.7258365E+002  0.1000845E+03  0.7546771E-02  0.1280118E+00
          2   -1    0    0  504    0 -0.00000000000E+00  0.00000000000E+00  0.25038060089E+04  0.25038060089E+04  0.00000000000E+00 0. -1.
         21   -1    0    0  503  502  0.00000000000E+00 -0.00000000000E+00 -0.15370645831E+02  0.15370645831E+02  0.00000000000E+00 0. -1.
         21    1    1    2  503  505 -0.38352710795E+01 -0.88632909118E+02  0.24713735271E+03  0.26257831781E+03  0.00000000000E+00 0. -1.
         21    1    1    2  504  502  0.68922181387E+02 -0.22850755551E+02  0.27161324434E+03  0.28115152253E+03  0.00000000000E+00 0.  1.
         21    1    1    2  505  501 -0.39244702602E+02  0.85324647629E+02  0.85261128536E+03  0.85776829394E+03  0.00000000000E+00 0. -1.
          2    1    1    2  501    0 -0.25842207705E+02  0.26159017039E+02  0.11170734806E+04  0.11176785204E+04  0.00000000000E+00 0. -1.
<scales pt_clust_3="14000.00000" pt_clust_4="66.16431" pt_clust_5="100.08448" pt_clust_6="36.77110"></scales>
<clustering>
<clus scale="   36.771">  1  6  2 -1</clus>
<clus scale="   66.164">  2  4  1 -1</clus>
<clus scale="  100.084">  1  5  2 -1</clus>
<clus scale="   66.164">  2  3  1 -1</clus>
</clustering>
</event>
<event>
 6    0  0.7258365E+002  0.9033927E+02  0.7546771E-02  0.1302032E+00
         21   -1    0    0  501  502  0.00000000000E+00  0.00000000000E+00  0.21648103763E+04  0.21648103763E+04  0.00000000000E+00 0.  1.
          2   -1    0    0  505    0 -0.00000000000E+00 -0.00000000000E+00 -0.36763505839E+04  0.36763505839E+04  0.00000000000E+00 0.  1.
         21    1    1    2  503  502 -0.57743951956E+02 -0.27725899877E+02  0.16264163903E+04  0.16276772911E+04  0.00000000000E+00 0.  1.
         21    1    1    2  504  503  0.84606643084E+02  0.12966752477E+02  0.22025898702E+03  0.23630582322E+03  0.00000000000E+00 0.  1.
         21    1    1    2  505  504  0.14469591341E+02  0.95086921328E+02  0.30143733517E+03  0.31641011159E+03  0.00000000000E+00 0.  1.
          2    1    1    2  501    0 -0.41332282469E+02 -0.80327773927E+02 -0.36596529201E+04  0.36607677342E+04  0.00000000000E+00 0.  1.
<scales pt_clust_3="64.05536" pt_clust_4="60.10606" pt_clust_5="90.33927" pt_clust_6="14000.00000"></scales>
<clustering>
<clus scale="   64.055">  1  3  2 -1</clus>
<clus scale="   60.106">  1  4  2 -1</clus>
<clus scale="   90.339">  1  5  2 -1</clus>
<clus scale="   64.055">  1  3  2 -1</clus>
</clustering>
</event>
<event>
 6    0  0.7258365E+002  0.1318815E+03  0.7546771E-02  0.1224690E+00
          2   -1    0    0  505    0 -0.00000000000E+00  0.00000000000E+00  0.19955924981E+04  0.19955924981E+04  0.00000000000E+00 0.  1.
         21   -1    0    0  504  502  0.00000000000E+00 -0.00000000000E+00 -0.27986199634E+02  0.27986199634E+02  0.00000000000E+00 0. -1.
         21    1    1    2  503  502  0.22152164594E+02 -0.17478961876E+03  0.37826916857E+03  0.41728850105E+03  0.00000000000E+00 0. -1.
         21    1    1    2  504  501 -0.54373353889E+01  0.89327536958E+02  0.37643550026E+03  0.38692720159E+03  0.00000000000E+00 0.  1.
         21    1    1    2  505  503  0.34348476461E+02  0.55906983299E+02  0.70463744587E+03  0.70768590402E+03  0.00000000000E+00 0. -1.
          2    1    1    2  501    0 -0.51063305666E+02  0.29555098500E+02  0.50826418380E+03  0.51167709111E+03  0.00000000000E+00 0.  1.
<scales pt_clust_3="131.88150" pt_clust_4="14000.00000" pt_clust_5="70.67742" pt_clust_6="58.99970"></scales>
<clustering>
<clus scale="   59.000">  1  6  2 -1</clus>
<clus scale="   70.677">  1  5  2 -1</clus>
<clus scale="  131.882">  1  3  2 -1</clus>
<clus scale="  131.882">  2  3  1 -1</clus>
</clustering>
</event>
<event>
 6    0  0.7258365E+002  0.7440649E+02  0.7546771E-02  0.1345719E+00
          4   -1    0    0  502    0 -0.00000000000E+00  0.00000000000E+00  0.98442969241E+02  0.98442969241E+02  0.00000000000E+00 0. -1.
         21   -1    0    0  503  502  0.00000000000E+00 -0.00000000000E+00 -0.72802760556E+03  0.72802760556E+03  0.00000000000E+00 0.  1.
         21    1    1    2  503  505 -0.37752909214E+02  0.46644200698E+02 -0.57191539348E+03  0.57505493730E+03  0.00000000000E+00 0.  1.
         21    1    1    2  504  501  0.35583100675E+02  0.81308084425E+02 -0.48884893612E+02  0.10132568514E+03  0.00000000000E+00 0. -1.
         21    1    1    2  505  504  0.18947779042E+02 -0.79909820379E+02 -0.38991647900E+02  0.90911750228E+02  0.00000000000E+00 0. -1.
          4    1    1    2  501    0 -0.16777970503E+02 -0.48042464744E+02  0.30207298680E+02  0.59178202122E+02  0.00000000000E+00 0. -1.
<scales pt_clust_3="59.23917" pt_clust_4="74.40649" pt_clust_5="14000.00000" pt_clust_6="50.88790"></scales>
<clustering>
<clus scale="   50.888">  1  6  2 -1</clus>
<clus scale="   59.239">  2  3  1 -1</clus>
<clus scale="   74.406">  1  4  2 -1</clus>
<clus scale="   59.239">  2  3  1 -1</clus>
</clustering>
</event>
<event>
 6    0  0.7258365E+002  0.7709652E+02  0.7546771E-02  0.1337499E+00
          2   -1    0    0  504    0 -0.00000000000E+00  0.00000000000E+00  0.86056877281E+03  0.86056877281E+03  0.00000000000E+00 0.  1.
         21   -1    0    0  501  502  0.00000000000E+00 -0.00000000000E+00 -0.18382781061E+03  0.18382781061E+03  0.00000000000E+00 0. -1.
         21    1    1    2  503  505 -0.20704582020E+02  0.12076393779E+03  0.73118919798E+02  0.14268491447E+03  0.00000000000E+00 0. -1.
         21    1    1    2  504  503 -0.23302317430E+02 -0.29366373646E+02  0.31951473746E+03  0.32170646458E+03  0.00000000000E+00 0.  1.
         21    1    1    2  505  502 -0.28475620101E+02 -0.64434997131E+02 -0.13582723965E+03  0.15300904818E+03  0.00000000000E+00 0. -1.
          2    1    1    2  501    0  0.72482519551E+02 -0.26962567009E+02  0.41993454459E+03  0.42699615619E+03  0.00000000000E+00 0.  1.
<scales pt_clust_3="77.09652" pt_clust_4="37.48842" pt_clust_5="71.02402" pt_clust_6="14000.00000"></scales>
<clustering>
<clus scale="   37.488">  1  4  2 -1</clus>
<clus scale="   71.024">  2  5  1 -1</clus>
<clus scale="   77.097">  2  3  1 -1</clus>
<clus scale="   71.024">  2  3  1 -1</clus>
</clustering>
</event>
<event>
 6    0  0.7258365E+002  0.1088421E+03  0.7546771E-02  0.1262729E+00
         21   -1    0    0  503  502  0.00000000000E+00  0.00000000000E+00  0.74327527419E+03  0.74327527419E+03  0.00000000000E+00 0. -1.
          2   -1    0    0  505    0 -0.00000000000E+00 -0.00000000000E+00 -0.22918073418E+03  0.22918073418E+03  0.00000000000E+00 0. -1.
         21    1    1    2  503  501 -0.43819242910E+02 -0.54350444739E+02  0.55254142940E+03  0.55693458152E+03  0.00000000000E+00 0. -1.
         21    1    1    2  504  502 -0.56592811662E+02 -0.10915152430E+02  0.11917976102E+03  0.13238467555E+03  0.00000000000E+00 0. -1.
         21    1    1    2  505  504  0.46310519181E+02  0.93888779359E+02  0.95346989563E+01  0.10512220299E+03  0.00000000000E+00 0. -1.
          2    1    1    2  501    0  0.54101535390E+02 -0.28623182190E+02 -0.16716134936E+03  0.17801454831E+03  0.00000000000E+00 0. -1.
<scales pt_clust_3="14000.00000" pt_clust_4="57.63581" pt_clust_5="108.84209" pt_clust_6="60.81280"></scales>
<clustering>
<clus scale="   57.636">  1  4  2 -1</clus>
<clus scale="   60.813">  2  6  1 -1</clus>
<clus scale="  108.842">  2  5  1 -1</clus>
<clus scale="   57.636">  1  3  2 -1</clus>
</clustering>
</event>
<event>
 6    0  0.7258365E+002  0.1028756E+03  0.7546771E-02  0.1274363E+00
          2   -1    0    0  505    0 -0.00000000000E+00  0.00000000000E+00  0.16514158880E+04  0.16514158880E+04  0.00000000000E+00 0. -1.
         21   -1    0    0  503  502  0.00000000000E+00 -0.00000000000E+00 -0.24559436138E+03  0.24559436138E+03  0.00000000000E+00 0. -1.
         21    1    1    2  503  501  0.70718818646E+01 -0.32677835460E+02  0.56890049631E+01  0.33914852512E+02  0.00000000000E+00 0.  1.
         21    1    1    2  504  502 -0.71388782318E+02 -0.56560861962E+02 -0.17026268414E+03  0.19309290758E+03  0.00000000000E+00 0. -1.
         21    1    1    2  505  504  0.92052826654E+02  0.53755338476E+02  0.79357057645E+01  0.10689403508E+03  0.00000000000E+00 0. -1.
          2    1    1    2  501    0 -0.27735926201E+02  0.35483358946E+02  0.15624595000E+04  0.15631084542E+04  0.00000000000E+00 0. -1.
<scales pt_clust_3="33.43430" pt_clust_4="14000.00000" pt_clust_5="102.87561" pt_clust_6="44.99502"></scales>
<clustering>
<clus scale="   33.434">  2  3  1 -1</clus>
<clus scale="   44.995">  1  6  2 -1</clus>
<clus scale="  102.876">  1  5  2 -1</clus>
<clus scale="   33.434">  2  3  1 -1</clus>
</clustering>
</event>
<event>
 6    0  0.7258365E+002  0.9606824E+02  0.7546771E-02  0.1288788E+00
          2   -1    0    0  505    0 -0.00000000000E+00  0.00000000000E+00  0.92170382265E+03  0.92170382265E+03  0.00000000000E+00 0.  1.
         21   -1    0    0  503  502  0.00000000000E+00 -0.00000000000E+00 -0.39120231871E+03  0.39120231871E+03  0.00000000000E+00 0.  1.
         21    1    1    2  503  501  0.77293441789E+02 -0.24972770226E+02 -0.24631322865E+03  0.25936098783E+03  0.00000000000E+00 0.  1.
         21    1    1    2  504  502  0.14707940328E+02  0.43414552737E+02 -0.76799463114E+02  0.89438830675E+02  0.00000000000E+00 0.  1.
         21    1    1    2  505  504 -0.38996152232E+02  0.62614838982E+02 -0.26723904838E+02  0.78456899247E+02  0.00000000000E+00 0.  1.
          2    1    1    2  501    0 -0.53005229886E+02 -0.81056621492E+02  0.88033810054E+03  0.88564942361E+03  0.00000000000E+00 0.  1.
<scales pt_clust_3="14000.00000" pt_clust_4="45.83827" pt_clust_5="78.96076" pt_clust_6="96.06824"></scales>
<clustering>
<clus scale="   45.838">  2  4  1 -1</clus>
<clus scale="   78.961">  2  5  1 -1</clus>
<clus scale="   96.068">  1  6  2 -1</clus>
<clus scale="   45.838">  2  3  1 -1</clus>
</clustering>
</event>
<event>
 6    0  0.7258365E+002  0.9068468E+02  0.7546771E-02  0.1301202E+00
         21   -1    0    0  504  502  0.00000000000E+00  0.00000000000E+00  0.31255103384E+03  0.31255103384E+03  0.00000000000E+00 0. -1.
          2   -1    0    0  503    0 -0.00000000000E+00 -0.00000000000E+00 -0.65619682559E+03  0.65619682559E+03  0.00000000000E+00 0. -1.
         21    1    1    2  503  502 -0.90230065367E+02  0.39279602768E+02  0.26229714831E+03  0.28015022024E+03  0.00000000000E+00 0. -1.
         21    1    1    2  504  505  0.30512038007E+02  0.96400027940E+01 -0.12234371095E+01  0.32022037967E+02  0.00000000000E+00 0.  1.
         21    1    1    2  505  501  0.12423477584E+03  0.11013221339E+02 -0.15817928670E+03  0.20143549169E+03  0.00000000000E+00 0.  1.
          2    1    1    2  501    0 -0.64516748482E+02 -0.59932826900E+02 -0.44654021625E+03  0.45514010953E+03  0.00000000000E+00 0. -1.
<scales pt_clust_3="78.75816" pt_clust_4="31.99866" pt_clust_5="90.68468" pt_clust_6="14000.00000"></scales>
<clustering>
<clus scale="   31.999">  1  4  2 -1</clus>
<clus scale="   78.758">  1  3  2 -1</clus>
<clus scale="   90.685">  1  5  2 -1</clus>
<clus scale="   31.999">  1  3  2 -1</clus>
</clustering>
</event>
<event>
 6    0  0.7258365E+002  0.8072461E+02  0.7546771E-02  0.1327008E+00
         21   -1    0    0  504  502  0.00000000000E+00  0.00000000000E+00  0.35764473595E+02  0.35764473595E+02  0.00000000000E+00 0.  1.
          2   -1    0    0  503    0 -0.00000000000E+00 -0.00000000000E+00 -0.15692690610E+04  0.15692690610E+04  0.00000000000E+00 0.  1.
         21    1    1    2  503  505  0.79576604293E+02  0.37093509756E+02 -0.74655935792E+03  0.75170422329E+03  0.00000000000E+00 0.  1.
         21    1    1    2  504  501 -0.42664957087E+02  0.54999250195E+02 -0.17131828352E+02  0.71684835411E+02  0.00000000000E+00 0.  1.
         21    1    1    2  505  502 -0.43615882468E+02 -0.28441123267E+02 -0.15507796509E+03  0.16358611785E+03  0.00000000000E+00 0.  1.
          2    1    1    2  501    0  0.67042352616E+01 -0.63651636684E+02 -0.61473543608E+03  0.61805835808E+03  0.00000000000E+00 0.  1.
<scales pt_clust_3="14000.00000" pt_clust_4="80.72461" pt_clust_5="52.06959" pt_clust_6="65.29997"></scales>
<clustering>
<clus scale="   52.070">  1  5  2 -1</clus>
<clus scale="   65.300">  2  6  1 -1</clus>
<clus scale="   80.725">  1  4  2 -1</clus>
<clus scale="   52.070">  1  3  2 -1</clus>
</clustering>
</event>
<event>
 6    0  0.7258365E+002  0.1123724E+03  0.7546771E-02  0.1256239E+00
         21   -1    0    0  501  502  0.00000000000E+00  0.00000000000E+00  0.40007955340E+03  0.40007955340E+03  0.00000000000E+00 0.  1.
          2   -1    0    0  504    0 -0.00000000000E+00 -0.00000000000E+00 -0.17865009325E+04  0.17865009325E+04  0.00000000000E+00 0. -1.
         21    1    1    2  503  505 -0.37916149011E+02  0.46861751596E+02 -0.21609309010E+03  0.22434322301E+03  0.00000000000E+00 0.  1.
         21    1    1    2  504  503 -0.17435199679E+02 -0.27469805562E+02 -0.53895278153E+02  0.62954566257E+02  0.00000000000E+00 0.  1.
         21    1    1    2  505  502  0.10472627740E+03  0.41396432478E+02  0.38228184776E+03  0.39852310965E+03  0.00000000000E+00 0.  1.
          2    1    1    2  501    0 -0.49374928709E+02 -0.60788378511E+02 -0.14987148586E+04  0.15007595870E+04  0.00000000000E+00 0. -1.
<scales pt_clust_3="59.08678" pt_clust_4="32.53577" pt_clust_5="112.37245" pt_clust_6="14000.00000"></scales>
<clustering>
<clus scale="   32.536">  2  4  1 -1</clus>
<clus scale="   59.087">  2  3  1 -1</clus>
<clus scale="  112.372">  1  5  2 -1</clus>
<clus scale="  112.372">  1  3  2 -1</clus>
</clustering>
</event>
<event>
 6    0  0.7258365E+002  0.7109873E+02  0.7546771E-02  0.1356396E+00
         21   -1    0    0  504  502  0.00000000000E+00  0.00000000000E+00  0.14966574670E+03  0.14966574670E+03  0.00000000000E+00 0.  1.
          1   -1    0    0  503    0 -0.00000000000E+00 -0.00000000000E+00 -0.96548326772E+03  0.96548326772E+03  0.00000000000E+00 0.  1.
         21    1    1    2  503  502 -0.72563123252E+02 -0.11605141759E+03  0.47306300507E+01  0.13695151420E+03  0.00000000000E+00 0.  1.
         21    1    1    2  504  505 -0.67507624745E+01  0.31128931196E+02  0.44341208034E+02  0.54596024409E+02  0.00000000000E+00 0.  1.
         21    1    1    2  505  501  0.38147334538E+02  0.28540731378E+02  0.76683419855E+01  0.48255527650E+02  0.00000000000E+00 0.  1.
          1    1    1    2  501    0  0.41166551188E+02  0.56381755020E+02 -0.87255770109E+03  0.87534594817E+03  0.00000000000E+00 0.  1.
<scales pt_clust_3="71.09873" pt_clust_4="31.85252" pt_clust_5="51.97064" pt_clust_6="14000.00000"></scales>
<clustering>
<clus scale="   31.853">  1  4  2 -1</clus>
<clus scale="   51.971">  1  5  2 -1</clus>
<clus scale="   71.099">  1  3  2 -1</clus>
<clus scale="   31.853">  1  3  2 -1</clus>
</clustering>
</event>
<event>
 6    0  0.7258365E+002  0.1188068E+03  0.7546771E-02  0.1245079E+00
          1   -1    0    0  505    0 -0.00000000000E+00  0.00000000000E+00  0.67908184758E+03  0.67908184758E+03  0.00000000000E+00 0.  1.
         21   -1    0    0  503  502  0.00000000000E+00 -0.00000000000E+00 -0.23524930450E+03  0.23524930450E+03  0.00000000000E+00 0.  1.
         21    1    1    2  503  501 -0.44465196907E+02  0.79659897630E+02 -0.12562235377E+03  0.15525407819E+03  0.00000000000E+00 0.  1.
         21    1    1    2  504  502  0.24309953069E+02 -0.34400869908E+02 -0.46273158955E+02  0.62574746570E+02  0.00000000000E+00 0.  1.
         21    1    1    2  505  504  0.65791722438E+02  0.70379334449E+02  0.34820877074E+02  0.10244166603E+03  0.00000000000E+00 0. -1.
          1    1    1    2  501    0 -0.45636478600E+02 -0.11563836217E+03  0.58090717873E+03  0.59406066129E+03  0.00000000000E+00 0.  1.
<scales pt_clust_3="58.80038" pt_clust_4="42.12355" pt_clust_5="14000.00000" pt_clust_6="118.80677"></scales>
<clustering>
<clus scale="   42.124">  2  4  1 -1</clus>
<clus scale="   58.800">  2  3  1 -1</clus>
<clus scale="  118.807">  1  6  2 -1</clus>
<clus scale="   42.124">  2  3  1 -1</clus>
</clustering>
</event>
<event>
 6    0  0.7258365E+002  0.1155174E+03  0.7546771E-02  0.1250681E+00
         21   -1    0    0  505  502  0.00000000000E+00  0.00000000000E+00  0.47884784001E+03  0.47884784001E+03  0.00000000000E+00 0. -1.
          2   -1    0    0  503    0 -0.00000000000E+00 -0.00000000000E+00 -0.29119855334E+03  0.29119855334E+03  0.00000000000E+00 0. -1.
         21    1    1    2  503  504 -0.47571966869E+02  0.15433475585E+02  0.15926367294E+03  0.16693172772E+03  0.00000000000E+00 0. -1.
         21    1    1    2  504  502 -0.12615964752E+01  0.36390875592E+02  0.24780110906E+03  0.25046212708E+03  0.00000000000E+00 0. -1.
         21    1    1    2  505  501 -0.58915576263E+02  0.32808407663E+01  0.36626113316E+02  0.69449846790E+02  0.00000000000E+00 0. -1.
          2    1    1    2  501    0  0.10774913961E+03 -0.55105191943E+02 -0.25604160864E+03  0.28320269176E+03  0.00000000000E+00 0. -1.
<scales pt_clust_3="14000.00000" pt_clust_4="36.41274" pt_clust_5="60.34852" pt_clust_6="115.51742"></scales>
<clustering>
<clus scale="   36.413">  1  4  2 -1</clus>
<clus scale="   60.349">  1  5  2 -1</clus>
<clus scale="  115.517">  2  6  1 -1</clus>
<clus scale="   36.413">  1  3  2 -1</clus>
</clustering>
</event>
<event>
 6    0  0.7258365E+002  0.2208997E+03  0.7546771E-02  0.1133214E+00
          1   -1    0    0  505    0 -0.00000000000E+00  0.00000000000E+00  0.13366102730E+04  0.13366102730E+04  0.00000000000E+00 0. -1.
         21   -1    0    0  504  502  0.00000000000E+00 -0.00000000000E+00 -0.83317717210E+02  0.83317717210E+02  0.00000000000E+00 0. -1.
         21    1    1    2  503  501  0.24348192606E+02 -0.71348591058E+02  0.14023134918E+02  0.76681837759E+02  0.00000000000E+00 0. -1.
         21    1    1    2  504  503  0.64596254894E+02 -0.13549348980E+03  0.11231434398E+03  0.18747179465E+03  0.00000000000E+00 0. -1.
         21    1    1    2  505  502 -0.39604970683E+02  0.58595368992E+02  0.14346023248E+03  0.15994626996E+03  0.00000000000E+00 0. -1.
          1    1    1    2  501    0 -0.49339476817E+02  0.14824671187E+03  0.98349484444E+03  0.99582808787E+03  0.00000000000E+00 0. -1.
<scales pt_clust_3="39.59310" pt_clust_4="39.59310" pt_clust_5="70.72461" pt_clust_6="213.71822"></scales>
<clustering>
<clus scale="   39.593">  3  4 -1 -1</clus>
<clus scale="   70.725">  1  5  2 -1</clus>
<clus scale="  213.718">  1  6  2 -1</clus>
<clus scale="  220.900">  2  3  1 -1</clus>
</clustering>
</event>
<event>
 6    0  0.7258365E+002  0.6723032E+02  0.7546771E-02  0.1369773E+00
         -4   -1    0    0    0  501 -0.00000000000E+00  0.00000000000E+00  0.21614268113E+03  0.21614268113E+03  0.00000000000E+00 0.  1.
         21   -1    0    0  504  502  0.00000000000E+00 -0.00000000000E+00 -0.13561181416E+03  0.13561181416E+03  0.00000000000E+00 0. -1.
         21    1    1    2  503  502  0.55882013264E+02 -0.14473813915E+02 -0.41920814295E+02  0.71341750517E+02  0.00000000000E+00 0. -1.
         21    1    1    2  504  505 -0.70432882784E+02  0.81502932003E+02 -0.18936969505E+02  0.10937151236E+03  0.00000000000E+00 0. -1.
         21    1    1    2  505  501 -0.19422060512E+02 -0.35436627359E+02  0.29850303859E+02  0.50239542530E+02  0.00000000000E+00 0. -1.
         -4    1    1    2    0  503  0.33972930033E+02 -0.31592490729E+02  0.11153834691E+03  0.12080168987E+03  0.00000000000E+00 0.  1.
<scales pt_clust_3="56.99164" pt_clust_4="67.23032" pt_clust_5="40.41004" pt_clust_6="14000.00000"></scales>
<clustering>
<clus scale="   40.410">  1  5  2 -1</clus>
<clus scale="   56.992">  2  3  1 -1</clus>
<clus scale="   67.230">  2  4  1 -1</clus>
<clus scale="   56.992">  2  3  1 -1</clus>
</clustering>
</event>
<event>
 6    0  0.7258365E+002  0.1373165E+03  0.7546771E-02  0.1216986E+00
         21   -1    0    0  503  502  0.00000000000E+00  0.00000000000E+00  0.43967432659E+02  0.43967432659E+02  0.00000000000E+00 0. -1.
          1   -1    0    0  505    0 -0.00000000000E+00 -0.00000000000E+00 -0.15054844676E+04  0.15054844676E+04  0.00000000000E+00 0. -1.
         21    1    1    2  503  501 -0.33666306459E+02  0.11222384130E+03 -0.13665566255E+03  0.18000661336E+03  0.00000000000E+00 0. -1.
         21    1    1    2  504  502 -0.24023540779E+02  0.20922893667E+02  0.23488674773E+01  0.31943937912E+02  0.00000000000E+00 0. -1.
         21    1    1    2  505  504  0.31241223528E+02 -0.25423768553E+01 -0.19988248625E+03  0.20232519872E+03  0.00000000000E+00 0. -1.
          1    1    1    2  501    0  0.26448623709E+02 -0.13060435811E+03 -0.11273277537E+04  0.11351761503E+04  0.00000000000E+00 0. -1.
<scales pt_clust_3="137.31653" pt_clust_4="31.57196" pt_clust_5="31.34450" pt_clust_6="14000.00000"></scales>
<clustering>
<clus scale="   31.345">  2  5  1 -1</clus>
<clus scale="   31.572">  1  4  2 -1</clus>
<clus scale="  137.317">  1  3  2 -1</clus>
<clus scale="   31.572">  1  3  2 -1</clus>
</clustering>
</event>
<event>
 6    0  0.7258365E+002  0.1134231E+03  0.7546771E-02  0.1254359E+00
         21   -1    0    0  505  502  0.00000000000E+00  0.00000000000E+00  0.95198139090E+03  0.95198139090E+03  0.00000000000E+00 0.  1.
         -1   -1    0    0    0  501 -0.00000000000E+00 -0.00000000000E+00 -0.72501898388E+03  0.72501898388E+03  0.00000000000E+00 0.  1.
         21    1    1    2  503  502 -0.40907660396E+02  0.21270752373E+02  0.19271038128E+03  0.19814936952E+03  0.00000000000E+00 0.  1.
         21    1    1    2  504  501  0.18966563254E+02 -0.85975916143E+02 -0.27180317540E+03  0.28570711373E+03  0.00000000000E+00 0. -1.
         21    1    1    2  505  504 -0.93269583030E+01  0.81710183712E+02  0.74662395514E+03  0.75113971847E+03  0.00000000000E+00 0.  1.
         -1    1    1    2    0  503  0.31268055445E+02 -0.17005019942E+02 -0.44056875401E+03  0.44200417306E+03  0.00000000000E+00 0.  1.
<scales pt_clust_3="45.76619" pt_clust_4="14000.00000" pt_clust_5="113.42309" pt_clust_6="35.59300"></scales>
<clustering>
<clus scale="   35.593">  2  6  1 -1</clus>
<clus scale="   45.766">  1  3  2 -1</clus>
<clus scale="  113.423">  1  5  2 -1</clus>
<clus scale="   45.766">  1  3  2 -1</clus>
</clustering>
</event>
<event>
 6    0  0.7258365E+002  0.9760229E+02  0.7546771E-02  0.1285420E+00
          2   -1    0    0  503    0 -0.00000000000E+00  0.00000000000E+00  0.16882029717E+04  0.16882029717E+04  0.00000000000E+00 0. -1.
         21   -1    0    0  505  502  0.00000000000E+00 -0.00000000000E+00 -0.15107016561E+03  0.15107016561E+03  0.00000000000E+00 0. -1.
         21    1    1    2  503  504  0.37926308097E+01 -0.40853780423E+02  0.40196046535E+03  0.40404904545E+03  0.00000000000E+00 0.  1.
         21    1    1    2  504  502  0.95380957119E+02  0.20628194875E+02 -0.12885060626E+03  0.16163393251E+03  0.00000000000E+00 0. -1.
         21    1    1    2  505  501 -0.93837477879E+02 -0.30854958312E+02  0.65513917880E+03  0.66254422064E+03  0.00000000000E+00 0. -1.
          2    1    1    2  501    0 -0.53361100498E+01  0.51080543859E+02  0.60888376823E+03  0.61104593873E+03  0.00000000000E+00 0. -1.
<scales pt_clust_3="41.02945" pt_clust_4="14000.00000" pt_clust_5="97.60229" pt_clust_6="31.88770"></scales>
<clustering>
<clus scale="   41.029">  1  3  2 -1</clus>
<clus scale="   31.888">  1  6  2 -1</clus>
<clus scale="   97.602">  1  5  2 -1</clus>
<clus scale="   97.602">  2  3  1 -1</clus>
</clustering>
</event>
<event>
 6    0  0.7258365E+002  0.1147817E+03  0.7546771E-02  0.1251963E+00
          1   -1    0    0  503    0 -0.00000000000E+00  0.00000000000E+00  0.11494748545E+04  0.11494748545E+04  0.00000000000E+00 0. -1.
         21   -1    0    0  504  502  0.00000000000E+00 -0.00000000000E+00 -0.36393123837E+03  0.36393123837E+03  0.00000000000E+00 0. -1.
         21    1    1    2  503  505  0.33014906928E+02 -0.87887827096E+02 -0.98235644997E+02  0.13588412777E+03  0.00000000000E+00 0. -1.
         21    1    1    2  504  501 -0.29359885507E+02  0.13860225576E+03 -0.18691722072E+03  0.23454346203E+03  0.00000000000E+00 0. -1.
         21    1    1    2  505  502 -0.49656990286E+02  0.60510040266E+01 -0.16997535540E+02  0.52833204980E+02  0.00000000000E+00 0. -1.
          1    1    1    2  501    0  0.46001968865E+02 -0.56765432691E+02  0.10876940174E+04  0.10901452981E+04  0.00000000000E+00 0. -1.
<scales pt_clust_3="14000.00000" pt_clust_4="114.78167" pt_clust_5="50.02431" pt_clust_6="72.93115"></scales>
<clustering>
<clus scale="   50.024">  2  5  1 -1</clus>
<clus scale="   72.931">  1  6  2 -1</clus>
<clus scale="  114.782">  1  4  2 -1</clus>
<clus scale="   50.024">  2  3  1 -1</clus>
</clustering>
</event>
<event>
 6    0  0.7258365E+002  0.3360013E+03  0.7546771E-02  0.1068512E+00
          2   -1    0    0  505    0 -0.00000000000E+00  0.00000000000E+00  0.22973902607E+03  0.22973902607E+03  0.00000000000E+00 0. -1.
         21   -1    0    0  503  502  0.00000000000E+00 -0.00000000000E+00 -0.74174130171E+03  0.74174130171E+03  0.00000000000E+00 0. -1.
         21    1    1    2  503  504 -0.28754074550E+02 -0.88738501326E+01 -0.21184426288E+03  0.21397087123E+03  0.00000000000E+00 0. -1.
         21    1    1    2  504  501 -0.67880648988E+02  0.25769453563E+03 -0.53517831210E+02  0.27180583963E+03  0.00000000000E+00 0. -1.
         21    1    1    2  505  502  0.14031117152E+03 -0.28867454027E+03 -0.27262116232E+03  0.42112054474E+03  0.00000000000E+00 0. -1.
          2    1    1    2  501    0 -0.43676447987E+02  0.39853854776E+02  0.25980980774E+02  0.64583072173E+02  0.00000000000E+00 0. -1.
<scales pt_clust_3="30.09223" pt_clust_4="50.59646" pt_clust_5="318.55557" pt_clust_6="50.59646"></scales>
<clustering>
<clus scale="   30.092">  2  3  1 -1</clus>
<clus scale="   50.596">  4  6 -1 -1</clus>
<clus scale="  318.556">  2  5  1 -1</clus>
<clus scale="   30.092">  2  3  1 -1</clus>
</clustering>
</event>
<event>
 6    0  0.7258365E+002  0.1112659E+03  0.7546771E-02  0.1258243E+00
          1   -1    0    0  504    0 -0.00000000000E+00  0.00000000000E+00  0.13843953150E+04  0.13843953150E+04  0.00000000000E+00 0. -1.
         21   -1    0    0  503  502  0.00000000000E+00 -0.00000000000E+00 -0.33112876197E+03  0.33112876197E+03  0.00000000000E+00 0. -1.
         21    1    1    2  503  501 -0.11676663359E+03 -0.41246467580E+02  0.30773496105E+03  0.33171753656E+03  0.00000000000E+00 0. -1.
         21    1    1    2  504  505  0.58010266890E+02  0.39131323270E+02 -0.90926490258E+02  0.11473481667E+03  0.00000000000E+00 0. -1.
         21    1    1    2  505  502  0.35961422012E+02  0.28404241706E+02 -0.21358826993E+03  0.21844901893E+03  0.00000000000E+00 0. -1.
          1    1    1    2  501    0  0.22794944683E+02 -0.26289097396E+02  0.10500463521E+04  0.10506227048E+04  0.00000000000E+00 0. -1.
<scales pt_clust_3="111.26590" pt_clust_4="14000.00000" pt_clust_5="45.83832" pt_clust_6="34.79549"></scales>
<clustering>
<clus scale="   34.795">  1  6  2 -1</clus>
<clus scale="   45.838">  2  5  1 -1</clus>
<clus scale="  111.266">  1  3  2 -1</clus>
<clus scale="   45.838">  2  3  1 -1</clus>
</clustering>
</event>
<event>
 6    0  0.7258365E+002  0.1272915E+03  0.7546771E-02  0.1231531E+00
          2   -1    0    0  504    0 -0.00000000000E+00  0.00000000000E+00  0.62305496132E+03  0.62305496132E+03  0.00000000000E+00 0. -1.
         21   -1    0    0  505  502  0.00000000000E+00 -0.00000000000E+00 -0.64785175558E+03  0.64785175558E+03  0.00000000000E+00 0.  1.
         21    1    1    2  503  502 -0.48266974658E+02  0.18202514769E+02 -0.53878294730E+03  0.54124679831E+03  0.00000000000E+00 0.  1.
         21    1    1    2  504  503  0.30026871842E+02  0.61163288678E+01  0.27915401996E+02  0.41452287996E+02  0.00000000000E+00 0. -1.
         21    1    1    2  505  501  0.13496100437E+03 -0.99425950943E+02 -0.14969748595E+02  0.16829761078E+03  0.00000000000E+00 0.  1.
          2    1    1    2  501    0 -0.11672090156E+03  0.75107107306E+02  0.50104049964E+03  0.51991001981E+03  0.00000000000E+00 0. -1.
<scales pt_clust_3="51.53090" pt_clust_4="30.64347" pt_clust_5="127.29153" pt_clust_6="14000.00000"></scales>
<clustering>
<clus scale="   30.643">  1  4  2 -1</clus>
<clus scale="   51.531">  2  3  1 -1</clus>
<clus scale="  127.292">  2  5  1 -1</clus>
<clus scale="   51.531">  2  3  1 -1</clus>
</clustering>
</event>
<event>
 6    0  0.7258365E+002  0.1096702E+03  0.7546771E-02  0.1261182E+00
          1   -1    0    0  503    0 -0.00000000000E+00  0.00000000000E+00  0.15860480086E+04  0.15860480086E+04  0.00000000000E+00 0.  1.
         21   -1    0    0  501  502  0.00000000000E+00 -0.00000000000E+00 -0.10908688955E+03  0.10908688955E+03  0.00000000000E+00 0. -1.
         21    1    1    2  503  504 -0.99776696785E+01 -0.33634275668E+02  0.36259727730E+03  0.36429054873E+03  0.00000000000E+00 0.  1.
         21    1    1    2  504  505 -0.31278313736E+02  0.60527309597E+02  0.36426673763E+02  0.77257948968E+02  0.00000000000E+00 0.  1.
         21    1    1    2  505  502 -0.26740691478E+02  0.43878984119E+02 -0.78046759674E+02  0.93443707780E+02  0.00000000000E+00 0. -1.
          1    1    1    2  501    0  0.67996674893E+02 -0.70772018049E+02  0.11559839276E+04  0.11601426926E+04  0.00000000000E+00 0.  1.
<scales pt_clust_3="35.08302" pt_clust_4="109.67016" pt_clust_5="51.23722" pt_clust_6="14000.00000"></scales>
<clustering>
<clus scale="   35.083">  1  3  2 -1</clus>
<clus scale="   51.237">  2  5  1 -1</clus>
<clus scale="  109.670">  2  4  1 -1</clus>
<clus scale="   51.237">  2  3  1 -1</clus>
</clustering>
</event>
<event>
 6    0  0.7258365E+002  0.1014312E+03  0.7546771E-02  0.1277315E+00
         -2   -1    0    0    0  501 -0.00000000000E+00  0.00000000000E+00  0.48197265189E+03  0.48197265189E+03  0.00000000000E+00 0.  1.
         21   -1    0    0  503  502  0.00000000000E+00 -0.00000000000E+00 -0.67024365694E+03  0.67024365694E+03  0.00000000000E+00 0. -1.
         21    1    1    2  503  505  0.26546663728E+02 -0.14646040618E+02 -0.33016599014E+03  0.33155514308E+03  0.00000000000E+00 0. -1.
         21    1    1    2  504  502  0.17071917758E+01  0.10339469688E+03 -0.29573439583E+03  0.31329253218E+03  0.00000000000E+00 0. -1.
         21    1    1    2  505  501  0.33944246465E+02 -0.82018887760E+01 -0.18849467030E+02  0.39683564040E+02  0.00000000000E+00 0. -1.
         -2    1    1    2    0  504 -0.62198101969E+02 -0.80546767482E+02  0.45647884794E+03  0.46768506953E+03  0.00000000000E+00 0.  1.
<scales pt_clust_3="30.31884" pt_clust_4="101.43123" pt_clust_5="37.44929" pt_clust_6="14000.00000"></scales>
<clustering>
<clus scale="   30.319">  2  3  1 -1</clus>
<clus scale="   37.449">  2  5  1 -1</clus>
<clus scale="  101.431">  2  4  1 -1</clus>
<clus scale="   30.319">  2  3  1 -1</clus>
</clustering>
</event>
<event>
 6    0  0.7258365E+002  0.9742433E+02  0.7546771E-02  0.1285807E+00
          2   -1    0    0  505    0 -0.00000000000E+00  0.00000000000E+00  0.21927861041E+04  0.21927861041E+04  0.00000000000E+00 0.  1.
         21   -1    0    0  504  502  0.00000000000E+00 -0.00000000000E+00 -0.41395950920E+02  0.41395950920E+02  0.00000000000E+00 0. -1.
         21    1    1    2  503  502 -0.40041942638E+02  0.55155570502E+01  0.22039322547E+02  0.46038139386E+02  0.00000000000E+00 0. -1.
         21    1    1    2  504  501 -0.49943769026E+02 -0.97708891447E+02  0.31017356254E+03  0.32901222839E+03  0.00000000000E+00 0. -1.
         21    1    1    2  505  503  0.59500647919E+02  0.81688959600E+02  0.10896780743E+03  0.14861829053E+03  0.00000000000E+00 0. -1.
          2    1    1    2  501    0  0.30485063745E+02  0.10504374796E+02  0.17102094607E+04  0.17105133968E+04  0.00000000000E+00 0.  1.
<scales pt_clust_3="38.40408" pt_clust_4="97.42433" pt_clust_5="14000.00000" pt_clust_6="32.24408"></scales>
<clustering>
<clus scale="   32.244">  1  6  2 -1</clus>
<clus scale="   38.404">  2  3  1 -1</clus>
<clus scale="   97.424">  1  4  2 -1</clus>
<clus scale="   38.404">  2  3  1 -1</clus>
</clustering>
</event>
<event>
 6    0  0.7258365E+002  0.9778880E+02  0.7546771E-02  0.1285016E+00
          1   -1    0    0  504    0 -0.00000000000E+00  0.00000000000E+00  0.80903660021E+03  0.80903660021E+03  0.00000000000E+00 0. -1.
         21   -1    0    0  503  502  0.00000000000E+00 -0.00000000000E+00 -0.27530306810E+04  0.27530306810E+04  0.00000000000E+00 0.  1.
         21    1    1    2  503  505  0.19681927826E+02  0.34609393499E+02 -0.26476275403E+04  0.26479268836E+04  0.00000000000E+00 0.  1.
         21    1    1    2  504  502 -0.39489390648E+02 -0.13423647613E+03 -0.44407754029E+02  0.14680222109E+03  0.00000000000E+00 0. -1.
         21    1    1    2  505  501  0.21829509282E+02  0.61587209240E+02  0.10844782927E+03  0.12661138768E+03  0.00000000000E+00 0. -1.
          1    1    1    2  501    0 -0.20220464601E+01  0.38039873394E+02  0.63959338434E+03  0.64072678883E+03  0.00000000000E+00 0. -1.
<scales pt_clust_3="39.84285" pt_clust_4="97.78880" pt_clust_5="14000.00000" pt_clust_6="38.09358"></scales>
<clustering>
<clus scale="   38.094">  1  6  2 -1</clus>
<clus scale="   39.843">  2  3  1 -1</clus>
<clus scale="   97.789">  2  4  1 -1</clus>
<clus scale="   39.843">  2  3  1 -1</clus>
</clustering>
</event>
<event>
 6    0  0.7258365E+002  0.8167998E+02  0.7546771E-02  0.1324350E+00
         -3   -1    0    0    0  501 -0.00000000000E+00  0.00000000000E+00  0.62508863974E+03  0.62508863974E+03  0.00000000000E+00 0. -1.
         21   -1    0    0  503  502  0.00000000000E+00 -0.00000000000E+00 -0.14745432287E+03  0.14745432287E+03  0.00000000000E+00 0. -1.
         21    1    1    2  503  501 -0.16574278788E+02 -0.47227090408E+02 -0.91942660800E+02  0.10468312978E+03  0.00000000000E+00 0. -1.
         21    1    1    2  504  502 -0.38567467375E+02  0.71888657669E+02  0.54088863856E+02  0.97882755552E+02  0.00000000000E+00 0. -1.
         21    1    1    2  505  504  0.68390770671E+02 -0.60032511167E+02  0.51716538176E+02  0.10466995859E+03  0.00000000000E+00 0. -1.
         -3    1    1    2    0  505 -0.13249024508E+02  0.35370943905E+02  0.46377157564E+03  0.46530711868E+03  0.00000000000E+00 0. -1.
<scales pt_clust_3="48.91028" pt_clust_4="14000.00000" pt_clust_5="81.67998" pt_clust_6="37.77089"></scales>
<clustering>
<clus scale="   37.771">  1  6  2 -1</clus>
<clus scale="   48.910">  2  3  1 -1</clus>
<clus scale="   81.680">  1  5  2 -1</clus>
<clus scale="   48.910">  2  3  1 -1</clus>
</clustering>
</event>
<event>
 6    0  0.7258365E+002  0.9402353E+02  0.7546771E-02  0.1293391E+00
         21   -1    0    0  503  502  0.00000000000E+00  0.00000000000E+00  0.15388519087E+03  0.15388519087E+03  0.00000000000E+00 0.  1.
          2   -1    0    0  505    0 -0.00000000000E+00 -0.00000000000E+00 -0.11561881916E+04  0.11561881916E+04  0.00000000000E+00 0.  1.
         21    1    1    2  503  504 -0.94244265428E+01  0.33858496555E+02  0.13444558621E+03  0.13896342417E+03  0.00000000000E+00 0.  1.
         21    1    1    2  504  501  0.61678082992E+02 -0.60906578970E+02 -0.30698456740E+03  0.31898796514E+03  0.00000000000E+00 0. -1.
         21    1    1    2  505  502 -0.75312647110E+02  0.67508903563E+02 -0.23892650857E+03  0.25945196737E+03  0.00000000000E+00 0.  1.
          2    1    1    2  501    0  0.23058990661E+02 -0.40460821148E+02 -0.59083751102E+03  0.59267002584E+03  0.00000000000E+00 0.  1.
<scales pt_clust_3="35.14566" pt_clust_4="14000.00000" pt_clust_5="94.02353" pt_clust_6="44.75499"></scales>
<clustering>
<clus scale="   35.146">  1  3  2 -1</clus>
<clus scale="   44.755">  2  6  1 -1</clus>
<clus scale="   94.024">  2  5  1 -1</clus>
<clus scale="   35.146">  1  3  2 -1</clus>
</clustering>
</event>
<event>
 6    0  0.7258365E+002  0.1173129E+03  0.7546771E-02  0.1247597E+00
         21   -1    0    0  503  502  0.00000000000E+00  0.00000000000E+00  0.23997560929E+04  0.23997560929E+04  0.00000000000E+00 0.  1.
         -3   -1    0    0    0  501 -0.00000000000E+00 -0.00000000000E+00 -0.31498986129E+02  0.31498986129E+02  0.00000000000E+00 0.  1.
         21    1    1    2  503  504  0.67771991193E+01  0.45087515831E+02  0.76851363419E+03  0.76986493649E+03  0.00000000000E+00 0.  1.
         21    1    1    2  504  501 -0.50135439185E+02  0.89936401364E+02  0.87261059353E+03  0.87866453581E+03  0.00000000000E+00 0.  1.
         21    1    1    2  505  502 -0.31161226753E+02 -0.74103015579E+02  0.66117138718E+03  0.66604045087E+03  0.00000000000E+00 0.  1.
         -3    1    1    2    0  505  0.74519466819E+02 -0.60920901617E+02  0.65961491901E+02  0.11668515588E+03  0.00000000000E+00 0.  1.
<scales pt_clust_3="43.37747" pt_clust_4="43.37747" pt_clust_5="80.38830" pt_clust_6="97.53472"></scales>
<clustering>
<clus scale="   43.377">  3  4 -1 -1</clus>
<clus scale="   80.388">  1  5  2 -1</clus>
<clus scale="   97.535">  2  6  1 -1</clus>
<clus scale="   80.388">  1  3  2 -1</clus>
</clustering>
</event>
<event>
 6    0  0.7258365E+002  0.7287171E+02  0.7546771E-02  0.1350591E+00
         21   -1    0    0  504  502  0.00000000000E+00  0.00000000000E+00  0.51239567083E+03  0.51239567083E+03  0.00000000000E+00 0. -1.
          2   -1    0    0  503    0 -0.00000000000E+00 -0.00000000000E+00 -0.13572543065E+04  0.13572543065E+04  0.00000000000E+00 0.  1.
         21    1    1    2  503  502  0.10982858541E+03 -0.56815749037E+01 -0.77823638206E+03  0.78596848845E+03  0.00000000000E+00 0.  1.
         21    1    1    2  504  505 -0.58513418305E+02  0.43324758265E+02  0.49101884181E+03  0.49638730625E+03  0.00000000000E+00 0. -1.
         21    1    1    2  505  501 -0.14094647092E+02 -0.43589216180E+02 -0.22881449479E+02  0.51207807746E+02  0.00000000000E+00 0.  1.
          2    1    1    2  501    0 -0.37220520010E+02  0.59460328192E+01 -0.53475964591E+03  0.53608637486E+03  0.00000000000E+00 0.  1.
<scales pt_clust_3="72.87171" pt_clust_4="14000.00000" pt_clust_5="46.10308" pt_clust_6="37.69247"></scales>
<clustering>
<clus scale="   37.692">  2  6  1 -1</clus>
<clus scale="   46.103">  2  5  1 -1</clus>
<clus scale="   72.872">  2  3  1 -1</clus>
<clus scale="   72.872">  1  3  2 -1</clus>
</clustering>
</event>
<event>
 6    0  0.7258365E+002  0.9716790E+02  0.7546771E-02  0.1286367E+00
         21   -1    0    0  501  502  0.00000000000E+00  0.00000000000E+00  0.11454306490E+03  0.11454306490E+03  0.00000000000E+00 0.  1.
          2   -1    0    0  503    0 -0.00000000000E+00 -0.00000000000E+00 -0.30767890165E+04  0.30767890165E+04  0.00000000000E+00 0. -1.
         21    1    1    2  503  504 -0.94047735346E+01  0.50705876382E+02 -0.46001552093E+03  0.46289719718E+03  0.00000000000E+00 0.  1.
         21    1    1    2  504  505  0.81011572482E+01 -0.15745148984E+03 -0.50496540266E+02  0.16554908933E+03  0.00000000000E+00 0.  1.
         21    1    1    2  505  502 -0.21393660550E+02  0.78311183911E+02  0.25725366034E+02  0.85159407553E+02  0.00000000000E+00 0.  1.
          2    1    1    2  501    0  0.22697276836E+02  0.28434429543E+02 -0.24774592565E+04  0.24777263874E+04  0.00000000000E+00 0. -1.
<scales pt_clust_3="73.05163" pt_clust_4="97.16790" pt_clust_5="14000.00000" pt_clust_6="36.38246"></scales>
<clustering>
<clus scale="   36.382">  2  6  1 -1</clus>
<clus scale="   73.052">  2  3  1 -1</clus>
<clus scale="   97.168">  2  4  1 -1</clus>
<clus scale="   97.168">  1  3  2 -1</clus>
</clustering>
</event>
<event>
 6    0  0.7258365E+002  0.9665427E+02  0.7546771E-02  0.1287493E+00
         -1   -1    0    0    0  501 -0.00000000000E+00  0.00000000000E+00  0.15224965460E+03  0.15224965460E+03  0.00000000000E+00 0. -1.
         21   -1    0    0  504  502  0.00000000000E+00 -0.00000000000E+00 -0.70174408443E+03  0.70174408443E+03  0.00000000000E+00 0.  1.
         21    1    1    2  503  501 -0.93754488127E+02  0.16453312809E+02  0.98678005704E+02  0.13710566858E+03  0.00000000000E+00 0. -1.
         21    1    1    2  504  503 -0.26278220528E+01 -0.39332251653E+02 -0.31180378154E+03  0.31428574522E+03  0.00000000000E+00 0.  1.
         21    1    1    2  505  502  0.87549005519E+02 -0.10567522290E+02 -0.35326354641E+03  0.36410387820E+03  0.00000000000E+00 0.  1.
         -1    1    1    2    0  505  0.88333046607E+01  0.33446461134E+02  0.16894892415E+02  0.38498447025E+02  0.00000000000E+00 0. -1.
<scales pt_clust_3="96.65427" pt_clust_4="39.08162" pt_clust_5="14000.00000" pt_clust_6="34.59325"></scales>
<clustering>
<clus scale="   34.593">  1  6  2 -1</clus>
<clus scale="   39.082">  2  4  1 -1</clus>
<clus scale="   96.654">  1  3  2 -1</clus>
<clus scale="   39.082">  2  3  1 -1</clus>
</clustering>
</event>
<event>
 6    0  0.7258365E+002  0.1161633E+03  0.7546771E-02  0.1249564E+00
          2   -1    0    0  504    0 -0.00000000000E+00  0.00000000000E+00  0.15557442865E+04  0.15557442865E+04  0.00000000000E+00 0.  1.
         21   -1    0    0  503  502  0.00000000000E+00 -0.00000000000E+00 -0.23399442593E+03  0.23399442593E+03  0.00000000000E+00 0.  1.
         21    1    1    2  503  505 -0.25005071665E+02 -0.12081419834E+03 -0.23233161468E+02  0.12554323527E+03  0.00000000000E+00 0.  1.
         21    1    1    2  504  502  0.29619612549E+02  0.86648792716E+01 -0.14737958557E+03  0.15057604000E+03  0.00000000000E+00 0.  1.
         21    1    1    2  505  501  0.66318042312E+01  0.15001764848E+03  0.54146901539E+03  0.56190565962E+03  0.00000000000E+00 0.  1.
          2    1    1    2  501    0 -0.11246345115E+02 -0.37868329416E+02  0.95089359224E+03  0.95171377757E+03  0.00000000000E+00 0.  1.
<scales pt_clust_3="116.16326" pt_clust_4="30.86100" pt_clust_5="14000.00000" pt_clust_6="39.42250"></scales>
<clustering>
<clus scale="   30.861">  2  4  1 -1</clus>
<clus scale="   39.423">  1  6  2 -1</clus>
<clus scale="  116.163">  2  3  1 -1</clus>
<clus scale="   30.861">  2  3  1 -1</clus>
</clustering>
</event>
<event>
 6    0  0.7258365E+002  0.1418668E+03  0.7546771E-02  0.1210839E+00
          2   -1    0    0  504    0 -0.00000000000E+00  0.00000000000E+00  0.40147494388E+03  0.40147494388E+03  0.00000000000E+00 0.  1.
         21   -1    0    0  503  502  0.00000000000E+00 -0.00000000000E+00 -0.81277932873E+03  0.81277932873E+03  0.00000000000E+00 0.  1.
         21    1    1    2  503  501  0.68976461681E+02  0.34864126345E+02 -0.28185412047E+03  0.29225845548E+03  0.00000000000E+00 0.  1.
         21    1    1    2  504  505 -0.16872097034E+03  0.33997302125E+02  0.95802001293E+02  0.19697869386E+03  0.00000000000E+00 0.  1.
         21    1    1    2  505  502 -0.30635882876E+02 -0.51525636379E+02 -0.45572713273E+03  0.45965276898E+03  0.00000000000E+00 0.  1.
          2    1    1    2  501    0  0.13038039154E+03 -0.17335792091E+02  0.23047486705E+03  0.26536435429E+03  0.00000000000E+00 0.  1.
<scales pt_clust_3="44.72854" pt_clust_4="141.86676" pt_clust_5="59.94538" pt_clust_6="14000.00000"></scales>
<clustering>
<clus scale="   59.945">  2  5  1 -1</clus>
<clus scale="   44.729">  2  3  1 -1</clus>
<clus scale="  141.867">  2  4  1 -1</clus>
<clus scale="   59.945">  2  3  1 -1</clus>
</clustering>
</event>
<event>
 6    0  0.7258365E+002  0.8444754E+02  0.7546771E-02  0.1316884E+00
         21   -1    0    0  505  502  0.00000000000E+00  0.00000000000E+00  0.90759767102E+02  0.90759767102E+02  0.00000000000E+00 0. -1.
          1   -1    0    0  504    0 -0.00000000000E+00 -0.00000000000E+00 -0.28498790405E+04  0.28498790405E+04  0.00000000000E+00 0.  1.
         21    1    1    2  503  502  0.28685862715E+02  0.80166430758E+02 -0.13638989120E+03  0.16078475600E+03  0.00000000000E+00 0. -1.
         21    1    1    2  504  503 -0.95217359204E+01 -0.39314133531E+02 -0.13415239466E+03  0.14011826984E+03  0.00000000000E+00 0. -1.
         21    1    1    2  505  501 -0.78265040891E+02 -0.39830737864E+02  0.49609355057E+02  0.10086125328E+03  0.00000000000E+00 0. -1.
          1    1    1    2  501    0  0.59100914096E+02 -0.10215593625E+01 -0.25381863426E+04  0.25388745285E+04  0.00000000000E+00 0.  1.
<scales pt_clust_3="14000.00000" pt_clust_4="40.45077" pt_clust_5="84.44754" pt_clust_6="62.83923"></scales>
<clustering>
<clus scale="   40.451">  2  4  1 -1</clus>
<clus scale="   62.839">  2  6  1 -1</clus>
<clus scale="   84.448">  1  5  2 -1</clus>
<clus scale="   84.448">  1  3  2 -1</clus>
</clustering>
</event>
<event>
 6    0  0.7258365E+002  0.8900946E+02  0.7546771E-02  0.1305268E+00
         21   -1    0    0  505  502  0.00000000000E+00  0.00000000000E+00  0.12745360589E+04  0.12745360589E+04  0.00000000000E+00 0. -1.
          2   -1    0    0  503    0 -0.00000000000E+00 -0.00000000000E+00 -0.24941066999E+02  0.24941066999E+02  0.00000000000E+00 0. -1.
         21    1    1    2  503  502  0.34247075674E+02  0.32942429341E+02  0.58819981463E+02  0.75616506547E+02  0.00000000000E+00 0. -1.
         21    1    1    2  504  501 -0.32932726268E+02  0.71417825472E+02  0.38690845524E+03  0.39482049464E+03  0.00000000000E+00 0.  1.
         21    1    1    2  505  504 -0.35089549584E+02 -0.65463579234E+01  0.59376789833E+03  0.59483985104E+03  0.00000000000E+00 0. -1.
          2    1    1    2  501    0  0.33775200178E+02 -0.97813896889E+02  0.21009865688E+03  0.23420027369E+03  0.00000000000E+00 0. -1.
<scales pt_clust_3="44.61377" pt_clust_4="89.00946" pt_clust_5="35.69498" pt_clust_6="14000.00000"></scales>
<clustering>
<clus scale="   35.695">  1  5  2 -1</clus>
<clus scale="   44.614">  2  3  1 -1</clus>
<clus scale="   89.009">  1  4  2 -1</clus>
<clus scale="   35.695">  1  3  2 -1</clus>
</clustering>
</event>
<event>
 6    0  0.7258365E+002  0.1265797E+03  0.7546771E-02  0.1232621E+00
          2   -1    0    0  504    0 -0.00000000000E+00  0.00000000000E+00  0.16189341108E+04  0.16189341108E+04  0.00000000000E+00 0. -1.
         21   -1    0    0  503  502  0.00000000000E+00 -0.00000000000E+00 -0.87416966009E+02  0.87416966009E+02  0.00000000000E+00 0. -1.
         21    1    1    2  503  501  0.26980764626E+02  0.29330598350E+02  0.42119616790E+02  0.57985410043E+02  0.00000000000E+00 0. -1.
         21    1    1    2  504  505 -0.51348900042E+02 -0.11543228046E+03  0.88652681725E+03  0.89548373442E+03  0.00000000000E+00 0. -1.
         21    1    1    2  505  502  0.21036796981E+02 -0.46779701314E+02 -0.58779276575E+02  0.78012118526E+02  0.00000000000E+00 0. -1.
          2    1    1    2  501    0  0.33313384356E+01  0.13288138343E+03  0.66164998730E+03  0.67486981380E+03  0.00000000000E+00 0. -1.
<scales pt_clust_3="39.85280" pt_clust_4="126.57972" pt_clust_5="49.21780" pt_clust_6="14000.00000"></scales>
<clustering>
<clus scale="   39.853">  2  3  1 -1</clus>
<clus scale="   49.218">  2  5  1 -1</clus>
<clus scale="  126.580">  1  4  2 -1</clus>
<clus scale="   39.853">  2  3  1 -1</clus>
</clustering>
</event>
<event>
 6    0  0.7258365E+002  0.1097565E+03  0.7546771E-02  0.1261022E+00
         21   -1    0    0  503  502  0.00000000000E+00  0.00000000000E+00  0.14119293547E+04  0.14119293547E+04  0.00000000000E+00 0.  1.
         -2   -1    0    0    0  501 -0.00000000000E+00 -0.00000000000E+00 -0.51105554771E+03  0.51105554771E+03  0.00000000000E+00 0.  1.
         21    1    1    2  503  504  0.36855862725E+02 -0.46070632009E+01  0.60731679218E+03  0.60845153111E+03  0.00000000000E+00 0.  1.
         21    1    1    2  504  505 -0.32627980646E+02 -0.10746781245E+03  0.72936629320E+03  0.73796280766E+03  0.00000000000E+00 0.  1.
         21    1    1    2  505  501  0.39780707811E+02  0.94923554529E+02  0.30912978545E+02  0.10746440416E+03  0.00000000000E+00 0.  1.
         -2    1    1    2    0  502 -0.44008589891E+02  0.17151321124E+02 -0.46672225690E+03  0.46910615951E+03  0.00000000000E+00 0.  1.
<scales pt_clust_3="37.14269" pt_clust_4="14000.00000" pt_clust_5="109.75647" pt_clust_6="47.17927"></scales>
<clustering>
<clus scale="   37.143">  1  3  2 -1</clus>
<clus scale="   47.179">  2  6  1 -1</clus>
<clus scale="  109.756">  2  5  1 -1</clus>
<clus scale="   37.143">  1  3  2 -1</clus>
</clustering>
</event>
<event>
 6    0  0.7258365E+002  0.1954751E+03  0.7546771E-02  0.1153614E+00
          2   -1    0    0  505    0 -0.00000000000E+00  0.00000000000E+00  0.10773258009E+04  0.10773258009E+04  0.00000000000E+00 0.  1.
         21   -1    0    0  504  502  0.00000000000E+00 -0.00000000000E+00 -0.57724593386E+03  0.57724593386E+03  0.00000000000E+00 0. -1.
         21    1    1    2  503  501 -0.18900063356E+03  0.76899603691E+02  0.76385970319E+02  0.21787520509E+03  0.00000000000E+00 0. -1.
         21    1    1    2  504  503 -0.19085057202E+02  0.61079083621E+02 -0.34312489601E+03  0.34904095479E+03  0.00000000000E+00 0. -1.
         21    1    1    2  505  502  0.16963350203E+03 -0.14686520060E+03 -0.81275672542E+02  0.23864334708E+03  0.00000000000E+00 0. -1.
          2    1    1    2  501    0  0.38452188732E+02  0.88865132907E+01  0.84809446526E+03  0.84901222780E+03  0.00000000000E+00 0.  1.
<scales pt_clust_3="14000.00000" pt_clust_4="63.95477" pt_clust_5="195.47506" pt_clust_6="39.46569"></scales>
<clustering>
<clus scale="   39.466">  1  6  2 -1</clus>
<clus scale="   63.955">  2  4  1 -1</clus>
<clus scale="  195.475">  2  5  1 -1</clus>
<clus scale="   63.955">  2  3  1 -1</clus>
</clustering>
</event>
<event>
 6    0  0.7258365E+002  0.9360804E+02  0.7546771E-02  0.1294342E+00
         21   -1    0    0  503  502  0.00000000000E+00  0.00000000000E+00  0.49882878086E+02  0.49882878086E+02  0.00000000000E+00 0.  1.
          2   -1    0    0  504    0 -0.00000000000E+00 -0.00000000000E+00 -0.79743769365E+03  0.79743769365E+03  0.00000000000E+00 0. -1.
         21    1    1    2  503  501  0.55879896234E+02  0.45101331076E+02 -0.65808598494E+02  0.97403616481E+02  0.00000000000E+00 0.  1.
         21    1    1    2  504  505  0.60615025146E+02  0.21988627384E+02 -0.32418140081E+03  0.33053178613E+03  0.00000000000E+00 0.  1.
         21    1    1    2  505  502 -0.93947863368E+02 -0.10773996916E+03 -0.15211237056E+03  0.20873973091E+03  0.00000000000E+00 0.  1.
          2    1    1    2  501    0 -0.22547058012E+02  0.40650010700E+02 -0.20545244570E+03  0.21064543821E+03  0.00000000000E+00 0. -1.
<scales pt_clust_3="93.60804" pt_clust_4="65.56675" pt_clust_5="14000.00000" pt_clust_6="46.48433"></scales>
<clustering>
<clus scale="   46.484">  2  6  1 -1</clus>
<clus scale="   65.567">  2  4  1 -1</clus>
<clus scale="   93.608">  1  3  2 -1</clus>
<clus scale="   93.608">  1  3  2 -1</clus>
</clustering>
</event>
<event>
 6    0  0.7258365E+002  0.9993595E+02  0.7546771E-02  0.1280431E+00
         21   -1    0    0  504  502  0.00000000000E+00  0.00000000000E+00  0.10389840835E+03  0.10389840835E+03  0.00000000000E+00 0.  1.
          2   -1    0    0  503    0 -0.00000000000E+00 -0.00000000000E+00 -0.14776242010E+04  0.14776242010E+04  0.00000000000E+00 0. -1.
         21    1    1    2  503  502 -0.20950897373E+02 -0.95694701396E+02  0.40801506674E+02  0.10611870204E+03  0.00000000000E+00 0.  1.
         21    1    1    2  504  505  0.59023285196E+02  0.97735732162E+02 -0.13341829815E+03  0.17560314296E+03  0.00000000000E+00 0.  1.
         21    1    1    2  505  501 -0.38273456082E+02  0.37240822992E+02 -0.69946596415E+02  0.88001492530E+02  0.00000000000E+00 0.  1.
          2    1    1    2  501    0  0.20106825873E+00 -0.39281853758E+02 -0.12111624048E+04  0.12117992718E+04  0.00000000000E+00 0. -1.
<scales pt_clust_3="14000.00000" pt_clust_4="99.93595" pt_clust_5="45.98763" pt_clust_6="39.28237"></scales>
<clustering>
<clus scale="   39.282">  2  6  1 -1</clus>
<clus scale="   45.988">  2  5  1 -1</clus>
<clus scale="   99.936">  2  4  1 -1</clus>
<clus scale="   99.936">  1  3  2 -1</clus>
</clustering>
</event>
<event>
 6    0  0.7258365E+002  0.8206368E+02  0.7546771E-02  0.1323295E+00
          2   -1    0    0  502    0 -0.00000000000E+00  0.00000000000E+00  0.19162066499E+03  0.19162066499E+03  0.00000000000E+00 0. -1.
         21   -1    0    0  503  502  0.00000000000E+00 -0.00000000000E+00 -0.59831520341E+03  0.59831520341E+03  0.00000000000E+00 0.  1.
         21    1    1    2  503  504  0.46253115755E+02 -0.26306661988E+02 -0.37263467380E+03  0.37641465341E+03  0.00000000000E+00 0.  1.
         21    1    1    2  504  505  0.51279976342E+02  0.71475814286E+02 -0.15685513980E+03  0.17983871353E+03  0.00000000000E+00 0. -1.
         21    1    1    2  505  501 -0.46937395999E+02 -0.46036610730E+02 -0.30335886480E+02  0.72406869006E+02  0.00000000000E+00 0.  1.
          2    1    1    2  501    0 -0.50595696098E+02  0.86745843166E+00  0.15313116167E+03  0.16127563245E+03  0.00000000000E+00 0. -1.
<scales pt_clust_3="50.78963" pt_clust_4="82.06368" pt_clust_5="14000.00000" pt_clust_6="50.60313"></scales>
<clustering>
<clus scale="   50.603">  1  6  2 -1</clus>
<clus scale="   50.790">  2  3  1 -1</clus>
<clus scale="   82.064">  2  4  1 -1</clus>
<clus scale="   50.790">  2  3  1 -1</clus>
</clustering>
</event>
<event>
 6    0  0.7258365E+002  0.1156581E+03  0.7546771E-02  0.1250437E+00
          2   -1    0    0  505    0 -0.00000000000E+00  0.00000000000E+00  0.28570570144E+04  0.28570570144E+04  0.00000000000E+00 0.  1.
         21   -1    0    0  504  502  0.00000000000E+00 -0.00000000000E+00 -0.58636917064E+02  0.58636917064E+02  0.00000000000E+00 0.  1.
         21    1    1    2  503  501  0.80390003798E+02 -0.71350325626E+02  0.17081165607E+03  0.20181685640E+03  0.00000000000E+00 0.  1.
         21    1    1    2  504  503 -0.20425584532E+02  0.35898483990E+02 -0.13512685827E+02  0.43456856013E+02  0.00000000000E+00 0. -1.
         21    1    1    2  505  502 -0.27428121978E+02  0.14451252252E+03  0.39632192342E+03  0.42273778873E+03  0.00000000000E+00 0.  1.
          2    1    1    2  501    0 -0.32536297287E+02 -0.10906068088E+03  0.22447992036E+04  0.22476824303E+04  0.00000000000E+00 0.  1.
<scales pt_clust_3="87.64741" pt_clust_4="41.30261" pt_clust_5="115.65815" pt_clust_6="14000.00000"></scales>
<clustering>
<clus scale="   41.303">  2  4  1 -1</clus>
<clus scale="   87.647">  2  3  1 -1</clus>
<clus scale="  115.658">  2  5  1 -1</clus>
<clus scale="   41.303">  2  3  1 -1</clus>
</clustering>
</event>
<event>
 6    0  0.7258365E+002  0.7963217E+02  0.7546771E-02  0.1330099E+00
          2   -1    0    0  505    0 -0.00000000000E+00  0.00000000000E+00  0.74354798096E+03  0.74354798096E+03  0.00000000000E+00 0. -1.
         21   -1    0    0  501  502  0.00000000000E+00 -0.00000000000E+00 -0.11545145149E+03  0.11545145149E+03  0.00000000000E+00 0. -1.
         21    1    1    2  503  504  0.38582096785E+02  0.49110379542E+02  0.58984470680E+02  0.85904454788E+02  0.00000000000E+00 0. -1.
         21    1    1    2  504  502  0.14846963754E+01 -0.38848559880E+02 -0.41724461236E+02  0.57029339760E+02  0.00000000000E+00 0. -1.
         21    1    1    2  505  503 -0.11703478260E+03 -0.20512404244E+02  0.20414533715E+02  0.12055974558E+03  0.00000000000E+00 0. -1.
          2    1    1    2  501    0  0.76967989443E+02  0.10250584582E+02  0.59042198631E+03  0.59550589233E+03  0.00000000000E+00 0. -1.
<scales pt_clust_3="56.64949" pt_clust_4="38.87692" pt_clust_5="79.63217" pt_clust_6="14000.00000"></scales>
<clustering>
<clus scale="   38.877">  2  4  1 -1</clus>
<clus scale="   56.649">  2  3  1 -1</clus>
<clus scale="   79.632">  2  5  1 -1</clus>
<clus scale="   38.877">  2  3  1 -1</clus>
</clustering>
</event>
<event>
 6    0  0.7258365E+002  0.2227529E+03  0.7546771E-02  0.1131847E+00
         -1   -1    0    0    0  501 -0.00000000000E+00  0.00000000000E+00  0.22412260620E+03  0.22412260620E+03  0.00000000000E+00 0. -1.
         21   -1    0    0  505  502  0.00000000000E+00 -0.00000000000E+00 -0.16490785895E+04  0.16490785895E+04  0.00000000000E+00 0. -1.
         21    1    1    2  503  504  0.31665330148E+02  0.13604873023E+03 -0.76903183390E+03  0.78161493824E+03  0.00000000000E+00 0. -1.
         21    1    1    2  504  502  0.28299815840E+02  0.69100534391E+02 -0.77653818640E+03  0.78012006663E+03  0.00000000000E+00 0. -1.
         21    1    1    2  505  501  0.31306304079E+02 -0.47951969628E+02 -0.39225115864E+02  0.69412432466E+02  0.00000000000E+00 0. -1.
         -1    1    1    2    0  503 -0.91271450066E+02 -0.15719729500E+03  0.15983915286E+03  0.24205375836E+03  0.00000000000E+00 0. -1.
<scales pt_clust_3="49.30457" pt_clust_4="49.30457" pt_clust_5="57.26671" pt_clust_6="212.30018"></scales>
<clustering>
<clus scale="   49.305">  3  4 -1 -1</clus>
<clus scale="   57.267">  1  5  2 -1</clus>
<clus scale="  212.300">  1  6  2 -1</clus>
<clus scale="  222.753">  2  3  1 -1</clus>
</clustering>
</event>
<event>
 6    0  0.7258365E+002  0.9019252E+02  0.7546771E-02  0.1302386E+00
         21   -1    0    0  501  502  0.00000000000E+00  0.00000000000E+00  0.20013111877E+04  0.20013111877E+04  0.00000000000E+00 0. -1.
          2   -1    0    0  505    0 -0.00000000000E+00 -0.00000000000E+00 -0.99097954923E+03  0.99097954923E+03  0.00000000000E+00 0.  1.
         21    1    1    2  503  504  0.14234225241E+02  0.12777391796E+03 -0.38227638444E+00  0.12856489962E+03  0.00000000000E+00 0.  1.
         21    1    1    2  504  502 -0.65102763875E+01 -0.89338417238E+02  0.19285909826E+04  0.19306700689E+04  0.00000000000E+00 0. -1.
         21    1    1    2  505  503 -0.32732013207E+02 -0.10785565773E+02 -0.34064510081E+02  0.48457238517E+02  0.00000000000E+00 0.  1.
          2    1    1    2  501    0  0.25008064354E+02 -0.27649934944E+02 -0.88381255766E+03  0.88459852999E+03  0.00000000000E+00 0.  1.
<scales pt_clust_3="14000.00000" pt_clust_4="90.19252" pt_clust_5="34.46321" pt_clust_6="38.08578"></scales>
<clustering>
<clus scale="   34.463">  2  5  1 -1</clus>
<clus scale="   38.086">  2  6  1 -1</clus>
<clus scale="   90.193">  1  4  2 -1</clus>
<clus scale="   90.193">  1  3  2 -1</clus>
</clustering>
</event>
<event>
 6    0  0.7258365E+002  0.1690989E+03  0.7546771E-02  0.1178791E+00
          2   -1    0    0  504    0 -0.00000000000E+00  0.00000000000E+00  0.46200435752E+03  0.46200435752E+03  0.00000000000E+00 0.  1.
         21   -1    0    0  505  502  0.00000000000E+00 -0.00000000000E+00 -0.16557324134E+03  0.16557324134E+03  0.00000000000E+00 0.  1.
         21    1    1    2  503  501  0.83972179146E+01  0.90924544409E+02  0.49107455656E+01  0.91443433152E+02  0.00000000000E+00 0.  1.
         21    1    1    2  504  502  0.43017052242E+02 -0.23589979341E+03  0.11306446071E+03  0.26510894287E+03  0.00000000000E+00 0.  1.
         21    1    1    2  505  503 -0.27765196838E+02  0.41340076066E+02 -0.13505089986E+02  0.51597436953E+02  0.00000000000E+00 0.  1.
          2    1    1    2  501    0 -0.23649073319E+02  0.10363517293E+03  0.19196099989E+03  0.21942778588E+03  0.00000000000E+00 0.  1.
<scales pt_clust_3="37.05570" pt_clust_4="161.48273" pt_clust_5="37.05570" pt_clust_6="106.29924"></scales>
<clustering>
<clus scale="   37.056">  3  5 -1 -1</clus>
<clus scale="  106.299">  1  6  2 -1</clus>
<clus scale="  161.483">  1  4  2 -1</clus>
<clus scale="  169.099">  2  3  1 -1</clus>
</clustering>
</event>
<event>
 6    0  0.7258365E+002  0.1023925E+03  0.7546771E-02  0.1275344E+00
          2   -1    0    0  505    0 -0.00000000000E+00  0.00000000000E+00  0.14968979994E+04  0.14968979994E+04  0.00000000000E+00 0.  1.
         21   -1    0    0  503  502  0.00000000000E+00 -0.00000000000E+00 -0.34009724850E+03  0.34009724850E+03  0.00000000000E+00 0.  1.
         21    1    1    2  503  504 -0.47858543652E+02 -0.31480049393E+02 -0.20951306329E+03  0.21720303267E+03  0.00000000000E+00 0.  1.
         21    1    1    2  504  501  0.97240857018E+02  0.99437007102E+02  0.27014293561E+03  0.30384322983E+03  0.00000000000E+00 0.  1.
         21    1    1    2  505  502 -0.70296571075E+01 -0.56605772376E+02 -0.10205886644E+03  0.11691724323E+03  0.00000000000E+00 0.  1.
          2    1    1    2  501    0 -0.42352656259E+02 -0.11351185333E+02  0.11982297450E+04  0.11990317421E+04  0.00000000000E+00 0.  1.
<scales pt_clust_3="102.39248" pt_clust_4="14000.00000" pt_clust_5="57.46009" pt_clust_6="43.84743"></scales>
<clustering>
<clus scale="   43.847">  1  6  2 -1</clus>
<clus scale="   57.460">  2  5  1 -1</clus>
<clus scale="  102.392">  2  3  1 -1</clus>
<clus scale="   57.460">  2  3  1 -1</clus>
</clustering>
</event>
<event>
 6    0  0.7258365E+002  0.6355732E+02  0.7546771E-02  0.1383482E+00
          1   -1    0    0  505    0 -0.00000000000E+00  0.00000000000E+00  0.18677439628E+04  0.18677439628E+04  0.00000000000E+00 0.  1.
         21   -1    0    0  503  502  0.00000000000E+00 -0.00000000000E+00 -0.15946423738E+03  0.15946423738E+03  0.00000000000E+00 0. -1.
         21    1    1    2  503  504  0.30383691226E+02  0.70388817216E+02 -0.47498678405E+02  0.90188018782E+02  0.00000000000E+00 0. -1.
         21    1    1    2  504  501 -0.49112766998E+02  0.46625353125E+02  0.11195577793E+03  0.13084373752E+03  0.00000000000E+00 0.  1.
         21    1    1    2  505  502  0.61545841260E+01 -0.54230348223E+02 -0.71337683510E+02  0.89821348591E+02  0.00000000000E+00 0. -1.
          1    1    1    2  501    0  0.12574491646E+02 -0.62783822118E+02  0.17151603094E+04  0.17163550952E+04  0.00000000000E+00 0.  1.
<scales pt_clust_3="42.54696" pt_clust_4="14000.00000" pt_clust_5="54.57847" pt_clust_6="63.55732"></scales>
<clustering>
<clus scale="   54.578">  2  5  1 -1</clus>
<clus scale="   42.547">  2  3  1 -1</clus>
<clus scale="   63.557">  1  6  2 -1</clus>
<clus scale="   54.578">  2  3  1 -1</clus>
</clustering>
</event>
<event>
 6    0  0.7258365E+002  0.1321239E+03  0.7546771E-02  0.1224338E+00
         21   -1    0    0  503  502  0.00000000000E+00  0.00000000000E+00  0.21998520399E+04  0.21998520399E+04  0.00000000000E+00 0.  1.
          1   -1    0    0  505    0 -0.00000000000E+00 -0.00000000000E+00 -0.64284122399E+03  0.64284122399E+03  0.00000000000E+00 0. -1.
         21    1    1    2  503  504  0.11106124802E+02 -0.36539537318E+02  0.74294005775E+03  0.74392097242E+03  0.00000000000E+00 0.  1.
         21    1    1    2  504  501  0.91604561555E+02  0.68524751284E+02  0.12559585357E+04  0.12611577541E+04  0.00000000000E+00 0.  1.
         21    1    1    2  505  502  0.57284930115E+01  0.43667219146E+02  0.18846572503E+03  0.19354320234E+03  0.00000000000E+00 0.  1.
          1    1    1    2  501    0 -0.10843917937E+03 -0.75652433113E+02 -0.63035350265E+03  0.64407133500E+03  0.00000000000E+00 0. -1.
<scales pt_clust_3="38.19010" pt_clust_4="132.12388" pt_clust_5="39.53359" pt_clust_6="14000.00000"></scales>
<clustering>
<clus scale="   38.190">  1  3  2 -1</clus>
<clus scale="   39.534">  1  5  2 -1</clus>
<clus scale="  132.124">  1  4  2 -1</clus>
<clus scale="   38.190">  1  3  2 -1</clus>
</clustering>
</event>
<event>
 6    0  0.7258365E+002  0.8237936E+02  0.7546771E-02  0.1322432E+00
          1   -1    0    0  504    0 -0.00000000000E+00  0.00000000000E+00  0.22355060657E+04  0.22355060657E+04  0.00000000000E+00 0. -1.
         21   -1    0    0  503  502  0.00000000000E+00 -0.00000000000E+00 -0.32005236622E+02  0.32005236622E+02  0.00000000000E+00 0.  1.
         21    1    1    2  503  501 -0.77509991705E+02 -0.43972619108E+02  0.35638472118E+03  0.36735740027E+03  0.00000000000E+00 0.  1.
         21    1    1    2  504  505  0.82868800128E+01  0.45855201761E+02  0.92142173667E+02  0.10325479203E+03  0.00000000000E+00 0.  1.
         21    1    1    2  505  502  0.73006189425E+02  0.34967723849E+02  0.58147431880E+02  0.99668296061E+02  0.00000000000E+00 0.  1.
          1    1    1    2  501    0 -0.37830777325E+01 -0.36850306502E+02  0.16968265023E+04  0.16972308139E+04  0.00000000000E+00 0. -1.
<scales pt_clust_3="14000.00000" pt_clust_4="39.89987" pt_clust_5="82.37936" pt_clust_6="37.04398"></scales>
<clustering>
<clus scale="   37.044">  1  6  2 -1</clus>
<clus scale="   39.900">  1  4  2 -1</clus>
<clus scale="   82.379">  2  5  1 -1</clus>
<clus scale="   82.379">  2  3  1 -1</clus>
</clustering>
</event>
<event>
 6    0  0.7258365E+002  0.1031385E+03  0.7546771E-02  0.1273831E+00
         21   -1    0    0  504  502  0.00000000000E+00  0.00000000000E+00  0.84993880901E+02  0.84993880901E+02  0.00000000000E+00 0. -1.
          1   -1    0    0  505    0 -0.00000000000E+00 -0.00000000000E+00 -0.51165489323E+03  0.51165489323E+03  0.00000000000E+00 0.  1.
         21    1    1    2  503  501 -0.70924341999E+02  0.30210933328E+02 -0.45727016630E+02  0.89632152883E+02  0.00000000000E+00 0.  1.
         21    1    1    2  504  503 -0.27944320168E+02 -0.25456164503E+02 -0.17867470794E+02  0.41810858080E+02  0.00000000000E+00 0. -1.
         21    1    1    2  505  502  0.14277907695E+03 -0.28254164305E+00 -0.53445336107E+02  0.15245441482E+03  0.00000000000E+00 0. -1.
          1    1    1    2  501    0 -0.43910414788E+02 -0.44722271829E+01 -0.30962118880E+03  0.31275134835E+03  0.00000000000E+00 0.  1.
<scales pt_clust_3="103.13851" pt_clust_4="37.80081" pt_clust_5="14000.00000" pt_clust_6="44.79130"></scales>
<clustering>
<clus scale="   37.801">  1  4  2 -1</clus>
<clus scale="   44.791">  2  6  1 -1</clus>
<clus scale="  103.139">  2  3  1 -1</clus>
<clus scale="   37.801">  1  3  2 -1</clus>
</clustering>
</event>
<event>
 6    0  0.7258365E+002  0.1061677E+03  0.7546771E-02  0.1267836E+00
         -1   -1    0    0    0  501 -0.00000000000E+00  0.00000000000E+00  0.23920587540E+04  0.23920587540E+04  0.00000000000E+00 0. -1.
         21   -1    0    0  503  502  0.00000000000E+00 -0.00000000000E+00 -0.76284815304E+02  0.76284815304E+02  0.00000000000E+00 0.  1.
         21    1    1    2  503  504  0.61076274492E+02  0.97961008589E+02  0.91619916400E+01  0.11580419941E+03  0.00000000000E+00 0.  1.
         21    1    1    2  504  501 -0.61801748153E+02 -0.43952625497E+02  0.23206457250E+03  0.24414187509E+03  0.00000000000E+00 0. -1.
         21    1    1    2  505  502  0.33458527054E+02 -0.75736951398E+02  0.85706626576E+02  0.11916872358E+03  0.00000000000E+00 0. -1.
         -1    1    1    2    0  505 -0.32733053394E+02  0.21728568305E+02  0.19888407479E+04  0.19892287712E+04  0.00000000000E+00 0. -1.
<scales pt_clust_3="106.16772" pt_clust_4="14000.00000" pt_clust_5="74.57868" pt_clust_6="39.28846"></scales>
<clustering>
<clus scale="   39.288">  1  6  2 -1</clus>
<clus scale="   74.579">  1  5  2 -1</clus>
<clus scale="  106.168">  2  3  1 -1</clus>
<clus scale="  106.168">  2  3  1 -1</clus>
</clustering>
</event>
<event>
 6    0  0.7258365E+002  0.1047434E+03  0.7546771E-02  0.1270626E+00
         21   -1    0    0  504  502  0.00000000000E+00  0.00000000000E+00  0.10081708972E+03  0.10081708972E+03  0.00000000000E+00 0.  1.
          2   -1    0    0  503    0 -0.00000000000E+00 -0.00000000000E+00 -0.16731430795E+04  0.16731430795E+04  0.00000000000E+00 0. -1.
         21    1    1    2  503  505  0.40881584686E+02  0.67155827078E+02 -0.84791492562E+02  0.11563220264E+03  0.00000000000E+00 0.  1.
         21    1    1    2  504  501  0.36543439378E+02 -0.52100217209E+02 -0.35239496351E+03  0.35809505149E+03  0.00000000000E+00 0. -1.
         21    1    1    2  505  502 -0.12051332345E+03 -0.33668175706E+02  0.34385353770E+02  0.12976655863E+03  0.00000000000E+00 0.  1.
          2    1    1    2  501    0  0.43088299388E+02  0.18612565837E+02 -0.11695248875E+04  0.11704663564E+04  0.00000000000E+00 0. -1.
<scales pt_clust_3="104.74337" pt_clust_4="77.47391" pt_clust_5="14000.00000" pt_clust_6="46.93644"></scales>
<clustering>
<clus scale="   46.936">  2  6  1 -1</clus>
<clus scale="   77.474">  2  4  1 -1</clus>
<clus scale="  104.743">  2  3  1 -1</clus>
<clus scale="  104.743">  1  3  2 -1</clus>
</clustering>
</event>
<event>
 6    0  0.7258365E+002  0.8547570E+02  0.7546771E-02  0.1314193E+00
         21   -1    0    0  505  502  0.00000000000E+00  0.00000000000E+00  0.15075563757E+03  0.15075563757E+03  0.00000000000E+00 0. -1.
         -1   -1    0    0    0  501 -0.00000000000E+00 -0.00000000000E+00 -0.49245379333E+03  0.49245379333E+03  0.00000000000E+00 0.  1.
         21    1    1    2  503  501  0.29509237300E+02 -0.59107622509E+01 -0.20585885771E+03  0.20804711364E+03  0.00000000000E+00 0.  1.
         21    1    1    2  504  502 -0.10026507904E+03 -0.74578146976E+02 -0.18617781333E+03  0.22422569937E+03  0.00000000000E+00 0. -1.
         21    1    1    2  505  503  0.69680031269E+02  0.44853998468E+02  0.11223144366E+03  0.13951016050E+03  0.00000000000E+00 0. -1.
         -1    1    1    2    0  504  0.10758104697E+01  0.35634910759E+02 -0.61892928375E+02  0.71426457394E+02  0.00000000000E+00 0.  1.
<scales pt_clust_3="30.09538" pt_clust_4="85.47570" pt_clust_5="14000.00000" pt_clust_6="35.16884"></scales>
<clustering>
<clus scale="   30.095">  2  3  1 -1</clus>
<clus scale="   35.169">  2  6  1 -1</clus>
<clus scale="   85.476">  2  4  1 -1</clus>
<clus scale="   85.476">  1  3  2 -1</clus>
</clustering>
</event>
<event>
 6    0  0.7258365E+002  0.6884668E+02  0.7546771E-02  0.1364059E+00
         21   -1    0    0  503  502  0.00000000000E+00  0.00000000000E+00  0.53130874304E+02  0.53130874304E+02  0.00000000000E+00 0.  1.
         -2   -1    0    0    0  501 -0.00000000000E+00 -0.00000000000E+00 -0.15083889810E+04  0.15083889810E+04  0.00000000000E+00 0. -1.
         21    1    1    2  503  501 -0.14126572166E+02  0.62462339145E+02 -0.22164411527E+03  0.23071024616E+03  0.00000000000E+00 0.  1.
         21    1    1    2  504  502  0.33941804386E+02  0.18316148630E+02  0.26680037270E+02  0.46897246981E+02  0.00000000000E+00 0.  1.
         21    1    1    2  505  504 -0.75245238959E+02 -0.70173132914E+02 -0.22873025589E+03  0.25080598982E+03  0.00000000000E+00 0.  1.
         -2    1    1    2    0  505  0.55430006739E+02 -0.10605354860E+02 -0.10315637728E+04  0.10331063724E+04  0.00000000000E+00 0. -1.
<scales pt_clust_3="68.84668" pt_clust_4="38.56848" pt_clust_5="14000.00000" pt_clust_6="57.85783"></scales>
<clustering>
<clus scale="   38.568">  1  4  2 -1</clus>
<clus scale="   57.858">  2  6  1 -1</clus>
<clus scale="   68.847">  2  3  1 -1</clus>
<clus scale="   38.568">  1  3  2 -1</clus>
</clustering>
</event>
<event>
 6    0  0.7258365E+002  0.1991396E+03  0.7546771E-02  0.1150467E+00
         -1   -1    0    0    0  501 -0.00000000000E+00  0.00000000000E+00  0.18419807262E+03  0.18419807262E+03  0.00000000000E+00 0.  1.
         21   -1    0    0  504  502  0.00000000000E+00 -0.00000000000E+00 -0.19393639768E+04  0.19393639768E+04  0.00000000000E+00 0.  1.
         21    1    1    2  503  501  0.82988697819E+01 -0.47367973829E+02 -0.21792537641E+02  0.52796883253E+02  0.00000000000E+00 0.  1.
         21    1    1    2  504  503 -0.18382561789E+03  0.12296871941E+03 -0.12345194269E+04  0.12541735842E+04  0.00000000000E+00 0.  1.
         21    1    1    2  505  502  0.38290681807E+02  0.14384425012E+02 -0.61448125182E+03  0.61584112954E+03  0.00000000000E+00 0.  1.
         -1    1    1    2    0  505  0.13723606630E+03 -0.89985170593E+02  0.11562731223E+03  0.20075045244E+03  0.00000000000E+00 0.  1.
<scales pt_clust_3="47.88990" pt_clust_4="199.13960" pt_clust_5="40.90340" pt_clust_6="14000.00000"></scales>
<clustering>
<clus scale="   40.903">  2  5  1 -1</clus>
<clus scale="   47.890">  1  3  2 -1</clus>
<clus scale="  199.140">  2  4  1 -1</clus>
<clus scale="   40.903">  2  3  1 -1</clus>
</clustering>
</event>
<event>
 6    0  0.7258365E+002  0.8138860E+02  0.7546771E-02  0.1325156E+00
         21   -1    0    0  505  502  0.00000000000E+00  0.00000000000E+00  0.62565035199E+02  0.62565035199E+02  0.00000000000E+00 0. -1.
          2   -1    0    0  504    0 -0.00000000000E+00 -0.00000000000E+00 -0.12401387811E+04  0.12401387811E+04  0.00000000000E+00 0. -1.
         21    1    1    2  503  502 -0.39706390682E+02 -0.66753377745E+02  0.11747734799E+02  0.78553295121E+02  0.00000000000E+00 0. -1.
         21    1    1    2  504  503  0.55497080930E+02  0.97435555245E+02 -0.26460760404E+03  0.28738614708E+03  0.00000000000E+00 0.  1.
         21    1    1    2  505  501 -0.51915110699E+02 -0.29797492074E+02 -0.15430646699E+03  0.16550998462E+03  0.00000000000E+00 0.  1.
          2    1    1    2  501    0  0.36124420452E+02 -0.88468542625E+00 -0.77040740970E+03  0.77125438952E+03  0.00000000000E+00 0. -1.
<scales pt_clust_3="81.38860" pt_clust_4="14000.00000" pt_clust_5="49.74545" pt_clust_6="36.13525"></scales>
<clustering>
<clus scale="   36.135">  2  6  1 -1</clus>
<clus scale="   49.745">  2  5  1 -1</clus>
<clus scale="   81.389">  1  3  2 -1</clus>
<clus scale="   81.389">  1  3  2 -1</clus>
</clustering>
</event>
<event>
 6    0  0.7258365E+002  0.2403954E+03  0.7546771E-02  0.1119530E+00
         21   -1    0    0  504  502  0.00000000000E+00  0.00000000000E+00  0.16257768886E+04  0.16257768886E+04  0.00000000000E+00 0.  1.
          1   -1    0    0  505    0 -0.00000000000E+00 -0.00000000000E+00 -0.14261151544E+04  0.14261151544E+04  0.00000000000E+00 0. -1.
         21    1    1    2  503  501 -0.94378097404E+02  0.21905926256E+02 -0.39213376525E+03  0.40392571684E+03  0.00000000000E+00 0. -1.
         21    1    1    2  504  503  0.30767378259E+03  0.36954892001E+02 -0.57371789267E+03  0.65205907777E+03  0.00000000000E+00 0. -1.
         21    1    1    2  505  502 -0.23707068461E+03 -0.33085672605E+02  0.15708871402E+04  0.15890196910E+04  0.00000000000E+00 0.  1.
          1    1    1    2  501    0  0.23774999424E+02 -0.25775145653E+02 -0.40537374810E+03  0.40688755742E+03  0.00000000000E+00 0. -1.
<scales pt_clust_3="85.92111" pt_clust_4="240.39539" pt_clust_5="14000.00000" pt_clust_6="35.06578"></scales>
<clustering>
<clus scale="   35.066">  2  6  1 -1</clus>
<clus scale="   85.921">  2  3  1 -1</clus>
<clus scale="  240.395">  2  4  1 -1</clus>
<clus scale="  240.395">  1  3  2 -1</clus>
</clustering>
</event>
<event>
 6    0  0.7258365E+002  0.9062422E+02  0.7546771E-02  0.1301347E+00
         21   -1    0    0  504  502  0.00000000000E+00  0.00000000000E+00  0.94968638827E+03  0.94968638827E+03  0.00000000000E+00 0.  1.
          2   -1    0    0  505    0 -0.00000000000E+00 -0.00000000000E+00 -0.74309275638E+03  0.74309275638E+03  0.00000000000E+00 0. -1.
         21    1    1    2  503  502 -0.11681319972E+03 -0.72111640687E+01  0.40303318029E+03  0.41968210461E+03  0.00000000000E+00 0.  1.
         21    1    1    2  504  501  0.80424724761E+02 -0.11351548179E+02  0.52088366538E+03  0.52717813580E+03  0.00000000000E+00 0.  1.
         21    1    1    2  505  503  0.22766465968E+02 -0.22250693998E+02 -0.49134219803E+01  0.32210977502E+02  0.00000000000E+00 0. -1.
          2    1    1    2  501    0  0.13622008994E+02  0.40813406245E+02 -0.71240979179E+03  0.71370792674E+03  0.00000000000E+00 0. -1.
<scales pt_clust_3="90.62422" pt_clust_4="14000.00000" pt_clust_5="31.83403" pt_clust_6="40.69146"></scales>
<clustering>
<clus scale="   31.834">  2  5  1 -1</clus>
<clus scale="   40.691">  2  6  1 -1</clus>
<clus scale="   90.624">  2  3  1 -1</clus>
<clus scale="   90.624">  1  3  2 -1</clus>
</clustering>
</event>
<event>
 6    0  0.7258365E+002  0.7090088E+02  0.7546771E-02  0.1357056E+00
          3   -1    0    0  505    0 -0.00000000000E+00  0.00000000000E+00  0.17523729864E+03  0.17523729864E+03  0.00000000000E+00 0. -1.
         21   -1    0    0  504  502  0.00000000000E+00 -0.00000000000E+00 -0.23296919232E+03  0.23296919232E+03  0.00000000000E+00 0.  1.
         21    1    1    2  503  501 -0.24376058255E+01  0.77542602855E+02 -0.40442739485E+02  0.87489498552E+02  0.00000000000E+00 0.  1.
         21    1    1    2  504  503  0.82186018145E+02 -0.39242320345E+02 -0.56111753340E+02  0.10697209985E+03  0.00000000000E+00 0.  1.
         21    1    1    2  505  502 -0.55430472163E+02 -0.16854549028E+02 -0.75355153766E+02  0.95052681531E+02  0.00000000000E+00 0.  1.
          3    1    1    2  501    0 -0.24317940156E+02 -0.21445733483E+02  0.11417775291E+03  0.11869221103E+03  0.00000000000E+00 0. -1.
<scales pt_clust_3="70.90088" pt_clust_4="14000.00000" pt_clust_5="62.91837" pt_clust_6="32.42347"></scales>
<clustering>
<clus scale="   32.423">  1  6  2 -1</clus>
<clus scale="   62.918">  2  5  1 -1</clus>
<clus scale="   70.901">  1  3  2 -1</clus>
<clus scale="   62.918">  2  3  1 -1</clus>
</clustering>
</event>
<event>
 6    0  0.7258365E+002  0.1174070E+03  0.7546771E-02  0.1247437E+00
         21   -1    0    0  505  502  0.00000000000E+00  0.00000000000E+00  0.14769766681E+04  0.14769766681E+04  0.00000000000E+00 0. -1.
          2   -1    0    0  503    0 -0.00000000000E+00 -0.00000000000E+00 -0.28178305409E+03  0.28178305409E+03  0.00000000000E+00 0. -1.
         21    1    1    2  503  504 -0.13870201585E+02  0.45140366521E+02  0.26165164364E+01  0.47295679929E+02  0.00000000000E+00 0. -1.
         21    1    1    2  504  502  0.72524103084E+02 -0.36372076188E+02  0.44109066106E+03  0.44849040651E+03  0.00000000000E+00 0. -1.
         21    1    1    2  505  501  0.44418126400E+02  0.40719354508E+01  0.99616394611E+03  0.99716205210E+03  0.00000000000E+00 0. -1.
          2    1    1    2  501    0 -0.10307202790E+03 -0.12840225783E+02 -0.24467750957E+03  0.26581158369E+03  0.00000000000E+00 0. -1.
<scales pt_clust_3="46.80262" pt_clust_4="117.40705" pt_clust_5="44.60438" pt_clust_6="14000.00000"></scales>
<clustering>
<clus scale="   44.604">  1  5  2 -1</clus>
<clus scale="   46.803">  2  3  1 -1</clus>
<clus scale="  117.407">  1  4  2 -1</clus>
<clus scale="   44.604">  1  3  2 -1</clus>
</clustering>
</event>
<event>
 6    0  0.7258365E+002  0.1234655E+03  0.7546771E-02  0.1237487E+00
         21   -1    0    0  503  502  0.00000000000E+00  0.00000000000E+00  0.46370851368E+03  0.46370851368E+03  0.00000000000E+00 0.  1.
          2   -1    0    0  505    0 -0.00000000000E+00 -0.00000000000E+00 -0.15498191290E+04  0.15498191290E+04  0.00000000000E+00 0.  1.
         21    1    1    2  503  501  0.10986103477E+03  0.14696032470E+03 -0.22411218022E+02  0.18484871298E+03  0.00000000000E+00 0. -1.
         21    1    1    2  504  502 -0.18193907405E+02  0.39447254034E+02  0.30480061338E+02  0.53067299316E+02  0.00000000000E+00 0.  1.
         21    1    1    2  505  504 -0.15534388981E+02 -0.91644082108E+02  0.33174207502E+03  0.34451815535E+03  0.00000000000E+00 0.  1.
          2    1    1    2  501    0 -0.76132738384E+02 -0.94763496631E+02 -0.14259215337E+04  0.14310934750E+04  0.00000000000E+00 0.  1.
<scales pt_clust_3="123.46547" pt_clust_4="43.44081" pt_clust_5="67.16184" pt_clust_6="14000.00000"></scales>
<clustering>
<clus scale="   43.441">  1  4  2 -1</clus>
<clus scale="   67.162">  1  5  2 -1</clus>
<clus scale="  123.465">  1  3  2 -1</clus>
<clus scale="   43.441">  1  3  2 -1</clus>
</clustering>
</event>
<event>
 6    0  0.7258365E+002  0.1172899E+03  0.7546771E-02  0.1247636E+00
          1   -1    0    0  504    0 -0.00000000000E+00  0.00000000000E+00  0.50976027692E+03  0.50976027692E+03  0.00000000000E+00 0. -1.
         21   -1    0    0  501  502  0.00000000000E+00 -0.00000000000E+00 -0.96231313342E+02  0.96231313342E+02  0.00000000000E+00 0. -1.
         21    1    1    2  503  505  0.73408907066E+02  0.83302853265E+01 -0.14493643634E+02  0.75288292556E+02  0.00000000000E+00 0. -1.
         21    1    1    2  504  503 -0.23082099924E+02 -0.31483906701E+02  0.79475923286E+02  0.88546270956E+02  0.00000000000E+00 0.  1.
         21    1    1    2  505  502  0.38224704950E+02 -0.18398306745E+02 -0.29493538216E+02  0.51667151616E+02  0.00000000000E+00 0. -1.
          1    1    1    2  501    0 -0.88551512092E+02  0.41551928119E+02  0.37804022214E+03  0.39048987513E+03  0.00000000000E+00 0. -1.
<scales pt_clust_3="30.49348" pt_clust_4="39.03870" pt_clust_5="30.49348" pt_clust_6="110.17044"></scales>
<clustering>
<clus scale="   30.493">  3  5 -1 -1</clus>
<clus scale="   39.039">  1  4  2 -1</clus>
<clus scale="  110.170">  1  6  2 -1</clus>
<clus scale="  117.290">  2  3  1 -1</clus>
</clustering>
</event>
<event>
 6    0  0.7258365E+002  0.1096213E+03  0.7546771E-02  0.1261273E+00
          2   -1    0    0  504    0 -0.00000000000E+00  0.00000000000E+00  0.87030191629E+03  0.87030191629E+03  0.00000000000E+00 0. -1.
         21   -1    0    0  505  502  0.00000000000E+00 -0.00000000000E+00 -0.41531977801E+03  0.41531977801E+03  0.00000000000E+00 0.  1.
         21    1    1    2  503  502 -0.28368041140E+02 -0.13664804076E+02 -0.44265432640E+01  0.31797278403E+02  0.00000000000E+00 0. -1.
         21    1    1    2  504  503  0.36427864510E+02  0.12491781259E+03  0.42972469782E+03  0.44899305689E+03  0.00000000000E+00 0.  1.
         21    1    1    2  505  501  0.43167580618E+02 -0.94770168971E+02 -0.37878153758E+03  0.39283619761E+03  0.00000000000E+00 0.  1.
          2    1    1    2  501    0 -0.51227403988E+02 -0.16482839543E+02  0.40846552130E+03  0.41199516139E+03  0.00000000000E+00 0. -1.
<scales pt_clust_3="31.48766" pt_clust_4="109.62126" pt_clust_5="14000.00000" pt_clust_6="53.95244"></scales>
<clustering>
<clus scale="   31.488">  2  3  1 -1</clus>
<clus scale="   53.952">  1  6  2 -1</clus>
<clus scale="  109.621">  1  4  2 -1</clus>
<clus scale="   31.488">  2  3  1 -1</clus>
</clustering>
</event>
<event>
 6    0  0.7258365E+002  0.2299970E+03  0.7546771E-02  0.1126642E+00
         21   -1    0    0  504  502  0.00000000000E+00  0.00000000000E+00  0.92429229723E+02  0.92429229723E+02  0.00000000000E+00 0. -1.
          1   -1    0    0  505    0 -0.00000000000E+00 -0.00000000000E+00 -0.12803062186E+04  0.12803062186E+04  0.00000000000E+00 0.  1.
         21    1    1    2  503  502  0.11066894184E+03  0.46665049976E+02 -0.88618576947E+02  0.14925981964E+03  0.00000000000E+00 0.  1.
         21    1    1    2  504  501 -0.18186347315E+03 -0.75067823548E+02 -0.41636083065E+03  0.46050607195E+03  0.00000000000E+00 0.  1.
         21    1    1    2  505  503  0.12230168872E+03  0.12645002277E+02 -0.58280321865E+02  0.13606687717E+03  0.00000000000E+00 0. -1.
          1    1    1    2  501    0 -0.51107157415E+02  0.15757771295E+02 -0.62461725940E+03  0.62690267956E+03  0.00000000000E+00 0.  1.
<scales pt_clust_3="44.62960" pt_clust_4="225.52072" pt_clust_5="44.62960" pt_clust_6="53.48129"></scales>
<clustering>
<clus scale="   44.630">  3  5 -1 -1</clus>
<clus scale="   53.481">  2  6  1 -1</clus>
<clus scale="  225.521">  2  4  1 -1</clus>
<clus scale="  229.997">  1  3  2 -1</clus>
</clustering>
</event>
<event>
 6    0  0.7258365E+002  0.1616357E+03  0.7546771E-02  0.1186862E+00
         21   -1    0    0  503  502  0.00000000000E+00  0.00000000000E+00  0.65871680091E+03  0.65871680091E+03  0.00000000000E+00 0. -1.
          2   -1    0    0  504    0 -0.00000000000E+00 -0.00000000000E+00 -0.70151026753E+03  0.70151026753E+03  0.00000000000E+00 0. -1.
         21    1    1    2  503  501 -0.32336547555E+02  0.14033969782E+02  0.15725822865E+03  0.16116064996E+03  0.00000000000E+00 0. -1.
         21    1    1    2  504  505 -0.20205937846E+03  0.10363915722E+01 -0.51442835680E+03  0.55268942528E+03  0.00000000000E+00 0. -1.
         21    1    1    2  505  502  0.18866303304E+03  0.15445115873E+02  0.45639193869E+03  0.49409097679E+03  0.00000000000E+00 0. -1.
          2    1    1    2  501    0  0.45732892971E+02 -0.30515477226E+02 -0.14201527716E+03  0.15228601642E+03  0.00000000000E+00 0. -1.
<scales pt_clust_3="35.25060" pt_clust_4="161.63569" pt_clust_5="14000.00000" pt_clust_6="54.62243"></scales>
<clustering>
<clus scale="   35.251">  1  3  2 -1</clus>
<clus scale="   54.622">  2  6  1 -1</clus>
<clus scale="  161.636">  2  4  1 -1</clus>
<clus scale="   35.251">  1  3  2 -1</clus>
</clustering>
</event>
<event>
 6    0  0.7258365E+002  0.1083420E+03  0.7546771E-02  0.1263671E+00
         21   -1    0    0  503  502  0.00000000000E+00  0.00000000000E+00  0.17417537115E+04  0.17417537115E+04  0.00000000000E+00 0.  1.
          4   -1    0    0  505    0 -0.00000000000E+00 -0.00000000000E+00 -0.28726885871E+03  0.28726885871E+03  0.00000000000E+00 0.  1.
         21    1    1    2  503  501  0.57511854635E+02 -0.11559603277E+01  0.14912121415E+04  0.14923212123E+04  0.00000000000E+00 0.  1.
         21    1    1    2  504  502  0.53145882432E+02  0.77695971468E+02  0.20210976567E+03  0.22295628760E+03  0.00000000000E+00 0. -1.
         21    1    1    2  505  504 -0.64453722264E+02 -0.45498720537E+02 -0.11543535913E+02  0.79734992980E+02  0.00000000000E+00 0.  1.
          4    1    1    2  501    0 -0.46204014803E+02 -0.31041290604E+02 -0.22729351853E+03  0.23401007729E+03  0.00000000000E+00 0.  1.
<scales pt_clust_3="57.07799" pt_clust_4="108.34203" pt_clust_5="14000.00000" pt_clust_6="55.66303"></scales>
<clustering>
<clus scale="   55.663">  2  6  1 -1</clus>
<clus scale="   57.078">  1  3  2 -1</clus>
<clus scale="  108.342">  1  4  2 -1</clus>
<clus scale="   57.078">  1  3  2 -1</clus>
</clustering>
</event>
<event>
 6    0  0.7258365E+002  0.1376700E+03  0.7546771E-02  0.1216499E+00
         21   -1    0    0  504  502  0.00000000000E+00  0.00000000000E+00  0.12711997544E+04  0.12711997544E+04  0.00000000000E+00 0.  1.
          4   -1    0    0  505    0 -0.00000000000E+00 -0.00000000000E+00 -0.77062469812E+03  0.77062469812E+03  0.00000000000E+00 0.  1.
         21    1    1    2  503  502  0.13344183029E+03 -0.35966304171E+02  0.12428753484E+04  0.12505356568E+04  0.00000000000E+00 0.  1.
         21    1    1    2  504  501 -0.81678389903E+02  0.85135949524E+02 -0.24828137669E+03  0.27488748842E+03  0.00000000000E+00 0.  1.
         21    1    1    2  505  503 -0.29209454914E+02 -0.89810983181E+01 -0.13048716694E+02  0.33228322118E+02  0.00000000000E+00 0.  1.
          4    1    1    2  501    0 -0.22553985473E+02 -0.40188547034E+02 -0.48097019876E+03  0.48317298524E+03  0.00000000000E+00 0.  1.
<scales pt_clust_3="137.67004" pt_clust_4="14000.00000" pt_clust_5="30.55900" pt_clust_6="61.86686"></scales>
<clustering>
<clus scale="   30.559">  2  5  1 -1</clus>
<clus scale="   61.867">  2  6  1 -1</clus>
<clus scale="  137.670">  1  3  2 -1</clus>
<clus scale="  137.670">  1  3  2 -1</clus>
</clustering>
</event>
<event>
 6    0  0.7258365E+002  0.1486116E+03  0.7546771E-02  0.1202190E+00
         21   -1    0    0  504  502  0.00000000000E+00  0.00000000000E+00  0.36092637737E+03  0.36092637737E+03  0.00000000000E+00 0.  1.
          1   -1    0    0  503    0 -0.00000000000E+00 -0.00000000000E+00 -0.28327691561E+03  0.28327691561E+03  0.00000000000E+00 0.  1.
         21    1    1    2  503  502 -0.17588134839E+03 -0.49809876757E+02 -0.13439064178E+03  0.22688348801E+03  0.00000000000E+00 0.  1.
         21    1    1    2  504  505  0.62964828293E+02  0.13583762422E+02  0.19393966566E+03  0.20435675208E+03  0.00000000000E+00 0.  1.
         21    1    1    2  505  501  0.98331397198E+02  0.93494150714E+01  0.90753629792E+02  0.13413685757E+03  0.00000000000E+00 0.  1.
          1    1    1    2  501    0  0.14585122902E+02  0.26876699263E+02 -0.72653191920E+02  0.78826195326E+02  0.00000000000E+00 0.  1.
<scales pt_clust_3="148.61159" pt_clust_4="64.91608" pt_clust_5="14000.00000" pt_clust_6="30.57912"></scales>
<clustering>
<clus scale="   30.579">  2  6  1 -1</clus>
<clus scale="   64.916">  1  4  2 -1</clus>
<clus scale="  148.612">  2  3  1 -1</clus>
<clus scale="   64.916">  1  3  2 -1</clus>
</clustering>
</event>
<event>
 6    0  0.7258365E+002  0.1045464E+03  0.7546771E-02  0.1271016E+00
         21   -1    0    0  505  502  0.00000000000E+00  0.00000000000E+00  0.23614591912E+03  0.23614591912E+03  0.00000000000E+00 0. -1.
          2   -1    0    0  503    0 -0.00000000000E+00 -0.00000000000E+00 -0.13485423637E+04  0.13485423637E+04  0.00000000000E+00 0. -1.
         21    1    1    2  503  504 -0.90258098143E+02  0.11964595482E+03 -0.42667933206E+03  0.45223548201E+03  0.00000000000E+00 0. -1.
         21    1    1    2  504  502 -0.48167253070E+02 -0.34594309461E+02  0.35846588371E+02  0.69295226483E+02  0.00000000000E+00 0. -1.
         21    1    1    2  505  501  0.13432127049E+03 -0.15826479720E+02  0.14241258521E+03  0.19640271279E+03  0.00000000000E+00 0. -1.
          2    1    1    2  501    0  0.41040807254E+01 -0.69225165639E+02 -0.86397628615E+03  0.86675486158E+03  0.00000000000E+00 0. -1.
<scales pt_clust_3="104.54643" pt_clust_4="59.30304" pt_clust_5="14000.00000" pt_clust_6="69.58753"></scales>
<clustering>
<clus scale="   59.303">  1  4  2 -1</clus>
<clus scale="   69.588">  2  6  1 -1</clus>
<clus scale="  104.546">  2  3  1 -1</clus>
<clus scale="   59.303">  1  3  2 -1</clus>
</clustering>
</event>
<event>
 6    0  0.7258365E+002  0.2443238E+03  0.7546771E-02  0.1116945E+00
         21   -1    0    0  501  502  0.00000000000E+00  0.00000000000E+00  0.10612179671E+03  0.10612179671E+03  0.00000000000E+00 0.  1.
          1   -1    0    0  504    0 -0.00000000000E+00 -0.00000000000E+00 -0.18182651033E+04  0.18182651033E+04  0.00000000000E+00 0.  1.
         21    1    1    2  503  505 -0.69594126131E+02 -0.20372637353E+02 -0.21812103163E+03  0.22985902459E+03  0.00000000000E+00 0.  1.
         21    1    1    2  504  503 -0.21447909704E+03 -0.29538773969E+02 -0.39966217688E+03  0.45453677284E+03  0.00000000000E+00 0.  1.
         21    1    1    2  505  502  0.22298423103E+03 -0.35642752641E+02 -0.11207660039E+03  0.25209826945E+03  0.00000000000E+00 0.  1.
          1    1    1    2  501    0  0.61088992140E+02  0.85554163963E+02 -0.98228349772E+03  0.98789283317E+03  0.00000000000E+00 0.  1.
<scales pt_clust_3="34.49563" pt_clust_4="34.49563" pt_clust_5="236.94169" pt_clust_6="105.12554"></scales>
<clustering>
<clus scale="   34.496">  3  4 -1 -1</clus>
<clus scale="  105.126">  2  6  1 -1</clus>
<clus scale="  236.942">  1  5  2 -1</clus>
<clus scale="  236.942">  1  3  2 -1</clus>
</clustering>
</event>
<event>
 6    0  0.7258365E+002  0.9207806E+02  0.7546771E-02  0.1297896E+00
         21   -1    0    0  504  502  0.00000000000E+00  0.00000000000E+00  0.23647659307E+04  0.23647659307E+04  0.00000000000E+00 0.  1.
          3   -1    0    0  505    0 -0.00000000000E+00 -0.00000000000E+00 -0.18317647275E+02  0.18317647275E+02  0.00000000000E+00 0.  1.
         21    1    1    2  503  502 -0.23958802149E+02  0.20220258392E+02  0.88616939057E+03  0.88672378553E+03  0.00000000000E+00 0.  1.
         21    1    1    2  504  501  0.72752511009E+02 -0.13331154306E+03  0.90390513908E+03  0.91657481737E+03  0.00000000000E+00 0.  1.
         21    1    1    2  505  503 -0.26527516541E+02  0.34061479451E+02  0.40741572817E+03  0.40969680140E+03  0.00000000000E+00 0.  1.
          3    1    1    2  501    0 -0.22266192320E+02  0.79029805212E+02  0.14895802559E+03  0.17008817366E+03  0.00000000000E+00 0.  1.
<scales pt_clust_3="31.35097" pt_clust_4="92.07806" pt_clust_5="51.68119" pt_clust_6="14000.00000"></scales>
<clustering>
<clus scale="   31.351">  1  3  2 -1</clus>
<clus scale="   51.681">  1  5  2 -1</clus>
<clus scale="   92.078">  1  4  2 -1</clus>
<clus scale="   31.351">  1  3  2 -1</clus>
</clustering>
</event>
<event>
 6    0  0.7258365E+002  0.8801371E+02  0.7546771E-02  0.1307734E+00
          4   -1    0    0  503    0 -0.00000000000E+00  0.00000000000E+00  0.81573252465E+02  0.81573252465E+02  0.00000000000E+00 0. -1.
         21   -1    0    0  504  502  0.00000000000E+00 -0.00000000000E+00 -0.95954229519E+03  0.95954229519E+03  0.00000000000E+00 0.  1.
         21    1    1    2  503  502  0.40005180226E+02 -0.66681373671E+00 -0.42431502582E+03  0.42619725506E+03  0.00000000000E+00 0.  1.
         21    1    1    2  504  505 -0.26377075801E+02  0.93309562373E+02 -0.48267172281E+03  0.49231536291E+03  0.00000000000E+00 0.  1.
         21    1    1    2  505  501 -0.43968795615E+02 -0.47535299721E+02  0.15210739179E+02  0.66514857692E+02  0.00000000000E+00 0. -1.
          4    1    1    2  501    0  0.30340691190E+02 -0.45107448915E+02  0.13806966726E+02  0.56088071991E+02  0.00000000000E+00 0. -1.
<scales pt_clust_3="40.01074" pt_clust_4="88.01371" pt_clust_5="14000.00000" pt_clust_6="55.28273"></scales>
<clustering>
<clus scale="   40.011">  2  3  1 -1</clus>
<clus scale="   55.283">  1  6  2 -1</clus>
<clus scale="   88.014">  2  4  1 -1</clus>
<clus scale="   40.011">  2  3  1 -1</clus>
</clustering>
</event>
<event>
 6    0  0.7258365E+002  0.1161236E+03  0.7546771E-02  0.1249632E+00
         21   -1    0    0  504  502  0.00000000000E+00  0.00000000000E+00  0.45505346035E+02  0.45505346035E+02  0.00000000000E+00 0. -1.
          2   -1    0    0  503    0 -0.00000000000E+00 -0.00000000000E+00 -0.12712753038E+04  0.12712753038E+04  0.00000000000E+00 0.  1.
         21    1    1    2  503  502  0.72538157685E+02 -0.24287963233E+02 -0.26347090422E+03  0.27435124722E+03  0.00000000000E+00 0.  1.
         21    1    1    2  504  505 -0.29670451696E+02 -0.19901769760E+02  0.12846840414E+02  0.37966530682E+02  0.00000000000E+00 0. -1.
         21    1    1    2  505  501 -0.10118319867E+03 -0.62145972813E+02 -0.43942607168E+03  0.45518725169E+03  0.00000000000E+00 0. -1.
          2    1    1    2  501    0  0.58315492676E+02  0.10633570581E+03 -0.53571982226E+03  0.54927562023E+03  0.00000000000E+00 0.  1.
<scales pt_clust_3="71.00542" pt_clust_4="35.72697" pt_clust_5="14000.00000" pt_clust_6="116.12365"></scales>
<clustering>
<clus scale="   35.727">  1  4  2 -1</clus>
<clus scale="   71.005">  1  3  2 -1</clus>
<clus scale="  116.124">  2  6  1 -1</clus>
<clus scale="   35.727">  1  3  2 -1</clus>
</clustering>
</event>
<event>
 6    0  0.7258365E+002  0.1329185E+03  0.7546771E-02  0.1223188E+00
         21   -1    0    0  505  502  0.00000000000E+00  0.00000000000E+00  0.45328440576E+03  0.45328440576E+03  0.00000000000E+00 0.  1.
          1   -1    0    0  503    0 -0.00000000000E+00 -0.00000000000E+00 -0.32592265557E+04  0.32592265557E+04  0.00000000000E+00 0. -1.
         21    1    1    2  503  502  0.73598129745E+02 -0.20889516809E+02 -0.34352765379E+03  0.35194361130E+03  0.00000000000E+00 0. -1.
         21    1    1    2  504  501 -0.56439613736E+02 -0.11399024459E+03  0.12786662054E+03  0.18035819502E+03  0.00000000000E+00 0.  1.
         21    1    1    2  505  504 -0.46655109383E+02  0.28378585303E+02  0.29136832650E+03  0.29644146981E+03  0.00000000000E+00 0.  1.
          1    1    1    2  501    0  0.29496593374E+02  0.10650117610E+03 -0.28816494432E+04  0.28837676854E+04  0.00000000000E+00 0. -1.
<scales pt_clust_3="75.11668" pt_clust_4="132.91846" pt_clust_5="54.60809" pt_clust_6="14000.00000"></scales>
<clustering>
<clus scale="   54.608">  1  5  2 -1</clus>
<clus scale="   75.117">  2  3  1 -1</clus>
<clus scale="  132.918">  1  4  2 -1</clus>
<clus scale="   54.608">  1  3  2 -1</clus>
</clustering>
</event>
<event>
 6    0  0.7258365E+002  0.2446621E+03  0.7546771E-02  0.1116725E+00
         21   -1    0    0  503  502  0.00000000000E+00  0.00000000000E+00  0.66352053563E+03  0.66352053563E+03  0.00000000000E+00 0.  1.
          2   -1    0    0  504    0 -0.00000000000E+00 -0.00000000000E+00 -0.11386170676E+04  0.11386170676E+04  0.00000000000E+00 0.  1.
         21    1    1    2  503  501  0.18703389078E+03  0.12521661804E+03  0.48330246298E+03  0.53314364711E+03  0.00000000000E+00 0.  1.
         21    1    1    2  504  505 -0.19024653993E+03 -0.13802520304E+03 -0.33021677962E+01  0.23506511213E+03  0.00000000000E+00 0.  1.
         21    1    1    2  505  502 -0.21599366661E+02 -0.33308961778E+02  0.28543600463E+02  0.48895364834E+02  0.00000000000E+00 0.  1.
          2    1    1    2  501    0  0.24812015808E+02  0.46117546779E+02 -0.98364042763E+03  0.98503347919E+03  0.00000000000E+00 0.  1.
<scales pt_clust_3="232.58802" pt_clust_4="31.19731" pt_clust_5="31.19731" pt_clust_6="52.36854"></scales>
<clustering>
<clus scale="   31.197">  4  5 -1 -1</clus>
<clus scale="   52.369">  2  6  1 -1</clus>
<clus scale="  232.588">  1  3  2 -1</clus>
<clus scale="  232.588">  1  3  2 -1</clus>
</clustering>
</event>
<event>
 6    0  0.7258365E+002  0.1933656E+03  0.7546771E-02  0.1155460E+00
         21   -1    0    0  505  502  0.00000000000E+00  0.00000000000E+00  0.14909054017E+04  0.14909054017E+04  0.00000000000E+00 0.  1.
          2   -1    0    0  503    0 -0.00000000000E+00 -0.00000000000E+00 -0.50463061027E+03  0.50463061027E+03  0.00000000000E+00 0. -1.
         21    1    1    2  503  502  0.24034040087E+02  0.30760354225E+02  0.65993893270E+03  0.66109245145E+03  0.00000000000E+00 0.  1.
         21    1    1    2  504  501  0.13930749818E+03 -0.13770163560E+03  0.12943405099E+02  0.19630550485E+03  0.00000000000E+00 0. -1.
         21    1    1    2  505  504  0.42966561991E+02  0.12352989226E+03  0.69328941383E+03  0.70551822872E+03  0.00000000000E+00 0.  1.
          2    1    1    2  501    0 -0.20630810026E+03 -0.16588610879E+02 -0.37989696024E+03  0.43261982692E+03  0.00000000000E+00 0. -1.
<scales pt_clust_3="39.03632" pt_clust_4="193.36560" pt_clust_5="162.25653" pt_clust_6="14000.00000"></scales>
<clustering>
<clus scale="   39.036">  1  3  2 -1</clus>
<clus scale="  162.257">  1  5  2 -1</clus>
<clus scale="  193.366">  1  4  2 -1</clus>
<clus scale="   39.036">  1  3  2 -1</clus>
</clustering>
</event>
<event>
 6    0  0.7258365E+002  0.1333548E+03  0.7546771E-02  0.1222561E+00
          1   -1    0    0  505    0 -0.00000000000E+00  0.00000000000E+00  0.36972188184E+03  0.36972188184E+03  0.00000000000E+00 0. -1.
         21   -1    0    0  503  502  0.00000000000E+00 -0.00000000000E+00 -0.47450131250E+03  0.47450131250E+03  0.00000000000E+00 0. -1.
         21    1    1    2  503  504 -0.12252196643E+03 -0.23581347220E+02 -0.20786548258E+03  0.24243714864E+03  0.00000000000E+00 0. -1.
         21    1    1    2  504  501  0.49899497770E+02  0.88175340171E+02  0.14462199037E+03  0.17657964376E+03  0.00000000000E+00 0. -1.
         21    1    1    2  505  502  0.11766986544E+02 -0.69742016455E+02 -0.22289125921E+03  0.23384380314E+03  0.00000000000E+00 0. -1.
          1    1    1    2  501    0  0.60855482118E+02  0.51480235037E+01  0.18135532077E+03  0.19136259880E+03  0.00000000000E+00 0. -1.
<scales pt_clust_3="133.35476" pt_clust_4="14000.00000" pt_clust_5="70.90180" pt_clust_6="61.07284"></scales>
<clustering>
<clus scale="   61.073">  1  6  2 -1</clus>
<clus scale="   70.902">  2  5  1 -1</clus>
<clus scale="  133.355">  2  3  1 -1</clus>
<clus scale="   70.902">  2  3  1 -1</clus>
</clustering>
</event>
<event>
 6    0  0.7258365E+002  0.7145071E+02  0.7546771E-02  0.1355228E+00
         21   -1    0    0  503  502  0.00000000000E+00  0.00000000000E+00  0.11072179757E+04  0.11072179757E+04  0.00000000000E+00 0. -1.
          1   -1    0    0  505    0 -0.00000000000E+00 -0.00000000000E+00 -0.19901748679E+04  0.19901748679E+04  0.00000000000E+00 0. -1.
         21    1    1    2  503  501  0.57601250876E+02 -0.38570696373E+02  0.92442309244E+03  0.92701869267E+03  0.00000000000E+00 0. -1.
         21    1    1    2  504  502 -0.51300160271E+02  0.11014101324E+03  0.15675605273E+03  0.19833105987E+03  0.00000000000E+00 0. -1.
         21    1    1    2  505  504  0.17715810102E+02 -0.43101772256E+02 -0.14049655716E+03  0.14802329301E+03  0.00000000000E+00 0. -1.
          1    1    1    2  501    0 -0.24016900708E+02 -0.28468544614E+02 -0.18236394802E+04  0.18240197980E+04  0.00000000000E+00 0. -1.
<scales pt_clust_3="71.45071" pt_clust_4="14000.00000" pt_clust_5="67.86202" pt_clust_6="37.24607"></scales>
<clustering>
<clus scale="   37.246">  2  6  1 -1</clus>
<clus scale="   67.862">  2  5  1 -1</clus>
<clus scale="   71.451">  1  3  2 -1</clus>
<clus scale="   71.451">  1  3  2 -1</clus>
</clustering>
</event>
<event>
 6    0  0.7258365E+002  0.5282861E+02  0.7546771E-02  0.1430656E+00
          2   -1    0    0  504    0 -0.00000000000E+00  0.00000000000E+00  0.15685364391E+04  0.15685364391E+04  0.00000000000E+00 0. -1.
         21   -1    0    0  505  502  0.00000000000E+00 -0.00000000000E+00 -0.97712500412E+03  0.97712500412E+03  0.00000000000E+00 0. -1.
         21    1    1    2  503  501  0.81171915441E+02  0.47819820829E+02  0.14828347730E+03  0.17568040517E+03  0.00000000000E+00 0. -1.
         21    1    1    2  504  502 -0.15420967274E+02 -0.64378802184E+02  0.12453486354E+02  0.67361158873E+02  0.00000000000E+00 0. -1.
         21    1    1    2  505  503 -0.20909193202E+02  0.41621784928E+02 -0.93490996706E+03  0.93606955610E+03  0.00000000000E+00 0. -1.
          2    1    1    2  501    0 -0.44841754965E+02 -0.25062803573E+02  0.13655844384E+04  0.13665503231E+04  0.00000000000E+00 0. -1.
<scales pt_clust_3="52.82861" pt_clust_4="47.08749" pt_clust_5="46.57861" pt_clust_6="14000.00000"></scales>
<clustering>
<clus scale="   46.579">  2  5  1 -1</clus>
<clus scale="   47.087">  2  4  1 -1</clus>
<clus scale="   52.829">  2  3  1 -1</clus>
<clus scale="   46.579">  2  3  1 -1</clus>
</clustering>
</event>
<event>
 6    0  0.7258365E+002  0.7908737E+02  0.7546771E-02  0.1331661E+00
         -1   -1    0    0    0  501 -0.00000000000E+00  0.00000000000E+00  0.36179903558E+03  0.36179903558E+03  0.00000000000E+00 0. -1.
         21   -1    0    0  503  502  0.00000000000E+00 -0.00000000000E+00 -0.12009339746E+03  0.12009339746E+03  0.00000000000E+00 0. -1.
         21    1    1    2  503  505 -0.44858076960E+02 -0.40959600804E+02 -0.43830483093E+02  0.74906923677E+02  0.00000000000E+00 0. -1.
         21    1    1    2  504  502 -0.72870994987E+01  0.88208633740E+02  0.37748058292E+02  0.96222558635E+02  0.00000000000E+00 0. -1.
         21    1    1    2  505  501 -0.25793246642E+02 -0.81650408347E+02  0.60008252767E+02  0.10456132725E+03  0.00000000000E+00 0. -1.
         -1    1    1    2    0  504  0.77938423101E+02  0.34401375411E+02  0.18777981015E+03  0.20620162348E+03  0.00000000000E+00 0. -1.
<scales pt_clust_3="60.74484" pt_clust_4="74.32976" pt_clust_5="79.08737" pt_clust_6="14000.00000"></scales>
<clustering>
<clus scale="   60.745">  2  3  1 -1</clus>
<clus scale="   74.330">  2  4  1 -1</clus>
<clus scale="   79.087">  2  5  1 -1</clus>
<clus scale="   60.745">  2  3  1 -1</clus>
</clustering>
</event>
<event>
 6    0  0.7258365E+002  0.8354949E+02  0.7546771E-02  0.1319270E+00
          1   -1    0    0  505    0 -0.00000000000E+00  0.00000000000E+00  0.51888088769E+03  0.51888088769E+03  0.00000000000E+00 0. -1.
         21   -1    0    0  503  502  0.00000000000E+00 -0.00000000000E+00 -0.67924305440E+02  0.67924305440E+02  0.00000000000E+00 0.  1.
         21    1    1    2  503  501 -0.28402405501E+02 -0.44831613355E+02 -0.94419332483E+01  0.53904733537E+02  0.00000000000E+00 0.  1.
         21    1    1    2  504  502  0.10676147765E+02 -0.43301809855E+02  0.21173865260E+02  0.49369620597E+02  0.00000000000E+00 0.  1.
         21    1    1    2  505  504  0.71670482526E+02  0.22971915497E+01  0.68402218192E+02  0.99099942523E+02  0.00000000000E+00 0. -1.
          1    1    1    2  501    0 -0.53944224790E+02  0.85836231660E+02  0.37082243204E+03  0.38443089647E+03  0.00000000000E+00 0. -1.
<scales pt_clust_3="73.70933" pt_clust_4="44.59851" pt_clust_5="83.54949" pt_clust_6="14000.00000"></scales>
<clustering>
<clus scale="   44.599">  2  4  1 -1</clus>
<clus scale="   73.709">  2  3  1 -1</clus>
<clus scale="   83.549">  2  5  1 -1</clus>
<clus scale="   44.599">  2  3  1 -1</clus>
</clustering>
</event>
<event>
 6    0  0.7258365E+002  0.9235212E+02  0.7546771E-02  0.1297254E+00
         21   -1    0    0  503  502  0.00000000000E+00  0.00000000000E+00  0.15979449169E+03  0.15979449169E+03  0.00000000000E+00 0.  1.
          1   -1    0    0  504    0 -0.00000000000E+00 -0.00000000000E+00 -0.14806899986E+04  0.14806899986E+04  0.00000000000E+00 0. -1.
         21    1    1    2  503  505  0.44050596742E+02 -0.21431946348E+02  0.12645654108E+03  0.13561356931E+03  0.00000000000E+00 0.  1.
         21    1    1    2  504  502  0.58864841042E+02  0.73465856241E+02 -0.75333055369E+02  0.12057101963E+03  0.00000000000E+00 0.  1.
         21    1    1    2  505  501 -0.57452415629E+02 -0.44154534339E+02 -0.22556217022E+03  0.23691495436E+03  0.00000000000E+00 0. -1.
          1    1    1    2  501    0 -0.45463022155E+02 -0.78793755531E+01 -0.11464568224E+04  0.11473849470E+04  0.00000000000E+00 0. -1.
<scales pt_clust_3="48.47549" pt_clust_4="14000.00000" pt_clust_5="92.35212" pt_clust_6="46.14077"></scales>
<clustering>
<clus scale="   46.141">  2  6  1 -1</clus>
<clus scale="   48.475">  1  3  2 -1</clus>
<clus scale="   92.352">  2  5  1 -1</clus>
<clus scale="   48.475">  1  3  2 -1</clus>
</clustering>
</event>
<event>
 6    0  0.7258365E+002  0.7039838E+02  0.7546771E-02  0.1358744E+00
          2   -1    0    0  503    0 -0.00000000000E+00  0.00000000000E+00  0.67411691013E+03  0.67411691013E+03  0.00000000000E+00 0. -1.
         21   -1    0    0  505  502  0.00000000000E+00 -0.00000000000E+00 -0.40179858553E+03  0.40179858553E+03  0.00000000000E+00 0. -1.
         21    1    1    2  503  502  0.54002676753E+02 -0.39291245895E+02 -0.25386204234E+03  0.26249957646E+03  0.00000000000E+00 0. -1.
         21    1    1    2  504  501  0.49298678840E+02 -0.82759488140E+02  0.83617627239E+02  0.12755939870E+03  0.00000000000E+00 0. -1.
         21    1    1    2  505  504 -0.55171964884E+02  0.73815126291E+02 -0.10175904226E+03  0.13728627484E+03  0.00000000000E+00 0. -1.
          2    1    1    2  501    0 -0.48129390710E+02  0.48235607744E+02  0.54432178195E+03  0.54857024565E+03  0.00000000000E+00 0. -1.
<scales pt_clust_3="66.78391" pt_clust_4="14000.00000" pt_clust_5="42.36929" pt_clust_6="70.39838"></scales>
<clustering>
<clus scale="   66.784">  2  3  1 -1</clus>
<clus scale="   42.369">  2  5  1 -1</clus>
<clus scale="   70.398">  1  6  2 -1</clus>
<clus scale="   66.784">  2  3  1 -1</clus>
</clustering>
</event>
<event>
 6    0  0.7258365E+002  0.1335228E+03  0.7546771E-02  0.1222320E+00
          2   -1    0    0  505    0 -0.00000000000E+00  0.00000000000E+00  0.23087516748E+03  0.23087516748E+03  0.00000000000E+00 0.  1.
         21   -1    0    0  503  502  0.00000000000E+00 -0.00000000000E+00 -0.54094959334E+03  0.54094959334E+03  0.00000000000E+00 0. -1.
         21    1    1    2  503  501 -0.33961500959E+02  0.31948660141E+01 -0.11195550216E+03  0.11703685394E+03  0.00000000000E+00 0.  1.
         21    1    1    2  504  502  0.12894114948E+03  0.93092157781E+02 -0.36552028033E+03  0.39861892228E+03  0.00000000000E+00 0. -1.
         21    1    1    2  505  504 -0.46766917571E+02 -0.28128726533E+02 -0.14117878179E+02  0.56370952802E+02  0.00000000000E+00 0. -1.
          2    1    1    2  501    0 -0.48212730948E+02 -0.68158297262E+02  0.18151923480E+03  0.19979803181E+03  0.00000000000E+00 0.  1.
<scales pt_clust_3="34.11145" pt_clust_4="133.52281" pt_clust_5="56.86818" pt_clust_6="14000.00000"></scales>
<clustering>
<clus scale="   34.111">  2  3  1 -1</clus>
<clus scale="   56.868">  1  5  2 -1</clus>
<clus scale="  133.523">  2  4  1 -1</clus>
<clus scale="   34.111">  2  3  1 -1</clus>
</clustering>
</event>
<event>
 6    0  0.7258365E+002  0.1977391E+03  0.7546771E-02  0.1151661E+00
         21   -1    0    0  503  502  0.00000000000E+00  0.00000000000E+00  0.30316266704E+03  0.30316266704E+03  0.00000000000E+00 0. -1.
          2   -1    0    0  504    0 -0.00000000000E+00 -0.00000000000E+00 -0.23348287471E+04  0.23348287471E+04  0.00000000000E+00 0. -1.
         21    1    1    2  503  501 -0.41028399078E+02  0.49934799855E+02 -0.84257052292E+02  0.10618881593E+03  0.00000000000E+00 0. -1.
         21    1    1    2  504  505  0.18642504535E+03 -0.14843251008E+03  0.11667689164E+03  0.26532999195E+03  0.00000000000E+00 0. -1.
         21    1    1    2  505  502  0.29454643038E+02  0.79834236725E+01  0.94305096268E+02  0.99119938621E+02  0.00000000000E+00 0.  1.
          2    1    1    2  501    0 -0.17485128931E+03  0.90514286555E+02 -0.21583910156E+04  0.21673526676E+04  0.00000000000E+00 0. -1.
<scales pt_clust_3="63.97977" pt_clust_4="14000.00000" pt_clust_5="30.51739" pt_clust_6="197.73908"></scales>
<clustering>
<clus scale="   30.517">  1  5  2 -1</clus>
<clus scale="   63.980">  1  3  2 -1</clus>
<clus scale="  197.739">  2  6  1 -1</clus>
<clus scale="   30.517">  1  3  2 -1</clus>
</clustering>
</event>
<event>
 6    0  0.7258365E+002  0.1478507E+03  0.7546771E-02  0.1203139E+00
         -3   -1    0    0    0  501 -0.00000000000E+00  0.00000000000E+00  0.16410724945E+04  0.16410724945E+04  0.00000000000E+00 0.  1.
         21   -1    0    0  503  502  0.00000000000E+00 -0.00000000000E+00 -0.37650876728E+03  0.37650876728E+03  0.00000000000E+00 0. -1.
         21    1    1    2  503  501 -0.49469463525E+02  0.29465492709E+02 -0.34611943565E+03  0.35087619870E+03  0.00000000000E+00 0. -1.
         21    1    1    2  504  502 -0.10774933662E+03  0.71802145924E+02  0.21313270236E+03  0.24938126737E+03  0.00000000000E+00 0.  1.
         21    1    1    2  505  504  0.10926632145E+03 -0.96854846824E+02  0.57105529050E+03  0.58942695490E+03  0.00000000000E+00 0.  1.
         -3    1    1    2    0  505  0.47952478695E+02 -0.44127918093E+01  0.82649517007E+03  0.82789684085E+03  0.00000000000E+00 0.  1.
<scales pt_clust_3="57.45292" pt_clust_4="14000.00000" pt_clust_5="147.85065" pt_clust_6="48.15509"></scales>
<clustering>
<clus scale="   48.155">  1  6  2 -1</clus>
<clus scale="   57.453">  2  3  1 -1</clus>
<clus scale="  147.851">  1  5  2 -1</clus>
<clus scale="   57.453">  2  3  1 -1</clus>
</clustering>
</event>
<event>
 6    0  0.7258365E+002  0.9929477E+02  0.7546771E-02  0.1281786E+00
          1   -1    0    0  504    0 -0.00000000000E+00  0.00000000000E+00  0.35194258176E+03  0.35194258176E+03  0.00000000000E+00 0.  1.
         21   -1    0    0  505  502  0.00000000000E+00 -0.00000000000E+00 -0.83312675928E+03  0.83312675928E+03  0.00000000000E+00 0. -1.
         21    1    1    2  503  501 -0.53242708115E+01  0.78082093008E+02 -0.13567481169E+03  0.15662954905E+03  0.00000000000E+00 0. -1.
         21    1    1    2  504  502  0.49686422391E+02 -0.10167929116E+03 -0.66822555306E+02  0.13142554058E+03  0.00000000000E+00 0. -1.
         21    1    1    2  505  503 -0.31776849900E+02  0.52673729948E+02 -0.58542293062E+03  0.58864615662E+03  0.00000000000E+00 0. -1.
          1    1    1    2  501    0 -0.12585301679E+02 -0.29076531798E+02  0.30673612009E+03  0.30836809479E+03  0.00000000000E+00 0.  1.
<scales pt_clust_3="99.29477" pt_clust_4="14000.00000" pt_clust_5="60.85592" pt_clust_6="31.68335"></scales>
<clustering>
<clus scale="   31.683">  1  6  2 -1</clus>
<clus scale="   60.856">  2  5  1 -1</clus>
<clus scale="   99.295">  1  3  2 -1</clus>
<clus scale="   60.856">  2  3  1 -1</clus>
</clustering>
</event>
<event>
 6    0  0.7258365E+002  0.6914306E+02  0.7546771E-02  0.1363032E+00
         -2   -1    0    0    0  501 -0.00000000000E+00  0.00000000000E+00  0.13598992908E+03  0.13598992908E+03  0.00000000000E+00 0.  1.
         21   -1    0    0  503  502  0.00000000000E+00 -0.00000000000E+00 -0.37677684879E+03  0.37677684879E+03  0.00000000000E+00 0. -1.
         21    1    1    2  503  505  0.39520451921E+02  0.22049445395E+02 -0.17346678874E+03  0.17927289521E+03  0.00000000000E+00 0.  1.
         21    1    1    2  504  502 -0.30958103824E+02  0.42000324198E+02 -0.14744251490E+02  0.54220147336E+02  0.00000000000E+00 0.  1.
         21    1    1    2  505  501  0.26822944153E+02 -0.11917121361E+03 -0.12964701563E+03  0.17812803583E+03  0.00000000000E+00 0. -1.
         -2    1    1    2    0  504 -0.35385292249E+02  0.55121444017E+02  0.77071136146E+02  0.10114569949E+03  0.00000000000E+00 0.  1.
<scales pt_clust_3="45.25532" pt_clust_4="51.77571" pt_clust_5="14000.00000" pt_clust_6="69.14306"></scales>
<clustering>
<clus scale="   45.255">  2  3  1 -1</clus>
<clus scale="   51.776">  2  4  1 -1</clus>
<clus scale="   69.143">  1  6  2 -1</clus>
<clus scale="   45.255">  2  3  1 -1</clus>
</clustering>
</event>
<event>
 6    0  0.7258365E+002  0.1310889E+03  0.7546771E-02  0.1225849E+00
         21   -1    0    0  503  502  0.00000000000E+00  0.00000000000E+00  0.31321032495E+03  0.31321032495E+03  0.00000000000E+00 0.  1.
          2   -1    0    0  504    0 -0.00000000000E+00 -0.00000000000E+00 -0.23900943725E+04  0.23900943725E+04  0.00000000000E+00 0.  1.
         21    1    1    2  503  501  0.10823132077E+01  0.33246787516E+02  0.10774782375E+02  0.34965929377E+02  0.00000000000E+00 0.  1.
         21    1    1    2  504  505 -0.13100870808E+03 -0.17300406434E+02 -0.20818196919E+03  0.24658126035E+03  0.00000000000E+00 0. -1.
         21    1    1    2  505  502  0.12198463766E+03  0.15308017717E+02  0.25707626308E+03  0.28496103641E+03  0.00000000000E+00 0.  1.
          2    1    1    2  501    0  0.79417572123E+01 -0.31254398799E+02 -0.21365531238E+04  0.21367964713E+04  0.00000000000E+00 0.  1.
<scales pt_clust_3="31.78864" pt_clust_4="14000.00000" pt_clust_5="131.08890" pt_clust_6="32.24762"></scales>
<clustering>
<clus scale="   32.248">  2  6  1 -1</clus>
<clus scale="   31.789">  1  3  2 -1</clus>
<clus scale="  131.089">  1  5  2 -1</clus>
<clus scale="   31.789">  1  3  2 -1</clus>
</clustering>
</event>
<event>
 6    0  0.7258365E+002  0.1143617E+03  0.7546771E-02  0.1252699E+00
          2   -1    0    0  503    0 -0.00000000000E+00  0.00000000000E+00  0.20284713813E+04  0.20284713813E+04  0.00000000000E+00 0. -1.
         21   -1    0    0  501  502  0.00000000000E+00 -0.00000000000E+00 -0.22700661774E+03  0.22700661774E+03  0.00000000000E+00 0. -1.
         21    1    1    2  503  505  0.34226872622E+02 -0.13610204018E+03 -0.22745200369E+02  0.14217098259E+03  0.00000000000E+00 0. -1.
         21    1    1    2  504  502  0.32410008663E+02  0.25505246622E+01 -0.54281299292E+02  0.63272215785E+02  0.00000000000E+00 0. -1.
         21    1    1    2  505  504 -0.18432908863E+02  0.10001507726E+03 -0.55022273385E+02  0.11562974694E+03  0.00000000000E+00 0. -1.
          2    1    1    2  501    0 -0.48203972421E+02  0.33536438251E+02  0.19335135366E+04  0.19344050537E+04  0.00000000000E+00 0. -1.
<scales pt_clust_3="14000.00000" pt_clust_4="32.51021" pt_clust_5="114.36168" pt_clust_6="58.65575"></scales>
<clustering>
<clus scale="   32.510">  2  4  1 -1</clus>
<clus scale="   58.656">  1  6  2 -1</clus>
<clus scale="  114.362">  2  5  1 -1</clus>
<clus scale="   32.510">  2  3  1 -1</clus>
</clustering>
</event>
<event>
 6    0  0.7258365E+002  0.8830466E+02  0.7546771E-02  0.1307010E+00
         21   -1    0    0  504  502  0.00000000000E+00  0.00000000000E+00  0.36864202280E+03  0.36864202280E+03  0.00000000000E+00 0. -1.
          1   -1    0    0  505    0 -0.00000000000E+00 -0.00000000000E+00 -0.75822711050E+03  0.75822711050E+03  0.00000000000E+00 0.  1.
         21    1    1    2  503  501 -0.46036240228E+02 -0.63706951770E+02  0.35544838692E+02  0.86263240583E+02  0.00000000000E+00 0.  1.
         21    1    1    2  504  503  0.14772328024E+02 -0.31622112129E+02  0.21302856489E+03  0.21586882385E+03  0.00000000000E+00 0. -1.
         21    1    1    2  505  502  0.74420517683E+02  0.67682808693E+02  0.64964401286E+02  0.11974869302E+03  0.00000000000E+00 0. -1.
          1    1    1    2  501    0 -0.43156605479E+02  0.27646255205E+02 -0.70312289257E+03  0.70498837585E+03  0.00000000000E+00 0.  1.
<scales pt_clust_3="14000.00000" pt_clust_4="34.90243" pt_clust_5="88.30466" pt_clust_6="51.07409"></scales>
<clustering>
<clus scale="   34.902">  1  4  2 -1</clus>
<clus scale="   51.074">  2  6  1 -1</clus>
<clus scale="   88.305">  1  5  2 -1</clus>
<clus scale="   34.902">  1  3  2 -1</clus>
</clustering>
</event>
<event>
 6    0  0.7258365E+002  0.1238801E+03  0.7546771E-02  0.1236830E+00
         21   -1    0    0  505  502  0.00000000000E+00  0.00000000000E+00  0.48718828479E+03  0.48718828479E+03  0.00000000000E+00 0. -1.
          2   -1    0    0  503    0 -0.00000000000E+00 -0.00000000000E+00 -0.27655148102E+03  0.27655148102E+03  0.00000000000E+00 0.  1.
         21    1    1    2  503  504 -0.14261073763E+03  0.54542409419E+02  0.28143156143E+03  0.32018185564E+03  0.00000000000E+00 0. -1.
         21    1    1    2  504  502  0.54005983078E+02 -0.21497943838E+02  0.12903417644E+03  0.14152252996E+03  0.00000000000E+00 0.  1.
         21    1    1    2  505  501 -0.45095202396E+01  0.47006728252E+02  0.19165554037E+02  0.50963582441E+02  0.00000000000E+00 0. -1.
          2    1    1    2  501    0  0.93114274790E+02 -0.80051193833E+02 -0.21899448813E+03  0.25107179777E+03  0.00000000000E+00 0.  1.
<scales pt_clust_3="14000.00000" pt_clust_4="53.17877" pt_clust_5="47.22254" pt_clust_6="123.88006"></scales>
<clustering>
<clus scale="   47.223">  1  5  2 -1</clus>
<clus scale="   53.179">  1  4  2 -1</clus>
<clus scale="  123.880">  2  6  1 -1</clus>
<clus scale="   47.223">  1  3  2 -1</clus>
</clustering>
</event>
<event>
 6    0  0.7843918E+002  0.1290169E+03  0.7546771E-02  0.1228922E+00
         21   -1    0    0  505  502  0.00000000000E+00  0.00000000000E+00  0.13664915416E+04  0.13664915416E+04  0.00000000000E+00 0. -1.
          2   -1    0    0  503    0 -0.00000000000E+00 -0.00000000000E+00 -0.86775057846E+03  0.86775057846E+03  0.00000000000E+00 0.  1.
         21    1    1    2  503  504  0.68733993085E+02 -0.21682589391E+02 -0.12070293314E+03  0.14058340783E+03  0.00000000000E+00 0. -1.
         21    1    1    2  504  502 -0.72874442593E+02  0.10878241742E+03  0.12365610053E+04  0.12434739316E+04  0.00000000000E+00 0. -1.
         21    1    1    2  505  501 -0.30159413701E+02 -0.79613167069E+02  0.10049843650E+03  0.13171098035E+03  0.00000000000E+00 0. -1.
          2    1    1    2  501    0  0.34299863209E+02 -0.74866609644E+01 -0.71761554546E+03  0.71847380035E+03  0.00000000000E+00 0.  1.
<scales pt_clust_3="129.01689" pt_clust_4="14000.00000" pt_clust_5="84.67486" pt_clust_6="35.10742"></scales>
<clustering>
<clus scale="   35.107">  2  6  1 -1</clus>
<clus scale="   84.675">  2  5  1 -1</clus>
<clus scale="  129.017">  2  3  1 -1</clus>
<clus scale="  129.017">  1  3  2 -1</clus>
</clustering>
</event>
<event>
 6    0  0.7258365E+002  0.1663739E+03  0.7546771E-02  0.1181683E+00
         21   -1    0    0  505  502  0.00000000000E+00  0.00000000000E+00  0.40745325459E+03  0.40745325459E+03  0.00000000000E+00 0. -1.
          2   -1    0    0  503    0 -0.00000000000E+00 -0.00000000000E+00 -0.88303916346E+03  0.88303916346E+03  0.00000000000E+00 0.  1.
         21    1    1    2  503  502  0.42887810175E+02  0.36990700636E+02  0.11524626350E+02  0.57796999988E+02  0.00000000000E+00 0. -1.
         21    1    1    2  504  501 -0.11685350288E+03 -0.99518747288E+02 -0.55347942815E+03  0.57436765193E+03  0.00000000000E+00 0.  1.
         21    1    1    2  505  504  0.11180909972E+03  0.32976616628E+02  0.35090919584E+03  0.36976478435E+03  0.00000000000E+00 0. -1.
          2    1    1    2  501    0 -0.37843407022E+02  0.29551430025E+02 -0.28454030290E+03  0.28856298177E+03  0.00000000000E+00 0.  1.
<scales pt_clust_3="56.30309" pt_clust_4="14000.00000" pt_clust_5="166.37393" pt_clust_6="48.01469"></scales>
<clustering>
<clus scale="   48.015">  2  6  1 -1</clus>
<clus scale="   56.303">  1  3  2 -1</clus>
<clus scale="  166.374">  1  5  2 -1</clus>
<clus scale="   56.303">  1  3  2 -1</clus>
</clustering>
</event>
<event>
 6    0  0.7258365E+002  0.7843615E+02  0.7546771E-02  0.1333549E+00
         21   -1    0    0  501  502  0.00000000000E+00  0.00000000000E+00  0.51117640798E+02  0.51117640798E+02  0.00000000000E+00 0. -1.
          1   -1    0    0  503    0 -0.00000000000E+00 -0.00000000000E+00 -0.21475493692E+04  0.21475493692E+04  0.00000000000E+00 0.  1.
         21    1    1    2  503  504 -0.35896514799E+01 -0.53985238316E+02 -0.92777556417E+02  0.10740096149E+03  0.00000000000E+00 0.  1.
         21    1    1    2  504  505 -0.98564895984E+02  0.17058505143E+02 -0.10133682196E+03  0.14239095056E+03  0.00000000000E+00 0.  1.
         21    1    1    2  505  502  0.69222008556E+02  0.14943114739E+02 -0.31277264974E+02  0.77416086513E+02  0.00000000000E+00 0. -1.
          1    1    1    2  501    0  0.32932538907E+02  0.21983618434E+02 -0.18710400851E+04  0.18714590114E+04  0.00000000000E+00 0.  1.
<scales pt_clust_3="46.77130" pt_clust_4="78.43615" pt_clust_5="14000.00000" pt_clust_6="39.59585"></scales>
<clustering>
<clus scale="   39.596">  2  6  1 -1</clus>
<clus scale="   46.771">  2  3  1 -1</clus>
<clus scale="   78.436">  2  4  1 -1</clus>
<clus scale="   78.436">  1  3  2 -1</clus>
</clustering>
</event>
<event>
 6    0  0.7258365E+002  0.9915737E+02  0.7546771E-02  0.1282078E+00
         21   -1    0    0  505  502  0.00000000000E+00  0.00000000000E+00  0.32439145225E+02  0.32439145225E+02  0.00000000000E+00 0.  1.
          2   -1    0    0  504    0 -0.00000000000E+00 -0.00000000000E+00 -0.19202679909E+04  0.19202679909E+04  0.00000000000E+00 0. -1.
         21    1    1    2  503  502 -0.21893583579E+02  0.28709477423E+02 -0.51282896487E+01  0.36467279176E+02  0.00000000000E+00 0.  1.
         21    1    1    2  504  503 -0.24446760453E+02  0.87396714188E+02 -0.24310242800E+03  0.25948915246E+03  0.00000000000E+00 0.  1.
         21    1    1    2  505  501  0.77851682528E+02 -0.83536688402E+02 -0.39106797212E+03  0.40739835738E+03  0.00000000000E+00 0.  1.
          2    1    1    2  501    0 -0.31511338496E+02 -0.32569503209E+02 -0.12485301559E+04  0.12493523471E+04  0.00000000000E+00 0. -1.
<scales pt_clust_3="36.10489" pt_clust_4="99.15737" pt_clust_5="14000.00000" pt_clust_6="45.19403"></scales>
<clustering>
<clus scale="   36.105">  1  3  2 -1</clus>
<clus scale="   45.194">  2  6  1 -1</clus>
<clus scale="   99.157">  2  4  1 -1</clus>
<clus scale="   36.105">  1  3  2 -1</clus>
</clustering>
</event>
<event>
 6    0  0.7258365E+002  0.7417933E+02  0.7546771E-02  0.1346431E+00
         21   -1    0    0  505  502  0.00000000000E+00  0.00000000000E+00  0.52371944606E+03  0.52371944606E+03  0.00000000000E+00 0. -1.
          2   -1    0    0  504    0 -0.00000000000E+00 -0.00000000000E+00 -0.30961494510E+03  0.30961494510E+03  0.00000000000E+00 0.  1.
         21    1    1    2  503  501 -0.82728868835E+02  0.54718885905E+01  0.30216325530E+03  0.31333151798E+03  0.00000000000E+00 0. -1.
         21    1    1    2  504  502 -0.40249913910E+02  0.12547285675E+02  0.33059211054E+02  0.53576126989E+02  0.00000000000E+00 0. -1.
         21    1    1    2  505  503  0.69092812324E+02  0.33192306115E+02  0.15905364464E+03  0.17656049324E+03  0.00000000000E+00 0. -1.
          2    1    1    2  501    0  0.53885970421E+02 -0.51211480381E+02 -0.28017161003E+03  0.28986625295E+03  0.00000000000E+00 0.  1.
<scales pt_clust_3="74.17933" pt_clust_4="42.16029" pt_clust_5="66.63748" pt_clust_6="14000.00000"></scales>
<clustering>
<clus scale="   42.160">  1  4  2 -1</clus>
<clus scale="   66.637">  1  5  2 -1</clus>
<clus scale="   74.179">  1  3  2 -1</clus>
<clus scale="   42.160">  1  3  2 -1</clus>
</clustering>
</event>
<event>
 6    0  0.7258365E+002  0.9729500E+02  0.7546771E-02  0.1286089E+00
          2   -1    0    0  503    0 -0.00000000000E+00  0.00000000000E+00  0.43008341357E+03  0.43008341357E+03  0.00000000000E+00 0.  1.
         21   -1    0    0  505  502  0.00000000000E+00 -0.00000000000E+00 -0.70352847285E+03  0.70352847285E+03  0.00000000000E+00 0. -1.
         21    1    1    2  503  502  0.43837752092E+01  0.74019632982E+02  0.54797117205E+02  0.92200041247E+02  0.00000000000E+00 0.  1.
         21    1    1    2  504  501 -0.41488421236E+02 -0.60858874523E+02  0.35533800470E+02  0.81778619948E+02  0.00000000000E+00 0. -1.
         21    1    1    2  505  504  0.10021046668E+03 -0.17080073908E+02 -0.65438081954E+03  0.66222966073E+03  0.00000000000E+00 0. -1.
          2    1    1    2  501    0 -0.63105820656E+02  0.39193154482E+01  0.29060484259E+03  0.29740356449E+03  0.00000000000E+00 0.  1.
<scales pt_clust_3="81.72454" pt_clust_4="14000.00000" pt_clust_5="97.29500" pt_clust_6="63.22741"></scales>
<clustering>
<clus scale="   63.227">  1  6  2 -1</clus>
<clus scale="   81.725">  1  3  2 -1</clus>
<clus scale="   97.295">  2  5  1 -1</clus>
<clus scale="   97.295">  2  3  1 -1</clus>
</clustering>
</event>
<event>
 6    0  0.7258365E+002  0.7305391E+02  0.7546771E-02  0.1350006E+00
          2   -1    0    0  503    0 -0.00000000000E+00  0.00000000000E+00  0.48965364646E+03  0.48965364646E+03  0.00000000000E+00 0. -1.
         21   -1    0    0  505  502  0.00000000000E+00 -0.00000000000E+00 -0.79727586895E+02  0.79727586895E+02  0.00000000000E+00 0. -1.
         21    1    1    2  503  504 -0.95714790762E+01 -0.87509980765E+02  0.10492608948E+03  0.13696384267E+03  0.00000000000E+00 0. -1.
         21    1    1    2  504  502  0.94754068970E+01  0.46158883758E+02 -0.25143231470E+02  0.53409811593E+02  0.00000000000E+00 0. -1.
         21    1    1    2  505  501 -0.48079721145E+02 -0.12791304374E+02  0.99786556954E+01  0.50742985944E+02  0.00000000000E+00 0. -1.
          2    1    1    2  501    0  0.48175793325E+02  0.54142401380E+02  0.32016454586E+03  0.32826459315E+03  0.00000000000E+00 0. -1.
<scales pt_clust_3="14000.00000" pt_clust_4="47.12140" pt_clust_5="44.55229" pt_clust_6="73.05391"></scales>
<clustering>
<clus scale="   47.121">  2  4  1 -1</clus>
<clus scale="   44.552">  2  5  1 -1</clus>
<clus scale="   73.054">  1  6  2 -1</clus>
<clus scale="   47.121">  2  3  1 -1</clus>
</clustering>
</event>
<event>
 6    0  0.7258365E+002  0.8842943E+02  0.7546771E-02  0.1306700E+00
         21   -1    0    0  505  502  0.00000000000E+00  0.00000000000E+00  0.29978688084E+03  0.29978688084E+03  0.00000000000E+00 0.  1.
          2   -1    0    0  503    0 -0.00000000000E+00 -0.00000000000E+00 -0.66338618118E+03  0.66338618118E+03  0.00000000000E+00 0. -1.
         21    1    1    2  503  504  0.20005138733E+02 -0.84337532414E+02  0.25587100957E+02  0.90375465060E+02  0.00000000000E+00 0. -1.
         21    1    1    2  504  502 -0.30923321508E+02 -0.29178468651E+02  0.21600263720E+03  0.22014716469E+03  0.00000000000E+00 0.  1.
         21    1    1    2  505  501 -0.16307356772E+02  0.28584583318E+02  0.72940179075E+01  0.33707728870E+02  0.00000000000E+00 0. -1.
          2    1    1    2  501    0  0.27225539547E+02  0.84931417746E+02 -0.61248305640E+03  0.61894270340E+03  0.00000000000E+00 0. -1.
<scales pt_clust_3="14000.00000" pt_clust_4="44.19209" pt_clust_5="32.90909" pt_clust_6="88.42943"></scales>
<clustering>
<clus scale="   32.909">  1  5  2 -1</clus>
<clus scale="   44.192">  1  4  2 -1</clus>
<clus scale="   88.429">  2  6  1 -1</clus>
<clus scale="   32.909">  1  3  2 -1</clus>
</clustering>
</event>
<event>
 6    0  0.7258365E+002  0.1821939E+03  0.7546771E-02  0.1165696E+00
         21   -1    0    0  503  502  0.00000000000E+00  0.00000000000E+00  0.13393426265E+03  0.13393426265E+03  0.00000000000E+00 0. -1.
          2   -1    0    0  504    0 -0.00000000000E+00 -0.00000000000E+00 -0.10676642973E+04  0.10676642973E+04  0.00000000000E+00 0. -1.
         21    1    1    2  503  501 -0.11511645967E+03  0.16108806831E+02 -0.10499688952E+03  0.15663856407E+03  0.00000000000E+00 0. -1.
         21    1    1    2  504  505  0.20491159611E+03 -0.46502547959E+02 -0.26332027203E+03  0.33688100993E+03  0.00000000000E+00 0.  1.
         21    1    1    2  505  502  0.81990104069E+02  0.91810539980E+01  0.30176186971E+02  0.87848000420E+02  0.00000000000E+00 0. -1.
          2    1    1    2  501    0 -0.17178524051E+03  0.21212687129E+02 -0.59558906006E+03  0.62023098554E+03  0.00000000000E+00 0. -1.
<scales pt_clust_3="88.97226" pt_clust_4="182.19393" pt_clust_5="82.50254" pt_clust_6="14000.00000"></scales>
<clustering>
<clus scale="   82.503">  1  5  2 -1</clus>
<clus scale="   88.972">  1  3  2 -1</clus>
<clus scale="  182.194">  1  4  2 -1</clus>
<clus scale="   82.503">  1  3  2 -1</clus>
</clustering>
</event>
<event>
 6    0  0.7258365E+002  0.1306554E+03  0.7546771E-02  0.1226487E+00
          4   -1    0    0  505    0 -0.00000000000E+00  0.00000000000E+00  0.58075491639E+03  0.58075491639E+03  0.00000000000E+00 0. -1.
         21   -1    0    0  503  502  0.00000000000E+00 -0.00000000000E+00 -0.35162470658E+04  0.35162470658E+04  0.00000000000E+00 0. -1.
         21    1    1    2  503  501  0.23822496052E+03 -0.22892670747E+02 -0.25778211547E+03  0.35174824128E+03  0.00000000000E+00 0. -1.
         21    1    1    2  504  502 -0.11010124071E+03  0.26036486729E+02 -0.31959990023E+04  0.31980009075E+04  0.00000000000E+00 0. -1.
         21    1    1    2  505  504 -0.10308305426E+03 -0.24904842475E+02  0.19249527939E+03  0.21977442945E+03  0.00000000000E+00 0. -1.
          4    1    1    2  501    0 -0.25040665550E+02  0.21761026493E+02  0.32579368902E+03  0.32747840389E+03  0.00000000000E+00 0. -1.
<scales pt_clust_3="130.65536" pt_clust_4="113.25362" pt_clust_5="14000.00000" pt_clust_6="33.17495"></scales>
<clustering>
<clus scale="   33.175">  1  6  2 -1</clus>
<clus scale="  113.254">  2  4  1 -1</clus>
<clus scale="  130.655">  2  3  1 -1</clus>
<clus scale="  113.254">  2  3  1 -1</clus>
</clustering>
</event>
<event>
 6    0  0.7258365E+002  0.1819185E+03  0.7546771E-02  0.1165959E+00
          2   -1    0    0  502    0 -0.00000000000E+00  0.00000000000E+00  0.31013389280E+03  0.31013389280E+03  0.00000000000E+00 0. -1.
         21   -1    0    0  505  502  0.00000000000E+00 -0.00000000000E+00 -0.56412374617E+03  0.56412374617E+03  0.00000000000E+00 0.  1.
         21    1    1    2  503  504 -0.84899670345E+02  0.36248740816E+02 -0.26983648474E+03  0.28519055688E+03  0.00000000000E+00 0.  1.
         21    1    1    2  504  501  0.13416791156E+03 -0.43581593959E+02  0.13681478998E+03  0.19651633668E+03  0.00000000000E+00 0. -1.
         21    1    1    2  505  503 -0.49129760135E+02  0.79153370206E+02 -0.23780645413E+03  0.25540340439E+03  0.00000000000E+00 0.  1.
          2    1    1    2  501    0 -0.13848107767E+00 -0.71820517063E+02  0.11683829552E+03  0.13714734102E+03  0.00000000000E+00 0. -1.
<scales pt_clust_3="56.82710" pt_clust_4="172.72923" pt_clust_5="56.82710" pt_clust_6="71.82065"></scales>
<clustering>
<clus scale="   56.827">  3  5 -1 -1</clus>
<clus scale="   71.821">  1  6  2 -1</clus>
<clus scale="  172.729">  1  4  2 -1</clus>
<clus scale="  181.918">  2  3  1 -1</clus>
</clustering>
</event>
<event>
 6    0  0.7258365E+002  0.9518891E+02  0.7546771E-02  0.1290751E+00
         21   -1    0    0  504  502  0.00000000000E+00  0.00000000000E+00  0.14990127289E+03  0.14990127289E+03  0.00000000000E+00 0. -1.
          2   -1    0    0  502    0 -0.00000000000E+00 -0.00000000000E+00 -0.10037338115E+04  0.10037338115E+04  0.00000000000E+00 0. -1.
         21    1    1    2  503  505 -0.55323963452E+02  0.10609420416E+03 -0.18891407959E+01  0.11966741387E+03  0.00000000000E+00 0. -1.
         21    1    1    2  504  503 -0.35225639338E+01 -0.30979610305E+02  0.80237967605E+02  0.86082960896E+02  0.00000000000E+00 0. -1.
         21    1    1    2  505  501  0.73859693982E+02 -0.40175009984E+02 -0.23362561393E+03  0.24829460991E+03  0.00000000000E+00 0. -1.
          2    1    1    2  501    0 -0.15013166597E+02 -0.34939583873E+02 -0.69855575152E+03  0.69959009975E+03  0.00000000000E+00 0. -1.
<scales pt_clust_3="95.18891" pt_clust_4="31.17924" pt_clust_5="14000.00000" pt_clust_6="38.25994"></scales>
<clustering>
<clus scale="   31.179">  1  4  2 -1</clus>
<clus scale="   38.260">  2  6  1 -1</clus>
<clus scale="   95.189">  1  3  2 -1</clus>
<clus scale="   31.179">  1  3  2 -1</clus>
</clustering>
</event>
<event>
 6    0  0.7258365E+002  0.1317592E+03  0.7546771E-02  0.1224868E+00
          1   -1    0    0  503    0 -0.00000000000E+00  0.00000000000E+00  0.12848061240E+04  0.12848061240E+04  0.00000000000E+00 0. -1.
         21   -1    0    0  505  502  0.00000000000E+00 -0.00000000000E+00 -0.39917870510E+02  0.39917870510E+02  0.00000000000E+00 0. -1.
         21    1    1    2  503  504  0.11232504689E+03  0.56279838714E+02  0.15559835005E+03  0.19998795699E+03  0.00000000000E+00 0. -1.
         21    1    1    2  504  502  0.21474303373E+02 -0.20949661030E+02  0.74664402231E+02  0.80466185215E+02  0.00000000000E+00 0. -1.
         21    1    1    2  505  501  0.12222210722E+01 -0.31822375786E+02  0.14372678284E+02  0.34938965441E+02  0.00000000000E+00 0. -1.
          1    1    1    2  501    0 -0.13502157133E+03 -0.35078018978E+01  0.10002528229E+04  0.10093308869E+04  0.00000000000E+00 0. -1.
<scales pt_clust_3="131.75923" pt_clust_4="30.00057" pt_clust_5="38.32219" pt_clust_6="14000.00000"></scales>
<clustering>
<clus scale="   30.001">  2  4  1 -1</clus>
<clus scale="   38.322">  2  5  1 -1</clus>
<clus scale="  131.759">  2  3  1 -1</clus>
<clus scale="   30.001">  2  3  1 -1</clus>
</clustering>
</event>
<event>
 6    0  0.7258365E+002  0.1294124E+03  0.7546771E-02  0.1228330E+00
         21   -1    0    0  505  502  0.00000000000E+00  0.00000000000E+00  0.24566916472E+03  0.24566916472E+03  0.00000000000E+00 0. -1.
          1   -1    0    0  503    0 -0.00000000000E+00 -0.00000000000E+00 -0.80871113751E+03  0.80871113751E+03  0.00000000000E+00 0. -1.
         21    1    1    2  503  502  0.12524554345E+03 -0.30579840156E+02 -0.23044023912E+03  0.26405354870E+03  0.00000000000E+00 0. -1.
         21    1    1    2  504  501 -0.12927734777E+03 -0.77486448111E+02 -0.10349271982E+03  0.18283195931E+03  0.00000000000E+00 0. -1.
         21    1    1    2  505  504  0.64876481463E+00  0.55536974133E+02  0.18340789644E+03  0.19163306831E+03  0.00000000000E+00 0. -1.
          1    1    1    2  501    0  0.33830395115E+01  0.52529314135E+02 -0.41251691029E+03  0.41586172591E+03  0.00000000000E+00 0. -1.
<scales pt_clust_3="14000.00000" pt_clust_4="129.41241" pt_clust_5="56.08872" pt_clust_6="52.63814"></scales>
<clustering>
<clus scale="   52.638">  2  6  1 -1</clus>
<clus scale="   56.089">  1  5  2 -1</clus>
<clus scale="  129.412">  1  4  2 -1</clus>
<clus scale="   56.089">  1  3  2 -1</clus>
</clustering>
</event>
<event>
 6    0  0.7258365E+002  0.1238524E+03  0.7546771E-02  0.1236874E+00
         21   -1    0    0  503  502  0.00000000000E+00  0.00000000000E+00  0.70015203072E+03  0.70015203072E+03  0.00000000000E+00 0. -1.
          1   -1    0    0  502    0 -0.00000000000E+00 -0.00000000000E+00 -0.57903134857E+02  0.57903134857E+02  0.00000000000E+00 0.  1.
         21    1    1    2  503  504  0.59204301350E+02 -0.10889256153E+02  0.15918765488E+03  0.17018940821E+03  0.00000000000E+00 0. -1.
         21    1    1    2  504  505 -0.20942995848E+02  0.11795672561E+03  0.43956565570E+03  0.45559890679E+03  0.00000000000E+00 0. -1.
         21    1    1    2  505  501 -0.39595240433E+02 -0.71606907763E+02  0.50419958141E+02  0.96111937257E+02  0.00000000000E+00 0. -1.
          1    1    1    2  501    0  0.13339349307E+01 -0.35460561690E+02 -0.69243728700E+01  0.36154913323E+02  0.00000000000E+00 0.  1.
<scales pt_clust_3="60.19739" pt_clust_4="112.53499" pt_clust_5="34.06185" pt_clust_6="34.06185"></scales>
<clustering>
<clus scale="   34.062">  5  6 -1 -1</clus>
<clus scale="   60.197">  1  3  2 -1</clus>
<clus scale="  112.535">  1  4  2 -1</clus>
<clus scale="   60.197">  1  3  2 -1</clus>
</clustering>
</event>
<event>
 6    0  0.7258365E+002  0.1266034E+03  0.7546771E-02  0.1232584E+00
          2   -1    0    0  504    0 -0.00000000000E+00  0.00000000000E+00  0.11838975556E+04  0.11838975556E+04  0.00000000000E+00 0.  1.
         21   -1    0    0  503  502  0.00000000000E+00 -0.00000000000E+00 -0.17113574764E+03  0.17113574764E+03  0.00000000000E+00 0.  1.
         21    1    1    2  503  501 -0.33986040542E+02  0.11602273303E+03  0.86970574982E+02  0.14893020662E+03  0.00000000000E+00 0. -1.
         21    1    1    2  504  505 -0.13818284519E+02 -0.11561828467E+03 -0.37162719197E+02  0.12222765822E+03  0.00000000000E+00 0.  1.
         21    1    1    2  505  502 -0.68603666861E+01 -0.32490898733E+02 -0.54839563686E+02  0.64110068451E+02  0.00000000000E+00 0.  1.
          2    1    1    2  501    0  0.54664691747E+02  0.32086450370E+02  0.10177935159E+04  0.10197653699E+04  0.00000000000E+00 0.  1.
<scales pt_clust_3="126.60343" pt_clust_4="14000.00000" pt_clust_5="33.20728" pt_clust_6="63.18878"></scales>
<clustering>
<clus scale="   33.207">  2  5  1 -1</clus>
<clus scale="   63.189">  1  6  2 -1</clus>
<clus scale="  126.603">  1  3  2 -1</clus>
<clus scale="   33.207">  2  3  1 -1</clus>
</clustering>
</event>
<event>
 6    0  0.7258365E+002  0.1020502E+03  0.7546771E-02  0.1276043E+00
         21   -1    0    0  504  502  0.00000000000E+00  0.00000000000E+00  0.40158185333E+03  0.40158185333E+03  0.00000000000E+00 0. -1.
          1   -1    0    0  502    0 -0.00000000000E+00 -0.00000000000E+00 -0.93386973443E+03  0.93386973443E+03  0.00000000000E+00 0.  1.
         21    1    1    2  503  501  0.87393338114E+02 -0.46642096255E+01  0.20605903011E+02  0.89910809344E+02  0.00000000000E+00 0. -1.
         21    1    1    2  504  505  0.12905129550E+02 -0.27965609246E+02  0.32168208362E+03  0.32315318441E+03  0.00000000000E+00 0. -1.
         21    1    1    2  505  503 -0.41495205237E+01  0.70456242139E+02 -0.39372701900E+02  0.80817759384E+02  0.00000000000E+00 0.  1.
          1    1    1    2  501    0 -0.96148947139E+02 -0.37826423268E+02 -0.83520316583E+03  0.84156983463E+03  0.00000000000E+00 0.  1.
<scales pt_clust_3="14000.00000" pt_clust_4="30.79964" pt_clust_5="63.14050" pt_clust_6="102.05016"></scales>
<clustering>
<clus scale="   30.800">  1  4  2 -1</clus>
<clus scale="   63.140">  1  5  2 -1</clus>
<clus scale="  102.050">  2  6  1 -1</clus>
<clus scale="   30.800">  1  3  2 -1</clus>
</clustering>
</event>
<event>
 6    0  0.7258365E+002  0.1133866E+03  0.7546771E-02  0.1254424E+00
         21   -1    0    0  505  502  0.00000000000E+00  0.00000000000E+00  0.46270443039E+03  0.46270443039E+03  0.00000000000E+00 0. -1.
          1   -1    0    0  503    0 -0.00000000000E+00 -0.00000000000E+00 -0.84255277534E+03  0.84255277534E+03  0.00000000000E+00 0.  1.
         21    1    1    2  503  502 -0.64493372071E+02  0.77531685314E+01 -0.30904810245E+02  0.71934789634E+02  0.00000000000E+00 0. -1.
         21    1    1    2  504  501  0.79798338337E+01  0.88258209404E+02 -0.58423349502E+02  0.10614366228E+03  0.00000000000E+00 0. -1.
         21    1    1    2  505  504  0.12509375742E+02 -0.11529216469E+03  0.40945285368E+03  0.42555893494E+03  0.00000000000E+00 0. -1.
          1    1    1    2  501    0  0.44004162495E+02  0.19280786758E+02 -0.69997303889E+03  0.70161981887E+03  0.00000000000E+00 0.  1.
<scales pt_clust_3="50.72265" pt_clust_4="113.38660" pt_clust_5="14000.00000" pt_clust_6="48.04285"></scales>
<clustering>
<clus scale="   48.043">  2  6  1 -1</clus>
<clus scale="   50.723">  2  3  1 -1</clus>
<clus scale="  113.387">  2  4  1 -1</clus>
<clus scale="  113.387">  1  3  2 -1</clus>
</clustering>
</event>
<event>
 6    0  0.7258365E+002  0.1183127E+03  0.7546771E-02  0.1245907E+00
          2   -1    0    0  503    0 -0.00000000000E+00  0.00000000000E+00  0.62049871295E+03  0.62049871295E+03  0.00000000000E+00 0. -1.
         21   -1    0    0  504  502  0.00000000000E+00 -0.00000000000E+00 -0.15696415247E+04  0.15696415247E+04  0.00000000000E+00 0.  1.
         21    1    1    2  503  502 -0.70339333420E+02 -0.47556323450E+02  0.13589699406E+03  0.16024112681E+03  0.00000000000E+00 0.  1.
         21    1    1    2  504  505  0.40200956752E+02 -0.12044578801E+02 -0.13813628161E+04  0.13820001514E+04  0.00000000000E+00 0.  1.
         21    1    1    2  505  501  0.79148093172E+02  0.55931318899E+02 -0.16101254527E+03  0.18793023392E+03  0.00000000000E+00 0. -1.
          2    1    1    2  501    0 -0.49009716505E+02  0.36695833527E+01  0.45733555551E+03  0.45996872556E+03  0.00000000000E+00 0. -1.
<scales pt_clust_3="118.31271" pt_clust_4="41.96652" pt_clust_5="14000.00000" pt_clust_6="48.85984"></scales>
<clustering>
<clus scale="   41.967">  2  4  1 -1</clus>
<clus scale="   48.860">  1  6  2 -1</clus>
<clus scale="  118.313">  1  3  2 -1</clus>
<clus scale="   41.967">  2  3  1 -1</clus>
</clustering>
</event>
<event>
 6    0  0.8862672E+002  0.1188927E+03  0.7546771E-02  0.1244935E+00
         21   -1    0    0  503  502  0.00000000000E+00  0.00000000000E+00  0.22176751780E+04  0.22176751780E+04  0.00000000000E+00 0. -1.
          2   -1    0    0  505    0 -0.00000000000E+00 -0.00000000000E+00 -0.86157150830E+03  0.86157150830E+03  0.00000000000E+00 0.  1.
         21    1    1    2  503  504 -0.40870998467E+02 -0.56825750338E+01  0.18818022579E+04  0.18822546236E+04  0.00000000000E+00 0. -1.
         21    1    1    2  504  501  0.59471491256E+01  0.11922001544E+03  0.31219632300E+03  0.33423842502E+03  0.00000000000E+00 0. -1.
         21    1    1    2  505  502  0.12931888499E+02  0.27375849945E+02 -0.30927482491E+02  0.43280250387E+02  0.00000000000E+00 0.  1.
          2    1    1    2  501    0  0.21991960842E+02 -0.14091329035E+03 -0.80696742864E+03  0.81947338738E+03  0.00000000000E+00 0.  1.
<scales pt_clust_3="41.25960" pt_clust_4="118.89266" pt_clust_5="30.27657" pt_clust_6="14000.00000"></scales>
<clustering>
<clus scale="   30.277">  2  5  1 -1</clus>
<clus scale="   41.260">  1  3  2 -1</clus>
<clus scale="  118.893">  1  4  2 -1</clus>
<clus scale="   41.260">  1  3  2 -1</clus>
</clustering>
</event>
<event>
 6    0  0.7258365E+002  0.1663867E+03  0.7546771E-02  0.1181669E+00
          2   -1    0    0  503    0 -0.00000000000E+00  0.00000000000E+00  0.70996235579E+03  0.70996235579E+03  0.00000000000E+00 0.  1.
         21   -1    0    0  501  502  0.00000000000E+00 -0.00000000000E+00 -0.16286439071E+03  0.16286439071E+03  0.00000000000E+00 0. -1.
         21    1    1    2  503  505  0.13576401964E+03  0.11635109277E+03  0.89580194153E+02  0.19998514195E+03  0.00000000000E+00 0. -1.
         21    1    1    2  504  502 -0.57168976530E+02 -0.83781607020E+02 -0.17972427169E+01  0.10144397288E+03  0.00000000000E+00 0. -1.
         21    1    1    2  505  504 -0.26934392139E+02 -0.36736356727E+02 -0.45232564559E+02  0.64195064313E+02  0.00000000000E+00 0. -1.
          2    1    1    2  501    0 -0.51660650970E+02  0.41668709793E+01  0.50454757820E+03  0.50720256736E+03  0.00000000000E+00 0.  1.
<scales pt_clust_3="155.10644" pt_clust_4="40.35732" pt_clust_5="40.35732" pt_clust_6="51.82843"></scales>
<clustering>
<clus scale="   40.357">  4  5 -1 -1</clus>
<clus scale="   51.828">  1  6  2 -1</clus>
<clus scale="  155.106">  1  3  2 -1</clus>
<clus scale="  166.387">  2  3  1 -1</clus>
</clustering>
</event>
<event>
 6    0  0.7258365E+002  0.9797312E+02  0.7546771E-02  0.1284617E+00
          2   -1    0    0  505    0 -0.00000000000E+00  0.00000000000E+00  0.44405938481E+03  0.44405938481E+03  0.00000000000E+00 0.  1.
         21   -1    0    0  504  502  0.00000000000E+00 -0.00000000000E+00 -0.51022490930E+03  0.51022490930E+03  0.00000000000E+00 0. -1.
         21    1    1    2  503  501  0.46626029573E+02  0.39678542745E+02 -0.57235552582E+02  0.83810988943E+02  0.00000000000E+00 0. -1.
         21    1    1    2  504  503  0.25184029459E+02 -0.18331320383E+02 -0.35443103221E+03  0.35579717430E+03  0.00000000000E+00 0. -1.
         21    1    1    2  505  502 -0.91239949030E+02 -0.11456062672E+03 -0.98541034485E+01  0.14678545176E+03  0.00000000000E+00 0. -1.
          2    1    1    2  501    0  0.19429889998E+02  0.93213404357E+02  0.35535516375E+03  0.36789067912E+03  0.00000000000E+00 0.  1.
<scales pt_clust_3="65.99469" pt_clust_4="31.14920" pt_clust_5="14000.00000" pt_clust_6="97.97312"></scales>
<clustering>
<clus scale="   31.149">  2  4  1 -1</clus>
<clus scale="   65.995">  2  3  1 -1</clus>
<clus scale="   97.973">  1  6  2 -1</clus>
<clus scale="   31.149">  2  3  1 -1</clus>
</clustering>
</event>
<event>
 6    0  0.7258365E+002  0.1030705E+03  0.7546771E-02  0.1273968E+00
         21   -1    0    0  503  502  0.00000000000E+00  0.00000000000E+00  0.51654941064E+02  0.51654941064E+02  0.00000000000E+00 0.  1.
          2   -1    0    0  504    0 -0.00000000000E+00 -0.00000000000E+00 -0.19940317875E+04  0.19940317875E+04  0.00000000000E+00 0.  1.
         21    1    1    2  503  501  0.24803107493E+02 -0.26324859678E+02 -0.10131287324E+03  0.10757551145E+03  0.00000000000E+00 0.  1.
         21    1    1    2  504  505 -0.70986795129E+02 -0.22494855926E+02 -0.50038322226E+03  0.50589377615E+03  0.00000000000E+00 0. -1.
         21    1    1    2  505  502  0.88746663708E+02 -0.10596871931E+02  0.16892174374E+00  0.89377248495E+02  0.00000000000E+00 0.  1.
          2    1    1    2  501    0 -0.42562976072E+02  0.59416587535E+02 -0.13408496726E+04  0.13428401924E+04  0.00000000000E+00 0.  1.
<scales pt_clust_3="36.16894" pt_clust_4="14000.00000" pt_clust_5="103.07051" pt_clust_6="72.35343"></scales>
<clustering>
<clus scale="   36.169">  1  3  2 -1</clus>
<clus scale="   72.353">  2  6  1 -1</clus>
<clus scale="  103.071">  1  5  2 -1</clus>
<clus scale="   36.169">  1  3  2 -1</clus>
</clustering>
</event>
<event>
 6    0  0.7258365E+002  0.8243767E+02  0.7546771E-02  0.1322273E+00
         21   -1    0    0  503  502  0.00000000000E+00  0.00000000000E+00  0.33219280523E+02  0.33219280523E+02  0.00000000000E+00 0. -1.
          1   -1    0    0  504    0 -0.00000000000E+00 -0.00000000000E+00 -0.26212475441E+04  0.26212475441E+04  0.00000000000E+00 0.  1.
         21    1    1    2  503  501 -0.10202047004E+03  0.53514573236E+02 -0.13073275069E+03  0.17424992958E+03  0.00000000000E+00 0. -1.
         21    1    1    2  504  505  0.70629175871E+01 -0.64400378997E+02 -0.23964800237E+03  0.24825079791E+03  0.00000000000E+00 0.  1.
         21    1    1    2  505  502  0.60581070480E+02  0.91457048218E+01 -0.12670629202E+03  0.14074158751E+03  0.00000000000E+00 0.  1.
          1    1    1    2  501    0  0.34376481973E+02  0.17401009393E+01 -0.20909412185E+04  0.20912245096E+04  0.00000000000E+00 0.  1.
<scales pt_clust_3="14000.00000" pt_clust_4="67.59035" pt_clust_5="82.43767" pt_clust_6="34.42049"></scales>
<clustering>
<clus scale="   34.420">  2  6  1 -1</clus>
<clus scale="   67.590">  2  4  1 -1</clus>
<clus scale="   82.438">  1  5  2 -1</clus>
<clus scale="   82.438">  1  3  2 -1</clus>
</clustering>
</event>
<event>
 6    0  0.7258365E+002  0.1570664E+03  0.7546771E-02  0.1192049E+00
         -1   -1    0    0    0  501 -0.00000000000E+00  0.00000000000E+00  0.32801245505E+03  0.32801245505E+03  0.00000000000E+00 0. -1.
         21   -1    0    0  504  502  0.00000000000E+00 -0.00000000000E+00 -0.20801952224E+03  0.20801952224E+03  0.00000000000E+00 0.  1.
         21    1    1    2  503  502  0.57545159719E+01 -0.16338852014E+03 -0.87441786360E+02  0.18540493243E+03  0.00000000000E+00 0.  1.
         21    1    1    2  504  505  0.32250980375E+02 -0.12591764460E+02 -0.11146507710E+02  0.36372007114E+02  0.00000000000E+00 0.  1.
         21    1    1    2  505  501  0.50218262484E+01  0.13288805902E+03  0.62941089848E+02  0.14712591805E+03  0.00000000000E+00 0. -1.
         -1    1    1    2    0  503 -0.43027322596E+02  0.43092225571E+02  0.15564013703E+03  0.16712911970E+03  0.00000000000E+00 0. -1.
<scales pt_clust_3="157.06635" pt_clust_4="34.62193" pt_clust_5="14000.00000" pt_clust_6="59.90909"></scales>
<clustering>
<clus scale="   34.622">  2  4  1 -1</clus>
<clus scale="   59.909">  1  6  2 -1</clus>
<clus scale="  157.066">  2  3  1 -1</clus>
<clus scale="   34.622">  2  3  1 -1</clus>
</clustering>
</event>
<event>
 6    0  0.7258365E+002  0.1033203E+03  0.7546771E-02  0.1273465E+00
          1   -1    0    0  502    0 -0.00000000000E+00  0.00000000000E+00  0.30932724933E+03  0.30932724933E+03  0.00000000000E+00 0. -1.
         21   -1    0    0  505  502  0.00000000000E+00 -0.00000000000E+00 -0.56498163555E+03  0.56498163555E+03  0.00000000000E+00 0.  1.
         21    1    1    2  503  504 -0.34425612679E+02  0.91617068786E+02 -0.35304651923E+03  0.36636137193E+03  0.00000000000E+00 0.  1.
         21    1    1    2  504  501  0.49110336637E+02 -0.75977783454E+02 -0.11325112618E+03  0.14494918532E+03  0.00000000000E+00 0. -1.
         21    1    1    2  505  503 -0.36851047638E+02  0.31207791416E+02 -0.65867334188E+02  0.81672710682E+02  0.00000000000E+00 0.  1.
          1    1    1    2  501    0  0.22166323681E+02 -0.46847076749E+02  0.27651059337E+03  0.28132561695E+03  0.00000000000E+00 0. -1.
<scales pt_clust_3="103.32035" pt_clust_4="14000.00000" pt_clust_5="48.29002" pt_clust_6="51.61117"></scales>
<clustering>
<clus scale="   48.290">  2  5  1 -1</clus>
<clus scale="   51.611">  1  6  2 -1</clus>
<clus scale="  103.320">  2  3  1 -1</clus>
<clus scale="   48.290">  2  3  1 -1</clus>
</clustering>
</event>
<event>
 6    0  0.7258365E+002  0.7507075E+02  0.7546771E-02  0.1343652E+00
          2   -1    0    0  503    0 -0.00000000000E+00  0.00000000000E+00  0.46868832973E+03  0.46868832973E+03  0.00000000000E+00 0.  1.
         21   -1    0    0  505  502  0.00000000000E+00 -0.00000000000E+00 -0.11742429383E+03  0.11742429383E+03  0.00000000000E+00 0.  1.
         21    1    1    2  503  502  0.41399049090E+02 -0.48328351195E+02  0.66240496114E+02  0.91854853547E+02  0.00000000000E+00 0. -1.
         21    1    1    2  504  501 -0.49832474159E+02  0.72569282478E+02  0.11145024478E+03  0.14202370683E+03  0.00000000000E+00 0.  1.
         21    1    1    2  505  504  0.53899110012E+02 -0.50254688247E+02 -0.70870246243E+02  0.10224108545E+03  0.00000000000E+00 0.  1.
          2    1    1    2  501    0 -0.45465684943E+02  0.26013756964E+02  0.24444354125E+03  0.24999297774E+03  0.00000000000E+00 0.  1.
<scales pt_clust_3="46.45413" pt_clust_4="75.07075" pt_clust_5="14000.00000" pt_clust_6="52.38171"></scales>
<clustering>
<clus scale="   52.382">  1  6  2 -1</clus>
<clus scale="   46.454">  1  3  2 -1</clus>
<clus scale="   75.071">  1  4  2 -1</clus>
<clus scale="   75.071">  2  3  1 -1</clus>
</clustering>
</event>
<event>
 6    0  0.7258365E+002  0.6552871E+02  0.7546771E-02  0.1375994E+00
         21   -1    0    0  505  502  0.00000000000E+00  0.00000000000E+00  0.52093409823E+02  0.52093409823E+02  0.00000000000E+00 0.  1.
          2   -1    0    0  503    0 -0.00000000000E+00 -0.00000000000E+00 -0.12972245520E+04  0.12972245520E+04  0.00000000000E+00 0.  1.
         21    1    1    2  503  504  0.30677745118E+02 -0.10322355042E+03 -0.28604829147E+03  0.30564661041E+03  0.00000000000E+00 0.  1.
         21    1    1    2  504  502 -0.42809634720E+02  0.45822352442E+02  0.12145819142E+02  0.63873889273E+02  0.00000000000E+00 0.  1.
         21    1    1    2  505  501  0.63410499342E+02  0.24498057649E+02 -0.47393132389E+03  0.47878173108E+03  0.00000000000E+00 0.  1.
          2    1    1    2  501    0 -0.51278609740E+02  0.32903140328E+02 -0.49729734593E+03  0.50101573102E+03  0.00000000000E+00 0.  1.
<scales pt_clust_3="65.52871" pt_clust_4="14000.00000" pt_clust_5="54.99231" pt_clust_6="60.92711"></scales>
<clustering>
<clus scale="   60.927">  2  6  1 -1</clus>
<clus scale="   54.992">  2  5  1 -1</clus>
<clus scale="   65.529">  2  3  1 -1</clus>
<clus scale="   65.529">  1  3  2 -1</clus>
</clustering>
</event>
<event>
 6    0  0.7258365E+002  0.1486894E+03  0.7546771E-02  0.1202093E+00
         21   -1    0    0  501  502  0.00000000000E+00  0.00000000000E+00  0.37509799969E+03  0.37509799969E+03  0.00000000000E+00 0.  1.
          2   -1    0    0  503    0 -0.00000000000E+00 -0.00000000000E+00 -0.25626120987E+03  0.25626120987E+03  0.00000000000E+00 0.  1.
         21    1    1    2  503  505 -0.97404696609E+02 -0.91693693605E+02  0.78147987223E+02  0.15492745488E+03  0.00000000000E+00 0.  1.
         21    1    1    2  504  502  0.22200097306E+02 -0.21281565601E+02  0.61082355103E+02  0.68387158588E+02  0.00000000000E+00 0.  1.
         21    1    1    2  505  504  0.69009067262E+02  0.15477596808E+03  0.15376885650E+03  0.22882900360E+03  0.00000000000E+00 0.  1.
          2    1    1    2  501    0  0.61955320406E+01 -0.41800708878E+02 -0.17416240900E+03  0.17921559249E+03  0.00000000000E+00 0.  1.
<scales pt_clust_3="14000.00000" pt_clust_4="30.75304" pt_clust_5="148.68938" pt_clust_6="42.45550"></scales>
<clustering>
<clus scale="   30.753">  1  4  2 -1</clus>
<clus scale="   42.456">  2  6  1 -1</clus>
<clus scale="  148.689">  1  5  2 -1</clus>
<clus scale="   30.753">  1  3  2 -1</clus>
</clustering>
</event>
<event>
 6    0  0.7258365E+002  0.8673126E+02  0.7546771E-02  0.1310966E+00
          2   -1    0    0  505    0 -0.00000000000E+00  0.00000000000E+00  0.23153497586E+03  0.23153497586E+03  0.00000000000E+00 0. -1.
         21   -1    0    0  504  502  0.00000000000E+00 -0.00000000000E+00 -0.11062755330E+04  0.11062755330E+04  0.00000000000E+00 0.  1.
         21    1    1    2  503  502  0.51881935453E+02 -0.18361484210E+02 -0.68032030055E+03  0.68254273908E+03  0.00000000000E+00 0.  1.
         21    1    1    2  504  501  0.29589824363E+02  0.78557057800E+02 -0.35427732621E+03  0.36408679309E+03  0.00000000000E+00 0.  1.
         21    1    1    2  505  503 -0.70125531941E+02 -0.23220713283E+02 -0.42457754317E+02  0.85202421661E+02  0.00000000000E+00 0.  1.
          2    1    1    2  501    0 -0.11346227875E+02 -0.36974860307E+02  0.20231482389E+03  0.20597855507E+03  0.00000000000E+00 0. -1.
<scales pt_clust_3="55.12409" pt_clust_4="86.73126" pt_clust_5="14000.00000" pt_clust_6="38.67657"></scales>
<clustering>
<clus scale="   38.677">  1  6  2 -1</clus>
<clus scale="   55.124">  2  3  1 -1</clus>
<clus scale="   86.731">  2  4  1 -1</clus>
<clus scale="   55.124">  2  3  1 -1</clus>
</clustering>
</event>
<event>
 6    0  0.7258365E+002  0.1260528E+03  0.7546771E-02  0.1233433E+00
          2   -1    0    0  505    0 -0.00000000000E+00  0.00000000000E+00  0.27056260295E+04  0.27056260295E+04  0.00000000000E+00 0.  1.
         21   -1    0    0  504  502  0.00000000000E+00 -0.00000000000E+00 -0.12396749997E+03  0.12396749997E+03  0.00000000000E+00 0.  1.
         21    1    1    2  503  501  0.78368384855E+02  0.48112356327E+02  0.15718975394E+03  0.18211266106E+03  0.00000000000E+00 0.  1.
         21    1    1    2  504  503 -0.12291260455E+03 -0.58448923235E+02 -0.44425491708E+02  0.14316916322E+03  0.00000000000E+00 0.  1.
         21    1    1    2  505  502  0.21162805043E+02  0.56301979933E+02  0.34437674095E+02  0.69308950783E+02  0.00000000000E+00 0.  1.
          2    1    1    2  501    0  0.23381414648E+02 -0.45965413024E+02  0.24344565932E+04  0.24350027544E+04  0.00000000000E+00 0.  1.
<scales pt_clust_3="126.05279" pt_clust_4="14000.00000" pt_clust_5="53.97850" pt_clust_6="51.57043"></scales>
<clustering>
<clus scale="   51.570">  1  6  2 -1</clus>
<clus scale="   53.979">  1  5  2 -1</clus>
<clus scale="  126.053">  1  3  2 -1</clus>
<clus scale="  126.053">  2  3  1 -1</clus>
</clustering>
</event>
<event>
 6    0  0.7258365E+002  0.8339918E+02  0.7546771E-02  0.1319673E+00
          1   -1    0    0  504    0 -0.00000000000E+00  0.00000000000E+00  0.15884910065E+04  0.15884910065E+04  0.00000000000E+00 0. -1.
         21   -1    0    0  503  502  0.00000000000E+00 -0.00000000000E+00 -0.55618074723E+02  0.55618074723E+02  0.00000000000E+00 0. -1.
         21    1    1    2  503  501  0.98872134658E+02 -0.44483774071E+02  0.15875715146E+03  0.19224551570E+03  0.00000000000E+00 0. -1.
         21    1    1    2  504  505 -0.50177732826E+02  0.67038351222E+02  0.60615277361E+02  0.10337387124E+03  0.00000000000E+00 0. -1.
         21    1    1    2  505  502  0.28155238856E+02  0.11479525837E+02 -0.18451528535E+01  0.30461476942E+02  0.00000000000E+00 0. -1.
          1    1    1    2  501    0 -0.76849640688E+02 -0.34034102987E+02  0.13153456558E+04  0.13180282173E+04  0.00000000000E+00 0. -1.
<scales pt_clust_3="14000.00000" pt_clust_4="81.15651" pt_clust_5="30.40554" pt_clust_6="83.39918"></scales>
<clustering>
<clus scale="   30.406">  2  5  1 -1</clus>
<clus scale="   81.157">  2  4  1 -1</clus>
<clus scale="   83.399">  1  6  2 -1</clus>
<clus scale="   30.406">  2  3  1 -1</clus>
</clustering>
</event>
<event>
 6    0  0.7258365E+002  0.9113436E+02  0.7546771E-02  0.1300128E+00
          2   -1    0    0  504    0 -0.00000000000E+00  0.00000000000E+00  0.98577862689E+03  0.98577862689E+03  0.00000000000E+00 0.  1.
         21   -1    0    0  503  502  0.00000000000E+00 -0.00000000000E+00 -0.28920077317E+03  0.28920077317E+03  0.00000000000E+00 0. -1.
         21    1    1    2  503  501  0.18032487816E+02 -0.60232622552E+02  0.46580570671E+02  0.78248891368E+02  0.00000000000E+00 0. -1.
         21    1    1    2  504  505 -0.44258991615E+02  0.11951692381E+03  0.58609819826E+03  0.59979517455E+03  0.00000000000E+00 0.  1.
         21    1    1    2  505  502 -0.16870364301E+02 -0.38405841290E+02 -0.26311280662E+03  0.26643567112E+03  0.00000000000E+00 0. -1.
          2    1    1    2  501    0  0.43096868100E+02 -0.20878459965E+02  0.32701189141E+03  0.33049966302E+03  0.00000000000E+00 0.  1.
<scales pt_clust_3="91.13436" pt_clust_4="14000.00000" pt_clust_5="41.94780" pt_clust_6="48.09260"></scales>
<clustering>
<clus scale="   41.948">  2  5  1 -1</clus>
<clus scale="   48.093">  1  6  2 -1</clus>
<clus scale="   91.134">  2  3  1 -1</clus>
<clus scale="   41.948">  2  3  1 -1</clus>
</clustering>
</event>
<event>
 6    0  0.7258365E+002  0.1240603E+03  0.7546771E-02  0.1236545E+00
         21   -1    0    0  505  502  0.00000000000E+00  0.00000000000E+00  0.94981765816E+02  0.94981765816E+02  0.00000000000E+00 0. -1.
          2   -1    0    0  503    0 -0.00000000000E+00 -0.00000000000E+00 -0.16698147067E+04  0.16698147067E+04  0.00000000000E+00 0. -1.
         21    1    1    2  503  504  0.54989799586E+02 -0.63694136557E+02 -0.62857867084E+02  0.10503300693E+03  0.00000000000E+00 0. -1.
         21    1    1    2  504  502  0.23127791164E+02  0.34708664593E+02 -0.20478968118E+02  0.46464763608E+02  0.00000000000E+00 0. -1.
         21    1    1    2  505  501  0.25911131217E+02 -0.48064043247E+02  0.45368316026E+02  0.70991711299E+02  0.00000000000E+00 0. -1.
          2    1    1    2  501    0 -0.10402872197E+03  0.77049515211E+02 -0.15368644217E+04  0.15423069907E+04  0.00000000000E+00 0. -1.
<scales pt_clust_3="14000.00000" pt_clust_4="41.70835" pt_clust_5="48.37763" pt_clust_6="124.06029"></scales>
<clustering>
<clus scale="   41.708">  1  4  2 -1</clus>
<clus scale="   48.378">  1  5  2 -1</clus>
<clus scale="  124.060">  2  6  1 -1</clus>
<clus scale="   41.708">  1  3  2 -1</clus>
</clustering>
</event>
<event>
 6    0  0.7258365E+002  0.8284979E+02  0.7546771E-02  0.1321153E+00
         21   -1    0    0  504  502  0.00000000000E+00  0.00000000000E+00  0.21202729805E+02  0.21202729805E+02  0.00000000000E+00 0. -1.
         -1   -1    0    0    0  501 -0.00000000000E+00 -0.00000000000E+00 -0.15555316388E+04  0.15555316388E+04  0.00000000000E+00 0. -1.
         21    1    1    2  503  501 -0.16467983118E+01  0.37990677401E+02 -0.18968525168E+03  0.19345929344E+03  0.00000000000E+00 0. -1.
         21    1    1    2  504  503  0.25799150751E+02 -0.18508376952E+02 -0.37226661176E+02  0.48928320012E+02  0.00000000000E+00 0. -1.
         21    1    1    2  505  502 -0.16800428167E+02 -0.10005803016E+03 -0.20273266736E+03  0.22670332640E+03  0.00000000000E+00 0. -1.
         -1    1    1    2    0  505 -0.73519242713E+01  0.80575729708E+02 -0.11046843288E+04  0.11076434288E+04  0.00000000000E+00 0. -1.
<scales pt_clust_3="35.74819" pt_clust_4="31.75148" pt_clust_5="14000.00000" pt_clust_6="82.84979"></scales>
<clustering>
<clus scale="   31.751">  1  4  2 -1</clus>
<clus scale="   35.748">  1  3  2 -1</clus>
<clus scale="   82.850">  2  6  1 -1</clus>
<clus scale="   31.751">  1  3  2 -1</clus>
</clustering>
</event>
<event>
 6    0  0.7258365E+002  0.8346781E+02  0.7546771E-02  0.1319489E+00
         21   -1    0    0  501  502  0.00000000000E+00  0.00000000000E+00  0.69729504658E+02  0.69729504658E+02  0.00000000000E+00 0. -1.
          2   -1    0    0  504    0 -0.00000000000E+00 -0.00000000000E+00 -0.39935797157E+04  0.39935797157E+04  0.00000000000E+00 0. -1.
         21    1    1    2  503  505 -0.96854255191E+01 -0.48870372989E+02 -0.63883725659E+02  0.81013895275E+02  0.00000000000E+00 0. -1.
         21    1    1    2  504  503 -0.14195630266E+02  0.14286260257E+03 -0.55578427610E+03  0.57402735187E+03  0.00000000000E+00 0. -1.
         21    1    1    2  505  502  0.31909621462E+01 -0.41432506013E+02  0.43471226857E+02  0.60138027557E+02  0.00000000000E+00 0. -1.
          2    1    1    2  501    0  0.20690093638E+02 -0.52559723572E+02 -0.33476534361E+04  0.33481299456E+04  0.00000000000E+00 0. -1.
<scales pt_clust_3="14000.00000" pt_clust_4="83.46781" pt_clust_5="41.55520" pt_clust_6="57.01364"></scales>
<clustering>
<clus scale="   41.555">  1  5  2 -1</clus>
<clus scale="   57.014">  2  6  1 -1</clus>
<clus scale="   83.468">  2  4  1 -1</clus>
<clus scale="   41.555">  1  3  2 -1</clus>
</clustering>
</event>
<event>
 6    0  0.7258365E+002  0.9508208E+02  0.7546771E-02  0.1290991E+00
         21   -1    0    0  501  502  0.00000000000E+00  0.00000000000E+00  0.15959231227E+03  0.15959231227E+03  0.00000000000E+00 0. -1.
          2   -1    0    0  503    0 -0.00000000000E+00 -0.00000000000E+00 -0.10440502126E+04  0.10440502126E+04  0.00000000000E+00 0.  1.
         21    1    1    2  503  504 -0.88252835838E+02  0.18210657330E+02 -0.44311715236E+03  0.45218691024E+03  0.00000000000E+00 0. -1.
         21    1    1    2  504  505  0.14915212623E+03  0.49287202847E+02 -0.52964232919E+03  0.55244599917E+03  0.00000000000E+00 0.  1.
         21    1    1    2  505  502 -0.86638343926E+02 -0.38199050984E+02  0.11705523733E+03  0.15055662962E+03  0.00000000000E+00 0. -1.
          2    1    1    2  501    0  0.25739053531E+02 -0.29298809193E+02 -0.28753656092E+02  0.48452985826E+02  0.00000000000E+00 0.  1.
<scales pt_clust_3="89.17222" pt_clust_4="95.08208" pt_clust_5="14000.00000" pt_clust_6="38.99896"></scales>
<clustering>
<clus scale="   38.999">  1  6  2 -1</clus>
<clus scale="   89.172">  2  3  1 -1</clus>
<clus scale="   95.082">  2  4  1 -1</clus>
<clus scale="   38.999">  1  3  2 -1</clus>
</clustering>
</event>
<event>
 6    0  0.7258365E+002  0.2556019E+03  0.7546771E-02  0.1109815E+00
          2   -1    0    0  504    0 -0.00000000000E+00  0.00000000000E+00  0.19732063379E+04  0.19732063379E+04  0.00000000000E+00 0. -1.
         21   -1    0    0  505  502  0.00000000000E+00 -0.00000000000E+00 -0.21859836393E+03  0.21859836393E+03  0.00000000000E+00 0.  1.
         21    1    1    2  503  502 -0.89843116247E+02 -0.13033507604E+03 -0.13308341986E+03  0.20680960864E+03  0.00000000000E+00 0.  1.
         21    1    1    2  504  503  0.47060161841E+02 -0.12380448718E+02  0.21442376446E+03  0.21987606761E+03  0.00000000000E+00 0. -1.
         21    1    1    2  505  501  0.18085862171E+02 -0.12384453755E+03  0.77842950637E+02  0.14739095242E+03  0.00000000000E+00 0.  1.
          2    1    1    2  501    0  0.24697092234E+02  0.26656006231E+03  0.15954246787E+04  0.16177280731E+04  0.00000000000E+00 0. -1.
<scales pt_clust_3="255.60193" pt_clust_4="48.66143" pt_clust_5="126.41254" pt_clust_6="14000.00000"></scales>
<clustering>
<clus scale="   48.661">  1  4  2 -1</clus>
<clus scale="  126.413">  2  5  1 -1</clus>
<clus scale="  255.602">  2  3  1 -1</clus>
<clus scale="  126.413">  2  3  1 -1</clus>
</clustering>
</event>
<event>
 6    0  0.7258365E+002  0.7452828E+02  0.7546771E-02  0.1345338E+00
          1   -1    0    0  504    0 -0.00000000000E+00  0.00000000000E+00  0.51760860027E+03  0.51760860027E+03  0.00000000000E+00 0. -1.
         21   -1    0    0  503  502  0.00000000000E+00 -0.00000000000E+00 -0.60189622775E+03  0.60189622775E+03  0.00000000000E+00 0. -1.
         21    1    1    2  503  501 -0.50385482814E+02 -0.50260697416E+01  0.33359759681E+02  0.60636884991E+02  0.00000000000E+00 0. -1.
         21    1    1    2  504  505  0.11736805871E+03 -0.78331577430E+01 -0.59390291996E+02  0.13177187237E+03  0.00000000000E+00 0. -1.
         21    1    1    2  505  502 -0.43191575604E+02 -0.15669832137E+02 -0.49080754851E+03  0.49295345167E+03  0.00000000000E+00 0. -1.
          1    1    1    2  501    0 -0.23791000288E+02  0.28529059621E+02  0.43255045334E+03  0.43414261899E+03  0.00000000000E+00 0. -1.
<scales pt_clust_3="74.52828" pt_clust_4="14000.00000" pt_clust_5="46.10926" pt_clust_6="37.14726"></scales>
<clustering>
<clus scale="   37.147">  1  6  2 -1</clus>
<clus scale="   46.109">  2  5  1 -1</clus>
<clus scale="   74.528">  1  3  2 -1</clus>
<clus scale="   46.109">  2  3  1 -1</clus>
</clustering>
</event>
<event>
 6    0  0.7258365E+002  0.1441784E+03  0.7546771E-02  0.1207815E+00
         21   -1    0    0  504  502  0.00000000000E+00  0.00000000000E+00  0.46793547925E+02  0.46793547925E+02  0.00000000000E+00 0.  1.
          2   -1    0    0  505    0 -0.00000000000E+00 -0.00000000000E+00 -0.38654344362E+04  0.38654344362E+04  0.00000000000E+00 0. -1.
         21    1    1    2  503  501  0.20349852034E+03 -0.82430073102E+02 -0.16319993684E+04  0.16467022509E+04  0.00000000000E+00 0. -1.
         21    1    1    2  504  503 -0.42288496769E+01 -0.63792602964E+02 -0.25922536537E+03  0.26699282652E+03  0.00000000000E+00 0.  1.
         21    1    1    2  505  502 -0.79593294456E+02  0.11708774564E+03 -0.11626929097E+03  0.18320256746E+03  0.00000000000E+00 0.  1.
          2    1    1    2  501    0 -0.11967637621E+03  0.29134930422E+02 -0.18111468636E+04  0.18153303393E+04  0.00000000000E+00 0. -1.
<scales pt_clust_3="14000.00000" pt_clust_4="63.93262" pt_clust_5="106.79358" pt_clust_6="144.17838"></scales>
<clustering>
<clus scale="   63.933">  1  4  2 -1</clus>
<clus scale="  106.794">  1  5  2 -1</clus>
<clus scale="  144.178">  2  6  1 -1</clus>
<clus scale="   63.933">  1  3  2 -1</clus>
</clustering>
</event>
<event>
 6    0  0.7258365E+002  0.6253929E+02  0.7546771E-02  0.1387474E+00
          1   -1    0    0  503    0 -0.00000000000E+00  0.00000000000E+00  0.10071117715E+04  0.10071117715E+04  0.00000000000E+00 0.  1.
         21   -1    0    0  504  502  0.00000000000E+00 -0.00000000000E+00 -0.46063780486E+03  0.46063780486E+03  0.00000000000E+00 0.  1.
         21    1    1    2  503  505  0.70478844597E+02  0.71785892503E+02  0.63306383209E+03  0.64100725222E+03  0.00000000000E+00 0.  1.
         21    1    1    2  504  501  0.28336095250E+02 -0.20605541004E+02 -0.42076515601E+03  0.42222131534E+03  0.00000000000E+00 0.  1.
         21    1    1    2  505  502 -0.77139358339E+02 -0.12030594636E+02  0.11685880513E+02  0.78941596232E+02  0.00000000000E+00 0.  1.
          1    1    1    2  501    0 -0.21675581508E+02 -0.39149756863E+02  0.32248941008E+03  0.32557941260E+03  0.00000000000E+00 0.  1.
<scales pt_clust_3="62.53929" pt_clust_4="35.03602" pt_clust_5="14000.00000" pt_clust_6="44.94043"></scales>
<clustering>
<clus scale="   35.036">  2  4  1 -1</clus>
<clus scale="   44.940">  1  6  2 -1</clus>
<clus scale="   62.539">  1  3  2 -1</clus>
<clus scale="   35.036">  2  3  1 -1</clus>
</clustering>
</event>
<event>
 6    0  0.7258365E+002  0.7387052E+02  0.7546771E-02  0.1347405E+00
         -1   -1    0    0    0  501 -0.00000000000E+00  0.00000000000E+00  0.60500245867E+03  0.60500245867E+03  0.00000000000E+00 0. -1.
         21   -1    0    0  505  502  0.00000000000E+00 -0.00000000000E+00 -0.13512095714E+04  0.13512095714E+04  0.00000000000E+00 0.  1.
         21    1    1    2  503  502 -0.27955243534E+02 -0.14054362015E+02 -0.94169305492E+02  0.99231440731E+02  0.00000000000E+00 0. -1.
         21    1    1    2  504  501 -0.50453561087E+02  0.97245983713E+02 -0.20398836278E+03  0.23154609763E+03  0.00000000000E+00 0.  1.
         21    1    1    2  505  504  0.38471873236E+02 -0.21488950044E+02 -0.10339766958E+04  0.10349152948E+04  0.00000000000E+00 0.  1.
         -1    1    1    2    0  503  0.39936931385E+02 -0.61702671654E+02  0.58592725128E+03  0.59051919695E+03  0.00000000000E+00 0. -1.
<scales pt_clust_3="31.28931" pt_clust_4="73.87052" pt_clust_5="36.49576" pt_clust_6="14000.00000"></scales>
<clustering>
<clus scale="   31.289">  2  3  1 -1</clus>
<clus scale="   36.496">  2  5  1 -1</clus>
<clus scale="   73.871">  2  4  1 -1</clus>
<clus scale="   31.289">  2  3  1 -1</clus>
</clustering>
</event>
<event>
 6    0  0.7258365E+002  0.9732945E+02  0.7546771E-02  0.1286014E+00
          1   -1    0    0  503    0 -0.00000000000E+00  0.00000000000E+00  0.21380897888E+03  0.21380897888E+03  0.00000000000E+00 0.  1.
         21   -1    0    0  504  502  0.00000000000E+00 -0.00000000000E+00 -0.29600660972E+03  0.29600660972E+03  0.00000000000E+00 0. -1.
         21    1    1    2  503  502  0.45960920220E+02  0.63636687691E+02  0.29420848341E+02  0.83830904354E+02  0.00000000000E+00 0. -1.
         21    1    1    2  504  505 -0.20234603725E+02 -0.29726083028E+02 -0.77478187476E+02  0.85416325926E+02  0.00000000000E+00 0.  1.
         21    1    1    2  505  501  0.36070303737E+02  0.59907761132E+02 -0.15834244532E+03  0.17309632187E+03  0.00000000000E+00 0. -1.
          1    1    1    2  501    0 -0.61796620231E+02 -0.93818365795E+02  0.12420215360E+03  0.16747203645E+03  0.00000000000E+00 0.  1.
<scales pt_clust_3="14000.00000" pt_clust_4="35.95941" pt_clust_5="42.22597" pt_clust_6="97.32945"></scales>
<clustering>
<clus scale="   35.959">  2  4  1 -1</clus>
<clus scale="   42.226">  2  5  1 -1</clus>
<clus scale="   97.329">  1  6  2 -1</clus>
<clus scale="   35.959">  2  3  1 -1</clus>
</clustering>
</event>
<event>
 6    0  0.7258365E+002  0.1009352E+03  0.7546771E-02  0.1278342E+00
          2   -1    0    0  503    0 -0.00000000000E+00  0.00000000000E+00  0.24035420590E+04  0.24035420590E+04  0.00000000000E+00 0. -1.
         21   -1    0    0  501  502  0.00000000000E+00 -0.00000000000E+00 -0.74002093833E+02  0.74002093833E+02  0.00000000000E+00 0. -1.
         21    1    1    2  503  504 -0.31770086295E+02  0.46584401161E+02  0.60373158949E+03  0.60635903305E+03  0.00000000000E+00 0.  1.
         21    1    1    2  504  505 -0.50912639421E+02 -0.13632340900E+03  0.41843691205E+03  0.44301875588E+03  0.00000000000E+00 0. -1.
         21    1    1    2  505  502  0.61171328786E+01  0.50111548405E+02 -0.48234160317E+02  0.69822065421E+02  0.00000000000E+00 0. -1.
          2    1    1    2  501    0  0.76565592837E+02  0.39627459433E+02  0.13556056239E+04  0.13583442984E+04  0.00000000000E+00 0. -1.
<scales pt_clust_3="59.78775" pt_clust_4="14000.00000" pt_clust_5="50.48353" pt_clust_6="100.93518"></scales>
<clustering>
<clus scale="   50.484">  2  5  1 -1</clus>
<clus scale="   59.788">  1  3  2 -1</clus>
<clus scale="  100.935">  1  6  2 -1</clus>
<clus scale="   50.484">  2  3  1 -1</clus>
</clustering>
</event>
<event>
 6    0  0.7258365E+002  0.1301428E+03  0.7546771E-02  0.1227244E+00
         21   -1    0    0  501  502  0.00000000000E+00  0.00000000000E+00  0.70900698382E+02  0.70900698382E+02  0.00000000000E+00 0. -1.
          1   -1    0    0  504    0 -0.00000000000E+00 -0.00000000000E+00 -0.18341757237E+04  0.18341757237E+04  0.00000000000E+00 0. -1.
         21    1    1    2  503  505  0.38765469645E+02 -0.28245817297E+02 -0.89893647925E+01  0.48799554413E+02  0.00000000000E+00 0. -1.
         21    1    1    2  504  503 -0.29128586796E+02  0.11279494351E+03 -0.13462714732E+04  0.13513023545E+04  0.00000000000E+00 0. -1.
         21    1    1    2  505  502  0.21301070139E+02 -0.77754979021E+02  0.13954447216E+02  0.81818695594E+02  0.00000000000E+00 0. -1.
          1    1    1    2  501    0 -0.30937952988E+02 -0.67941471898E+01 -0.42196863453E+03  0.42315581752E+03  0.00000000000E+00 0. -1.
<scales pt_clust_3="35.96183" pt_clust_4="121.42831" pt_clust_5="35.96183" pt_clust_6="31.67519"></scales>
<clustering>
<clus scale="   31.675">  2  6  1 -1</clus>
<clus scale="   35.962">  3  5 -1 -1</clus>
<clus scale="  121.428">  2  4  1 -1</clus>
<clus scale="  130.143">  1  3  2 -1</clus>
</clustering>
</event>
<event>
 6    0  0.7258365E+002  0.1492546E+03  0.7546771E-02  0.1201392E+00
          1   -1    0    0  503    0 -0.00000000000E+00  0.00000000000E+00  0.19860043122E+04  0.19860043122E+04  0.00000000000E+00 0.  1.
         21   -1    0    0  504  502  0.00000000000E+00 -0.00000000000E+00 -0.98730501796E+02  0.98730501796E+02  0.00000000000E+00 0.  1.
         21    1    1    2  503  505  0.40316037676E+01  0.37825350199E+02  0.14563149456E+03  0.15051758421E+03  0.00000000000E+00 0.  1.
         21    1    1    2  504  501  0.15270172927E+03  0.70496773147E+01 -0.17995158923E+02  0.15391992014E+03  0.00000000000E+00 0.  1.
         21    1    1    2  505  502 -0.12177205465E+03 -0.56946462127E+02  0.43852300063E+03  0.45866518826E+03  0.00000000000E+00 0.  1.
          1    1    1    2  501    0 -0.34961278384E+02  0.12071434613E+02  0.13211144741E+04  0.13216321213E+04  0.00000000000E+00 0.  1.
<scales pt_clust_3="40.68864" pt_clust_4="14000.00000" pt_clust_5="149.25460" pt_clust_6="36.98663"></scales>
<clustering>
<clus scale="   36.987">  1  6  2 -1</clus>
<clus scale="   40.689">  1  3  2 -1</clus>
<clus scale="  149.255">  1  5  2 -1</clus>
<clus scale="  149.255">  2  3  1 -1</clus>
</clustering>
</event>
<event>
 6    0  0.7258365E+002  0.9231429E+02  0.7546771E-02  0.1297342E+00
         21   -1    0    0  505  502  0.00000000000E+00  0.00000000000E+00  0.12446452857E+03  0.12446452857E+03  0.00000000000E+00 0. -1.
          1   -1    0    0  504    0 -0.00000000000E+00 -0.00000000000E+00 -0.34624337666E+03  0.34624337666E+03  0.00000000000E+00 0. -1.
         21    1    1    2  503  502 -0.19014349444E+02  0.42215144311E+02  0.31451010516E+02  0.55971688883E+02  0.00000000000E+00 0. -1.
         21    1    1    2  504  503 -0.69637748316E+02  0.59142838158E+02 -0.21852558389E+03  0.23685591002E+03  0.00000000000E+00 0. -1.
         21    1    1    2  505  501  0.49319148184E+02 -0.49088771598E+01  0.27377590703E+02  0.56621620652E+02  0.00000000000E+00 0. -1.
          1    1    1    2  501    0  0.39332949576E+02 -0.96449105309E+02 -0.62081865426E+02  0.12125868568E+03  0.00000000000E+00 0. -1.
<scales pt_clust_3="46.29972" pt_clust_4="92.31429" pt_clust_5="42.95714" pt_clust_6="14000.00000"></scales>
<clustering>
<clus scale="   46.300">  1  3  2 -1</clus>
<clus scale="   42.957">  1  5  2 -1</clus>
<clus scale="   92.314">  2  4  1 -1</clus>
<clus scale="   46.300">  1  3  2 -1</clus>
</clustering>
</event>
<event>
 6    0  0.7890017E+002  0.1255722E+03  0.7546771E-02  0.1234178E+00
         21   -1    0    0  505  502  0.00000000000E+00  0.00000000000E+00  0.19343016590E+04  0.19343016590E+04  0.00000000000E+00 0. -1.
          2   -1    0    0  504    0 -0.00000000000E+00 -0.00000000000E+00 -0.41742527091E+03  0.41742527091E+03  0.00000000000E+00 0. -1.
         21    1    1    2  503  502  0.61788934136E+02 -0.82648913990E+02  0.16212997859E+04  0.16245804724E+04  0.00000000000E+00 0. -1.
         21    1    1    2  504  503 -0.96858334632E+02  0.67993378789E+02  0.21698705232E+03  0.24715990254E+03  0.00000000000E+00 0. -1.
         21    1    1    2  505  501  0.25237096708E+02 -0.20729241090E+02  0.75039867182E+02  0.81838830350E+02  0.00000000000E+00 0.  1.
          2    1    1    2  501    0  0.98323037878E+01  0.35384776291E+02 -0.39645031730E+03  0.39814772470E+03  0.00000000000E+00 0. -1.
<scales pt_clust_3="14000.00000" pt_clust_4="125.57219" pt_clust_5="32.65903" pt_clust_6="36.71938"></scales>
<clustering>
<clus scale="   32.659">  1  5  2 -1</clus>
<clus scale="   36.719">  2  6  1 -1</clus>
<clus scale="  125.572">  2  4  1 -1</clus>
<clus scale="   32.659">  1  3  2 -1</clus>
</clustering>
</event>
<event>
 6    0  0.7258365E+002  0.1308335E+03  0.7546771E-02  0.1226224E+00
          2   -1    0    0  503    0 -0.00000000000E+00  0.00000000000E+00  0.32434651893E+04  0.32434651893E+04  0.00000000000E+00 0. -1.
         21   -1    0    0  505  502  0.00000000000E+00 -0.00000000000E+00 -0.32851827559E+02  0.32851827559E+02  0.00000000000E+00 0. -1.
         21    1    1    2  503  502  0.89463032220E+02 -0.16504865040E+03  0.78789985120E+03  0.80995732397E+03  0.00000000000E+00 0. -1.
         21    1    1    2  504  501 -0.32296360555E+02  0.97438840216E+02  0.30560011113E+03  0.32237991627E+03  0.00000000000E+00 0. -1.
         21    1    1    2  505  504 -0.39458476059E+02 -0.68374210454E+01  0.18744995168E+02  0.44216473212E+02  0.00000000000E+00 0. -1.
          2    1    1    2  501    0 -0.17708195606E+02  0.74447231233E+02  0.20983684042E+04  0.20997633034E+04  0.00000000000E+00 0. -1.
<scales pt_clust_3="130.83350" pt_clust_4="14000.00000" pt_clust_5="40.04649" pt_clust_6="76.62280"></scales>
<clustering>
<clus scale="   40.046">  2  5  1 -1</clus>
<clus scale="   76.623">  1  6  2 -1</clus>
<clus scale="  130.834">  1  3  2 -1</clus>
<clus scale="   40.046">  2  3  1 -1</clus>
</clustering>
</event>
<event>
 6    0  0.7258365E+002  0.8181776E+02  0.7546771E-02  0.1323971E+00
         21   -1    0    0  505  502  0.00000000000E+00  0.00000000000E+00  0.32034882324E+03  0.32034882324E+03  0.00000000000E+00 0.  1.
          2   -1    0    0  504    0 -0.00000000000E+00 -0.00000000000E+00 -0.27745262150E+04  0.27745262150E+04  0.00000000000E+00 0. -1.
         21    1    1    2  503  501 -0.14691011605E+03  0.54908370960E+02  0.15165389418E+03  0.21816602627E+03  0.00000000000E+00 0.  1.
         21    1    1    2  504  502  0.38624320027E+02  0.60136473340E+01  0.12078243934E+03  0.12695038285E+03  0.00000000000E+00 0.  1.
         21    1    1    2  505  503  0.28465755538E+02 -0.44109739087E+02 -0.51967230882E+02  0.73868541384E+02  0.00000000000E+00 0.  1.
          2    1    1    2  501    0  0.79820040487E+02 -0.16812279208E+02 -0.26746464944E+04  0.26758900877E+04  0.00000000000E+00 0. -1.
<scales pt_clust_3="81.81776" pt_clust_4="39.08967" pt_clust_5="53.42005" pt_clust_6="14000.00000"></scales>
<clustering>
<clus scale="   39.090">  1  4  2 -1</clus>
<clus scale="   53.420">  1  5  2 -1</clus>
<clus scale="   81.818">  1  3  2 -1</clus>
<clus scale="   39.090">  1  3  2 -1</clus>
</clustering>
</event>
<event>
 6    0  0.7258365E+002  0.9776586E+02  0.7546771E-02  0.1285065E+00
         21   -1    0    0  503  502  0.00000000000E+00  0.00000000000E+00  0.28514417233E+03  0.28514417233E+03  0.00000000000E+00 0. -1.
          2   -1    0    0  504    0 -0.00000000000E+00 -0.00000000000E+00 -0.94816638500E+03  0.94816638500E+03  0.00000000000E+00 0.  1.
         21    1    1    2  503  501 -0.12101279337E+03  0.67341698122E+02 -0.25294651429E+03  0.28837638523E+03  0.00000000000E+00 0.  1.
         21    1    1    2  504  505 -0.72515718437E+02 -0.51286083836E+02 -0.38993295552E+03  0.39992061915E+03  0.00000000000E+00 0.  1.
         21    1    1    2  505  502  0.96799183465E+02  0.81244648453E+01  0.24402892065E+03  0.26265224720E+03  0.00000000000E+00 0. -1.
          2    1    1    2  501    0  0.96729328344E+02 -0.24180079132E+02 -0.26417166350E+03  0.28236130575E+03  0.00000000000E+00 0.  1.
<scales pt_clust_3="14000.00000" pt_clust_4="88.81887" pt_clust_5="97.76586" pt_clust_6="78.49595"></scales>
<clustering>
<clus scale="   88.819">  2  4  1 -1</clus>
<clus scale="   78.496">  2  6  1 -1</clus>
<clus scale="   97.766">  1  5  2 -1</clus>
<clus scale="   97.766">  1  3  2 -1</clus>
</clustering>
</event>
<event>
 6    0  0.7258365E+002  0.1004408E+03  0.7546771E-02  0.1279372E+00
         -3   -1    0    0    0  501 -0.00000000000E+00  0.00000000000E+00  0.63102371321E+03  0.63102371321E+03  0.00000000000E+00 0. -1.
         21   -1    0    0  503  502  0.00000000000E+00 -0.00000000000E+00 -0.58228870740E+02  0.58228870740E+02  0.00000000000E+00 0. -1.
         21    1    1    2  503  504  0.20736004088E+02 -0.60613609295E+02  0.12287856640E+02  0.65230230094E+02  0.00000000000E+00 0. -1.
         21    1    1    2  504  501  0.87435445397E+01 -0.81260520130E+02  0.10926802808E+03  0.13645227614E+03  0.00000000000E+00 0. -1.
         21    1    1    2  505  502 -0.46203320048E+02  0.30477584921E+02  0.65677268205E+02  0.85890241151E+02  0.00000000000E+00 0. -1.
         -3    1    1    2    0  505  0.16723771421E+02  0.11139654450E+03  0.38556168955E+03  0.40167983657E+03  0.00000000000E+00 0. -1.
<scales pt_clust_3="44.09748" pt_clust_4="100.44081" pt_clust_5="55.35007" pt_clust_6="14000.00000"></scales>
<clustering>
<clus scale="   55.350">  2  5  1 -1</clus>
<clus scale="   44.097">  2  3  1 -1</clus>
<clus scale="  100.441">  2  4  1 -1</clus>
<clus scale="   55.350">  2  3  1 -1</clus>
</clustering>
</event>
<event>
 6    0  0.7258365E+002  0.1548043E+03  0.7546771E-02  0.1194691E+00
         21   -1    0    0  504  502  0.00000000000E+00  0.00000000000E+00  0.14000691683E+03  0.14000691683E+03  0.00000000000E+00 0. -1.
          2   -1    0    0  503    0 -0.00000000000E+00 -0.00000000000E+00 -0.12129036827E+04  0.12129036827E+04  0.00000000000E+00 0. -1.
         21    1    1    2  503  505 -0.24703565042E+01  0.61706030560E+02 -0.88810639694E+02  0.10817146847E+03  0.00000000000E+00 0. -1.
         21    1    1    2  504  501  0.65474012421E+02  0.51963889502E+02  0.87634079478E+02  0.12110666373E+03  0.00000000000E+00 0. -1.
         21    1    1    2  505  502  0.97261752544E+02 -0.13561532613E+03 -0.41536051248E+03  0.44763346671E+03  0.00000000000E+00 0. -1.
          2    1    1    2  501    0 -0.16026540846E+03  0.21945406070E+02 -0.65635969318E+03  0.67599900061E+03  0.00000000000E+00 0. -1.
<scales pt_clust_3="61.75546" pt_clust_4="84.13920" pt_clust_5="154.80434" pt_clust_6="14000.00000"></scales>
<clustering>
<clus scale="   61.755">  2  3  1 -1</clus>
<clus scale="   84.139">  1  4  2 -1</clus>
<clus scale="  154.804">  1  5  2 -1</clus>
<clus scale="   84.139">  1  3  2 -1</clus>
</clustering>
</event>
<event>
 6    0  0.7258365E+002  0.9786220E+02  0.7546771E-02  0.1284857E+00
         21   -1    0    0  504  502  0.00000000000E+00  0.00000000000E+00  0.32440855662E+02  0.32440855662E+02  0.00000000000E+00 0. -1.
          1   -1    0    0  503    0 -0.00000000000E+00 -0.00000000000E+00 -0.26280119876E+04  0.26280119876E+04  0.00000000000E+00 0. -1.
         21    1    1    2  503  502 -0.97184222357E+02 -0.22250837272E+02 -0.20481230966E+03  0.22778927768E+03  0.00000000000E+00 0. -1.
         21    1    1    2  504  505  0.21587931836E+02 -0.59267688016E+02 -0.99631059745E+02  0.11791965786E+03  0.00000000000E+00 0. -1.
         21    1    1    2  505  501  0.53724231573E+02  0.10278772167E+03 -0.27591654534E+03  0.29930176875E+03  0.00000000000E+00 0. -1.
          1    1    1    2  501    0  0.21872058947E+02 -0.21269196382E+02 -0.20152112172E+04  0.20154421390E+04  0.00000000000E+00 0. -1.
<scales pt_clust_3="97.86220" pt_clust_4="67.99482" pt_clust_5="14000.00000" pt_clust_6="30.50845"></scales>
<clustering>
<clus scale="   30.508">  2  6  1 -1</clus>
<clus scale="   67.995">  1  4  2 -1</clus>
<clus scale="   97.862">  2  3  1 -1</clus>
<clus scale="   67.995">  1  3  2 -1</clus>
</clustering>
</event>
<event>
 6    0  0.7258365E+002  0.1047912E+03  0.7546771E-02  0.1270532E+00
          1   -1    0    0  504    0 -0.00000000000E+00  0.00000000000E+00  0.36213875341E+03  0.36213875341E+03  0.00000000000E+00 0. -1.
         21   -1    0    0  505  502  0.00000000000E+00 -0.00000000000E+00 -0.72393787716E+02  0.72393787716E+02  0.00000000000E+00 0. -1.
         21    1    1    2  503  502 -0.57766189915E+02  0.13210790960E+02  0.33896631431E+02  0.68267410361E+02  0.00000000000E+00 0. -1.
         21    1    1    2  504  503  0.15721852715E+02  0.87055594279E+02  0.22339703341E+03  0.24027502509E+03  0.00000000000E+00 0. -1.
         21    1    1    2  505  501  0.44133606697E+02 -0.59273394992E+02  0.38017672428E+00  0.73900305333E+02  0.00000000000E+00 0. -1.
          1    1    1    2  501    0 -0.20892694967E+01 -0.40992990247E+02  0.32071124133E+02  0.52089800341E+02  0.00000000000E+00 0. -1.
<scales pt_clust_3="59.25755" pt_clust_4="89.34118" pt_clust_5="40.81591" pt_clust_6="40.81591"></scales>
<clustering>
<clus scale="   40.816">  5  6 -1 -1</clus>
<clus scale="   59.258">  2  3  1 -1</clus>
<clus scale="   89.341">  1  4  2 -1</clus>
<clus scale="   59.258">  2  3  1 -1</clus>
</clustering>
</event>
<event>
 6    0  0.7258365E+002  0.1395268E+03  0.7546771E-02  0.1213967E+00
          2   -1    0    0  503    0 -0.00000000000E+00  0.00000000000E+00  0.28351670667E+04  0.28351670667E+04  0.00000000000E+00 0.  1.
         21   -1    0    0  505  502  0.00000000000E+00 -0.00000000000E+00 -0.32116145021E+02  0.32116145021E+02  0.00000000000E+00 0.  1.
         21    1    1    2  503  504 -0.58646398601E+02 -0.14453524042E+02  0.22393083319E+03  0.23193387523E+03  0.00000000000E+00 0.  1.
         21    1    1    2  504  502 -0.12814873941E+02 -0.29913971748E+02  0.15971472981E+02  0.36251270999E+02  0.00000000000E+00 0.  1.
         21    1    1    2  505  501  0.54493012860E+02 -0.10045334523E+03  0.19176390331E+03  0.22323475901E+03  0.00000000000E+00 0.  1.
          2    1    1    2  501    0  0.16968259682E+02  0.14482084102E+03  0.23713847122E+04  0.23758633065E+04  0.00000000000E+00 0.  1.
<scales pt_clust_3="64.14483" pt_clust_4="32.54330" pt_clust_5="14000.00000" pt_clust_6="139.52684"></scales>
<clustering>
<clus scale="   32.543">  2  4  1 -1</clus>
<clus scale="   64.145">  2  3  1 -1</clus>
<clus scale="  139.527">  1  6  2 -1</clus>
<clus scale="   32.543">  2  3  1 -1</clus>
</clustering>
</event>
<event>
 6    0  0.7258365E+002  0.1642231E+03  0.7546771E-02  0.1184010E+00
         21   -1    0    0  505  502  0.00000000000E+00  0.00000000000E+00  0.25487948096E+03  0.25487948096E+03  0.00000000000E+00 0.  1.
          2   -1    0    0  502    0 -0.00000000000E+00 -0.00000000000E+00 -0.14262508554E+04  0.14262508554E+04  0.00000000000E+00 0. -1.
         21    1    1    2  503  504  0.87371147560E+02  0.75578248101E+02  0.13148899393E+03  0.17502898199E+03  0.00000000000E+00 0.  1.
         21    1    1    2  504  501 -0.64404193289E+02 -0.97211958839E+02 -0.45981501895E+03  0.47437107490E+03  0.00000000000E+00 0. -1.
         21    1    1    2  505  503  0.25079715410E+01  0.47927005727E+02  0.87855758698E+02  0.10010955067E+03  0.00000000000E+00 0.  1.
          2    1    1    2  501    0 -0.25474925811E+02 -0.26293294989E+02 -0.93090110808E+03  0.93162072874E+03  0.00000000000E+00 0. -1.
<scales pt_clust_3="42.19946" pt_clust_4="150.70482" pt_clust_5="42.19946" pt_clust_6="36.61023"></scales>
<clustering>
<clus scale="   36.610">  2  6  1 -1</clus>
<clus scale="   42.199">  3  5 -1 -1</clus>
<clus scale="  150.705">  2  4  1 -1</clus>
<clus scale="  164.223">  1  3  2 -1</clus>
</clustering>
</event>
<event>
 6    0  0.7258365E+002  0.1093036E+03  0.7546771E-02  0.1261865E+00
         21   -1    0    0  505  502  0.00000000000E+00  0.00000000000E+00  0.26624488680E+03  0.26624488680E+03  0.00000000000E+00 0. -1.
          1   -1    0    0  504    0 -0.00000000000E+00 -0.00000000000E+00 -0.57865438526E+03  0.57865438526E+03  0.00000000000E+00 0. -1.
         21    1    1    2  503  502 -0.91562193212E+02  0.74475287745E+01  0.31984669601E+01  0.91920243154E+02  0.00000000000E+00 0. -1.
         21    1    1    2  504  503  0.70491133853E+02 -0.90482850363E+02  0.16789292604E+03  0.20333268497E+03  0.00000000000E+00 0. -1.
         21    1    1    2  505  501  0.58274047462E+02 -0.19743771694E+02 -0.83581002386E+01  0.62092986463E+02  0.00000000000E+00 0. -1.
          1    1    1    2  501    0 -0.37202988103E+02  0.10277909328E+03 -0.47514279122E+03  0.48755335748E+03  0.00000000000E+00 0. -1.
<scales pt_clust_3="80.06197" pt_clust_4="109.30361" pt_clust_5="61.52789" pt_clust_6="14000.00000"></scales>
<clustering>
<clus scale="   61.528">  1  5  2 -1</clus>
<clus scale="   80.062">  1  3  2 -1</clus>
<clus scale="  109.304">  1  4  2 -1</clus>
<clus scale="   61.528">  1  3  2 -1</clus>
</clustering>
</event>
<event>
 6    0  0.7258365E+002  0.1537909E+03  0.7546771E-02  0.1195891E+00
         21   -1    0    0  501  502  0.00000000000E+00  0.00000000000E+00  0.11799846010E+04  0.11799846010E+04  0.00000000000E+00 0.  1.
          2   -1    0    0  504    0 -0.00000000000E+00 -0.00000000000E+00 -0.49396160056E+03  0.49396160056E+03  0.00000000000E+00 0.  1.
         21    1    1    2  503  502  0.81192325731E+01 -0.35273275712E+02  0.64432183135E+03  0.64533770095E+03  0.00000000000E+00 0.  1.
         21    1    1    2  504  505  0.44928015823E+02 -0.77739026388E+02  0.65407927547E+02  0.11108591187E+03  0.00000000000E+00 0.  1.
         21    1    1    2  505  503  0.56113685494E+02 -0.10097026578E+02  0.43058991126E+03  0.43434820976E+03  0.00000000000E+00 0.  1.
          2    1    1    2  501    0 -0.10916093389E+03  0.12310932868E+03 -0.45429666977E+03  0.48317437893E+03  0.00000000000E+00 0.  1.
<scales pt_clust_3="36.19566" pt_clust_4="153.79092" pt_clust_5="73.60892" pt_clust_6="14000.00000"></scales>
<clustering>
<clus scale="   36.196">  1  3  2 -1</clus>
<clus scale="   73.609">  1  5  2 -1</clus>
<clus scale="  153.791">  1  4  2 -1</clus>
<clus scale="   36.196">  1  3  2 -1</clus>
</clustering>
</event>
<event>
 6    0  0.7258365E+002  0.9396073E+02  0.7546771E-02  0.1293534E+00
         21   -1    0    0  503  502  0.00000000000E+00  0.00000000000E+00  0.53784230878E+02  0.53784230878E+02  0.00000000000E+00 0. -1.
         -2   -1    0    0    0  501 -0.00000000000E+00 -0.00000000000E+00 -0.13586293276E+04  0.13586293276E+04  0.00000000000E+00 0. -1.
         21    1    1    2  503  501 -0.18565944618E+02  0.32607552856E+02  0.71165825778E+01  0.38191524589E+02  0.00000000000E+00 0. -1.
         21    1    1    2  504  505 -0.84942798066E+02  0.65881396963E+01 -0.32630672748E+03  0.33724584938E+03  0.00000000000E+00 0.  1.
         21    1    1    2  505  502  0.10782001373E+03  0.42895287545E+01 -0.90717231856E+02  0.14097223689E+03  0.00000000000E+00 0. -1.
         -2    1    1    2    0  504 -0.43112710466E+01 -0.43485221307E+02 -0.89493771995E+03  0.89600394760E+03  0.00000000000E+00 0. -1.
<scales pt_clust_3="37.52262" pt_clust_4="93.96073" pt_clust_5="14000.00000" pt_clust_6="43.17569"></scales>
<clustering>
<clus scale="   37.523">  1  3  2 -1</clus>
<clus scale="   43.176">  2  6  1 -1</clus>
<clus scale="   93.961">  2  4  1 -1</clus>
<clus scale="   37.523">  1  3  2 -1</clus>
</clustering>
</event>
<event>
 6    0  0.7258365E+002  0.1663708E+03  0.7546771E-02  0.1181686E+00
          2   -1    0    0  503    0 -0.00000000000E+00  0.00000000000E+00  0.28587981180E+04  0.28587981180E+04  0.00000000000E+00 0.  1.
         21   -1    0    0  504  502  0.00000000000E+00 -0.00000000000E+00 -0.33045591680E+03  0.33045591680E+03  0.00000000000E+00 0. -1.
         21    1    1    2  503  505  0.24493228310E+02 -0.21423849436E+02  0.90381307497E+02  0.96060815646E+02  0.00000000000E+00 0. -1.
         21    1    1    2  504  501 -0.10468570706E+03  0.67531908882E+02 -0.26818716324E+03  0.29570933449E+03  0.00000000000E+00 0. -1.
         21    1    1    2  505  502 -0.62349584364E+02 -0.50256484820E+02 -0.71868895504E+01  0.80404205849E+02  0.00000000000E+00 0. -1.
          2    1    1    2  501    0  0.14254206311E+03  0.41484253739E+01  0.27133349465E+04  0.27170796788E+04  0.00000000000E+00 0.  1.
<scales pt_clust_3="32.54074" pt_clust_4="166.37079" pt_clust_5="80.00903" pt_clust_6="14000.00000"></scales>
<clustering>
<clus scale="   32.541">  1  3  2 -1</clus>
<clus scale="   80.009">  2  5  1 -1</clus>
<clus scale="  166.371">  2  4  1 -1</clus>
<clus scale="   80.009">  2  3  1 -1</clus>
</clustering>
</event>
<event>
 6    0  0.7258365E+002  0.9697023E+02  0.7546771E-02  0.1286799E+00
          4   -1    0    0  504    0 -0.00000000000E+00  0.00000000000E+00  0.20734024907E+04  0.20734024907E+04  0.00000000000E+00 0. -1.
         21   -1    0    0  503  502  0.00000000000E+00 -0.00000000000E+00 -0.17260035436E+03  0.17260035436E+03  0.00000000000E+00 0. -1.
         21    1    1    2  503  505 -0.82176719275E+02 -0.18598237999E+02  0.79450081450E+02  0.11580683525E+03  0.00000000000E+00 0. -1.
         21    1    1    2  504  502  0.93336787315E+02 -0.40535343267E+02 -0.13268202995E+03  0.16721061865E+03  0.00000000000E+00 0. -1.
         21    1    1    2  505  501 -0.50072651296E+02  0.55073961504E+02  0.32234433937E+03  0.33082666876E+03  0.00000000000E+00 0. -1.
          4    1    1    2  501    0  0.38912583255E+02  0.40596197628E+01  0.16316897454E+04  0.16321587224E+04  0.00000000000E+00 0. -1.
<scales pt_clust_3="14000.00000" pt_clust_4="96.97023" pt_clust_5="61.85531" pt_clust_6="39.12377"></scales>
<clustering>
<clus scale="   39.124">  1  6  2 -1</clus>
<clus scale="   61.855">  1  5  2 -1</clus>
<clus scale="   96.970">  2  4  1 -1</clus>
<clus scale="   96.970">  2  3  1 -1</clus>
</clustering>
</event>
<event>
 6    0  0.7258365E+002  0.9184328E+02  0.7546771E-02  0.1298448E+00
         21   -1    0    0  505  502  0.00000000000E+00  0.00000000000E+00  0.61760484680E+02  0.61760484680E+02  0.00000000000E+00 0. -1.
          2   -1    0    0  503    0 -0.00000000000E+00 -0.00000000000E+00 -0.18542213139E+04  0.18542213139E+04  0.00000000000E+00 0. -1.
         21    1    1    2  503  504 -0.10235995431E+03 -0.36550779325E+02 -0.32307447851E+03  0.34086747920E+03  0.00000000000E+00 0. -1.
         21    1    1    2  504  502 -0.54231063698E+02 -0.20346323428E+02 -0.37629331699E+02  0.69072047537E+02  0.00000000000E+00 0. -1.
         21    1    1    2  505  501  0.72067996161E+02  0.28375734636E+02 -0.62042464062E+01  0.77701165116E+02  0.00000000000E+00 0. -1.
          2    1    1    2  501    0  0.84523021850E+02  0.28521368116E+02 -0.14255527726E+04  0.14283411067E+04  0.00000000000E+00 0. -1.
<scales pt_clust_3="91.84328" pt_clust_4="57.92220" pt_clust_5="32.49166" pt_clust_6="14000.00000"></scales>
<clustering>
<clus scale="   57.922">  1  4  2 -1</clus>
<clus scale="   32.492">  1  5  2 -1</clus>
<clus scale="   91.843">  1  3  2 -1</clus>
<clus scale="   57.922">  1  3  2 -1</clus>
</clustering>
</event>
<event>
 6    0  0.7258365E+002  0.1170178E+03  0.7546771E-02  0.1248099E+00
         21   -1    0    0  505  502  0.00000000000E+00  0.00000000000E+00  0.41017470945E+03  0.41017470945E+03  0.00000000000E+00 0.  1.
          1   -1    0    0  503    0 -0.00000000000E+00 -0.00000000000E+00 -0.59500430755E+03  0.59500430755E+03  0.00000000000E+00 0.  1.
         21    1    1    2  503  504  0.56378674247E+02 -0.62058631785E+02 -0.51849159210E+02  0.98580748626E+02  0.00000000000E+00 0. -1.
         21    1    1    2  504  502 -0.41318432177E+02  0.46464051210E-01  0.13155503328E+03  0.13789105039E+03  0.00000000000E+00 0.  1.
         21    1    1    2  505  501  0.24903275996E+02 -0.62925439933E+02  0.23898449481E+03  0.24838150677E+03  0.00000000000E+00 0.  1.
          1    1    1    2  501    0 -0.39963518065E+02  0.12493760767E+03 -0.50351996698E+03  0.52032571120E+03  0.00000000000E+00 0.  1.
<scales pt_clust_3="117.01775" pt_clust_4="41.31846" pt_clust_5="63.95433" pt_clust_6="14000.00000"></scales>
<clustering>
<clus scale="   41.318">  1  4  2 -1</clus>
<clus scale="   63.954">  1  5  2 -1</clus>
<clus scale="  117.018">  1  3  2 -1</clus>
<clus scale="   41.318">  1  3  2 -1</clus>
</clustering>
</event>
<event>
 6    0  0.7258365E+002  0.7880600E+02  0.7546771E-02  0.1332474E+00
         21   -1    0    0  505  502  0.00000000000E+00  0.00000000000E+00  0.23902791561E+02  0.23902791561E+02  0.00000000000E+00 0.  1.
          2   -1    0    0  504    0 -0.00000000000E+00 -0.00000000000E+00 -0.25991104869E+04  0.25991104869E+04  0.00000000000E+00 0. -1.
         21    1    1    2  503  502 -0.14586168956E+02  0.37335393687E+02 -0.93472778378E+01  0.41158954670E+02  0.00000000000E+00 0.  1.
         21    1    1    2  504  503 -0.32006677349E+02 -0.95645027962E+01 -0.18858046089E+03  0.19151631089E+03  0.00000000000E+00 0.  1.
         21    1    1    2  505  501  0.53495842978E+02 -0.96234498777E+02 -0.50813919638E+03  0.51993107896E+03  0.00000000000E+00 0.  1.
          2    1    1    2  501    0 -0.69029966738E+01  0.68463607886E+02 -0.18691407602E+04  0.18704069339E+04  0.00000000000E+00 0. -1.
<scales pt_clust_3="40.11373" pt_clust_4="33.40520" pt_clust_5="14000.00000" pt_clust_6="78.80600"></scales>
<clustering>
<clus scale="   33.405">  2  4  1 -1</clus>
<clus scale="   40.114">  1  3  2 -1</clus>
<clus scale="   78.806">  2  6  1 -1</clus>
<clus scale="   40.114">  1  3  2 -1</clus>
</clustering>
</event>
<event>
 6    0  0.7258365E+002  0.1305801E+03  0.7546771E-02  0.1226597E+00
         21   -1    0    0  504  502  0.00000000000E+00  0.00000000000E+00  0.21345490108E+03  0.21345490108E+03  0.00000000000E+00 0. -1.
         -1   -1    0    0    0  501 -0.00000000000E+00 -0.00000000000E+00 -0.14728362434E+03  0.14728362434E+03  0.00000000000E+00 0. -1.
         21    1    1    2  503  502  0.10188314865E+02  0.63859422844E+02  0.80109543157E+02  0.10295322506E+03  0.00000000000E+00 0. -1.
         21    1    1    2  504  505  0.37123310873E+02 -0.20848435818E+02  0.22214129023E+02  0.48023588104E+02  0.00000000000E+00 0. -1.
         21    1    1    2  505  501 -0.83040734984E+02 -0.92241752381E+02 -0.67551368723E+02  0.14130637624E+03  0.00000000000E+00 0. -1.
         -1    1    1    2    0  503  0.35729109247E+02  0.49230765355E+02  0.31398973290E+02  0.68455336013E+02  0.00000000000E+00 0. -1.
<scales pt_clust_3="44.30588" pt_clust_4="42.57696" pt_clust_5="122.48355" pt_clust_6="44.30588"></scales>
<clustering>
<clus scale="   42.577">  1  4  2 -1</clus>
<clus scale="   44.306">  3  6 -1 -1</clus>
<clus scale="  122.484">  2  5  1 -1</clus>
<clus scale="   42.577">  1  3  2 -1</clus>
</clustering>
</event>
<event>
 6    0  0.1646226E+003  0.7116488E+02  0.7546771E-02  0.1356176E+00
         21   -1    0    0  504  502  0.00000000000E+00  0.00000000000E+00  0.18870166833E+03  0.18870166833E+03  0.00000000000E+00 0. -1.
          2   -1    0    0  503    0 -0.00000000000E+00 -0.00000000000E+00 -0.18342870595E+04  0.18342870595E+04  0.00000000000E+00 0. -1.
         21    1    1    2  503  502  0.73447745118E+02  0.42163518247E+01 -0.76806186298E+02  0.10635571982E+03  0.00000000000E+00 0.  1.
         21    1    1    2  504  505 -0.50527948819E+02 -0.13187025756E+02 -0.29264998727E+01  0.52302348528E+02  0.00000000000E+00 0. -1.
         21    1    1    2  505  501 -0.93801122270E+02  0.40165751402E+01  0.13365659099E+03  0.16333666989E+03  0.00000000000E+00 0. -1.
          2    1    1    2  501    0  0.70881325971E+02  0.49540987907E+01 -0.16995092960E+04  0.17009939896E+04  0.00000000000E+00 0. -1.
<scales pt_clust_3="68.96259" pt_clust_4="52.22041" pt_clust_5="14000.00000" pt_clust_6="71.16488"></scales>
<clustering>
<clus scale="   52.220">  1  4  2 -1</clus>
<clus scale="   68.963">  1  3  2 -1</clus>
<clus scale="   71.165">  2  6  1 -1</clus>
<clus scale="   52.220">  1  3  2 -1</clus>
</clustering>
</event>
<event>
 6    0  0.7258365E+002  0.2610651E+03  0.7546771E-02  0.1106505E+00
         21   -1    0    0  504  502  0.00000000000E+00  0.00000000000E+00  0.87288669807E+03  0.87288669807E+03  0.00000000000E+00 0. -1.
          3   -1    0    0  502    0 -0.00000000000E+00 -0.00000000000E+00 -0.14306354729E+04  0.14306354729E+04  0.00000000000E+00 0. -1.
         21    1    1    2  503  505  0.52725497273E+02 -0.19637411684E+03  0.45897612365E+03  0.50199786246E+03  0.00000000000E+00 0. -1.
         21    1    1    2  504  503  0.10894477238E+02 -0.43610983213E+02  0.25784268852E+03  0.26173165555E+03  0.00000000000E+00 0. -1.
         21    1    1    2  505  501 -0.33689888969E+01  0.23937965609E+03  0.23293274731E+02  0.24053387803E+03  0.00000000000E+00 0. -1.
          3    1    1    2  501    0 -0.60250985614E+02  0.60544397115E+00 -0.12978608617E+04  0.12992587749E+04  0.00000000000E+00 0. -1.
<scales pt_clust_3="41.56096" pt_clust_4="41.56096" pt_clust_5="245.64563" pt_clust_6="60.25403"></scales>
<clustering>
<clus scale="   41.561">  3  4 -1 -1</clus>
<clus scale="   60.254">  2  6  1 -1</clus>
<clus scale="  245.646">  2  5  1 -1</clus>
<clus scale="  261.065">  1  3  2 -1</clus>
</clustering>
</event>
<event>
 6    0  0.7258365E+002  0.6553308E+02  0.7546771E-02  0.1375977E+00
          2   -1    0    0  503    0 -0.00000000000E+00  0.00000000000E+00  0.19765746225E+04  0.19765746225E+04  0.00000000000E+00 0. -1.
         21   -1    0    0  504  502  0.00000000000E+00 -0.00000000000E+00 -0.10363169746E+03  0.10363169746E+03  0.00000000000E+00 0. -1.
         21    1    1    2  503  505 -0.36721949088E+02 -0.21739149091E+02  0.12163837452E+03  0.12890689006E+03  0.00000000000E+00 0. -1.
         21    1    1    2  504  501  0.12427445346E+02  0.57000644021E+02  0.84894786781E+02  0.10300795911E+03  0.00000000000E+00 0. -1.
         21    1    1    2  505  502  0.41683482921E+02 -0.93964355056E+02 -0.61175753807E+02  0.11962142627E+03  0.00000000000E+00 0. -1.
          2    1    1    2  501    0 -0.17388979179E+02  0.58702860125E+02  0.17275855176E+04  0.17286700445E+04  0.00000000000E+00 0. -1.
<scales pt_clust_3="42.67426" pt_clust_4="56.88686" pt_clust_5="65.53308" pt_clust_6="14000.00000"></scales>
<clustering>
<clus scale="   42.674">  1  3  2 -1</clus>
<clus scale="   56.887">  2  4  1 -1</clus>
<clus scale="   65.533">  2  5  1 -1</clus>
<clus scale="   56.887">  2  3  1 -1</clus>
</clustering>
</event>
<event>
 6    0  0.7258365E+002  0.1572121E+03  0.7546771E-02  0.1191881E+00
         21   -1    0    0  504  502  0.00000000000E+00  0.00000000000E+00  0.34808519177E+03  0.34808519177E+03  0.00000000000E+00 0. -1.
          2   -1    0    0  503    0 -0.00000000000E+00 -0.00000000000E+00 -0.17743819246E+04  0.17743819246E+04  0.00000000000E+00 0. -1.
         21    1    1    2  503  502 -0.66828242438E+02  0.12256243073E+03 -0.13318893311E+03  0.19294262182E+03  0.00000000000E+00 0.  1.
         21    1    1    2  504  505 -0.44434263197E+02  0.46377820619E+02  0.16741779242E+03  0.17931542937E+03  0.00000000000E+00 0. -1.
         21    1    1    2  505  501  0.21553634621E+02 -0.20307464889E+03  0.70602495532E+02  0.21607541406E+03  0.00000000000E+00 0. -1.
          2    1    1    2  501    0  0.89708871014E+02  0.34134397540E+02 -0.15311280877E+04  0.15341336511E+04  0.00000000000E+00 0. -1.
<scales pt_clust_3="157.21213" pt_clust_4="64.22854" pt_clust_5="14000.00000" pt_clust_6="95.76954"></scales>
<clustering>
<clus scale="   64.229">  1  4  2 -1</clus>
<clus scale="   95.770">  2  6  1 -1</clus>
<clus scale="  157.212">  2  3  1 -1</clus>
<clus scale="   64.229">  1  3  2 -1</clus>
</clustering>
</event>
<event>
 6    0  0.7258365E+002  0.1114179E+03  0.7546771E-02  0.1257966E+00
          1   -1    0    0  503    0 -0.00000000000E+00  0.00000000000E+00  0.30697793659E+04  0.30697793659E+04  0.00000000000E+00 0. -1.
         21   -1    0    0  505  502  0.00000000000E+00 -0.00000000000E+00 -0.11478072825E+04  0.11478072825E+04  0.00000000000E+00 0. -1.
         21    1    1    2  503  504  0.87021123007E+01  0.11935723991E+03  0.22961465504E+03  0.25893004323E+03  0.00000000000E+00 0.  1.
         21    1    1    2  504  502  0.84558897906E+01  0.32165100030E+02  0.15776467704E+02  0.36810225011E+02  0.00000000000E+00 0.  1.
         21    1    1    2  505  501  0.59017715049E+02 -0.12303560155E+03 -0.11178922316E+04  0.11261899891E+04  0.00000000000E+00 0. -1.
          1    1    1    2  501    0 -0.76175717140E+02 -0.28486738386E+02  0.27944731923E+04  0.27956563910E+04  0.00000000000E+00 0. -1.
<scales pt_clust_3="14000.00000" pt_clust_4="33.25802" pt_clust_5="111.41792" pt_clust_6="81.31796"></scales>
<clustering>
<clus scale="   33.258">  2  4  1 -1</clus>
<clus scale="   81.318">  1  6  2 -1</clus>
<clus scale="  111.418">  2  5  1 -1</clus>
<clus scale="   33.258">  2  3  1 -1</clus>
</clustering>
</event>
<event>
 6    0  0.7258365E+002  0.8089164E+02  0.7546771E-02  0.1326540E+00
          1   -1    0    0  504    0 -0.00000000000E+00  0.00000000000E+00  0.37671028524E+04  0.37671028524E+04  0.00000000000E+00 0. -1.
         21   -1    0    0  503  502  0.00000000000E+00 -0.00000000000E+00 -0.30816028917E+02  0.30816028917E+02  0.00000000000E+00 0. -1.
         21    1    1    2  503  501 -0.86242767166E+02 -0.10903346388E+01  0.12490698115E+04  0.12520440878E+04  0.00000000000E+00 0.  1.
         21    1    1    2  504  505  0.62199519972E+02  0.68206774724E+02  0.13778242156E+04  0.13809129276E+04  0.00000000000E+00 0. -1.
         21    1    1    2  505  502 -0.10702069101E+01 -0.45678130909E+02 -0.85903659721E+01  0.46491196733E+02  0.00000000000E+00 0. -1.
          1    1    1    2  501    0  0.25113454104E+02 -0.21438309177E+02  0.11179831623E+04  0.11184706692E+04  0.00000000000E+00 0. -1.
<scales pt_clust_3="80.89164" pt_clust_4="14000.00000" pt_clust_5="45.84015" pt_clust_6="33.01949"></scales>
<clustering>
<clus scale="   33.019">  1  6  2 -1</clus>
<clus scale="   45.840">  2  5  1 -1</clus>
<clus scale="   80.892">  1  3  2 -1</clus>
<clus scale="   45.840">  2  3  1 -1</clus>
</clustering>
</event>
<event>
 6    0  0.7258365E+002  0.2442495E+03  0.7546771E-02  0.1116994E+00
         21   -1    0    0  505  502  0.00000000000E+00  0.00000000000E+00  0.85643719125E+02  0.85643719125E+02  0.00000000000E+00 0. -1.
          2   -1    0    0  502    0 -0.00000000000E+00 -0.00000000000E+00 -0.19376386138E+04  0.19376386138E+04  0.00000000000E+00 0. -1.
         21    1    1    2  503  504 -0.23525551799E+02  0.70816416596E+02 -0.41838484800E+02  0.85550425232E+02  0.00000000000E+00 0.  1.
         21    1    1    2  504  501  0.14703023185E+03  0.16292133926E+03 -0.25901256845E+03  0.33948308128E+03  0.00000000000E+00 0. -1.
         21    1    1    2  505  503  0.22234238449E+02 -0.29628439986E+02 -0.12196918563E+02  0.38999623561E+02  0.00000000000E+00 0. -1.
          2    1    1    2  501    0 -0.14573891850E+03 -0.20410931587E+03 -0.15389469228E+04  0.15592492028E+04  0.00000000000E+00 0. -1.
<scales pt_clust_3="64.09338" pt_clust_4="244.24949" pt_clust_5="37.04330" pt_clust_6="14000.00000"></scales>
<clustering>
<clus scale="   37.043">  1  5  2 -1</clus>
<clus scale="   64.093">  1  3  2 -1</clus>
<clus scale="  244.249">  1  4  2 -1</clus>
<clus scale="   37.043">  1  3  2 -1</clus>
</clustering>
</event>
<event>
 6    0  0.7258365E+002  0.7769012E+02  0.7546771E-02  0.1335737E+00
         21   -1    0    0  503  502  0.00000000000E+00  0.00000000000E+00  0.10007195736E+04  0.10007195736E+04  0.00000000000E+00 0.  1.
          3   -1    0    0  504    0 -0.00000000000E+00 -0.00000000000E+00 -0.61370879152E+02  0.61370879152E+02  0.00000000000E+00 0.  1.
         21    1    1    2  503  501 -0.14974508934E+02 -0.45063574523E+02  0.72325973773E+03  0.72481694923E+03  0.00000000000E+00 0.  1.
         21    1    1    2  504  505  0.14092047872E+02  0.86985085127E+02  0.16386473682E+03  0.18605548318E+03  0.00000000000E+00 0.  1.
         21    1    1    2  505  502  0.47334294625E+02  0.19750413643E+02  0.53343687482E+02  0.74001103241E+02  0.00000000000E+00 0.  1.
          3    1    1    2  501    0 -0.46451833563E+02 -0.61671924248E+02 -0.11194675703E+01  0.77216917119E+02  0.00000000000E+00 0.  1.
<scales pt_clust_3="47.48644" pt_clust_4="77.69012" pt_clust_5="44.87940" pt_clust_6="14000.00000"></scales>
<clustering>
<clus scale="   47.486">  1  3  2 -1</clus>
<clus scale="   44.879">  1  5  2 -1</clus>
<clus scale="   77.690">  1  4  2 -1</clus>
<clus scale="   47.486">  1  3  2 -1</clus>
</clustering>
</event>
<event>
 6    0  0.7258365E+002  0.9481996E+02  0.7546771E-02  0.1291582E+00
         21   -1    0    0  505  502  0.00000000000E+00  0.00000000000E+00  0.12457391654E+04  0.12457391654E+04  0.00000000000E+00 0. -1.
          2   -1    0    0  504    0 -0.00000000000E+00 -0.00000000000E+00 -0.11755837597E+03  0.11755837597E+03  0.00000000000E+00 0. -1.
         21    1    1    2  503  502  0.10256006305E+02 -0.53903553332E+02  0.68002970943E+03  0.68223982912E+03  0.00000000000E+00 0. -1.
         21    1    1    2  504  503 -0.72168247169E+02  0.11166657701E+03  0.45443059184E+03  0.47348161857E+03  0.00000000000E+00 0. -1.
         21    1    1    2  505  501  0.11679433956E+02 -0.46952098441E+02  0.87874590936E+02  0.10031377003E+03  0.00000000000E+00 0. -1.
          2    1    1    2  501    0  0.50232806908E+02 -0.10810925235E+02 -0.94154102801E+02  0.10726232362E+03  0.00000000000E+00 0. -1.
<scales pt_clust_3="94.81996" pt_clust_4="14000.00000" pt_clust_5="48.38294" pt_clust_6="51.50478"></scales>
<clustering>
<clus scale="   48.383">  1  5  2 -1</clus>
<clus scale="   51.505">  2  6  1 -1</clus>
<clus scale="   94.820">  1  3  2 -1</clus>
<clus scale="   48.383">  1  3  2 -1</clus>
</clustering>
</event>
<event>
 6    0  0.7258365E+002  0.6184376E+02  0.7546771E-02  0.1390253E+00
         21   -1    0    0  505  502  0.00000000000E+00  0.00000000000E+00  0.21868305994E+04  0.21868305994E+04  0.00000000000E+00 0.  1.
         -1   -1    0    0    0  501 -0.00000000000E+00 -0.00000000000E+00 -0.20891880477E+02  0.20891880477E+02  0.00000000000E+00 0.  1.
         21    1    1    2  503  501  0.78682609423E+02  0.29549948231E+02  0.28175049746E+03  0.29401954915E+03  0.00000000000E+00 0.  1.
         21    1    1    2  504  502 -0.68415631407E+02 -0.17035964777E+02  0.14917735011E+04  0.14934386835E+04  0.00000000000E+00 0.  1.
         21    1    1    2  505  503  0.18113170778E+02  0.40613308387E+02  0.33196036183E+03  0.33492567773E+03  0.00000000000E+00 0.  1.
         -1    1    1    2    0  504 -0.28380148794E+02 -0.53127291842E+02  0.60454358566E+02  0.85338569555E+02  0.00000000000E+00 0.  1.
<scales pt_clust_3="61.84376" pt_clust_4="56.06328" pt_clust_5="44.46940" pt_clust_6="14000.00000"></scales>
<clustering>
<clus scale="   44.469">  1  5  2 -1</clus>
<clus scale="   56.063">  1  4  2 -1</clus>
<clus scale="   61.844">  1  3  2 -1</clus>
<clus scale="   44.469">  1  3  2 -1</clus>
</clustering>
</event>
<event>
 6    0  0.7258365E+002  0.8143603E+02  0.7546771E-02  0.1325025E+00
         21   -1    0    0  504  502  0.00000000000E+00  0.00000000000E+00  0.19724918576E+03  0.19724918576E+03  0.00000000000E+00 0. -1.
          2   -1    0    0  505    0 -0.00000000000E+00 -0.00000000000E+00 -0.31944506733E+04  0.31944506733E+04  0.00000000000E+00 0. -1.
         21    1    1    2  503  502 -0.37265840458E+02 -0.14951780344E+02  0.75450419653E+02  0.85469669628E+02  0.00000000000E+00 0. -1.
         21    1    1    2  504  501  0.71346218799E+02 -0.94717309071E+02  0.29855119022E+01  0.11861941180E+03  0.00000000000E+00 0. -1.
         21    1    1    2  505  503 -0.39343280112E+02  0.46440829485E+02  0.39025063102E+02  0.72302143007E+02  0.00000000000E+00 0. -1.
          2    1    1    2  501    0  0.52629017710E+01  0.63228259930E+02 -0.31146624822E+04  0.31153086346E+04  0.00000000000E+00 0. -1.
<scales pt_clust_3="40.15344" pt_clust_4="81.43603" pt_clust_5="14000.00000" pt_clust_6="63.39722"></scales>
<clustering>
<clus scale="   40.153">  1  3  2 -1</clus>
<clus scale="   63.397">  2  6  1 -1</clus>
<clus scale="   81.436">  2  4  1 -1</clus>
<clus scale="   40.153">  1  3  2 -1</clus>
</clustering>
</event>
<event>
 6    0  0.7258365E+002  0.1373356E+03  0.7546771E-02  0.1216960E+00
          2   -1    0    0  504    0 -0.00000000000E+00  0.00000000000E+00  0.39399559899E+04  0.39399559899E+04  0.00000000000E+00 0. -1.
         21   -1    0    0  503  502  0.00000000000E+00 -0.00000000000E+00 -0.27730758326E+02  0.27730758326E+02  0.00000000000E+00 0.  1.
         21    1    1    2  503  505 -0.20356471762E+02  0.33108631617E+02  0.58226655354E+01  0.39299756540E+02  0.00000000000E+00 0.  1.
         21    1    1    2  504  502 -0.30228358916E+02 -0.82247893021E+01  0.16168361765E+03  0.16469059797E+03  0.00000000000E+00 0.  1.
         21    1    1    2  505  501 -0.76051908651E+02  0.48603353801E+02  0.24799580444E+03  0.26390926060E+03  0.00000000000E+00 0.  1.
          2    1    1    2  501    0  0.12663673933E+03 -0.73487196116E+02  0.34967231440E+04  0.34997871331E+04  0.00000000000E+00 0. -1.
<scales pt_clust_3="48.45780" pt_clust_4="31.32732" pt_clust_5="14000.00000" pt_clust_6="137.33562"></scales>
<clustering>
<clus scale="   31.327">  2  4  1 -1</clus>
<clus scale="   48.458">  2  3  1 -1</clus>
<clus scale="  137.336">  1  6  2 -1</clus>
<clus scale="   31.327">  2  3  1 -1</clus>
</clustering>
</event>
<event>
 6    0  0.7258365E+002  0.1336865E+03  0.7546771E-02  0.1222086E+00
         -1   -1    0    0    0  501 -0.00000000000E+00  0.00000000000E+00  0.10653934982E+04  0.10653934982E+04  0.00000000000E+00 0. -1.
         21   -1    0    0  503  502  0.00000000000E+00 -0.00000000000E+00 -0.36601212255E+03  0.36601212255E+03  0.00000000000E+00 0. -1.
         21    1    1    2  503  505  0.54517089290E+01 -0.30790747865E+02 -0.25711419577E+03  0.25900868895E+03  0.00000000000E+00 0. -1.
         21    1    1    2  504  501  0.36265589137E+01  0.11192616113E+03  0.17524542065E+03  0.20797012991E+03  0.00000000000E+00 0. -1.
         21    1    1    2  505  504  0.11237933878E+03 -0.46651011079E+02 -0.44139552693E+02  0.12943621105E+03  0.00000000000E+00 0. -1.
         -1    1    1    2    0  502 -0.12145760662E+03 -0.34484402188E+02  0.82538970351E+03  0.83499059088E+03  0.00000000000E+00 0. -1.
<scales pt_clust_3="31.26965" pt_clust_4="107.35152" pt_clust_5="14000.00000" pt_clust_6="133.68652"></scales>
<clustering>
<clus scale="   31.270">  2  3  1 -1</clus>
<clus scale="  107.352">  1  4  2 -1</clus>
<clus scale="  133.687">  1  6  2 -1</clus>
<clus scale="   31.270">  2  3  1 -1</clus>
</clustering>
</event>
<event>
 6    0  0.7258365E+002  0.1320388E+03  0.7546771E-02  0.1224461E+00
         21   -1    0    0  501  502  0.00000000000E+00  0.00000000000E+00  0.18743207030E+03  0.18743207030E+03  0.00000000000E+00 0.  1.
          2   -1    0    0  505    0 -0.00000000000E+00 -0.00000000000E+00 -0.10019440038E+04  0.10019440038E+04  0.00000000000E+00 0. -1.
         21    1    1    2  503  504 -0.89461838610E+02  0.52057708466E+02 -0.48239734384E+02  0.11419499793E+03  0.00000000000E+00 0.  1.
         21    1    1    2  504  502  0.14822933654E+03 -0.12700422468E+02  0.10936615325E+03  0.18464612755E+03  0.00000000000E+00 0.  1.
         21    1    1    2  505  503 -0.12994746788E+02 -0.45611437246E+02 -0.76137960475E+02  0.89700923502E+02  0.00000000000E+00 0.  1.
          2    1    1    2  501    0 -0.45772751146E+02  0.62541512476E+01 -0.79950039193E+03  0.80083402516E+03  0.00000000000E+00 0. -1.
<scales pt_clust_3="132.03882" pt_clust_4="14000.00000" pt_clust_5="53.51734" pt_clust_6="46.19804"></scales>
<clustering>
<clus scale="   46.198">  2  6  1 -1</clus>
<clus scale="   53.517">  2  5  1 -1</clus>
<clus scale="  132.039">  2  3  1 -1</clus>
<clus scale="  132.039">  1  3  2 -1</clus>
</clustering>
</event>
<event>
 6    0  0.7258365E+002  0.9399411E+02  0.7546771E-02  0.1293458E+00
         -1   -1    0    0    0  501 -0.00000000000E+00  0.00000000000E+00  0.47136822348E+03  0.47136822348E+03  0.00000000000E+00 0. -1.
         21   -1    0    0  505  502  0.00000000000E+00 -0.00000000000E+00 -0.43359484851E+03  0.43359484851E+03  0.00000000000E+00 0. -1.
         21    1    1    2  503  504 -0.63293638667E+02 -0.28159120251E+02  0.86480430052E+02  0.11080562048E+03  0.00000000000E+00 0. -1.
         21    1    1    2  504  502  0.30678450921E+02 -0.55114909959E+02 -0.13927595046E+03  0.15289411704E+03  0.00000000000E+00 0. -1.
         21    1    1    2  505  501  0.64101837251E+02  0.84466257674E+02 -0.26441488503E+03  0.28488388099E+03  0.00000000000E+00 0. -1.
         -1    1    1    2    0  503 -0.31486649505E+02 -0.11922274635E+01  0.35498378040E+03  0.35637945346E+03  0.00000000000E+00 0. -1.
<scales pt_clust_3="93.99411" pt_clust_4="62.25983" pt_clust_5="14000.00000" pt_clust_6="31.50921"></scales>
<clustering>
<clus scale="   31.509">  1  6  2 -1</clus>
<clus scale="   62.260">  2  4  1 -1</clus>
<clus scale="   93.994">  1  3  2 -1</clus>
<clus scale="   62.260">  2  3  1 -1</clus>
</clustering>
</event>
<event>
 6    0  0.7258365E+002  0.1152588E+03  0.7546771E-02  0.1251130E+00
         21   -1    0    0  503  502  0.00000000000E+00  0.00000000000E+00  0.10431173584E+03  0.10431173584E+03  0.00000000000E+00 0.  1.
         -3   -1    0    0    0  501 -0.00000000000E+00 -0.00000000000E+00 -0.21331076075E+04  0.21331076075E+04  0.00000000000E+00 0.  1.
         21    1    1    2  503  501 -0.55984304767E+02 -0.34441985308E+02  0.56810790247E+02  0.86878988373E+02  0.00000000000E+00 0.  1.
         21    1    1    2  504  505 -0.11274797476E+02  0.66649336304E+02 -0.10150973784E+03  0.12195688568E+03  0.00000000000E+00 0.  1.
         21    1    1    2  505  502 -0.47060202720E+02 -0.78776648235E+01 -0.72244109033E+01  0.48258806409E+02  0.00000000000E+00 0.  1.
         -3    1    1    2    0  504  0.11431930496E+03 -0.24329686172E+02 -0.19768725132E+04  0.19803246629E+04  0.00000000000E+00 0.  1.
<scales pt_clust_3="115.25883" pt_clust_4="67.85647" pt_clust_5="47.71499" pt_clust_6="14000.00000"></scales>
<clustering>
<clus scale="   47.715">  1  5  2 -1</clus>
<clus scale="   67.856">  1  4  2 -1</clus>
<clus scale="  115.259">  1  3  2 -1</clus>
<clus scale="   47.715">  1  3  2 -1</clus>
</clustering>
</event>
<event>
 6    0  0.7258365E+002  0.9816266E+02  0.7546771E-02  0.1284208E+00
         21   -1    0    0  503  502  0.00000000000E+00  0.00000000000E+00  0.12729517850E+04  0.12729517850E+04  0.00000000000E+00 0. -1.
         -3   -1    0    0    0  501 -0.00000000000E+00 -0.00000000000E+00 -0.21932505250E+03  0.21932505250E+03  0.00000000000E+00 0. -1.
         21    1    1    2  503  504 -0.79083789281E+01 -0.30423492082E+02  0.10410901466E+04  0.10415646041E+04  0.00000000000E+00 0. -1.
         21    1    1    2  504  501 -0.64970316519E+02  0.36769109120E+02  0.15066584008E+02  0.76158462221E+02  0.00000000000E+00 0. -1.
         21    1    1    2  505  502  0.90703276518E+02 -0.55252524025E+02  0.16661143583E+03  0.19758364389E+03  0.00000000000E+00 0. -1.
         -3    1    1    2    0  505 -0.17824581070E+02  0.48906906987E+02 -0.16914143395E+03  0.17697012720E+03  0.00000000000E+00 0. -1.
<scales pt_clust_3="31.43456" pt_clust_4="98.16266" pt_clust_5="14000.00000" pt_clust_6="51.61742"></scales>
<clustering>
<clus scale="   31.435">  1  3  2 -1</clus>
<clus scale="   51.617">  2  6  1 -1</clus>
<clus scale="   98.163">  2  4  1 -1</clus>
<clus scale="   31.435">  1  3  2 -1</clus>
</clustering>
</event>
<event>
 6    0  0.7258365E+002  0.7246928E+02  0.7546771E-02  0.1351892E+00
          1   -1    0    0  503    0 -0.00000000000E+00  0.00000000000E+00  0.79834510659E+03  0.79834510659E+03  0.00000000000E+00 0.  1.
         21   -1    0    0  504  502  0.00000000000E+00 -0.00000000000E+00 -0.25489245437E+02  0.25489245437E+02  0.00000000000E+00 0.  1.
         21    1    1    2  503  502  0.72424375048E+02  0.37016539048E+02  0.18864181246E+03  0.20542942260E+03  0.00000000000E+00 0.  1.
         21    1    1    2  504  505 -0.29756956468E+02 -0.68151069506E+01  0.40006675491E+02  0.50323515624E+02  0.00000000000E+00 0. -1.
         21    1    1    2  505  501 -0.50599144586E+02  0.48779246198E+02  0.14595598835E+03  0.16199641610E+03  0.00000000000E+00 0.  1.
          1    1    1    2  501    0  0.79317260055E+01 -0.78980678296E+02  0.39825138485E+03  0.40608499770E+03  0.00000000000E+00 0.  1.
<scales pt_clust_3="69.18468" pt_clust_4="30.52740" pt_clust_5="14000.00000" pt_clust_6="72.46928"></scales>
<clustering>
<clus scale="   30.527">  2  4  1 -1</clus>
<clus scale="   69.185">  2  3  1 -1</clus>
<clus scale="   72.469">  1  6  2 -1</clus>
<clus scale="   30.527">  2  3  1 -1</clus>
</clustering>
</event>
<event>
 6    0  0.7258365E+002  0.1283343E+03  0.7546771E-02  0.1229948E+00
          1   -1    0    0  504    0 -0.00000000000E+00  0.00000000000E+00  0.13685565168E+04  0.13685565168E+04  0.00000000000E+00 0.  1.
         21   -1    0    0  503  502  0.00000000000E+00 -0.00000000000E+00 -0.25028492455E+03  0.25028492455E+03  0.00000000000E+00 0.  1.
         21    1    1    2  503  501 -0.11180206160E+03  0.15576295691E+03 -0.17190767901E+02  0.19250278498E+03  0.00000000000E+00 0.  1.
         21    1    1    2  504  505  0.12151074305E+03  0.22165589180E+02  0.94160201601E+02  0.15531361043E+03  0.00000000000E+00 0.  1.
         21    1    1    2  505  502  0.31658234766E+02 -0.57636945577E+02 -0.10162268335E+03  0.12104309602E+03  0.00000000000E+00 0.  1.
          1    1    1    2  501    0 -0.41366916212E+02 -0.12029160051E+03  0.11429248419E+04  0.11499819499E+04  0.00000000000E+00 0.  1.
<scales pt_clust_3="125.58293" pt_clust_4="14000.00000" pt_clust_5="65.75912" pt_clust_6="128.33430"></scales>
<clustering>
<clus scale="   65.759">  2  5  1 -1</clus>
<clus scale="  128.334">  1  6  2 -1</clus>
<clus scale="  125.583">  2  3  1 -1</clus>
<clus scale="   65.759">  2  3  1 -1</clus>
</clustering>
</event>
<event>
 6    0  0.7258365E+002  0.1023500E+03  0.7546771E-02  0.1275430E+00
          1   -1    0    0  503    0 -0.00000000000E+00  0.00000000000E+00  0.87729055865E+03  0.87729055865E+03  0.00000000000E+00 0. -1.
         21   -1    0    0  505  502  0.00000000000E+00 -0.00000000000E+00 -0.42821190205E+03  0.42821190205E+03  0.00000000000E+00 0.  1.
         21    1    1    2  503  502 -0.96907438769E+02 -0.97121543509E+02 -0.17096777340E+03  0.21921137161E+03  0.00000000000E+00 0.  1.
         21    1    1    2  504  501  0.45807114394E+02 -0.69963303982E+02  0.26253955834E+02  0.87649448544E+02  0.00000000000E+00 0.  1.
         21    1    1    2  505  504  0.22464725064E+02  0.69146437367E+02 -0.19249161515E+03  0.20576422327E+03  0.00000000000E+00 0.  1.
          1    1    1    2  501    0  0.28635599312E+02  0.97938410124E+02  0.78628408931E+03  0.79287741728E+03  0.00000000000E+00 0. -1.
<scales pt_clust_3="102.35005" pt_clust_4="77.89308" pt_clust_5="72.70415" pt_clust_6="14000.00000"></scales>
<clustering>
<clus scale="   72.704">  2  5  1 -1</clus>
<clus scale="   77.893">  2  4  1 -1</clus>
<clus scale="  102.350">  2  3  1 -1</clus>
<clus scale="   72.704">  2  3  1 -1</clus>
</clustering>
</event>
<event>
 6    0  0.7258365E+002  0.1650000E+03  0.7546771E-02  0.1183165E+00
          1   -1    0    0  503    0 -0.00000000000E+00  0.00000000000E+00  0.38322648592E+04  0.38322648592E+04  0.00000000000E+00 0. -1.
         21   -1    0    0  505  502  0.00000000000E+00 -0.00000000000E+00 -0.29667022989E+02  0.29667022989E+02  0.00000000000E+00 0.  1.
         21    1    1    2  503  504 -0.37480669317E+02  0.24419976719E+02  0.20924543760E+03  0.21397380445E+03  0.00000000000E+00 0. -1.
         21    1    1    2  504  502 -0.14305509039E+03  0.79270283654E+02  0.27566192523E+03  0.32052774260E+03  0.00000000000E+00 0.  1.
         21    1    1    2  505  501  0.15041069838E+03 -0.84958065278E+02  0.15866033495E+04  0.15959797742E+04  0.00000000000E+00 0.  1.
          1    1    1    2  501    0  0.30125061322E+02 -0.18732195095E+02  0.17310871239E+04  0.17314505610E+04  0.00000000000E+00 0. -1.
<scales pt_clust_3="41.16202" pt_clust_4="14000.00000" pt_clust_5="164.99999" pt_clust_6="35.47414"></scales>
<clustering>
<clus scale="   35.474">  1  6  2 -1</clus>
<clus scale="   41.162">  1  3  2 -1</clus>
<clus scale="  165.000">  1  5  2 -1</clus>
<clus scale="  165.000">  2  3  1 -1</clus>
</clustering>
</event>
<event>
 6    0  0.7258365E+002  0.1566237E+03  0.7546771E-02  0.1192562E+00
          2   -1    0    0  505    0 -0.00000000000E+00  0.00000000000E+00  0.17283647479E+04  0.17283647479E+04  0.00000000000E+00 0. -1.
         21   -1    0    0  501  502  0.00000000000E+00 -0.00000000000E+00 -0.32923975620E+03  0.32923975620E+03  0.00000000000E+00 0.  1.
         21    1    1    2  503  502  0.43492882103E+02  0.52932283410E+02 -0.26709459501E+03  0.27574078426E+03  0.00000000000E+00 0.  1.
         21    1    1    2  504  503 -0.74472630202E+02 -0.21034384961E+03  0.19040171855E+03  0.29333176123E+03  0.00000000000E+00 0.  1.
         21    1    1    2  505  504  0.62427605040E+02  0.62985895288E+02  0.51568798948E+03  0.52325761473E+03  0.00000000000E+00 0.  1.
          2    1    1    2  501    0 -0.31447856941E+02  0.94425670915E+02  0.96012987869E+03  0.96527434389E+03  0.00000000000E+00 0. -1.
<scales pt_clust_3="68.50881" pt_clust_4="156.62370" pt_clust_5="93.14744" pt_clust_6="14000.00000"></scales>
<clustering>
<clus scale="   68.509">  2  3  1 -1</clus>
<clus scale="   93.147">  1  5  2 -1</clus>
<clus scale="  156.624">  2  4  1 -1</clus>
<clus scale="   68.509">  2  3  1 -1</clus>
</clustering>
</event>
<event>
 6    0  0.7258365E+002  0.6422453E+02  0.7546771E-02  0.1380912E+00
          1   -1    0    0  503    0 -0.00000000000E+00  0.00000000000E+00  0.26412598981E+04  0.26412598981E+04  0.00000000000E+00 0. -1.
         21   -1    0    0  505  502  0.00000000000E+00 -0.00000000000E+00 -0.60494859131E+02  0.60494859131E+02  0.00000000000E+00 0. -1.
         21    1    1    2  503  502 -0.36623857632E+02  0.85437946414E+01 -0.29884756491E+01  0.37725778474E+02  0.00000000000E+00 0. -1.
         21    1    1    2  504  501 -0.15516386035E+02  0.10858133460E+03  0.50116971105E+03  0.51303191298E+03  0.00000000000E+00 0. -1.
         21    1    1    2  505  504  0.26820376021E+02 -0.61531470920E+02 -0.39384390874E+00  0.67123837767E+02  0.00000000000E+00 0. -1.
          1    1    1    2  501    0  0.25319867647E+02 -0.55593658322E+02  0.20829776474E+04  0.20838732280E+04  0.00000000000E+00 0. -1.
<scales pt_clust_3="37.60723" pt_clust_4="14000.00000" pt_clust_5="54.49126" pt_clust_6="64.22453"></scales>
<clustering>
<clus scale="   37.607">  2  3  1 -1</clus>
<clus scale="   54.491">  2  5  1 -1</clus>
<clus scale="   64.225">  1  6  2 -1</clus>
<clus scale="   37.607">  2  3  1 -1</clus>
</clustering>
</event>
<event>
 6    0  0.7258365E+002  0.1474612E+03  0.7546771E-02  0.1203628E+00
         21   -1    0    0  504  502  0.00000000000E+00  0.00000000000E+00  0.29400292015E+03  0.29400292015E+03  0.00000000000E+00 0. -1.
          1   -1    0    0  503    0 -0.00000000000E+00 -0.00000000000E+00 -0.44406884922E+03  0.44406884922E+03  0.00000000000E+00 0. -1.
         21    1    1    2  503  505 -0.43095040635E+02  0.10993889990E+03 -0.12859951945E+03  0.17458974954E+03  0.00000000000E+00 0. -1.
         21    1    1    2  504  501  0.37865154966E+02 -0.12541364162E+03  0.22298794923E+03  0.25862323362E+03  0.00000000000E+00 0. -1.
         21    1    1    2  505  502  0.27116906341E+02 -0.17721383930E+02  0.19577043582E+02  0.37850161074E+02  0.00000000000E+00 0. -1.
          1    1    1    2  501    0 -0.21887020672E+02  0.33196125648E+02 -0.26403140242E+03  0.26700862514E+03  0.00000000000E+00 0. -1.
<scales pt_clust_3="14000.00000" pt_clust_4="147.46125" pt_clust_5="32.39404" pt_clust_6="39.59539"></scales>
<clustering>
<clus scale="   32.394">  1  5  2 -1</clus>
<clus scale="   39.595">  2  6  1 -1</clus>
<clus scale="  147.461">  1  4  2 -1</clus>
<clus scale="   32.394">  1  3  2 -1</clus>
</clustering>
</event>
<event>
 6    0  0.7258365E+002  0.1190433E+03  0.7546771E-02  0.1244684E+00
          2   -1    0    0  504    0 -0.00000000000E+00  0.00000000000E+00  0.18945577325E+03  0.18945577325E+03  0.00000000000E+00 0. -1.
         21   -1    0    0  505  502  0.00000000000E+00 -0.00000000000E+00 -0.65465955290E+03  0.65465955290E+03  0.00000000000E+00 0.  1.
         21    1    1    2  503  502  0.67618031869E+02  0.96906642271E+02 -0.51002584633E+03  0.52353553793E+03  0.00000000000E+00 0.  1.
         21    1    1    2  504  503  0.16810624648E+02  0.32892139747E+02 -0.31235552015E+02  0.48375093467E+02  0.00000000000E+00 0. -1.
         21    1    1    2  505  501 -0.80505147866E+02 -0.95324872474E+02 -0.55201515727E+02  0.13643722910E+03  0.00000000000E+00 0.  1.
          2    1    1    2  501    0 -0.39235086508E+01 -0.34473909544E+02  0.13125913443E+03  0.13576746566E+03  0.00000000000E+00 0. -1.
<scales pt_clust_3="14000.00000" pt_clust_4="32.01756" pt_clust_5="119.04333" pt_clust_6="34.69646"></scales>
<clustering>
<clus scale="   34.696">  1  6  2 -1</clus>
<clus scale="   32.018">  1  4  2 -1</clus>
<clus scale="  119.043">  1  5  2 -1</clus>
<clus scale="  119.043">  2  3  1 -1</clus>
</clustering>
</event>
<event>
 6    0  0.7258365E+002  0.1284927E+03  0.7546771E-02  0.1229710E+00
         21   -1    0    0  503  502  0.00000000000E+00  0.00000000000E+00  0.15611699106E+03  0.15611699106E+03  0.00000000000E+00 0. -1.
          2   -1    0    0  505    0 -0.00000000000E+00 -0.00000000000E+00 -0.82204313154E+03  0.82204313154E+03  0.00000000000E+00 0. -1.
         21    1    1    2  503  504 -0.11741134118E+03  0.32536130391E+02  0.49194466286E+02  0.13139299194E+03  0.00000000000E+00 0. -1.
         21    1    1    2  504  501  0.18657379500E+02  0.86981210850E+02 -0.22268545878E+03  0.23979708590E+03  0.00000000000E+00 0. -1.
         21    1    1    2  505  502  0.10183917488E+03 -0.16622096421E+03 -0.11435506277E+03  0.22600377622E+03  0.00000000000E+00 0. -1.
          2    1    1    2  501    0 -0.30852131981E+01  0.46703622974E+02 -0.37808008520E+03  0.38096626854E+03  0.00000000000E+00 0. -1.
<scales pt_clust_3="128.49266" pt_clust_4="112.68309" pt_clust_5="14000.00000" pt_clust_6="46.80542"></scales>
<clustering>
<clus scale="   46.805">  2  6  1 -1</clus>
<clus scale="  112.683">  2  4  1 -1</clus>
<clus scale="  128.493">  1  3  2 -1</clus>
<clus scale="  128.493">  1  3  2 -1</clus>
</clustering>
</event>
<event>
 6    0  0.7258365E+002  0.1362758E+03  0.7546771E-02  0.1218430E+00
         21   -1    0    0  505  502  0.00000000000E+00  0.00000000000E+00  0.82825793918E+02  0.82825793918E+02  0.00000000000E+00 0.  1.
          2   -1    0    0  503    0 -0.00000000000E+00 -0.00000000000E+00 -0.17018962130E+04  0.17018962130E+04  0.00000000000E+00 0.  1.
         21    1    1    2  503  504 -0.37877085115E+02  0.54160563252E+02  0.36118399442E+01  0.66189769423E+02  0.00000000000E+00 0.  1.
         21    1    1    2  504  502  0.22766723288E+02  0.74212422878E+02  0.55538953905E+01  0.77824502265E+02  0.00000000000E+00 0.  1.
         21    1    1    2  505  501 -0.12056082735E+02 -0.83822973830E+02 -0.30769590900E+03  0.31913698076E+03  0.00000000000E+00 0.  1.
          2    1    1    2  501    0  0.27166444561E+02 -0.44550012300E+02 -0.13205402454E+04  0.13215707544E+04  0.00000000000E+00 0.  1.
<scales pt_clust_3="57.26041" pt_clust_4="57.26041" pt_clust_5="120.92535" pt_clust_6="52.17968"></scales>
<clustering>
<clus scale="   52.180">  2  6  1 -1</clus>
<clus scale="   57.260">  3  4 -1 -1</clus>
<clus scale="  120.925">  2  5  1 -1</clus>
<clus scale="  136.276">  1  3  2 -1</clus>
</clustering>
</event>
<event>
 6    0  0.7258365E+002  0.1843549E+03  0.7546771E-02  0.1163654E+00
          2   -1    0    0  503    0 -0.00000000000E+00  0.00000000000E+00  0.62869128278E+03  0.62869128278E+03  0.00000000000E+00 0. -1.
         21   -1    0    0  504  502  0.00000000000E+00 -0.00000000000E+00 -0.78374637398E+03  0.78374637398E+03  0.00000000000E+00 0.  1.
         21    1    1    2  503  502  0.17962284062E+01 -0.84119260334E+02 -0.14278775889E+03  0.16573358285E+03  0.00000000000E+00 0. -1.
         21    1    1    2  504  505  0.28332820941E+02 -0.22056607665E+02 -0.24134514022E+03  0.24400147416E+03  0.00000000000E+00 0. -1.
         21    1    1    2  505  501  0.15360264335E+03  0.76819197261E+02 -0.35248670209E+03  0.39209926837E+03  0.00000000000E+00 0.  1.
          2    1    1    2  501    0 -0.18373169269E+03  0.29356670737E+02  0.58156450999E+03  0.61060333139E+03  0.00000000000E+00 0. -1.
<scales pt_clust_3="90.94523" pt_clust_4="35.90603" pt_clust_5="184.35493" pt_clust_6="14000.00000"></scales>
<clustering>
<clus scale="   35.906">  2  4  1 -1</clus>
<clus scale="   90.945">  2  3  1 -1</clus>
<clus scale="  184.355">  2  5  1 -1</clus>
<clus scale="   35.906">  2  3  1 -1</clus>
</clustering>
</event>
<event>
 6    0  0.7258365E+002  0.1138113E+03  0.7546771E-02  0.1253670E+00
         21   -1    0    0  504  502  0.00000000000E+00  0.00000000000E+00  0.18412528555E+03  0.18412528555E+03  0.00000000000E+00 0. -1.
          1   -1    0    0  503    0 -0.00000000000E+00 -0.00000000000E+00 -0.10719014330E+04  0.10719014330E+04  0.00000000000E+00 0.  1.
         21    1    1    2  503  502  0.44416861636E+02  0.78738333699E+02 -0.12313524301E+03  0.15275755583E+03  0.00000000000E+00 0. -1.
         21    1    1    2  504  505 -0.11618793344E+03  0.17535237102E+02  0.14111295047E+03  0.18363002262E+03  0.00000000000E+00 0. -1.
         21    1    1    2  505  501  0.57631947253E+02 -0.59662137151E+02 -0.26489124881E+03  0.27757590971E+03  0.00000000000E+00 0. -1.
          1    1    1    2  501    0  0.14139124550E+02 -0.36611433649E+02 -0.64086260615E+03  0.64206323043E+03  0.00000000000E+00 0.  1.
<scales pt_clust_3="82.97958" pt_clust_4="113.81134" pt_clust_5="14000.00000" pt_clust_6="39.24681"></scales>
<clustering>
<clus scale="   39.247">  2  6  1 -1</clus>
<clus scale="   82.980">  2  3  1 -1</clus>
<clus scale="  113.811">  1  4  2 -1</clus>
<clus scale="  113.811">  1  3  2 -1</clus>
</clustering>
</event>
<event>
 6    0  0.7258365E+002  0.1381074E+03  0.7546771E-02  0.1215898E+00
          2   -1    0    0  504    0 -0.00000000000E+00  0.00000000000E+00  0.65894256459E+03  0.65894256459E+03  0.00000000000E+00 0. -1.
         21   -1    0    0  501  502  0.00000000000E+00 -0.00000000000E+00 -0.39902185562E+03  0.39902185562E+03  0.00000000000E+00 0.  1.
         21    1    1    2  503  502 -0.39987860495E+02 -0.26356972302E+02 -0.94240897936E+02  0.10571218388E+03  0.00000000000E+00 0.  1.
         21    1    1    2  504  505  0.20025961545E+02 -0.28452079543E+02  0.12932516041E+02  0.37118862284E+02  0.00000000000E+00 0. -1.
         21    1    1    2  505  503 -0.34732822580E+02  0.14400817215E+03 -0.26303297820E+03  0.30187923120E+03  0.00000000000E+00 0.  1.
          2    1    1    2  501    0  0.54694721530E+02 -0.89199120308E+02  0.60426206906E+03  0.61325414286E+03  0.00000000000E+00 0. -1.
<scales pt_clust_3="47.88421" pt_clust_4="34.79310" pt_clust_5="14000.00000" pt_clust_6="138.10745"></scales>
<clustering>
<clus scale="   34.793">  1  4  2 -1</clus>
<clus scale="   47.884">  2  3  1 -1</clus>
<clus scale="  138.107">  1  6  2 -1</clus>
<clus scale="   47.884">  2  3  1 -1</clus>
</clustering>
</event>
<event>
 6    0  0.7258365E+002  0.6188954E+02  0.7546771E-02  0.1390069E+00
         21   -1    0    0  505  502  0.00000000000E+00  0.00000000000E+00  0.71877195773E+03  0.71877195773E+03  0.00000000000E+00 0. -1.
          2   -1    0    0  503    0 -0.00000000000E+00 -0.00000000000E+00 -0.23325750392E+04  0.23325750392E+04  0.00000000000E+00 0.  1.
         21    1    1    2  503  504  0.10684672133E+03 -0.29269707727E+01 -0.48463853089E+03  0.49628549711E+03  0.00000000000E+00 0. -1.
         21    1    1    2  504  502  0.71945961984E+01 -0.37698114275E+02  0.37471417745E+03  0.37667442815E+03  0.00000000000E+00 0. -1.
         21    1    1    2  505  501 -0.65248780481E+02  0.17053961805E+02  0.33347920880E+03  0.34023025096E+03  0.00000000000E+00 0. -1.
          2    1    1    2  501    0 -0.48792537049E+02  0.23571123243E+02 -0.18373579368E+04  0.18381568207E+04  0.00000000000E+00 0.  1.
<scales pt_clust_3="61.88954" pt_clust_4="38.37851" pt_clust_5="14000.00000" pt_clust_6="54.16110"></scales>
<clustering>
<clus scale="   38.379">  1  4  2 -1</clus>
<clus scale="   54.161">  2  6  1 -1</clus>
<clus scale="   61.890">  2  3  1 -1</clus>
<clus scale="   38.379">  1  3  2 -1</clus>
</clustering>
</event>
<event>
 6    0  0.7258365E+002  0.1617917E+03  0.7546771E-02  0.1186689E+00
          2   -1    0    0  504    0 -0.00000000000E+00  0.00000000000E+00  0.41413244460E+04  0.41413244460E+04  0.00000000000E+00 0. -1.
         21   -1    0    0  501  502  0.00000000000E+00 -0.00000000000E+00 -0.10330562560E+03  0.10330562560E+03  0.00000000000E+00 0.  1.
         21    1    1    2  503  502  0.30178676620E+02 -0.77324680034E+01 -0.16451911915E+02  0.35230796040E+02  0.00000000000E+00 0.  1.
         21    1    1    2  504  505 -0.77096113218E+02 -0.62091527824E+02  0.48157949104E+03  0.49164822251E+03  0.00000000000E+00 0. -1.
         21    1    1    2  505  503  0.11033345261E+03  0.11890230788E+03  0.19409333022E+02  0.16336447531E+03  0.00000000000E+00 0.  1.
          2    1    1    2  501    0 -0.63416016013E+02 -0.49078312056E+02  0.35534819082E+04  0.35543865777E+04  0.00000000000E+00 0. -1.
<scales pt_clust_3="31.15355" pt_clust_4="14000.00000" pt_clust_5="161.79167" pt_clust_6="80.07738"></scales>
<clustering>
<clus scale="   31.154">  2  3  1 -1</clus>
<clus scale="   80.077">  1  6  2 -1</clus>
<clus scale="  161.792">  2  5  1 -1</clus>
<clus scale="   31.154">  2  3  1 -1</clus>
</clustering>
</event>
<event>
 6    0  0.7258365E+002  0.7744912E+02  0.7546771E-02  0.1336450E+00
         -2   -1    0    0    0  501 -0.00000000000E+00  0.00000000000E+00  0.18137498034E+04  0.18137498034E+04  0.00000000000E+00 0. -1.
         21   -1    0    0  504  502  0.00000000000E+00 -0.00000000000E+00 -0.45647232124E+03  0.45647232124E+03  0.00000000000E+00 0. -1.
         21    1    1    2  503  501 -0.34244450064E+02 -0.32768072441E+02  0.40137913615E+03  0.40416783626E+03  0.00000000000E+00 0. -1.
         21    1    1    2  504  503  0.10712414686E+03 -0.25485740521E+02 -0.42398720211E+03  0.43805279747E+03  0.00000000000E+00 0. -1.
         21    1    1    2  505  502 -0.33055560884E+02  0.25390835007E+01 -0.11379785881E+02  0.35051627310E+02  0.00000000000E+00 0. -1.
         -2    1    1    2    0  505 -0.39824135916E+02  0.55714729462E+02  0.13912653340E+04  0.13929498636E+04  0.00000000000E+00 0. -1.
<scales pt_clust_3="47.46779" pt_clust_4="77.44912" pt_clust_5="33.15293" pt_clust_6="14000.00000"></scales>
<clustering>
<clus scale="   33.153">  2  5  1 -1</clus>
<clus scale="   47.468">  1  3  2 -1</clus>
<clus scale="   77.449">  2  4  1 -1</clus>
<clus scale="   33.153">  2  3  1 -1</clus>
</clustering>
</event>
<event>
 6    0  0.7258365E+002  0.1260587E+03  0.7546771E-02  0.1233424E+00
          4   -1    0    0  503    0 -0.00000000000E+00  0.00000000000E+00  0.80103124801E+03  0.80103124801E+03  0.00000000000E+00 0. -1.
         21   -1    0    0  504  502  0.00000000000E+00 -0.00000000000E+00 -0.73126840570E+03  0.73126840570E+03  0.00000000000E+00 0.  1.
         21    1    1    2  503  502  0.65378873113E+02 -0.77592899151E+02 -0.53861982317E+03  0.54809339438E+03  0.00000000000E+00 0.  1.
         21    1    1    2  504  505  0.36713485458E+02  0.36692174883E+02 -0.21927021781E+02  0.56347049580E+02  0.00000000000E+00 0.  1.
         21    1    1    2  505  501 -0.19606290846E+03  0.33577608130E+02 -0.77736050776E+02  0.21356735104E+03  0.00000000000E+00 0.  1.
          4    1    1    2  501    0  0.93970549887E+02  0.73231161380E+01  0.70804573803E+03  0.71429185871E+03  0.00000000000E+00 0. -1.
<scales pt_clust_3="14000.00000" pt_clust_4="51.90564" pt_clust_5="126.05870" pt_clust_6="94.43361"></scales>
<clustering>
<clus scale="   51.906">  2  4  1 -1</clus>
<clus scale="   94.434">  1  6  2 -1</clus>
<clus scale="  126.059">  1  5  2 -1</clus>
<clus scale="   51.906">  2  3  1 -1</clus>
</clustering>
</event>
<event>
 6    0  0.7258365E+002  0.9428157E+02  0.7546771E-02  0.1292802E+00
          1   -1    0    0  503    0 -0.00000000000E+00  0.00000000000E+00  0.84252413997E+03  0.84252413997E+03  0.00000000000E+00 0. -1.
         21   -1    0    0  504  502  0.00000000000E+00 -0.00000000000E+00 -0.38385545131E+03  0.38385545131E+03  0.00000000000E+00 0. -1.
         21    1    1    2  503  505  0.23493480998E+02  0.27048834487E+02  0.73875271209E+02  0.82104438325E+02  0.00000000000E+00 0. -1.
         21    1    1    2  504  501 -0.90211486762E+02 -0.69733572868E+02 -0.18922123991E+03  0.22091980708E+03  0.00000000000E+00 0. -1.
         21    1    1    2  505  502 -0.60132965044E+00  0.43244005534E+02 -0.17045094322E+03  0.17585201067E+03  0.00000000000E+00 0. -1.
          1    1    1    2  501    0  0.67319335415E+02 -0.55926715234E+00  0.74446560057E+03  0.74750333520E+03  0.00000000000E+00 0. -1.
<scales pt_clust_3="35.82713" pt_clust_4="14000.00000" pt_clust_5="43.34265" pt_clust_6="94.28157"></scales>
<clustering>
<clus scale="   35.827">  1  3  2 -1</clus>
<clus scale="   43.343">  2  5  1 -1</clus>
<clus scale="   94.282">  1  6  2 -1</clus>
<clus scale="   43.343">  2  3  1 -1</clus>
</clustering>
</event>
<event>
 6    0  0.7258365E+002  0.8789566E+02  0.7546771E-02  0.1308029E+00
          2   -1    0    0  504    0 -0.00000000000E+00  0.00000000000E+00  0.88566065056E+03  0.88566065056E+03  0.00000000000E+00 0. -1.
         21   -1    0    0  503  502  0.00000000000E+00 -0.00000000000E+00 -0.58785349393E+02  0.58785349393E+02  0.00000000000E+00 0.  1.
         21    1    1    2  503  501  0.37543050923E+02 -0.12408888875E+02  0.53650392174E+02  0.66647023761E+02  0.00000000000E+00 0. -1.
         21    1    1    2  504  505 -0.72637123366E+02  0.12690155753E+02  0.41589291258E+02  0.84657314458E+02  0.00000000000E+00 0.  1.
         21    1    1    2  505  502 -0.50849027649E+02 -0.29691039205E+02  0.30992268896E+01  0.58964282657E+02  0.00000000000E+00 0.  1.
          2    1    1    2  501    0  0.85943100092E+02  0.29409772328E+02  0.72853639085E+03  0.73417737908E+03  0.00000000000E+00 0. -1.
<scales pt_clust_3="39.54063" pt_clust_4="87.89566" pt_clust_5="47.61673" pt_clust_6="14000.00000"></scales>
<clustering>
<clus scale="   39.541">  2  3  1 -1</clus>
<clus scale="   47.617">  2  5  1 -1</clus>
<clus scale="   87.896">  2  4  1 -1</clus>
<clus scale="   39.541">  2  3  1 -1</clus>
</clustering>
</event>
<event>
 6    0  0.7258365E+002  0.6752453E+02  0.7546771E-02  0.1368719E+00
         -4   -1    0    0    0  501 -0.00000000000E+00  0.00000000000E+00  0.73278135362E+02  0.73278135362E+02  0.00000000000E+00 0. -1.
         21   -1    0    0  504  502  0.00000000000E+00 -0.00000000000E+00 -0.32238936326E+03  0.32238936326E+03  0.00000000000E+00 0. -1.
         21    1    1    2  503  505 -0.38844685211E+02  0.30702387388E+02 -0.35772965187E+02  0.61083968427E+02  0.00000000000E+00 0. -1.
         21    1    1    2  504  501  0.30350235956E+01 -0.11307464491E+03 -0.95063915047E+02  0.14775735053E+03  0.00000000000E+00 0. -1.
         21    1    1    2  505  502  0.14456263044E+02  0.44757308757E+02 -0.13304997286E+03  0.14111872840E+03  0.00000000000E+00 0. -1.
         -4    1    1    2    0  503  0.21353398572E+02  0.37614948766E+02  0.14775625197E+02  0.45707451266E+02  0.00000000000E+00 0. -1.
<scales pt_clust_3="14000.00000" pt_clust_4="67.52453" pt_clust_5="51.01134" pt_clust_6="43.25335"></scales>
<clustering>
<clus scale="   43.253">  1  6  2 -1</clus>
<clus scale="   51.011">  2  5  1 -1</clus>
<clus scale="   67.525">  2  4  1 -1</clus>
<clus scale="   51.011">  2  3  1 -1</clus>
</clustering>
</event>
<event>
 6    0  0.7258365E+002  0.7803266E+02  0.7546771E-02  0.1334729E+00
         -2   -1    0    0    0  501 -0.00000000000E+00  0.00000000000E+00  0.46663038887E+03  0.46663038887E+03  0.00000000000E+00 0.  1.
         21   -1    0    0  503  502  0.00000000000E+00 -0.00000000000E+00 -0.12988939578E+03  0.12988939578E+03  0.00000000000E+00 0.  1.
         21    1    1    2  503  501 -0.28068656741E+02  0.15167446368E+02 -0.12338369892E+02  0.34207254964E+02  0.00000000000E+00 0. -1.
         21    1    1    2  504  502 -0.61617008401E+02 -0.37101927012E+02 -0.69248818412E+02  0.99842914439E+02  0.00000000000E+00 0.  1.
         21    1    1    2  505  504  0.28422272381E+02  0.72136006867E+02  0.67460832830E+02  0.10277350349E+03  0.00000000000E+00 0.  1.
         -2    1    1    2    0  505  0.61263392761E+02 -0.50201526224E+02  0.35086734856E+03  0.35969611176E+03  0.00000000000E+00 0.  1.
<scales pt_clust_3="31.90456" pt_clust_4="78.03266" pt_clust_5="14000.00000" pt_clust_6="77.90823"></scales>
<clustering>
<clus scale="   31.905">  2  3  1 -1</clus>
<clus scale="   77.908">  1  6  2 -1</clus>
<clus scale="   78.033">  2  4  1 -1</clus>
<clus scale="   31.905">  2  3  1 -1</clus>
</clustering>
</event>
<event>
 6    0  0.7258365E+002  0.1077859E+03  0.7546771E-02  0.1264726E+00
         21   -1    0    0  503  502  0.00000000000E+00  0.00000000000E+00  0.21934596511E+03  0.21934596511E+03  0.00000000000E+00 0.  1.
          2   -1    0    0  505    0 -0.00000000000E+00 -0.00000000000E+00 -0.32685692297E+03  0.32685692297E+03  0.00000000000E+00 0.  1.
         21    1    1    2  503  501  0.16954583468E+02 -0.25551048838E+02  0.43701060203E+02  0.53386296558E+02  0.00000000000E+00 0.  1.
         21    1    1    2  504  502 -0.75730859550E+02  0.88658522945E+02  0.75256791639E+02  0.13877709273E+03  0.00000000000E+00 0.  1.
         21    1    1    2  505  504 -0.39974246620E+01 -0.10977885627E+03 -0.24940337524E+03  0.27252416456E+03  0.00000000000E+00 0.  1.
          2    1    1    2  501    0  0.62773700744E+02  0.46671382162E+02  0.22934565537E+02  0.81515334229E+02  0.00000000000E+00 0.  1.
<scales pt_clust_3="30.66454" pt_clust_4="14000.00000" pt_clust_5="107.78593" pt_clust_6="78.28326"></scales>
<clustering>
<clus scale="   30.665">  1  3  2 -1</clus>
<clus scale="   78.283">  1  6  2 -1</clus>
<clus scale="  107.786">  2  5  1 -1</clus>
<clus scale="   30.665">  1  3  2 -1</clus>
</clustering>
</event>
<event>
 6    0  0.7258365E+002  0.1225584E+03  0.7546771E-02  0.1238935E+00
         21   -1    0    0  504  502  0.00000000000E+00  0.00000000000E+00  0.86546249454E+03  0.86546249454E+03  0.00000000000E+00 0. -1.
          2   -1    0    0  505    0 -0.00000000000E+00 -0.00000000000E+00 -0.10567601379E+04  0.10567601379E+04  0.00000000000E+00 0.  1.
         21    1    1    2  503  501  0.72836232956E+02 -0.86748565735E+02 -0.19208261525E+02  0.11488858864E+03  0.00000000000E+00 0. -1.
         21    1    1    2  504  503  0.99886443830E+01  0.32701639575E+02  0.77116847211E+03  0.77192615101E+03  0.00000000000E+00 0. -1.
         21    1    1    2  505  502  0.35285383363E+02  0.14330431070E+02  0.33507366598E+02  0.50726355576E+02  0.00000000000E+00 0. -1.
          2    1    1    2  501    0 -0.11811026070E+03  0.39716495090E+02 -0.97676522053E+03  0.98468153720E+03  0.00000000000E+00 0.  1.
<scales pt_clust_3="122.55842" pt_clust_4="34.19313" pt_clust_5="49.21375" pt_clust_6="14000.00000"></scales>
<clustering>
<clus scale="   34.193">  1  4  2 -1</clus>
<clus scale="   49.214">  1  5  2 -1</clus>
<clus scale="  122.558">  1  3  2 -1</clus>
<clus scale="   34.193">  1  3  2 -1</clus>
</clustering>
</event>
<event>
 6    0  0.7258365E+002  0.1079005E+03  0.7546771E-02  0.1264508E+00
          2   -1    0    0  503    0 -0.00000000000E+00  0.00000000000E+00  0.15264393558E+04  0.15264393558E+04  0.00000000000E+00 0. -1.
         21   -1    0    0  504  502  0.00000000000E+00 -0.00000000000E+00 -0.42438573652E+02  0.42438573652E+02  0.00000000000E+00 0.  1.
         21    1    1    2  503  505  0.74158177466E+02 -0.42976114799E+02  0.15079883360E+03  0.17345509489E+03  0.00000000000E+00 0. -1.
         21    1    1    2  504  501 -0.35764010384E+02  0.46231072167E+02  0.91240527580E+03  0.91427554040E+03  0.00000000000E+00 0. -1.
         21    1    1    2  505  502 -0.40396920271E+02 -0.52585731761E+02  0.96061117838E+01  0.67003341229E+02  0.00000000000E+00 0.  1.
          2    1    1    2  501    0  0.20027531889E+01  0.49330774394E+02  0.41119056099E+03  0.41414395296E+03  0.00000000000E+00 0. -1.
<scales pt_clust_3="95.50915" pt_clust_4="46.14149" pt_clust_5="66.31116" pt_clust_6="46.14149"></scales>
<clustering>
<clus scale="   46.141">  4  6 -1 -1</clus>
<clus scale="   66.311">  2  5  1 -1</clus>
<clus scale="   95.509">  2  3  1 -1</clus>
<clus scale="   66.311">  2  3  1 -1</clus>
</clustering>
</event>
<event>
 6    0  0.7258365E+002  0.1277974E+03  0.7546771E-02  0.1230761E+00
          2   -1    0    0  504    0 -0.00000000000E+00  0.00000000000E+00  0.10335590037E+04  0.10335590037E+04  0.00000000000E+00 0. -1.
         21   -1    0    0  503  502  0.00000000000E+00 -0.00000000000E+00 -0.34307341767E+03  0.34307341767E+03  0.00000000000E+00 0. -1.
         21    1    1    2  503  501  0.49526853043E+02  0.70333223540E+01  0.11077727844E+02  0.51235659944E+02  0.00000000000E+00 0. -1.
         21    1    1    2  504  505  0.82381888747E+02  0.96221002831E+01  0.12252041713E+03  0.14795476681E+03  0.00000000000E+00 0. -1.
         21    1    1    2  505  502 -0.76572605100E+02 -0.13237573541E+03 -0.28628415119E+03  0.32456942924E+03  0.00000000000E+00 0. -1.
          2    1    1    2  501    0 -0.55336136690E+02  0.11572031277E+03  0.84317159219E+03  0.85287256533E+03  0.00000000000E+00 0. -1.
<scales pt_clust_3="50.02376" pt_clust_4="84.91089" pt_clust_5="14000.00000" pt_clust_6="127.79744"></scales>
<clustering>
<clus scale="   50.024">  2  3  1 -1</clus>
<clus scale="   84.911">  1  4  2 -1</clus>
<clus scale="  127.797">  1  6  2 -1</clus>
<clus scale="   50.024">  2  3  1 -1</clus>
</clustering>
</event>
<event>
 6    0  0.1289230E+003  0.1220422E+03  0.7546771E-02  0.1239766E+00
         21   -1    0    0  505  502  0.00000000000E+00  0.00000000000E+00  0.32042479908E+03  0.32042479908E+03  0.00000000000E+00 0. -1.
          2   -1    0    0  504    0 -0.00000000000E+00 -0.00000000000E+00 -0.13870679630E+04  0.13870679630E+04  0.00000000000E+00 0. -1.
         21    1    1    2  503  502  0.94233082406E+01 -0.36644967129E+02  0.13341410145E+03  0.13867579032E+03  0.00000000000E+00 0. -1.
         21    1    1    2  504  503  0.57427609436E+02  0.21840812971E+01  0.14610043915E+03  0.15699693900E+03  0.00000000000E+00 0. -1.
         21    1    1    2  505  501  0.16780323617E+02 -0.56580327366E+02  0.97762531396E+00  0.59024303950E+02  0.00000000000E+00 0. -1.
          2    1    1    2  501    0 -0.83631241293E+02  0.91041213198E+02 -0.13471353298E+04  0.13527957288E+04  0.00000000000E+00 0. -1.
<scales pt_clust_3="37.83718" pt_clust_4="14000.00000" pt_clust_5="65.16906" pt_clust_6="122.04218"></scales>
<clustering>
<clus scale="   37.837">  1  3  2 -1</clus>
<clus scale="   65.169">  1  5  2 -1</clus>
<clus scale="  122.042">  2  6  1 -1</clus>
<clus scale="   37.837">  1  3  2 -1</clus>
</clustering>
</event>
<event>
 6    0  0.7258365E+002  0.2106669E+03  0.7546771E-02  0.1141039E+00
          2   -1    0    0  502    0 -0.00000000000E+00  0.00000000000E+00  0.11753939046E+04  0.11753939046E+04  0.00000000000E+00 0.  1.
         21   -1    0    0  503  502  0.00000000000E+00 -0.00000000000E+00 -0.13602278971E+03  0.13602278971E+03  0.00000000000E+00 0.  1.
         21    1    1    2  503  504 -0.11669359163E+03 -0.61236905602E+01  0.44309442647E+02  0.12497287954E+03  0.00000000000E+00 0.  1.
         21    1    1    2  504  505 -0.78171491503E+02 -0.13676035344E+03  0.12185299967E+02  0.15799575276E+03  0.00000000000E+00 0.  1.
         21    1    1    2  505  501  0.15360000135E+03  0.15201184256E+03  0.51279042667E+03  0.55646615565E+03  0.00000000000E+00 0.  1.
          2    1    1    2  501    0  0.41265081778E+02 -0.91277985611E+01  0.47008594560E+03  0.47198190636E+03  0.00000000000E+00 0.  1.
<scales pt_clust_3="111.96793" pt_clust_4="210.66693" pt_clust_5="14000.00000" pt_clust_6="42.26256"></scales>
<clustering>
<clus scale="   42.263">  1  6  2 -1</clus>
<clus scale="  111.968">  2  3  1 -1</clus>
<clus scale="  210.667">  2  4  1 -1</clus>
<clus scale="  111.968">  2  3  1 -1</clus>
</clustering>
</event>
<event>
 6    0  0.7258365E+002  0.1727707E+03  0.7546771E-02  0.1174989E+00
          1   -1    0    0  503    0 -0.00000000000E+00  0.00000000000E+00  0.10584019544E+04  0.10584019544E+04  0.00000000000E+00 0. -1.
         21   -1    0    0  505  502  0.00000000000E+00 -0.00000000000E+00 -0.51999839833E+03  0.51999839833E+03  0.00000000000E+00 0.  1.
         21    1    1    2  503  502  0.76751006231E+02  0.12636185865E+03 -0.14782458828E+03  0.20906971368E+03  0.00000000000E+00 0. -1.
         21    1    1    2  504  501 -0.19639980817E+03  0.21414736465E+02  0.26557558990E+03  0.33100131350E+03  0.00000000000E+00 0. -1.
         21    1    1    2  505  504  0.75686207025E+02 -0.15080017710E+02 -0.29716726822E+03  0.30702474521E+03  0.00000000000E+00 0.  1.
          1    1    1    2  501    0  0.43962594910E+02 -0.13269657741E+03  0.71781982267E+03  0.73130458034E+03  0.00000000000E+00 0. -1.
<scales pt_clust_3="172.77074" pt_clust_4="14000.00000" pt_clust_5="77.17389" pt_clust_6="140.98418"></scales>
<clustering>
<clus scale="   77.174">  2  5  1 -1</clus>
<clus scale="  140.984">  1  6  2 -1</clus>
<clus scale="  172.771">  2  3  1 -1</clus>
<clus scale="   77.174">  2  3  1 -1</clus>
</clustering>
</event>
<event>
 6    0  0.7258365E+002  0.8991967E+02  0.7546771E-02  0.1303046E+00
          4   -1    0    0  505    0 -0.00000000000E+00  0.00000000000E+00  0.46701841681E+03  0.46701841681E+03  0.00000000000E+00 0. -1.
         21   -1    0    0  504  502  0.00000000000E+00 -0.00000000000E+00 -0.81292668936E+02  0.81292668936E+02  0.00000000000E+00 0. -1.
         21    1    1    2  503  501  0.17627031894E+02  0.62687348553E+02  0.28536607262E+02  0.71096792305E+02  0.00000000000E+00 0. -1.
         21    1    1    2  504  503 -0.41013045729E+02  0.39421386748E+02 -0.65499740891E+01  0.57262708752E+02  0.00000000000E+00 0. -1.
         21    1    1    2  505  502 -0.11185869294E+01 -0.12262834580E+03  0.11165296534E+03  0.16584736085E+03  0.00000000000E+00 0. -1.
          4    1    1    2  501    0  0.24504600765E+02  0.20519610502E+02  0.25208614936E+03  0.25410422384E+03  0.00000000000E+00 0. -1.
<scales pt_clust_3="89.91967" pt_clust_4="56.60372" pt_clust_5="14000.00000" pt_clust_6="31.96138"></scales>
<clustering>
<clus scale="   31.961">  1  6  2 -1</clus>
<clus scale="   56.604">  2  4  1 -1</clus>
<clus scale="   89.920">  2  3  1 -1</clus>
<clus scale="   56.604">  2  3  1 -1</clus>
</clustering>
</event>
<event>
 6    0  0.7258365E+002  0.1394336E+03  0.7546771E-02  0.1214093E+00
         21   -1    0    0  504  502  0.00000000000E+00  0.00000000000E+00  0.18062819319E+03  0.18062819319E+03  0.00000000000E+00 0.  1.
          2   -1    0    0  503    0 -0.00000000000E+00 -0.00000000000E+00 -0.23594414251E+04  0.23594414251E+04  0.00000000000E+00 0. -1.
         21    1    1    2  503  505 -0.71730678135E+02  0.87173292196E+02 -0.42565440835E+01  0.11297163903E+03  0.00000000000E+00 0.  1.
         21    1    1    2  504  501  0.42659253569E+02  0.36386397778E+02 -0.49036044537E+02  0.74487015796E+02  0.00000000000E+00 0.  1.
         21    1    1    2  505  502  0.88266278015E+02 -0.14636879132E+03  0.48495212530E+02  0.17766976261E+03  0.00000000000E+00 0.  1.
          2    1    1    2  501    0 -0.59194853449E+02  0.22809101348E+02 -0.21740158558E+04  0.21749412009E+04  0.00000000000E+00 0. -1.
<scales pt_clust_3="139.43356" pt_clust_4="56.06944" pt_clust_5="14000.00000" pt_clust_6="63.36376"></scales>
<clustering>
<clus scale="   56.069">  1  4  2 -1</clus>
<clus scale="   63.364">  2  6  1 -1</clus>
<clus scale="  139.434">  2  3  1 -1</clus>
<clus scale="   56.069">  1  3  2 -1</clus>
</clustering>
</event>
<event>
 6    0  0.7258365E+002  0.1580958E+03  0.7546771E-02  0.1190863E+00
         21   -1    0    0  501  502  0.00000000000E+00  0.00000000000E+00  0.20919602246E+04  0.20919602246E+04  0.00000000000E+00 0. -1.
          3   -1    0    0  504    0 -0.00000000000E+00 -0.00000000000E+00 -0.21965622165E+03  0.21965622165E+03  0.00000000000E+00 0. -1.
         21    1    1    2  503  502 -0.98074436684E+02  0.13358650259E+03  0.18175937572E+04  0.18251331499E+04  0.00000000000E+00 0. -1.
         21    1    1    2  504  505 -0.18258449312E+02 -0.25863023962E+02 -0.86775190969E+02  0.92369912566E+02  0.00000000000E+00 0. -1.
         21    1    1    2  505  503  0.86533525940E+02 -0.93892122049E+02  0.25000791211E+03  0.28072715902E+03  0.00000000000E+00 0. -1.
          3    1    1    2  501    0  0.29799360057E+02 -0.13831356582E+02 -0.10852247540E+03  0.11338622470E+03  0.00000000000E+00 0. -1.
<scales pt_clust_3="14000.00000" pt_clust_4="31.65860" pt_clust_5="158.09584" pt_clust_6="38.60762"></scales>
<clustering>
<clus scale="   31.659">  2  4  1 -1</clus>
<clus scale="   38.608">  2  6  1 -1</clus>
<clus scale="  158.096">  2  5  1 -1</clus>
<clus scale="  158.096">  1  3  2 -1</clus>
</clustering>
</event>
<event>
 6    0  0.7258365E+002  0.8262567E+02  0.7546771E-02  0.1321761E+00
          2   -1    0    0  503    0 -0.00000000000E+00  0.00000000000E+00  0.10897290964E+04  0.10897290964E+04  0.00000000000E+00 0.  1.
         21   -1    0    0  505  502  0.00000000000E+00 -0.00000000000E+00 -0.13560814455E+03  0.13560814455E+03  0.00000000000E+00 0.  1.
         21    1    1    2  503  504  0.37969522034E+02  0.28307553707E+02  0.60347924708E+02  0.76712933831E+02  0.00000000000E+00 0. -1.
         21    1    1    2  504  502 -0.11544877609E+03  0.26356659671E+02 -0.85886869901E+02  0.14628618469E+03  0.00000000000E+00 0.  1.
         21    1    1    2  505  501  0.32514340147E+02 -0.35665488853E+02  0.43702003722E+02  0.65108175674E+02  0.00000000000E+00 0.  1.
          2    1    1    2  501    0  0.44964913906E+02 -0.18998724525E+02  0.93595789335E+03  0.93722994678E+03  0.00000000000E+00 0.  1.
<scales pt_clust_3="47.36034" pt_clust_4="14000.00000" pt_clust_5="48.57514" pt_clust_6="82.62567"></scales>
<clustering>
<clus scale="   47.360">  1  3  2 -1</clus>
<clus scale="   48.575">  2  5  1 -1</clus>
<clus scale="   82.626">  1  6  2 -1</clus>
<clus scale="   48.575">  2  3  1 -1</clus>
</clustering>
</event>
<event>
 6    0  0.7258365E+002  0.1947845E+03  0.7546771E-02  0.1154215E+00
         21   -1    0    0  503  502  0.00000000000E+00  0.00000000000E+00  0.50878510626E+03  0.50878510626E+03  0.00000000000E+00 0. -1.
          1   -1    0    0  504    0 -0.00000000000E+00 -0.00000000000E+00 -0.11581374660E+04  0.11581374660E+04  0.00000000000E+00 0.  1.
         21    1    1    2  503  501 -0.12121368484E+03 -0.94529151708E+02 -0.15019905101E+03  0.21491457103E+03  0.00000000000E+00 0.  1.
         21    1    1    2  504  505  0.19141499495E+03  0.76856940192E+02  0.25886165035E+03  0.33099251286E+03  0.00000000000E+00 0. -1.
         21    1    1    2  505  502  0.87725150146E+01 -0.30246420601E+02  0.17784286372E+03  0.18060976484E+03  0.00000000000E+00 0. -1.
          1    1    1    2  501    0 -0.78973825120E+02  0.47918632117E+02 -0.93585782283E+03  0.94040572356E+03  0.00000000000E+00 0.  1.
<scales pt_clust_3="194.78453" pt_clust_4="14000.00000" pt_clust_5="31.49290" pt_clust_6="92.21467"></scales>
<clustering>
<clus scale="   31.493">  1  5  2 -1</clus>
<clus scale="   92.215">  2  6  1 -1</clus>
<clus scale="  194.785">  2  3  1 -1</clus>
<clus scale="   31.493">  1  3  2 -1</clus>
</clustering>
</event>
<event>
 6    0  0.7258365E+002  0.1094353E+03  0.7546771E-02  0.1261619E+00
         21   -1    0    0  505  502  0.00000000000E+00  0.00000000000E+00  0.30621054997E+03  0.30621054997E+03  0.00000000000E+00 0. -1.
         -2   -1    0    0    0  501 -0.00000000000E+00 -0.00000000000E+00 -0.53389480251E+03  0.53389480251E+03  0.00000000000E+00 0.  1.
         21    1    1    2  503  504  0.12899413288E+03 -0.98044105357E+02  0.11821215059E+02  0.16245576025E+03  0.00000000000E+00 0. -1.
         21    1    1    2  504  502 -0.53255214908E+02  0.20360148933E+02  0.19417893524E+03  0.20237616577E+03  0.00000000000E+00 0.  1.
         21    1    1    2  505  501 -0.77890548419E+02  0.29000560415E+02 -0.70945755570E+02  0.10927611940E+03  0.00000000000E+00 0.  1.
         -2    1    1    2    0  503  0.21516304481E+01  0.48683396008E+02 -0.36273864727E+03  0.36599730707E+03  0.00000000000E+00 0.  1.
<scales pt_clust_3="14000.00000" pt_clust_4="57.39712" pt_clust_5="109.43531" pt_clust_6="48.73092"></scales>
<clustering>
<clus scale="   48.731">  2  6  1 -1</clus>
<clus scale="   57.397">  1  4  2 -1</clus>
<clus scale="  109.435">  2  5  1 -1</clus>
<clus scale="   57.397">  1  3  2 -1</clus>
</clustering>
</event>
<event>
 6    0  0.7258365E+002  0.1099396E+03  0.7546771E-02  0.1260682E+00
         21   -1    0    0  501  502  0.00000000000E+00  0.00000000000E+00  0.73596799463E+02  0.73596799463E+02  0.00000000000E+00 0. -1.
          2   -1    0    0  503    0 -0.00000000000E+00 -0.00000000000E+00 -0.19927615248E+04  0.19927615248E+04  0.00000000000E+00 0. -1.
         21    1    1    2  503  504 -0.10969635229E+03 -0.15146376637E+02 -0.18138699259E+04  0.18172470417E+04  0.00000000000E+00 0. -1.
         21    1    1    2  504  505  0.90872004534E+02 -0.12921830439E+02 -0.38082158696E+00  0.91786926820E+02  0.00000000000E+00 0. -1.
         21    1    1    2  505  502 -0.15651860189E+02  0.49118310810E+02 -0.77925563271E+01  0.52137444493E+02  0.00000000000E+00 0. -1.
          2    1    1    2  501    0  0.34476207941E+02 -0.21050103735E+02 -0.97121421435E+02  0.10518691118E+03  0.00000000000E+00 0. -1.
<scales pt_clust_3="14000.00000" pt_clust_4="109.93957" pt_clust_5="42.66452" pt_clust_6="40.39450"></scales>
<clustering>
<clus scale="   40.395">  1  6  2 -1</clus>
<clus scale="   42.665">  1  5  2 -1</clus>
<clus scale="  109.940">  1  4  2 -1</clus>
<clus scale="   40.395">  1  3  2 -1</clus>
</clustering>
</event>
<event>
 6    0  0.7258365E+002  0.6292078E+02  0.7546771E-02  0.1385968E+00
         21   -1    0    0  501  502  0.00000000000E+00  0.00000000000E+00  0.51203975199E+02  0.51203975199E+02  0.00000000000E+00 0.  1.
          1   -1    0    0  503    0 -0.00000000000E+00 -0.00000000000E+00 -0.17340334285E+04  0.17340334285E+04  0.00000000000E+00 0.  1.
         21    1    1    2  503  505 -0.99177858839E+02  0.67454741536E+01 -0.36381844971E+03  0.37715462804E+03  0.00000000000E+00 0.  1.
         21    1    1    2  504  502 -0.27365966702E+02  0.13652836032E+02 -0.10699094893E+01  0.30601319768E+02  0.00000000000E+00 0.  1.
         21    1    1    2  505  504  0.69061564243E+02 -0.55189782017E+01 -0.12147548408E+02  0.70338621741E+02  0.00000000000E+00 0.  1.
          1    1    1    2  501    0  0.57482261297E+02 -0.14879331984E+02 -0.13057935457E+04  0.13071428342E+04  0.00000000000E+00 0.  1.
<scales pt_clust_3="62.92078" pt_clust_4="30.58261" pt_clust_5="47.51602" pt_clust_6="14000.00000"></scales>
<clustering>
<clus scale="   30.583">  1  4  2 -1</clus>
<clus scale="   47.516">  1  5  2 -1</clus>
<clus scale="   62.921">  1  3  2 -1</clus>
<clus scale="   30.583">  1  3  2 -1</clus>
</clustering>
</event>
<event>
 6    0  0.7258365E+002  0.8719637E+02  0.7546771E-02  0.1309787E+00
         21   -1    0    0  503  502  0.00000000000E+00  0.00000000000E+00  0.12278048245E+03  0.12278048245E+03  0.00000000000E+00 0. -1.
          2   -1    0    0  504    0 -0.00000000000E+00 -0.00000000000E+00 -0.22439408798E+04  0.22439408798E+04  0.00000000000E+00 0.  1.
         21    1    1    2  503  505 -0.98522173731E+01 -0.32303710140E+02 -0.20409774587E+02  0.39460800481E+02  0.00000000000E+00 0.  1.
         21    1    1    2  504  502 -0.76075368793E+02  0.38109723324E+02  0.93460312600E+02  0.12639083345E+03  0.00000000000E+00 0. -1.
         21    1    1    2  505  501  0.11538557107E+03 -0.14917810367E+02 -0.10830929517E+04  0.10893239707E+04  0.00000000000E+00 0. -1.
          2    1    1    2  501    0 -0.29457984904E+02  0.91117971830E+01 -0.11111179836E+04  0.11115457576E+04  0.00000000000E+00 0.  1.
<scales pt_clust_3="33.77932" pt_clust_4="87.19637" pt_clust_5="14000.00000" pt_clust_6="30.83501"></scales>
<clustering>
<clus scale="   30.835">  2  6  1 -1</clus>
<clus scale="   33.779">  1  3  2 -1</clus>
<clus scale="   87.196">  1  4  2 -1</clus>
<clus scale="   33.779">  1  3  2 -1</clus>
</clustering>
</event>
<event>
 6    0  0.7258365E+002  0.7872075E+02  0.7546771E-02  0.1332721E+00
          2   -1    0    0  504    0 -0.00000000000E+00  0.00000000000E+00  0.14187775559E+04  0.14187775559E+04  0.00000000000E+00 0. -1.
         21   -1    0    0  503  502  0.00000000000E+00 -0.00000000000E+00 -0.13465685232E+03  0.13465685232E+03  0.00000000000E+00 0. -1.
         21    1    1    2  503  501 -0.34614334791E+02  0.17427492245E+02  0.36133191450E+01  0.38922046891E+02  0.00000000000E+00 0. -1.
         21    1    1    2  504  505 -0.65036902259E+02 -0.43473878121E+02  0.91221120121E+02  0.12017100104E+03  0.00000000000E+00 0. -1.
         21    1    1    2  505  502  0.26951365188E+02  0.64612421619E+02 -0.89097442084E+02  0.11331149676E+03  0.00000000000E+00 0. -1.
          2    1    1    2  501    0  0.72699871863E+02 -0.38566035743E+02  0.12783837064E+04  0.12810298635E+04  0.00000000000E+00 0. -1.
<scales pt_clust_3="38.75396" pt_clust_4="78.72075" pt_clust_5="79.74285" pt_clust_6="14000.00000"></scales>
<clustering>
<clus scale="   38.754">  2  3  1 -1</clus>
<clus scale="   79.743">  2  5  1 -1</clus>
<clus scale="   78.721">  2  4  1 -1</clus>
<clus scale="   38.754">  2  3  1 -1</clus>
</clustering>
</event>
<event>
 6    0  0.7258365E+002  0.1019346E+03  0.7546771E-02  0.1276280E+00
          2   -1    0    0  504    0 -0.00000000000E+00  0.00000000000E+00  0.12493366054E+04  0.12493366054E+04  0.00000000000E+00 0. -1.
         21   -1    0    0  505  502  0.00000000000E+00 -0.00000000000E+00 -0.16524247360E+03  0.16524247360E+03  0.00000000000E+00 0. -1.
         21    1    1    2  503  501 -0.10692972304E+02  0.63374319620E+02  0.81617989666E+02  0.10388522648E+03  0.00000000000E+00 0. -1.
         21    1    1    2  504  502  0.67153480352E+02 -0.11932814680E+03  0.78735774425E+03  0.79917520856E+03  0.00000000000E+00 0. -1.
         21    1    1    2  505  503 -0.99676137363E+02  0.22309259203E+02 -0.12816822726E+03  0.16389060341E+03  0.00000000000E+00 0. -1.
          2    1    1    2  501    0  0.43215629314E+02  0.33644567980E+02  0.34328662512E+03  0.34762804052E+03  0.00000000000E+00 0. -1.
<scales pt_clust_3="67.11917" pt_clust_4="101.93462" pt_clust_5="14000.00000" pt_clust_6="54.76813"></scales>
<clustering>
<clus scale="   54.768">  1  6  2 -1</clus>
<clus scale="   67.119">  1  3  2 -1</clus>
<clus scale="  101.935">  1  4  2 -1</clus>
<clus scale="  101.935">  2  3  1 -1</clus>
</clustering>
</event>
<event>
 6    0  0.7258365E+002  0.9269842E+02  0.7546771E-02  0.1296446E+00
          2   -1    0    0  505    0 -0.00000000000E+00  0.00000000000E+00  0.31108506577E+02  0.31108506577E+02  0.00000000000E+00 0. -1.
         21   -1    0    0  504  502  0.00000000000E+00 -0.00000000000E+00 -0.14415721698E+04  0.14415721698E+04  0.00000000000E+00 0. -1.
         21    1    1    2  503  501 -0.54866113862E+01  0.10640728104E+03 -0.29331930953E+03  0.31207183421E+03  0.00000000000E+00 0. -1.
         21    1    1    2  504  503  0.30181248716E+02 -0.53377726937E+02 -0.72796864836E+03  0.73054667373E+03  0.00000000000E+00 0. -1.
         21    1    1    2  505  502 -0.55476988850E+02 -0.67999514979E+02 -0.38581277463E+03  0.39566795093E+03  0.00000000000E+00 0. -1.
          2    1    1    2  501    0  0.30782351521E+02  0.14969960875E+02 -0.33629306896E+01  0.34394217487E+02  0.00000000000E+00 0. -1.
<scales pt_clust_3="92.69842" pt_clust_4="61.55963" pt_clust_5="14000.00000" pt_clust_6="34.22942"></scales>
<clustering>
<clus scale="   34.229">  1  6  2 -1</clus>
<clus scale="   61.560">  2  4  1 -1</clus>
<clus scale="   92.698">  2  3  1 -1</clus>
<clus scale="   61.560">  2  3  1 -1</clus>
</clustering>
</event>
<event>
 6    0  0.7258365E+002  0.1196926E+03  0.7546771E-02  0.1243605E+00
         21   -1    0    0  504  502  0.00000000000E+00  0.00000000000E+00  0.13436546520E+03  0.13436546520E+03  0.00000000000E+00 0. -1.
         -1   -1    0    0    0  501 -0.00000000000E+00 -0.00000000000E+00 -0.54042607041E+03  0.54042607041E+03  0.00000000000E+00 0.  1.
         21    1    1    2  503  502  0.11039332146E+02  0.53265139169E+02  0.87486353207E+01  0.55096102629E+02  0.00000000000E+00 0. -1.
         21    1    1    2  504  505 -0.48566834645E+02  0.14438606661E+02  0.53178784141E+02  0.73451983448E+02  0.00000000000E+00 0. -1.
         21    1    1    2  505  501 -0.52790922964E+02  0.26243884518E+01  0.10811404191E+02  0.53950490477E+02  0.00000000000E+00 0. -1.
         -1    1    1    2    0  503  0.90318425463E+02 -0.70328134282E+02 -0.47879942886E+03  0.49229295905E+03  0.00000000000E+00 0.  1.
<scales pt_clust_3="54.39708" pt_clust_4="38.82027" pt_clust_5="38.82027" pt_clust_6="112.93454"></scales>
<clustering>
<clus scale="   38.820">  4  5 -1 -1</clus>
<clus scale="   54.397">  1  3  2 -1</clus>
<clus scale="  112.935">  2  6  1 -1</clus>
<clus scale="   54.397">  1  3  2 -1</clus>
</clustering>
</event>
<event>
 6    0  0.7258365E+002  0.7976868E+02  0.7546771E-02  0.1329709E+00
         21   -1    0    0  505  502  0.00000000000E+00  0.00000000000E+00  0.24480290706E+03  0.24480290706E+03  0.00000000000E+00 0.  1.
          1   -1    0    0  503    0 -0.00000000000E+00 -0.00000000000E+00 -0.47891642012E+03  0.47891642012E+03  0.00000000000E+00 0.  1.
         21    1    1    2  503  504  0.81648608865E+02 -0.30798053441E+02 -0.26083871203E+03  0.27504881225E+03  0.00000000000E+00 0.  1.
         21    1    1    2  504  502  0.38004092228E+01  0.91446274821E+02  0.44537813168E+02  0.10178644846E+03  0.00000000000E+00 0.  1.
         21    1    1    2  505  501 -0.89903386987E+01 -0.42342537161E+02  0.15291526617E+03  0.15892386627E+03  0.00000000000E+00 0.  1.
          1    1    1    2  501    0 -0.76458679389E+02 -0.18305684218E+02 -0.17072788036E+03  0.18796020020E+03  0.00000000000E+00 0.  1.
<scales pt_clust_3="14000.00000" pt_clust_4="56.70743" pt_clust_5="43.28645" pt_clust_6="79.76868"></scales>
<clustering>
<clus scale="   43.286">  1  5  2 -1</clus>
<clus scale="   56.707">  1  4  2 -1</clus>
<clus scale="   79.769">  1  6  2 -1</clus>
<clus scale="   43.286">  1  3  2 -1</clus>
</clustering>
</event>
<event>
 6    0  0.7258365E+002  0.1206376E+03  0.7546771E-02  0.1242049E+00
          2   -1    0    0  503    0 -0.00000000000E+00  0.00000000000E+00  0.73285404415E+03  0.73285404415E+03  0.00000000000E+00 0.  1.
         21   -1    0    0  505  502  0.00000000000E+00 -0.00000000000E+00 -0.40033910104E+03  0.40033910104E+03  0.00000000000E+00 0. -1.
         21    1    1    2  503  504  0.15921055876E+03  0.22233745356E+02 -0.41291191996E+02  0.16597380513E+03  0.00000000000E+00 0. -1.
         21    1    1    2  504  502 -0.23092385084E+02  0.22687491132E+02 -0.25794639561E+03  0.25996985116E+03  0.00000000000E+00 0. -1.
         21    1    1    2  505  501 -0.86343890426E+02 -0.89302225673E+01  0.15786232437E+02  0.88228234843E+02  0.00000000000E+00 0. -1.
          2    1    1    2  501    0 -0.49774283254E+02 -0.35991013920E+02  0.61596629827E+03  0.61902125405E+03  0.00000000000E+00 0.  1.
<scales pt_clust_3="14000.00000" pt_clust_4="32.37253" pt_clust_5="120.63764" pt_clust_6="61.48290"></scales>
<clustering>
<clus scale="   32.373">  2  4  1 -1</clus>
<clus scale="   61.483">  1  6  2 -1</clus>
<clus scale="  120.638">  1  5  2 -1</clus>
<clus scale="   32.373">  2  3  1 -1</clus>
</clustering>
</event>
<event>
 6    0  0.7258365E+002  0.1411811E+03  0.7546771E-02  0.1211748E+00
         21   -1    0    0  505  502  0.00000000000E+00  0.00000000000E+00  0.11387084677E+03  0.11387084677E+03  0.00000000000E+00 0. -1.
          2   -1    0    0  504    0 -0.00000000000E+00 -0.00000000000E+00 -0.14136565139E+04  0.14136565139E+04  0.00000000000E+00 0.  1.
         21    1    1    2  503  502 -0.77892436465E+02  0.43299927587E+02 -0.42343019157E+02  0.98666340050E+02  0.00000000000E+00 0. -1.
         21    1    1    2  504  503 -0.23067966328E+02  0.16389240648E+03 -0.44422595758E+03  0.47405648752E+03  0.00000000000E+00 0. -1.
         21    1    1    2  505  501  0.13649488104E+03 -0.14715269381E+03 -0.76505562560E+02  0.21479727407E+03  0.00000000000E+00 0. -1.
          2    1    1    2  501    0 -0.35534478246E+02 -0.60039640258E+02 -0.73671112780E+03  0.74000725900E+03  0.00000000000E+00 0.  1.
<scales pt_clust_3="89.61186" pt_clust_4="14000.00000" pt_clust_5="141.18114" pt_clust_6="69.76717"></scales>
<clustering>
<clus scale="   69.767">  2  6  1 -1</clus>
<clus scale="   89.612">  1  3  2 -1</clus>
<clus scale="  141.181">  1  5  2 -1</clus>
<clus scale="   89.612">  1  3  2 -1</clus>
</clustering>
</event>
<event>
 6    0  0.7258365E+002  0.7147137E+02  0.7546771E-02  0.1355160E+00
          2   -1    0    0  504    0 -0.00000000000E+00  0.00000000000E+00  0.27606994318E+04  0.27606994318E+04  0.00000000000E+00 0.  1.
         21   -1    0    0  505  502  0.00000000000E+00 -0.00000000000E+00 -0.37174064174E+02  0.37174064174E+02  0.00000000000E+00 0. -1.
         21    1    1    2  503  502 -0.38960026239E+02 -0.12397635127E+02  0.18865602180E+02  0.45027724203E+02  0.00000000000E+00 0. -1.
         21    1    1    2  504  503 -0.56525119151E+02 -0.82362883129E+02  0.74685044631E+03  0.75350137543E+03  0.00000000000E+00 0. -1.
         21    1    1    2  505  501  0.68049091740E+02  0.68441055359E+02  0.92614416403E+02  0.13376205393E+03  0.00000000000E+00 0. -1.
          2    1    1    2  501    0  0.27436053650E+02  0.26319462897E+02  0.18651949027E+04  0.18655823424E+04  0.00000000000E+00 0.  1.
<scales pt_clust_3="39.67187" pt_clust_4="14000.00000" pt_clust_5="71.47137" pt_clust_6="38.01909"></scales>
<clustering>
<clus scale="   38.019">  1  6  2 -1</clus>
<clus scale="   39.672">  2  3  1 -1</clus>
<clus scale="   71.471">  2  5  1 -1</clus>
<clus scale="   39.672">  2  3  1 -1</clus>
</clustering>
</event>
<event>
 6    0  0.7258365E+002  0.8629593E+02  0.7546771E-02  0.1312078E+00
          2   -1    0    0  504    0 -0.00000000000E+00  0.00000000000E+00  0.49901495412E+03  0.49901495412E+03  0.00000000000E+00 0. -1.
         21   -1    0    0  503  502  0.00000000000E+00 -0.00000000000E+00 -0.13850437338E+04  0.13850437338E+04  0.00000000000E+00 0. -1.
         21    1    1    2  503  501 -0.93117220209E+01  0.33652206672E+02 -0.90400467431E+02  0.96909358127E+02  0.00000000000E+00 0. -1.
         21    1    1    2  504  505 -0.76792398240E+02  0.12580691704E+02  0.40689247992E+02  0.87812078516E+02  0.00000000000E+00 0.  1.
         21    1    1    2  505  502  0.84825883313E+02 -0.76440000034E+02 -0.12647225206E+04  0.12698667482E+04  0.00000000000E+00 0. -1.
          2    1    1    2  501    0  0.12782369478E+01  0.30207101658E+02  0.42840496039E+03  0.42947050303E+03  0.00000000000E+00 0. -1.
<scales pt_clust_3="36.25552" pt_clust_4="14000.00000" pt_clust_5="86.29593" pt_clust_6="30.23413"></scales>
<clustering>
<clus scale="   30.234">  1  6  2 -1</clus>
<clus scale="   36.256">  2  3  1 -1</clus>
<clus scale="   86.296">  2  5  1 -1</clus>
<clus scale="   36.256">  2  3  1 -1</clus>
</clustering>
</event>
<event>
 6    0  0.7258365E+002  0.7939148E+02  0.7546771E-02  0.1330787E+00
          1   -1    0    0  505    0 -0.00000000000E+00  0.00000000000E+00  0.13747656507E+04  0.13747656507E+04  0.00000000000E+00 0.  1.
         21   -1    0    0  504  502  0.00000000000E+00 -0.00000000000E+00 -0.66905993167E+03  0.66905993167E+03  0.00000000000E+00 0. -1.
         21    1    1    2  503  502 -0.84600611646E+02 -0.13469160476E+02 -0.50607366020E+03  0.51327305728E+03  0.00000000000E+00 0. -1.
         21    1    1    2  504  501  0.62355569411E+02 -0.55269951896E+02 -0.13761278158E+03  0.16087343558E+03  0.00000000000E+00 0.  1.
         21    1    1    2  505  503 -0.55200189228E+01  0.51414291190E+02  0.57340059478E+02  0.77212579082E+02  0.00000000000E+00 0.  1.
          1    1    1    2  501    0  0.27765061158E+02  0.17324821183E+02  0.12920521013E+04  0.12924665104E+04  0.00000000000E+00 0.  1.
<scales pt_clust_3="14000.00000" pt_clust_4="79.39148" pt_clust_5="67.74011" pt_clust_6="32.72687"></scales>
<clustering>
<clus scale="   32.727">  1  6  2 -1</clus>
<clus scale="   67.740">  1  5  2 -1</clus>
<clus scale="   79.391">  1  4  2 -1</clus>
<clus scale="   79.391">  2  3  1 -1</clus>
</clustering>
</event>
<event>
 6    0  0.7258365E+002  0.1175581E+03  0.7546771E-02  0.1247181E+00
         21   -1    0    0  505  502  0.00000000000E+00  0.00000000000E+00  0.24302589348E+03  0.24302589348E+03  0.00000000000E+00 0.  1.
          1   -1    0    0  502    0 -0.00000000000E+00 -0.00000000000E+00 -0.21991190079E+04  0.21991190079E+04  0.00000000000E+00 0.  1.
         21    1    1    2  503  501 -0.65404178749E+02  0.67058572172E+02 -0.26523563663E+03  0.28129077773E+03  0.00000000000E+00 0. -1.
         21    1    1    2  504  503  0.41983313001E+02 -0.10027213804E+03  0.22891966126E+02  0.11109069426E+03  0.00000000000E+00 0.  1.
         21    1    1    2  505  504  0.39502575695E+02  0.34860406906E+01  0.16551282904E+03  0.17019724600E+03  0.00000000000E+00 0.  1.
          1    1    1    2  501    0 -0.16081709946E+02  0.29727525178E+02 -0.18792622730E+04  0.18795661834E+04  0.00000000000E+00 0.  1.
<scales pt_clust_3="117.55809" pt_clust_4="14000.00000" pt_clust_5="39.55853" pt_clust_6="33.79863"></scales>
<clustering>
<clus scale="   33.799">  2  6  1 -1</clus>
<clus scale="   39.559">  1  5  2 -1</clus>
<clus scale="  117.558">  2  3  1 -1</clus>
<clus scale="   39.559">  1  3  2 -1</clus>
</clustering>
</event>
<event>
 6    0  0.1099751E+003  0.1017687E+03  0.7546771E-02  0.1276620E+00
          1   -1    0    0  505    0 -0.00000000000E+00  0.00000000000E+00  0.18206060742E+04  0.18206060742E+04  0.00000000000E+00 0.  1.
         21   -1    0    0  504  502  0.00000000000E+00 -0.00000000000E+00 -0.84412372233E+03  0.84412372233E+03  0.00000000000E+00 0.  1.
         21    1    1    2  503  501  0.91850370995E+02  0.24700703883E+02  0.18536522572E+03  0.20834318403E+03  0.00000000000E+00 0.  1.
         21    1    1    2  504  503  0.24429414543E+01  0.39538783723E+02  0.13362475075E+02  0.41807165909E+02  0.00000000000E+00 0. -1.
         21    1    1    2  505  502 -0.66367416835E+02 -0.12282122843E+03 -0.81179194628E+03  0.82370859666E+03  0.00000000000E+00 0.  1.
          1    1    1    2  501    0 -0.27925895614E+02  0.58581740825E+02  0.15895465974E+04  0.15908708500E+04  0.00000000000E+00 0.  1.
<scales pt_clust_3="101.76868" pt_clust_4="39.61418" pt_clust_5="14000.00000" pt_clust_6="64.92507"></scales>
<clustering>
<clus scale="   39.614">  2  4  1 -1</clus>
<clus scale="   64.925">  1  6  2 -1</clus>
<clus scale="  101.769">  1  3  2 -1</clus>
<clus scale="   39.614">  2  3  1 -1</clus>
</clustering>
</event>
<event>
 6    0  0.7258365E+002  0.1459992E+03  0.7546771E-02  0.1205477E+00
          2   -1    0    0  505    0 -0.00000000000E+00  0.00000000000E+00  0.10175175443E+04  0.10175175443E+04  0.00000000000E+00 0.  1.
         21   -1    0    0  503  502  0.00000000000E+00 -0.00000000000E+00 -0.21393019650E+03  0.21393019650E+03  0.00000000000E+00 0.  1.
         21    1    1    2  503  504 -0.12074984788E+02  0.14649492841E+03 -0.15334243821E+03  0.21241580135E+03  0.00000000000E+00 0.  1.
         21    1    1    2  504  501  0.82660883794E+02 -0.12801503433E+03  0.27914297535E+03  0.31802746959E+03  0.00000000000E+00 0. -1.
         21    1    1    2  505  502 -0.37467134915E+02 -0.19889438380E+02  0.29030450251E+02  0.51401780120E+02  0.00000000000E+00 0. -1.
          2    1    1    2  501    0 -0.33118764092E+02  0.14095443005E+01  0.64875636039E+03  0.64960268972E+03  0.00000000000E+00 0.  1.
<scales pt_clust_3="145.99920" pt_clust_4="14000.00000" pt_clust_5="45.57757" pt_clust_6="33.14875"></scales>
<clustering>
<clus scale="   33.149">  1  6  2 -1</clus>
<clus scale="   45.578">  1  5  2 -1</clus>
<clus scale="  145.999">  2  3  1 -1</clus>
<clus scale="  145.999">  2  3  1 -1</clus>
</clustering>
</event>
<event>
 6    0  0.7258365E+002  0.1342109E+03  0.7546771E-02  0.1221338E+00
         21   -1    0    0  505  502  0.00000000000E+00  0.00000000000E+00  0.19393665921E+03  0.19393665921E+03  0.00000000000E+00 0.  1.
         -2   -1    0    0    0  501 -0.00000000000E+00 -0.00000000000E+00 -0.24541463035E+03  0.24541463035E+03  0.00000000000E+00 0.  1.
         21    1    1    2  503  502  0.45112053910E+01  0.31497647866E+02  0.94406020022E+02  0.99624040329E+02  0.00000000000E+00 0.  1.
         21    1    1    2  504  503  0.67764332633E+02 -0.32301206688E+02 -0.69075730974E+02  0.10201386837E+03  0.00000000000E+00 0. -1.
         21    1    1    2  505  501 -0.98659023606E+02  0.52329918953E+02  0.30516182203E+02  0.11577245239E+03  0.00000000000E+00 0.  1.
         -2    1    1    2    0  504  0.26383485581E+02 -0.51526360131E+02 -0.10732444240E+03  0.12194092847E+03  0.00000000000E+00 0.  1.
<scales pt_clust_3="31.81906" pt_clust_4="48.90342" pt_clust_5="121.92086" pt_clust_6="48.90342"></scales>
<clustering>
<clus scale="   31.819">  1  3  2 -1</clus>
<clus scale="   48.903">  4  6 -1 -1</clus>
<clus scale="  121.921">  1  5  2 -1</clus>
<clus scale="   31.819">  1  3  2 -1</clus>
</clustering>
</event>
<event>
 6    0  0.9047989E+002  0.2878522E+03  0.7546771E-02  0.1091476E+00
          2   -1    0    0  504    0 -0.00000000000E+00  0.00000000000E+00  0.39060449565E+04  0.39060449565E+04  0.00000000000E+00 0. -1.
         21   -1    0    0  503  502  0.00000000000E+00 -0.00000000000E+00 -0.36161453958E+03  0.36161453958E+03  0.00000000000E+00 0. -1.
         21    1    1    2  503  505  0.28206591659E+02  0.18064079835E+02  0.44242844465E+02  0.55491910038E+02  0.00000000000E+00 0.  1.
         21    1    1    2  504  502 -0.31458473577E+03 -0.12119429588E+03 -0.23501671619E+03  0.41095555748E+03  0.00000000000E+00 0. -1.
         21    1    1    2  505  501  0.51552108197E+02 -0.62176085638E+02  0.31978865499E+02  0.86868482912E+02  0.00000000000E+00 0. -1.
          2    1    1    2  501    0  0.23482603591E+03  0.16530630168E+03  0.37032254231E+04  0.37143435456E+04  0.00000000000E+00 0. -1.
<scales pt_clust_3="33.49512" pt_clust_4="287.85216" pt_clust_5="81.12449" pt_clust_6="14000.00000"></scales>
<clustering>
<clus scale="   33.495">  2  3  1 -1</clus>
<clus scale="   81.124">  2  5  1 -1</clus>
<clus scale="  287.852">  2  4  1 -1</clus>
<clus scale="   33.495">  2  3  1 -1</clus>
</clustering>
</event>
<event>
 6    0  0.7258365E+002  0.1237064E+03  0.7546771E-02  0.1237105E+00
          1   -1    0    0  504    0 -0.00000000000E+00  0.00000000000E+00  0.96588785175E+03  0.96588785175E+03  0.00000000000E+00 0.  1.
         21   -1    0    0  503  502  0.00000000000E+00 -0.00000000000E+00 -0.56456899142E+03  0.56456899142E+03  0.00000000000E+00 0. -1.
         21    1    1    2  503  501 -0.11265661384E+03  0.20530880578E+02  0.21316211239E+03  0.24197337841E+03  0.00000000000E+00 0.  1.
         21    1    1    2  504  505  0.38004969200E+02  0.28682539640E+02  0.45797604977E+02  0.66064259518E+02  0.00000000000E+00 0.  1.
         21    1    1    2  505  502  0.10406528033E+03 -0.67921091930E+02 -0.53242510154E+03  0.54673516994E+03  0.00000000000E+00 0. -1.
          1    1    1    2  501    0 -0.29413635694E+02  0.18707671712E+02  0.67478424450E+03  0.67568403531E+03  0.00000000000E+00 0.  1.
<scales pt_clust_3="14000.00000" pt_clust_4="45.69845" pt_clust_5="123.70644" pt_clust_6="34.85884"></scales>
<clustering>
<clus scale="   34.859">  1  6  2 -1</clus>
<clus scale="   45.698">  1  4  2 -1</clus>
<clus scale="  123.706">  2  5  1 -1</clus>
<clus scale="  123.706">  2  3  1 -1</clus>
</clustering>
</event>
<event>
 6    0  0.7258365E+002  0.8936819E+02  0.7546771E-02  0.1304389E+00
         21   -1    0    0  504  502  0.00000000000E+00  0.00000000000E+00  0.63978417222E+03  0.63978417222E+03  0.00000000000E+00 0. -1.
         -3   -1    0    0    0  501 -0.00000000000E+00 -0.00000000000E+00 -0.40257052189E+03  0.40257052189E+03  0.00000000000E+00 0.  1.
         21    1    1    2  503  502 -0.54455411004E+01  0.48649657296E+02  0.15032920576E+02  0.51209684376E+02  0.00000000000E+00 0.  1.
         21    1    1    2  504  505 -0.13037728495E+01  0.36362969242E+02  0.56583612668E+03  0.56700483914E+03  0.00000000000E+00 0. -1.
         21    1    1    2  505  501  0.89774213919E+02 -0.39986794280E+02 -0.39948154164E+02  0.10608585307E+03  0.00000000000E+00 0.  1.
         -3    1    1    2    0  503 -0.83024899969E+02 -0.45025832258E+02 -0.30370724276E+03  0.31805431752E+03  0.00000000000E+00 0.  1.
<scales pt_clust_3="65.34555" pt_clust_4="36.38633" pt_clust_5="89.36819" pt_clust_6="14000.00000"></scales>
<clustering>
<clus scale="   36.386">  1  4  2 -1</clus>
<clus scale="   65.346">  1  3  2 -1</clus>
<clus scale="   89.368">  1  5  2 -1</clus>
<clus scale="   36.386">  1  3  2 -1</clus>
</clustering>
</event>
<event>
 6    0  0.7258365E+002  0.1084702E+03  0.7546771E-02  0.1263429E+00
          1   -1    0    0  503    0 -0.00000000000E+00  0.00000000000E+00  0.13591870245E+04  0.13591870245E+04  0.00000000000E+00 0. -1.
         21   -1    0    0  504  502  0.00000000000E+00 -0.00000000000E+00 -0.19737973665E+03  0.19737973665E+03  0.00000000000E+00 0. -1.
         21    1    1    2  503  505  0.11881525377E+03  0.36367246507E+01  0.24183474745E+02  0.12130593863E+03  0.00000000000E+00 0. -1.
         21    1    1    2  504  501 -0.98743649707E+02 -0.14635725679E+02 -0.16027395193E+02  0.10110089129E+03  0.00000000000E+00 0. -1.
         21    1    1    2  505  502 -0.54835017807E+02 -0.16815224222E+02 -0.80700231878E+02  0.99005850174E+02  0.00000000000E+00 0. -1.
          1    1    1    2  501    0  0.34763413739E+02  0.27814225251E+02  0.12343514402E+04  0.12351540810E+04  0.00000000000E+00 0. -1.
<scales pt_clust_3="108.47020" pt_clust_4="14000.00000" pt_clust_5="54.32422" pt_clust_6="44.52107"></scales>
<clustering>
<clus scale="   44.521">  1  6  2 -1</clus>
<clus scale="   54.324">  2  5  1 -1</clus>
<clus scale="  108.470">  2  3  1 -1</clus>
<clus scale="   54.324">  2  3  1 -1</clus>
</clustering>
</event>
<event>
 6    0  0.7258365E+002  0.2553138E+03  0.7546771E-02  0.1109992E+00
          1   -1    0    0  502    0 -0.00000000000E+00  0.00000000000E+00  0.30761097850E+04  0.30761097850E+04  0.00000000000E+00 0. -1.
         21   -1    0    0  503  502  0.00000000000E+00 -0.00000000000E+00 -0.49841230424E+03  0.49841230424E+03  0.00000000000E+00 0.  1.
         21    1    1    2  503  505 -0.34726976154E+02 -0.52899865151E+02 -0.29451244537E+03  0.30123402710E+03  0.00000000000E+00 0.  1.
         21    1    1    2  504  501  0.16827420666E+03  0.51383709147E+02  0.17809130011E+04  0.17895830832E+04  0.00000000000E+00 0. -1.
         21    1    1    2  505  504 -0.18241788918E+03 -0.54306165101E+02 -0.14867500879E+03  0.24151543243E+03  0.00000000000E+00 0.  1.
          1    1    1    2  501    0  0.48870658676E+02  0.55822321105E+02  0.12399719338E+04  0.12421895465E+04  0.00000000000E+00 0. -1.
<scales pt_clust_3="63.28000" pt_clust_4="55.30872" pt_clust_5="240.68791" pt_clust_6="55.30872"></scales>
<clustering>
<clus scale="   55.309">  4  6 -1 -1</clus>
<clus scale="   63.280">  2  3  1 -1</clus>
<clus scale="  240.688">  2  5  1 -1</clus>
<clus scale="   63.280">  2  3  1 -1</clus>
</clustering>
</event>
<event>
 6    0  0.7258365E+002  0.8168324E+02  0.7546771E-02  0.1324341E+00
         21   -1    0    0  503  502  0.00000000000E+00  0.00000000000E+00  0.92063735014E+02  0.92063735014E+02  0.00000000000E+00 0. -1.
          1   -1    0    0  504    0 -0.00000000000E+00 -0.00000000000E+00 -0.41581616957E+03  0.41581616957E+03  0.00000000000E+00 0.  1.
         21    1    1    2  503  501 -0.25098475313E+02 -0.32819048143E+02  0.23153010067E+01  0.41380961840E+02  0.00000000000E+00 0.  1.
         21    1    1    2  504  505 -0.26763282693E+02  0.70110565781E+02  0.11417571306E+02  0.75908666627E+02  0.00000000000E+00 0. -1.
         21    1    1    2  505  502  0.29673256008E+02  0.42162079233E+02 -0.95448167970E+01  0.52433258291E+02  0.00000000000E+00 0.  1.
          1    1    1    2  501    0  0.22188501999E+02 -0.79453596871E+02 -0.32794049007E+03  0.33815701783E+03  0.00000000000E+00 0.  1.
<scales pt_clust_3="41.31614" pt_clust_4="81.68324" pt_clust_5="38.95212" pt_clust_6="14000.00000"></scales>
<clustering>
<clus scale="   41.316">  1  3  2 -1</clus>
<clus scale="   38.952">  1  5  2 -1</clus>
<clus scale="   81.683">  1  4  2 -1</clus>
<clus scale="   41.316">  1  3  2 -1</clus>
</clustering>
</event>
<event>
 6    0  0.7258365E+002  0.1683252E+03  0.7546771E-02  0.1179606E+00
          2   -1    0    0  505    0 -0.00000000000E+00  0.00000000000E+00  0.76676259296E+03  0.76676259296E+03  0.00000000000E+00 0.  1.
         21   -1    0    0  504  502  0.00000000000E+00 -0.00000000000E+00 -0.41151468471E+03  0.41151468471E+03  0.00000000000E+00 0. -1.
         21    1    1    2  503  502 -0.44087357031E+01  0.14795684681E+03  0.60130205557E+02  0.15976954369E+03  0.00000000000E+00 0.  1.
         21    1    1    2  504  501  0.16275900777E+02 -0.17165260529E+03 -0.31742160243E+03  0.36122845339E+03  0.00000000000E+00 0. -1.
         21    1    1    2  505  503  0.69501693785E+02 -0.77657653004E+01  0.45195182380E+02  0.83267022644E+02  0.00000000000E+00 0. -1.
          2    1    1    2  501    0 -0.81368858860E+02  0.31461523775E+02  0.56734412275E+03  0.57401225796E+03  0.00000000000E+00 0.  1.
<scales pt_clust_3="168.32519" pt_clust_4="14000.00000" pt_clust_5="69.93420" pt_clust_6="35.40152"></scales>
<clustering>
<clus scale="   69.934">  1  5  2 -1</clus>
<clus scale="   35.402">  1  6  2 -1</clus>
<clus scale="  168.325">  1  3  2 -1</clus>
<clus scale="  168.325">  2  3  1 -1</clus>
</clustering>
</event>
<event>
 6    0  0.7258365E+002  0.2491031E+03  0.7546771E-02  0.1113873E+00
         21   -1    0    0  505  502  0.00000000000E+00  0.00000000000E+00  0.13212735387E+03  0.13212735387E+03  0.00000000000E+00 0. -1.
          1   -1    0    0  503    0 -0.00000000000E+00 -0.00000000000E+00 -0.16399725431E+04  0.16399725431E+04  0.00000000000E+00 0.  1.
         21    1    1    2  503  504 -0.17222693127E+03  0.18051647729E+03 -0.29069160539E+03  0.38307952682E+03  0.00000000000E+00 0. -1.
         21    1    1    2  504  502 -0.18232940603E+02  0.39014353885E+02  0.39969730416E+02  0.58754908575E+02  0.00000000000E+00 0. -1.
         21    1    1    2  505  501  0.16571267424E+02 -0.41303011381E+02  0.41047224695E+01  0.44692218559E+02  0.00000000000E+00 0. -1.
          1    1    1    2  501    0  0.17388860445E+03 -0.17822781980E+03 -0.12612280368E+04  0.12855732430E+04  0.00000000000E+00 0.  1.
<scales pt_clust_3="14000.00000" pt_clust_4="43.06460" pt_clust_5="31.83568" pt_clust_6="249.10313"></scales>
<clustering>
<clus scale="   43.065">  1  4  2 -1</clus>
<clus scale="   31.836">  1  5  2 -1</clus>
<clus scale="  249.103">  2  6  1 -1</clus>
<clus scale="   43.065">  1  3  2 -1</clus>
</clustering>
</event>
<event>
 6    0  0.7258365E+002  0.1042105E+03  0.7546771E-02  0.1271683E+00
          2   -1    0    0  505    0 -0.00000000000E+00  0.00000000000E+00  0.23066906851E+04  0.23066906851E+04  0.00000000000E+00 0.  1.
         21   -1    0    0  504  502  0.00000000000E+00 -0.00000000000E+00 -0.31826665630E+03  0.31826665630E+03  0.00000000000E+00 0. -1.
         21    1    1    2  503  502  0.13934066204E+03  0.94761673057E+01 -0.24374945218E+03  0.28092599254E+03  0.00000000000E+00 0. -1.
         21    1    1    2  504  501 -0.34919176437E+02 -0.81854918804E+01 -0.48477737536E+02  0.60302920302E+02  0.00000000000E+00 0. -1.
         21    1    1    2  505  503 -0.44154994112E+02  0.37083837757E+01  0.47432283556E+03  0.47638804346E+03  0.00000000000E+00 0.  1.
          2    1    1    2  501    0 -0.60266491495E+02 -0.49990592010E+01  0.18063283830E+04  0.18073403851E+04  0.00000000000E+00 0.  1.
<scales pt_clust_3="14000.00000" pt_clust_4="35.86574" pt_clust_5="44.44395" pt_clust_6="104.21050"></scales>
<clustering>
<clus scale="   35.866">  2  4  1 -1</clus>
<clus scale="   44.444">  1  5  2 -1</clus>
<clus scale="  104.210">  1  6  2 -1</clus>
<clus scale="   35.866">  2  3  1 -1</clus>
</clustering>
</event>
<event>
 6    0  0.7258365E+002  0.1069989E+03  0.7546771E-02  0.1266231E+00
          1   -1    0    0  505    0 -0.00000000000E+00  0.00000000000E+00  0.12861182276E+04  0.12861182276E+04  0.00000000000E+00 0. -1.
         21   -1    0    0  504  502  0.00000000000E+00 -0.00000000000E+00 -0.10262626886E+04  0.10262626886E+04  0.00000000000E+00 0.  1.
         21    1    1    2  503  501  0.18003251897E+02 -0.14491665935E+03 -0.43010471048E+03  0.45421912907E+03  0.00000000000E+00 0.  1.
         21    1    1    2  504  503  0.38307535987E+02  0.54873186162E+02 -0.55552363747E+03  0.55954003044E+03  0.00000000000E+00 0.  1.
         21    1    1    2  505  502 -0.22497084765E+02  0.99813470109E+02  0.73190767377E+02  0.12580038182E+03  0.00000000000E+00 0. -1.
          1    1    1    2  501    0 -0.33813703119E+02 -0.97699969233E+01  0.11722931196E+04  0.11728213749E+04  0.00000000000E+00 0. -1.
<scales pt_clust_3="14000.00000" pt_clust_4="66.43905" pt_clust_5="106.99891" pt_clust_6="35.19687"></scales>
<clustering>
<clus scale="   35.197">  1  6  2 -1</clus>
<clus scale="   66.439">  2  4  1 -1</clus>
<clus scale="  106.999">  1  5  2 -1</clus>
<clus scale="   66.439">  2  3  1 -1</clus>
</clustering>
</event>
<event>
 6    0  0.7258365E+002  0.1197399E+03  0.7546771E-02  0.1243527E+00
          2   -1    0    0  504    0 -0.00000000000E+00  0.00000000000E+00  0.11275152803E+04  0.11275152803E+04  0.00000000000E+00 0.  1.
         21   -1    0    0  503  502  0.00000000000E+00 -0.00000000000E+00 -0.13441975411E+03  0.13441975411E+03  0.00000000000E+00 0.  1.
         21    1    1    2  503  501  0.10308951013E+03  0.59946208336E+01  0.20767060569E+03  0.23192771082E+03  0.00000000000E+00 0.  1.
         21    1    1    2  504  505  0.24048399889E+02 -0.82201501153E+02  0.17065114950E+03  0.19093775728E+03  0.00000000000E+00 0.  1.
         21    1    1    2  505  502 -0.11940647383E+03 -0.27553358527E+02 -0.73552803394E+02  0.14292343561E+03  0.00000000000E+00 0.  1.
          2    1    1    2  501    0 -0.77314361887E+01  0.10376023885E+03  0.68832657439E+03  0.69614613069E+03  0.00000000000E+00 0.  1.
<scales pt_clust_3="14000.00000" pt_clust_4="85.64702" pt_clust_5="119.73990" pt_clust_6="44.75303"></scales>
<clustering>
<clus scale="   85.647">  1  4  2 -1</clus>
<clus scale="   44.753">  1  6  2 -1</clus>
<clus scale="  119.740">  2  5  1 -1</clus>
<clus scale="  119.740">  2  3  1 -1</clus>
</clustering>
</event>
<event>
 6    0  0.7258365E+002  0.1936172E+03  0.7546771E-02  0.1155239E+00
          1   -1    0    0  504    0 -0.00000000000E+00  0.00000000000E+00  0.11712284386E+04  0.11712284386E+04  0.00000000000E+00 0. -1.
         21   -1    0    0  503  502  0.00000000000E+00 -0.00000000000E+00 -0.51965657030E+03  0.51965657030E+03  0.00000000000E+00 0.  1.
         21    1    1    2  503  501  0.57010249140E+02  0.99273732514E+02 -0.42112462338E+03  0.43640736806E+03  0.00000000000E+00 0.  1.
         21    1    1    2  504  505 -0.11991850772E+02 -0.56214523041E+02  0.48929465150E+02  0.75484896804E+02  0.00000000000E+00 0.  1.
         21    1    1    2  505  502 -0.44326816163E+02  0.10128112196E+03 -0.30662287851E+02  0.11472971800E+03  0.00000000000E+00 0. -1.
          1    1    1    2  501    0 -0.69158220430E+00 -0.14434033143E+03  0.10544293144E+04  0.10642630261E+04  0.00000000000E+00 0. -1.
<scales pt_clust_3="193.61719" pt_clust_4="57.47936" pt_clust_5="108.79425" pt_clust_6="14000.00000"></scales>
<clustering>
<clus scale="   57.479">  1  4  2 -1</clus>
<clus scale="  108.794">  2  5  1 -1</clus>
<clus scale="  193.617">  2  3  1 -1</clus>
<clus scale="  108.794">  2  3  1 -1</clus>
</clustering>
</event>
<event>
 6    0  0.7258365E+002  0.1330796E+03  0.7546771E-02  0.1222956E+00
          2   -1    0    0  505    0 -0.00000000000E+00  0.00000000000E+00  0.32333570896E+04  0.32333570896E+04  0.00000000000E+00 0.  1.
         21   -1    0    0  503  502  0.00000000000E+00 -0.00000000000E+00 -0.54414267459E+02  0.54414267459E+02  0.00000000000E+00 0. -1.
         21    1    1    2  503  504  0.28672243604E+02 -0.56881770943E+02  0.13733524042E+02  0.65163203585E+02  0.00000000000E+00 0. -1.
         21    1    1    2  504  501 -0.22030689207E+02 -0.94842360556E+02  0.31718823843E+03  0.33179632792E+03  0.00000000000E+00 0.  1.
         21    1    1    2  505  502 -0.68273171521E+02  0.18925991057E+03  0.46454490384E+03  0.50624352577E+03  0.00000000000E+00 0.  1.
          2    1    1    2  501    0  0.61631617124E+02 -0.37535779072E+02  0.23834761558E+04  0.23845682998E+04  0.00000000000E+00 0.  1.
<scales pt_clust_3="63.69956" pt_clust_4="14000.00000" pt_clust_5="133.07957" pt_clust_6="73.19397"></scales>
<clustering>
<clus scale="   63.700">  2  3  1 -1</clus>
<clus scale="   73.194">  1  6  2 -1</clus>
<clus scale="  133.080">  2  5  1 -1</clus>
<clus scale="   63.700">  2  3  1 -1</clus>
</clustering>
</event>
<event>
 6    0  0.7258365E+002  0.2129652E+03  0.7546771E-02  0.1139239E+00
         21   -1    0    0  503  502  0.00000000000E+00  0.00000000000E+00  0.11728023743E+04  0.11728023743E+04  0.00000000000E+00 0. -1.
          2   -1    0    0  504    0 -0.00000000000E+00 -0.00000000000E+00 -0.28184501745E+04  0.28184501745E+04  0.00000000000E+00 0.  1.
         21    1    1    2  503  501  0.10444815675E+03  0.18776047194E+03  0.11436325070E+04  0.11636402894E+04  0.00000000000E+00 0. -1.
         21    1    1    2  504  505 -0.14897126603E+02 -0.28040928167E+02 -0.35028057826E+03  0.35171679167E+03  0.00000000000E+00 0.  1.
         21    1    1    2  505  502 -0.76310826188E+02 -0.13238478622E+03 -0.29993962673E+03  0.33661974615E+03  0.00000000000E+00 0. -1.
          2    1    1    2  501    0 -0.13240203957E+02 -0.27334757549E+02 -0.21390601021E+04  0.21392757215E+04  0.00000000000E+00 0.  1.
<scales pt_clust_3="14000.00000" pt_clust_4="47.43926" pt_clust_5="212.96524" pt_clust_6="30.37255"></scales>
<clustering>
<clus scale="   30.373">  2  6  1 -1</clus>
<clus scale="   47.439">  2  4  1 -1</clus>
<clus scale="  212.965">  2  5  1 -1</clus>
<clus scale="  212.965">  1  3  2 -1</clus>
</clustering>
</event>
<event>
 6    0  0.7258365E+002  0.1015538E+03  0.7546771E-02  0.1277062E+00
         21   -1    0    0  504  502  0.00000000000E+00  0.00000000000E+00  0.11061337835E+03  0.11061337835E+03  0.00000000000E+00 0. -1.
          2   -1    0    0  505    0 -0.00000000000E+00 -0.00000000000E+00 -0.25581335219E+04  0.25581335219E+04  0.00000000000E+00 0.  1.
         21    1    1    2  503  502  0.41959968468E+02  0.12769040614E+02  0.52255491941E+01  0.44170054521E+02  0.00000000000E+00 0.  1.
         21    1    1    2  504  501 -0.37981725336E+02  0.83788387312E+02  0.21719721212E+02  0.94524343940E+02  0.00000000000E+00 0. -1.
         21    1    1    2  505  503 -0.46167107598E+02 -0.13220767228E+03 -0.15103496081E+03  0.20596560349E+03  0.00000000000E+00 0. -1.
          2    1    1    2  501    0  0.42188864466E+02  0.35650244351E+02 -0.23234304532E+04  0.23240868983E+04  0.00000000000E+00 0.  1.
<scales pt_clust_3="43.85986" pt_clust_4="101.55383" pt_clust_5="14000.00000" pt_clust_6="55.38838"></scales>
<clustering>
<clus scale="   43.860">  1  3  2 -1</clus>
<clus scale="   55.388">  2  6  1 -1</clus>
<clus scale="  101.554">  1  4  2 -1</clus>
<clus scale="   43.860">  1  3  2 -1</clus>
</clustering>
</event>
<event>
 6    0  0.7258365E+002  0.1337694E+03  0.7546771E-02  0.1221967E+00
         21   -1    0    0  503  502  0.00000000000E+00  0.00000000000E+00  0.75347524688E+02  0.75347524688E+02  0.00000000000E+00 0.  1.
          2   -1    0    0  505    0 -0.00000000000E+00 -0.00000000000E+00 -0.14023224572E+04  0.14023224572E+04  0.00000000000E+00 0. -1.
         21    1    1    2  503  504  0.79572623566E+02 -0.12864208975E+01  0.19269018117E+02  0.81882552227E+02  0.00000000000E+00 0.  1.
         21    1    1    2  504  501  0.51580321436E+02 -0.48456342072E+01 -0.18588826745E+02  0.55041386339E+02  0.00000000000E+00 0.  1.
         21    1    1    2  505  502 -0.59793763397E+02  0.20980785153E+01 -0.15863094558E+03  0.16953900132E+03  0.00000000000E+00 0. -1.
          2    1    1    2  501    0 -0.71359181605E+02  0.40339765894E+01 -0.11690241783E+04  0.11712070420E+04  0.00000000000E+00 0. -1.
<scales pt_clust_3="31.34232" pt_clust_4="31.34232" pt_clust_5="59.83056" pt_clust_6="128.00486"></scales>
<clustering>
<clus scale="   31.342">  3  4 -1 -1</clus>
<clus scale="   59.831">  2  5  1 -1</clus>
<clus scale="  128.005">  2  6  1 -1</clus>
<clus scale="  133.769">  1  3  2 -1</clus>
</clustering>
</event>
<event>
 6    0  0.7258365E+002  0.7470768E+02  0.7546771E-02  0.1344779E+00
         21   -1    0    0  503  502  0.00000000000E+00  0.00000000000E+00  0.87651733310E+03  0.87651733310E+03  0.00000000000E+00 0. -1.
         -1   -1    0    0    0  501 -0.00000000000E+00 -0.00000000000E+00 -0.17832497946E+03  0.17832497946E+03  0.00000000000E+00 0. -1.
         21    1    1    2  503  501  0.43893984863E+02 -0.77359268524E+02  0.12816588288E+03  0.15600523026E+03  0.00000000000E+00 0. -1.
         21    1    1    2  504  505 -0.41731361640E+02  0.56986406820E+02  0.92678625867E+02  0.11652589755E+03  0.00000000000E+00 0. -1.
         21    1    1    2  505  502 -0.44578360336E+02 -0.43761459444E+02  0.61846156023E+03  0.62160839523E+03  0.00000000000E+00 0. -1.
         -1    1    1    2    0  504  0.42415737113E+02  0.64134321148E+02 -0.14111371534E+03  0.16070278952E+03  0.00000000000E+00 0. -1.
<scales pt_clust_3="14000.00000" pt_clust_4="71.56327" pt_clust_5="62.46836" pt_clust_6="74.70768"></scales>
<clustering>
<clus scale="   62.468">  1  5  2 -1</clus>
<clus scale="   71.563">  1  4  2 -1</clus>
<clus scale="   74.708">  2  6  1 -1</clus>
<clus scale="   62.468">  1  3  2 -1</clus>
</clustering>
</event>
<event>
 6    0  0.7258365E+002  0.7950728E+02  0.7546771E-02  0.1330456E+00
         21   -1    0    0  505  502  0.00000000000E+00  0.00000000000E+00  0.90463567758E+03  0.90463567758E+03  0.00000000000E+00 0. -1.
          1   -1    0    0  503    0 -0.00000000000E+00 -0.00000000000E+00 -0.31502439624E+03  0.31502439624E+03  0.00000000000E+00 0.  1.
         21    1    1    2  503  502  0.42522479320E+02  0.94699540298E+02  0.31861840163E+02  0.10858794150E+03  0.00000000000E+00 0.  1.
         21    1    1    2  504  501 -0.52042270491E+02 -0.41962879133E+02  0.29748285079E+02  0.73172683483E+02  0.00000000000E+00 0.  1.
         21    1    1    2  505  504  0.57844057225E+02 -0.44233658750E+02  0.77887538442E+03  0.78227195781E+03  0.00000000000E+00 0. -1.
          1    1    1    2  501    0 -0.48324266054E+02 -0.85030024150E+01 -0.25087422831E+03  0.25562749103E+03  0.00000000000E+00 0.  1.
<scales pt_clust_3="79.50728" pt_clust_4="14000.00000" pt_clust_5="71.91214" pt_clust_6="49.06665"></scales>
<clustering>
<clus scale="   49.067">  2  6  1 -1</clus>
<clus scale="   71.912">  1  5  2 -1</clus>
<clus scale="   79.507">  2  3  1 -1</clus>
<clus scale="   71.912">  1  3  2 -1</clus>
</clustering>
</event>
<event>
 6    0  0.7258365E+002  0.5652086E+02  0.7546771E-02  0.1413041E+00
         21   -1    0    0  501  502  0.00000000000E+00  0.00000000000E+00  0.13442577678E+03  0.13442577678E+03  0.00000000000E+00 0. -1.
          2   -1    0    0  504    0 -0.00000000000E+00 -0.00000000000E+00 -0.41111485291E+04  0.41111485291E+04  0.00000000000E+00 0.  1.
         21    1    1    2  503  505 -0.75581876429E+02  0.15857476481E+02  0.34013932304E+02  0.84386178937E+02  0.00000000000E+00 0. -1.
         21    1    1    2  504  503  0.73137305880E+02 -0.29333686198E+02 -0.42399468687E+03  0.43125517406E+03  0.00000000000E+00 0. -1.
         21    1    1    2  505  502  0.33368087217E+02 -0.33175078938E+02  0.63626727104E+02  0.79135172389E+02  0.00000000000E+00 0. -1.
          2    1    1    2  501    0 -0.30923516668E+02  0.46651288654E+02 -0.36503687249E+04  0.36507977805E+04  0.00000000000E+00 0.  1.
<scales pt_clust_3="46.81741" pt_clust_4="56.52086" pt_clust_5="47.05332" pt_clust_6="14000.00000"></scales>
<clustering>
<clus scale="   47.053">  1  5  2 -1</clus>
<clus scale="   46.817">  1  3  2 -1</clus>
<clus scale="   56.521">  1  4  2 -1</clus>
<clus scale="   47.053">  1  3  2 -1</clus>
</clustering>
</event>
<event>
 6    0  0.7258365E+002  0.7352584E+02  0.7546771E-02  0.1348498E+00
          2   -1    0    0  504    0 -0.00000000000E+00  0.00000000000E+00  0.21591073018E+04  0.21591073018E+04  0.00000000000E+00 0.  1.
         21   -1    0    0  505  502  0.00000000000E+00 -0.00000000000E+00 -0.31395173162E+03  0.31395173162E+03  0.00000000000E+00 0. -1.
         21    1    1    2  503  502  0.77222134006E+01  0.67641632492E+02 -0.16233821236E+03  0.17603612759E+03  0.00000000000E+00 0. -1.
         21    1    1    2  504  503 -0.42297423318E+02  0.50960427638E+02 -0.49473914983E+02  0.82666229309E+02  0.00000000000E+00 0. -1.
         21    1    1    2  505  501  0.10277653780E+02 -0.10070262417E+03 -0.45989388520E+02  0.11118305868E+03  0.00000000000E+00 0. -1.
          2    1    1    2  501    0  0.24297556137E+02 -0.17899435964E+02  0.21029570861E+04  0.21031736178E+04  0.00000000000E+00 0.  1.
<scales pt_clust_3="14000.00000" pt_clust_4="57.59306" pt_clust_5="73.52584" pt_clust_6="30.17882"></scales>
<clustering>
<clus scale="   30.179">  1  6  2 -1</clus>
<clus scale="   57.593">  1  4  2 -1</clus>
<clus scale="   73.526">  1  5  2 -1</clus>
<clus scale="   73.526">  2  3  1 -1</clus>
</clustering>
</event>
<event>
 6    0  0.7258365E+002  0.8321805E+02  0.7546771E-02  0.1320159E+00
         21   -1    0    0  504  502  0.00000000000E+00  0.00000000000E+00  0.32075271329E+03  0.32075271329E+03  0.00000000000E+00 0. -1.
          3   -1    0    0  503    0 -0.00000000000E+00 -0.00000000000E+00 -0.47811666770E+03  0.47811666770E+03  0.00000000000E+00 0.  1.
         21    1    1    2  503  505  0.26337482905E+02 -0.85287416783E+02 -0.27867058120E+01  0.89304939374E+02  0.00000000000E+00 0. -1.
         21    1    1    2  504  501 -0.69272496161E+02  0.72432446574E+02  0.49894164752E+02  0.11195787474E+03  0.00000000000E+00 0. -1.
         21    1    1    2  505  502  0.15703621052E+02 -0.28681640490E+02  0.19365387471E+03  0.19639517155E+03  0.00000000000E+00 0. -1.
          3    1    1    2  501    0  0.27231392204E+02  0.41536610699E+02 -0.39812528806E+03  0.40121139533E+03  0.00000000000E+00 0.  1.
<scales pt_clust_3="14000.00000" pt_clust_4="83.21805" pt_clust_5="32.69924" pt_clust_6="49.47983"></scales>
<clustering>
<clus scale="   32.699">  1  5  2 -1</clus>
<clus scale="   49.480">  2  6  1 -1</clus>
<clus scale="   83.218">  1  4  2 -1</clus>
<clus scale="   32.699">  1  3  2 -1</clus>
</clustering>
</event>
<event>
 6    0  0.7258365E+002  0.9622661E+02  0.7546771E-02  0.1288437E+00
         21   -1    0    0  503  502  0.00000000000E+00  0.00000000000E+00  0.69676065780E+03  0.69676065780E+03  0.00000000000E+00 0.  1.
          1   -1    0    0  504    0 -0.00000000000E+00 -0.00000000000E+00 -0.85648191066E+03  0.85648191066E+03  0.00000000000E+00 0. -1.
         21    1    1    2  503  505  0.51057420161E+02  0.34789686720E+02  0.58887257576E+03  0.59210479895E+03  0.00000000000E+00 0.  1.
         21    1    1    2  504  502 -0.57365192115E+02 -0.13544540131E+03 -0.58678007541E+03  0.60493559897E+03  0.00000000000E+00 0. -1.
         21    1    1    2  505  501 -0.63925851556E+02  0.62939692196E+02  0.68248119594E+02  0.11271967521E+03  0.00000000000E+00 0. -1.
          1    1    1    2  501    0  0.70233623510E+02  0.37716022396E+02 -0.23006187280E+03  0.24348249533E+03  0.00000000000E+00 0. -1.
<scales pt_clust_3="61.78335" pt_clust_4="14000.00000" pt_clust_5="96.22661" pt_clust_6="83.60045"></scales>
<clustering>
<clus scale="   61.783">  1  3  2 -1</clus>
<clus scale="   83.600">  2  6  1 -1</clus>
<clus scale="   96.227">  1  5  2 -1</clus>
<clus scale="   61.783">  1  3  2 -1</clus>
</clustering>
</event>
<event>
 6    0  0.7258365E+002  0.1773921E+03  0.7546771E-02  0.1170351E+00
          1   -1    0    0  504    0 -0.00000000000E+00  0.00000000000E+00  0.70347383386E+03  0.70347383386E+03  0.00000000000E+00 0.  1.
         21   -1    0    0  503  502  0.00000000000E+00 -0.00000000000E+00 -0.39218331397E+03  0.39218331397E+03  0.00000000000E+00 0. -1.
         21    1    1    2  503  505  0.39931414949E+02 -0.41044559038E+01 -0.29576820191E+02  0.49861335228E+02  0.00000000000E+00 0.  1.
         21    1    1    2  504  502 -0.91839976213E+01 -0.17500006233E+03 -0.30351210828E+03  0.35046963849E+03  0.00000000000E+00 0. -1.
         21    1    1    2  505  501 -0.55892016463E+02  0.14587999274E+03  0.22519533849E+03  0.27407632197E+03  0.00000000000E+00 0.  1.
          1    1    1    2  501    0  0.25144599135E+02  0.33224525491E+02  0.41918410987E+03  0.42124985214E+03  0.00000000000E+00 0.  1.
<scales pt_clust_3="40.14180" pt_clust_4="177.39209" pt_clust_5="14000.00000" pt_clust_6="41.72792"></scales>
<clustering>
<clus scale="   40.142">  2  3  1 -1</clus>
<clus scale="   41.728">  1  6  2 -1</clus>
<clus scale="  177.392">  2  4  1 -1</clus>
<clus scale="   40.142">  2  3  1 -1</clus>
</clustering>
</event>
<event>
 6    0  0.7258365E+002  0.6718388E+02  0.7546771E-02  0.1369940E+00
          2   -1    0    0  505    0 -0.00000000000E+00  0.00000000000E+00  0.73202409062E+02  0.73202409062E+02  0.00000000000E+00 0. -1.
         21   -1    0    0  503  502  0.00000000000E+00 -0.00000000000E+00 -0.52058555156E+03  0.52058555156E+03  0.00000000000E+00 0. -1.
         21    1    1    2  503  501 -0.14542050712E+01 -0.63498823106E+02 -0.33862666151E+03  0.34453190147E+03  0.00000000000E+00 0. -1.
         21    1    1    2  504  502  0.21433234919E+02  0.86753250914E+02 -0.10472683152E+03  0.13767069166E+03  0.00000000000E+00 0. -1.
         21    1    1    2  505  504 -0.25132696482E+02 -0.63273787601E+02 -0.15115699385E+02  0.69740296800E+02  0.00000000000E+00 0. -1.
          2    1    1    2  501    0  0.51536666341E+01  0.40019359793E+02  0.11086049913E+02  0.41845070686E+02  0.00000000000E+00 0. -1.
<scales pt_clust_3="14000.00000" pt_clust_4="67.18388" pt_clust_5="45.61049" pt_clust_6="40.34984"></scales>
<clustering>
<clus scale="   40.350">  1  6  2 -1</clus>
<clus scale="   45.610">  1  5  2 -1</clus>
<clus scale="   67.184">  1  4  2 -1</clus>
<clus scale="   67.184">  2  3  1 -1</clus>
</clustering>
</event>
<event>
 6    0  0.7258365E+002  0.1702851E+03  0.7546771E-02  0.1177551E+00
          2   -1    0    0  504    0 -0.00000000000E+00  0.00000000000E+00  0.32520191432E+04  0.32520191432E+04  0.00000000000E+00 0.  1.
         21   -1    0    0  503  502  0.00000000000E+00 -0.00000000000E+00 -0.20369015923E+03  0.20369015923E+03  0.00000000000E+00 0. -1.
         21    1    1    2  503  501 -0.53494532802E+02  0.14658110202E+03  0.37988718809E+02  0.16059522803E+03  0.00000000000E+00 0. -1.
         21    1    1    2  504  505  0.88922991098E+01 -0.21503800902E+03  0.14339956551E+04  0.14500565359E+04  0.00000000000E+00 0.  1.
         21    1    1    2  505  502  0.29870839458E+02  0.20387795627E+02 -0.13154613649E+03  0.13642695953E+03  0.00000000000E+00 0. -1.
          2    1    1    2  501    0  0.14731394234E+02  0.48069111369E+02  0.17078907465E+04  0.17086305790E+04  0.00000000000E+00 0.  1.
<scales pt_clust_3="170.28513" pt_clust_4="14000.00000" pt_clust_5="36.16530" pt_clust_6="50.42581"></scales>
<clustering>
<clus scale="   36.165">  2  5  1 -1</clus>
<clus scale="   50.426">  1  6  2 -1</clus>
<clus scale="  170.285">  2  3  1 -1</clus>
<clus scale="   36.165">  2  3  1 -1</clus>
</clustering>
</event>
<event>
 6    0  0.7258365E+002  0.7600634E+02  0.7546771E-02  0.1340783E+00
         21   -1    0    0  503  502  0.00000000000E+00  0.00000000000E+00  0.90235713375E+03  0.90235713375E+03  0.00000000000E+00 0.  1.
          2   -1    0    0  504    0 -0.00000000000E+00 -0.00000000000E+00 -0.24882332801E+03  0.24882332801E+03  0.00000000000E+00 0.  1.
         21    1    1    2  503  501 -0.49412235794E+02 -0.50477666103E+02  0.45571704408E+01  0.70783696031E+02  0.00000000000E+00 0.  1.
         21    1    1    2  504  505 -0.33085719050E+02  0.98376336645E+02 -0.46300700327E+02  0.11365000338E+03  0.00000000000E+00 0.  1.
         21    1    1    2  505  502  0.34972895217E+02 -0.46107795075E+02  0.82580218784E+03  0.82782744917E+03  0.00000000000E+00 0.  1.
          2    1    1    2  501    0  0.47525059627E+02 -0.17908754667E+01 -0.13052485221E+03  0.13891931317E+03  0.00000000000E+00 0.  1.
<scales pt_clust_3="76.00634" pt_clust_4="14000.00000" pt_clust_5="58.13929" pt_clust_6="47.55879"></scales>
<clustering>
<clus scale="   47.559">  2  6  1 -1</clus>
<clus scale="   58.139">  1  5  2 -1</clus>
<clus scale="   76.006">  1  3  2 -1</clus>
<clus scale="   58.139">  1  3  2 -1</clus>
</clustering>
</event>
<event>
 6    0  0.7258365E+002  0.1009821E+03  0.7546771E-02  0.1278244E+00
          2   -1    0    0  504    0 -0.00000000000E+00  0.00000000000E+00  0.15859197214E+04  0.15859197214E+04  0.00000000000E+00 0.  1.
         21   -1    0    0  503  502  0.00000000000E+00 -0.00000000000E+00 -0.24214152861E+03  0.24214152861E+03  0.00000000000E+00 0. -1.
         21    1    1    2  503  505 -0.20048398758E+02 -0.22361984669E+02 -0.22158973846E+03  0.22361576161E+03  0.00000000000E+00 0. -1.
         21    1    1    2  504  502  0.43760253200E+02 -0.11490212683E+03  0.43590384063E+03  0.45291237208E+03  0.00000000000E+00 0.  1.
         21    1    1    2  505  501 -0.33851399284E+02  0.90410957927E+02  0.21346529649E+03  0.23428079595E+03  0.00000000000E+00 0.  1.
          2    1    1    2  501    0  0.10139544841E+02  0.46853153567E+02  0.91599879415E+03  0.91725232039E+03  0.00000000000E+00 0.  1.
<scales pt_clust_3="30.03326" pt_clust_4="14000.00000" pt_clust_5="100.98212" pt_clust_6="47.10305"></scales>
<clustering>
<clus scale="   30.033">  2  3  1 -1</clus>
<clus scale="   47.103">  1  6  2 -1</clus>
<clus scale="  100.982">  2  5  1 -1</clus>
<clus scale="   30.033">  2  3  1 -1</clus>
</clustering>
</event>
<event>
 6    0  0.7258365E+002  0.2064512E+03  0.7546771E-02  0.1144408E+00
         21   -1    0    0  501  502  0.00000000000E+00  0.00000000000E+00  0.50981291733E+02  0.50981291733E+02  0.00000000000E+00 0. -1.
          2   -1    0    0  503    0 -0.00000000000E+00 -0.00000000000E+00 -0.29251788346E+04  0.29251788346E+04  0.00000000000E+00 0. -1.
         21    1    1    2  503  504 -0.20884559203E+02  0.19922372527E+03 -0.39722675878E+03  0.44487678678E+03  0.00000000000E+00 0. -1.
         21    1    1    2  504  505 -0.40487336936E+02  0.50505145279E+02 -0.11022365059E+03  0.12782506523E+03  0.00000000000E+00 0.  1.
         21    1    1    2  505  502 -0.19057019653E+02 -0.15682814095E+03 -0.36227483807E+03  0.39522309408E+03  0.00000000000E+00 0. -1.
          2    1    1    2  501    0  0.80428915792E+02 -0.92900729600E+02 -0.20044722955E+04  0.20082351803E+04  0.00000000000E+00 0. -1.
<scales pt_clust_3="37.49424" pt_clust_4="37.49424" pt_clust_5="195.63130" pt_clust_6="122.87944"></scales>
<clustering>
<clus scale="   37.494">  3  4 -1 -1</clus>
<clus scale="  122.879">  2  6  1 -1</clus>
<clus scale="  195.631">  1  5  2 -1</clus>
<clus scale="  195.631">  1  3  2 -1</clus>
</clustering>
</event>
<event>
 6    0  0.7258365E+002  0.8182368E+02  0.7546771E-02  0.1323954E+00
          2   -1    0    0  505    0 -0.00000000000E+00  0.00000000000E+00  0.30042009550E+04  0.30042009550E+04  0.00000000000E+00 0. -1.
         21   -1    0    0  504  502  0.00000000000E+00 -0.00000000000E+00 -0.32968835958E+02  0.32968835958E+02  0.00000000000E+00 0. -1.
         21    1    1    2  503  502  0.26345142004E+02 -0.76709695280E+02  0.32430618596E+02  0.87350952368E+02  0.00000000000E+00 0. -1.
         21    1    1    2  504  501 -0.49494392279E+02  0.76643141330E+02  0.58294006463E+03  0.59003642678E+03  0.00000000000E+00 0. -1.
         21    1    1    2  505  503  0.49876578526E+02 -0.23240018026E+02  0.41915333743E+03  0.42274967984E+03  0.00000000000E+00 0. -1.
          2    1    1    2  501    0 -0.26727328251E+02  0.23306571976E+02  0.19367080984E+04  0.19370327320E+04  0.00000000000E+00 0. -1.
<scales pt_clust_3="81.82368" pt_clust_4="14000.00000" pt_clust_5="41.76865" pt_clust_6="35.46190"></scales>
<clustering>
<clus scale="   35.462">  1  6  2 -1</clus>
<clus scale="   41.769">  1  5  2 -1</clus>
<clus scale="   81.824">  2  3  1 -1</clus>
<clus scale="   81.824">  2  3  1 -1</clus>
</clustering>
</event>
<event>
 6    0  0.7258365E+002  0.1109206E+03  0.7546771E-02  0.1258875E+00
         21   -1    0    0  503  502  0.00000000000E+00  0.00000000000E+00  0.15761685485E+02  0.15761685485E+02  0.00000000000E+00 0. -1.
          2   -1    0    0  504    0 -0.00000000000E+00 -0.00000000000E+00 -0.28155692606E+04  0.28155692606E+04  0.00000000000E+00 0.  1.
         21    1    1    2  503  505 -0.29670150211E+02  0.79493273024E+01 -0.39933783925E+02  0.50380717707E+02  0.00000000000E+00 0. -1.
         21    1    1    2  504  502  0.36026652832E+02 -0.87039581821E+02 -0.86291804078E+03  0.86804455740E+03  0.00000000000E+00 0.  1.
         21    1    1    2  505  501  0.35268905655E+02  0.12543254694E+03 -0.57904711999E+03  0.59352572540E+03  0.00000000000E+00 0. -1.
          2    1    1    2  501    0 -0.41625408275E+02 -0.46342292425E+02 -0.13179086304E+04  0.13193799456E+04  0.00000000000E+00 0.  1.
<scales pt_clust_3="30.71660" pt_clust_4="110.92056" pt_clust_5="14000.00000" pt_clust_6="63.29201"></scales>
<clustering>
<clus scale="   30.717">  1  3  2 -1</clus>
<clus scale="   63.292">  2  6  1 -1</clus>
<clus scale="  110.921">  2  4  1 -1</clus>
<clus scale="   30.717">  1  3  2 -1</clus>
</clustering>
</event>
<event>
 6    0  0.7258365E+002  0.8165845E+02  0.7546771E-02  0.1324410E+00
         21   -1    0    0  505  502  0.00000000000E+00  0.00000000000E+00  0.11873601951E+04  0.11873601951E+04  0.00000000000E+00 0.  1.
          2   -1    0    0  504    0 -0.00000000000E+00 -0.00000000000E+00 -0.35837398937E+04  0.35837398937E+04  0.00000000000E+00 0.  1.
         21    1    1    2  503  501 -0.73338765968E+02  0.37127391188E+02 -0.13499031986E+03  0.15804874003E+03  0.00000000000E+00 0.  1.
         21    1    1    2  504  502  0.95712271465E+02  0.48605800245E+01 -0.13561984556E+03  0.16606386319E+03  0.00000000000E+00 0. -1.
         21    1    1    2  505  503  0.26742808208E+02 -0.15911988696E+02  0.11601650868E+04  0.11605823529E+04  0.00000000000E+00 0.  1.
          2    1    1    2  501    0 -0.49116313705E+02 -0.26075982516E+02 -0.32859346200E+04  0.32864051327E+04  0.00000000000E+00 0.  1.
<scales pt_clust_3="81.65845" pt_clust_4="14000.00000" pt_clust_5="31.11863" pt_clust_6="55.46869"></scales>
<clustering>
<clus scale="   31.119">  1  5  2 -1</clus>
<clus scale="   55.469">  2  6  1 -1</clus>
<clus scale="   81.658">  1  3  2 -1</clus>
<clus scale="   31.119">  1  3  2 -1</clus>
</clustering>
</event>
<event>
 6    0  0.7258365E+002  0.2017111E+03  0.7546771E-02  0.1148303E+00
         21   -1    0    0  505  502  0.00000000000E+00  0.00000000000E+00  0.11900993102E+03  0.11900993102E+03  0.00000000000E+00 0. -1.
          1   -1    0    0  503    0 -0.00000000000E+00 -0.00000000000E+00 -0.67399207340E+03  0.67399207340E+03  0.00000000000E+00 0. -1.
         21    1    1    2  503  502  0.19172694479E+03  0.10476552593E+03 -0.29321159429E+03  0.36566114889E+03  0.00000000000E+00 0. -1.
         21    1    1    2  504  501 -0.17116569601E+03 -0.74114031627E+02 -0.22530041995E+03  0.29249079371E+03  0.00000000000E+00 0. -1.
         21    1    1    2  505  504 -0.27988651808E+02  0.14505830578E+02  0.36803603553E+02  0.48459147591E+02  0.00000000000E+00 0.  1.
          1    1    1    2  501    0  0.74274030332E+01 -0.45157324885E+02 -0.73273731695E+02  0.86390914239E+02  0.00000000000E+00 0. -1.
<scales pt_clust_3="201.71114" pt_clust_4="14000.00000" pt_clust_5="31.52434" pt_clust_6="44.19819"></scales>
<clustering>
<clus scale="   31.524">  1  5  2 -1</clus>
<clus scale="   44.198">  2  6  1 -1</clus>
<clus scale="  201.711">  2  3  1 -1</clus>
<clus scale="   31.524">  1  3  2 -1</clus>
</clustering>
</event>
<event>
 6    0  0.7258365E+002  0.1212903E+03  0.7546771E-02  0.1240984E+00
         21   -1    0    0  501  502  0.00000000000E+00  0.00000000000E+00  0.12611794064E+04  0.12611794064E+04  0.00000000000E+00 0.  1.
          2   -1    0    0  503    0 -0.00000000000E+00 -0.00000000000E+00 -0.38901376503E+03  0.38901376503E+03  0.00000000000E+00 0.  1.
         21    1    1    2  503  505  0.14988807034E+03 -0.15357175396E+01  0.73252028699E+02  0.16683720138E+03  0.00000000000E+00 0. -1.
         21    1    1    2  504  502 -0.43414996274E+02  0.52873780183E+02  0.99835927324E+03  0.10007006231E+04  0.00000000000E+00 0.  1.
         21    1    1    2  505  504 -0.91780452632E+02 -0.72705806796E+01  0.12480753128E+03  0.15509169124E+03  0.00000000000E+00 0. -1.
          2    1    1    2  501    0 -0.14692621430E+02 -0.44067481963E+02 -0.32425319189E+03  0.32756365571E+03  0.00000000000E+00 0.  1.
<scales pt_clust_3="121.29030" pt_clust_4="67.95925" pt_clust_5="14000.00000" pt_clust_6="46.45230"></scales>
<clustering>
<clus scale="   46.452">  2  6  1 -1</clus>
<clus scale="   67.959">  1  4  2 -1</clus>
<clus scale="  121.290">  2  3  1 -1</clus>
<clus scale="   67.959">  1  3  2 -1</clus>
</clustering>
</event>
<event>
 6    0  0.7258365E+002  0.1013714E+03  0.7546771E-02  0.1277438E+00
         21   -1    0    0  505  502  0.00000000000E+00  0.00000000000E+00  0.80277871946E+02  0.80277871946E+02  0.00000000000E+00 0.  1.
          2   -1    0    0  503    0 -0.00000000000E+00 -0.00000000000E+00 -0.10614547188E+04  0.10614547188E+04  0.00000000000E+00 0.  1.
         21    1    1    2  503  502 -0.62858883005E+02  0.12517053114E+03 -0.27332711255E+03  0.30712637708E+03  0.00000000000E+00 0.  1.
         21    1    1    2  504  501  0.31389625232E+02 -0.40029114835E+02 -0.12335894352E+03  0.13343563075E+03  0.00000000000E+00 0.  1.
         21    1    1    2  505  504  0.30046901413E+02  0.10318626549E+02  0.50162595252E+02  0.59376563565E+02  0.00000000000E+00 0.  1.
          2    1    1    2  501    0  0.14223563601E+01 -0.95460042859E+02 -0.63465338606E+03  0.64179401938E+03  0.00000000000E+00 0.  1.
<scales pt_clust_3="14000.00000" pt_clust_4="53.25813" pt_clust_5="31.76933" pt_clust_6="101.37138"></scales>
<clustering>
<clus scale="   31.769">  1  5  2 -1</clus>
<clus scale="   53.258">  1  4  2 -1</clus>
<clus scale="  101.371">  2  6  1 -1</clus>
<clus scale="   31.769">  1  3  2 -1</clus>
</clustering>
</event>
<event>
 6    0  0.7258365E+002  0.1098244E+03  0.7546771E-02  0.1260895E+00
          2   -1    0    0  503    0 -0.00000000000E+00  0.00000000000E+00  0.56033034149E+03  0.56033034149E+03  0.00000000000E+00 0. -1.
         21   -1    0    0  505  502  0.00000000000E+00 -0.00000000000E+00 -0.20734836477E+03  0.20734836477E+03  0.00000000000E+00 0. -1.
         21    1    1    2  503  502 -0.12279345113E+03  0.73394565365E+02  0.49697610355E+03  0.51715591591E+03  0.00000000000E+00 0. -1.
         21    1    1    2  504  501  0.62196475789E+02 -0.24805792283E+02 -0.43096165723E+02  0.79630449147E+02  0.00000000000E+00 0. -1.
         21    1    1    2  505  504  0.47768209047E+02 -0.19761795844E+02 -0.12229285141E+03  0.13276999615E+03  0.00000000000E+00 0. -1.
          2    1    1    2  501    0  0.12828766290E+02 -0.28826977237E+02  0.21394890307E+02  0.38122345053E+02  0.00000000000E+00 0. -1.
<scales pt_clust_3="109.82443" pt_clust_4="14000.00000" pt_clust_5="51.92088" pt_clust_6="31.55268"></scales>
<clustering>
<clus scale="   31.553">  1  6  2 -1</clus>
<clus scale="   51.921">  2  5  1 -1</clus>
<clus scale="  109.824">  1  3  2 -1</clus>
<clus scale="   51.921">  2  3  1 -1</clus>
</clustering>
</event>
<event>
 6    0  0.7258365E+002  0.1608194E+03  0.7546771E-02  0.1187775E+00
          2   -1    0    0  505    0 -0.00000000000E+00  0.00000000000E+00  0.17274390934E+04  0.17274390934E+04  0.00000000000E+00 0. -1.
         21   -1    0    0  501  502  0.00000000000E+00 -0.00000000000E+00 -0.15801014894E+03  0.15801014894E+03  0.00000000000E+00 0.  1.
         21    1    1    2  503  504 -0.60281203786E+02 -0.19736699926E+03  0.34066160734E+02  0.20916036726E+03  0.00000000000E+00 0.  1.
         21    1    1    2  504  502  0.13870175720E+02  0.35912381449E+02 -0.48757770006E+02  0.62124077875E+02  0.00000000000E+00 0.  1.
         21    1    1    2  505  503 -0.84123829944E+02  0.11315563680E+03  0.45097789319E+03  0.47250616615E+03  0.00000000000E+00 0. -1.
          2    1    1    2  501    0  0.13053485801E+03  0.48298981007E+02  0.11331426605E+04  0.11416586310E+04  0.00000000000E+00 0. -1.
<scales pt_clust_3="160.81938" pt_clust_4="38.49780" pt_clust_5="14000.00000" pt_clust_6="140.24632"></scales>
<clustering>
<clus scale="   38.498">  2  4  1 -1</clus>
<clus scale="  140.246">  1  6  2 -1</clus>
<clus scale="  160.819">  2  3  1 -1</clus>
<clus scale="   38.498">  2  3  1 -1</clus>
</clustering>
</event>
<event>
 6    0  0.7258365E+002  0.8455020E+02  0.7546771E-02  0.1316613E+00
          1   -1    0    0  505    0 -0.00000000000E+00  0.00000000000E+00  0.15320384919E+04  0.15320384919E+04  0.00000000000E+00 0.  1.
         21   -1    0    0  503  502  0.00000000000E+00 -0.00000000000E+00 -0.31898258439E+03  0.31898258439E+03  0.00000000000E+00 0.  1.
         21    1    1    2  503  501 -0.94378029719E+01  0.31838033814E+02 -0.22712593106E+03  0.22954067413E+03  0.00000000000E+00 0.  1.
         21    1    1    2  504  502  0.90959415297E+02 -0.21015133546E+02 -0.47123886222E+02  0.10457490962E+03  0.00000000000E+00 0.  1.
         21    1    1    2  505  504 -0.93933039260E+02  0.39138913354E+02  0.16675879952E+03  0.19535549037E+03  0.00000000000E+00 0.  1.
          1    1    1    2  501    0  0.12411426935E+02 -0.49961813622E+02  0.13205469252E+04  0.13215500021E+04  0.00000000000E+00 0.  1.
<scales pt_clust_3="33.20742" pt_clust_4="84.55020" pt_clust_5="14000.00000" pt_clust_6="51.29681"></scales>
<clustering>
<clus scale="   33.207">  2  3  1 -1</clus>
<clus scale="   51.297">  1  6  2 -1</clus>
<clus scale="   84.550">  2  4  1 -1</clus>
<clus scale="   33.207">  2  3  1 -1</clus>
</clustering>
</event>
<event>
 6    0  0.7258365E+002  0.1044275E+03  0.7546771E-02  0.1271252E+00
         21   -1    0    0  504  502  0.00000000000E+00  0.00000000000E+00  0.19353257081E+03  0.19353257081E+03  0.00000000000E+00 0. -1.
         -2   -1    0    0    0  501 -0.00000000000E+00 -0.00000000000E+00 -0.82530273418E+03  0.82530273418E+03  0.00000000000E+00 0.  1.
         21    1    1    2  503  501 -0.13269812226E+03  0.41285364234E+01 -0.31812149376E+03  0.34471309992E+03  0.00000000000E+00 0.  1.
         21    1    1    2  504  503  0.10261954549E+01  0.40475293908E+02  0.20641799905E+02  0.45446522391E+02  0.00000000000E+00 0. -1.
         21    1    1    2  505  502  0.96831544717E+02 -0.61906785920E+01  0.12959879964E+03  0.16189663808E+03  0.00000000000E+00 0. -1.
         -2    1    1    2    0  505  0.34840382093E+02 -0.38413151740E+02 -0.46388926915E+03  0.46677904461E+03  0.00000000000E+00 0.  1.
<scales pt_clust_3="104.42748" pt_clust_4="40.48830" pt_clust_5="14000.00000" pt_clust_6="51.59655"></scales>
<clustering>
<clus scale="   40.488">  1  4  2 -1</clus>
<clus scale="   51.597">  2  6  1 -1</clus>
<clus scale="  104.427">  2  3  1 -1</clus>
<clus scale="   40.488">  1  3  2 -1</clus>
</clustering>
</event>
<event>
 6    0  0.7258365E+002  0.1816391E+03  0.7546771E-02  0.1166226E+00
          2   -1    0    0  504    0 -0.00000000000E+00  0.00000000000E+00  0.67374195414E+03  0.67374195414E+03  0.00000000000E+00 0. -1.
         21   -1    0    0  505  502  0.00000000000E+00 -0.00000000000E+00 -0.39365616825E+03  0.39365616825E+03  0.00000000000E+00 0. -1.
         21    1    1    2  503  502  0.31294945043E+02  0.23848503083E+02 -0.46805722280E+02  0.61146547921E+02  0.00000000000E+00 0.  1.
         21    1    1    2  504  503  0.77094342078E+02 -0.19857972926E+03  0.25835984589E+03  0.33485408228E+03  0.00000000000E+00 0.  1.
         21    1    1    2  505  501 -0.16379405648E+03  0.97167274439E+02 -0.26397162220E+03  0.32550113593E+03  0.00000000000E+00 0. -1.
          2    1    1    2  501    0  0.55404769363E+02  0.77563951740E+02  0.33250328449E+03  0.34589635626E+03  0.00000000000E+00 0. -1.
<scales pt_clust_3="39.34622" pt_clust_4="14000.00000" pt_clust_5="181.63914" pt_clust_6="96.06121"></scales>
<clustering>
<clus scale="   39.346">  2  3  1 -1</clus>
<clus scale="   96.061">  1  6  2 -1</clus>
<clus scale="  181.639">  2  5  1 -1</clus>
<clus scale="   39.346">  2  3  1 -1</clus>
</clustering>
</event>
<event>
 6    0  0.7258365E+002  0.1294815E+03  0.7546771E-02  0.1228227E+00
         21   -1    0    0  505  502  0.00000000000E+00  0.00000000000E+00  0.12764666550E+04  0.12764666550E+04  0.00000000000E+00 0. -1.
          2   -1    0    0  502    0 -0.00000000000E+00 -0.00000000000E+00 -0.64160936616E+03  0.64160936616E+03  0.00000000000E+00 0.  1.
         21    1    1    2  503  504 -0.55176694115E+02 -0.17444850921E+02  0.13025432213E+03  0.14253062419E+03  0.00000000000E+00 0. -1.
         21    1    1    2  504  501 -0.35316860152E+01  0.10035477995E+03  0.32800403386E+02  0.10563816132E+03  0.00000000000E+00 0. -1.
         21    1    1    2  505  503 -0.47471977218E+02  0.26852382016E+01  0.10625537500E+04  0.10636170696E+04  0.00000000000E+00 0. -1.
          2    1    1    2  501    0  0.10618035735E+03 -0.85595167227E+02 -0.59075118665E+03  0.60629016607E+03  0.00000000000E+00 0.  1.
<scales pt_clust_3="86.95492" pt_clust_4="14000.00000" pt_clust_5="47.54786" pt_clust_6="129.48154"></scales>
<clustering>
<clus scale="   47.548">  1  5  2 -1</clus>
<clus scale="   86.955">  1  3  2 -1</clus>
<clus scale="  129.482">  2  6  1 -1</clus>
<clus scale="   47.548">  1  3  2 -1</clus>
</clustering>
</event>
<event>
 6    0  0.7258365E+002  0.1335684E+03  0.7546771E-02  0.1222255E+00
         21   -1    0    0  505  502  0.00000000000E+00  0.00000000000E+00  0.45183369381E+03  0.45183369381E+03  0.00000000000E+00 0. -1.
          2   -1    0    0  504    0 -0.00000000000E+00 -0.00000000000E+00 -0.23397419841E+03  0.23397419841E+03  0.00000000000E+00 0.  1.
         21    1    1    2  503  501  0.12183445150E+03 -0.15457992006E+02  0.18736136387E+03  0.22402424815E+03  0.00000000000E+00 0. -1.
         21    1    1    2  504  502 -0.11059508318E+03  0.34053167621E+02 -0.36888509421E+01  0.11577779696E+03  0.00000000000E+00 0.  1.
         21    1    1    2  505  503  0.25914332433E+02 -0.25926346612E+02  0.18598101758E+03  0.18955913846E+03  0.00000000000E+00 0. -1.
          2    1    1    2  501    0 -0.37153700750E+02  0.73311709965E+01 -0.15179403511E+03  0.15644670864E+03  0.00000000000E+00 0.  1.
<scales pt_clust_3="14000.00000" pt_clust_4="133.56841" pt_clust_5="36.65690" pt_clust_6="37.60232"></scales>
<clustering>
<clus scale="   36.657">  1  5  2 -1</clus>
<clus scale="   37.602">  2  6  1 -1</clus>
<clus scale="  133.568">  2  4  1 -1</clus>
<clus scale="   36.657">  1  3  2 -1</clus>
</clustering>
</event>
<event>
 6    0  0.7258365E+002  0.1821544E+03  0.7546771E-02  0.1165734E+00
         -4   -1    0    0    0  501 -0.00000000000E+00  0.00000000000E+00  0.73701683646E+03  0.73701683646E+03  0.00000000000E+00 0.  1.
         21   -1    0    0  501  502  0.00000000000E+00 -0.00000000000E+00 -0.56465943925E+03  0.56465943925E+03  0.00000000000E+00 0.  1.
         21    1    1    2  503  502  0.28960853340E+02  0.28948773044E+02 -0.23029316310E+03  0.23390533012E+03  0.00000000000E+00 0.  1.
         21    1    1    2  504  503  0.12623335951E+03  0.12299073993E+03 -0.19053964077E+03  0.25955141661E+03  0.00000000000E+00 0.  1.
         21    1    1    2  505  504 -0.12502660569E+03 -0.11346077744E+03 -0.39703600112E+02  0.17343983398E+03  0.00000000000E+00 0.  1.
         -4    1    1    2    0  505 -0.30167607157E+02 -0.38478735529E+02  0.63289380119E+03  0.63477969500E+03  0.00000000000E+00 0.  1.
<scales pt_clust_3="40.94829" pt_clust_4="182.15445" pt_clust_5="14000.00000" pt_clust_6="48.77950"></scales>
<clustering>
<clus scale="   40.948">  2  3  1 -1</clus>
<clus scale="   48.780">  1  6  2 -1</clus>
<clus scale="  182.154">  2  4  1 -1</clus>
<clus scale="   40.948">  2  3  1 -1</clus>
</clustering>
</event>
<event>
 6    0  0.7258365E+002  0.8215508E+02  0.7546771E-02  0.1323045E+00
          1   -1    0    0  504    0 -0.00000000000E+00  0.00000000000E+00  0.40193454694E+03  0.40193454694E+03  0.00000000000E+00 0.  1.
         21   -1    0    0  505  502  0.00000000000E+00 -0.00000000000E+00 -0.36752992983E+03  0.36752992983E+03  0.00000000000E+00 0. -1.
         21    1    1    2  503  502  0.22562579416E+02  0.96963573042E+02 -0.61773585047E+02  0.11716219653E+03  0.00000000000E+00 0. -1.
         21    1    1    2  504  503  0.35559644896E+02 -0.44899873467E+00  0.21018117389E+02  0.41309214512E+02  0.00000000000E+00 0. -1.
         21    1    1    2  505  501 -0.59136694902E+02 -0.55690175614E+02 -0.26049310186E+03  0.27286480253E+03  0.00000000000E+00 0. -1.
          1    1    1    2  501    0  0.10144705896E+01 -0.40824398694E+02  0.33565318663E+03  0.33812826320E+03  0.00000000000E+00 0.  1.
<scales pt_clust_3="14000.00000" pt_clust_4="35.56248" pt_clust_5="82.15508" pt_clust_6="53.01554"></scales>
<clustering>
<clus scale="   35.562">  1  4  2 -1</clus>
<clus scale="   53.016">  1  6  2 -1</clus>
<clus scale="   82.155">  2  5  1 -1</clus>
<clus scale="   82.155">  2  3  1 -1</clus>
</clustering>
</event>
<event>
 6    0  0.7258365E+002  0.1195586E+03  0.7546771E-02  0.1243827E+00
          1   -1    0    0  504    0 -0.00000000000E+00  0.00000000000E+00  0.76217378929E+03  0.76217378929E+03  0.00000000000E+00 0.  1.
         21   -1    0    0  503  502  0.00000000000E+00 -0.00000000000E+00 -0.16650019755E+03  0.16650019755E+03  0.00000000000E+00 0. -1.
         21    1    1    2  503  505  0.21971530430E+01  0.10342618674E+03 -0.12320977085E+02  0.10418066069E+03  0.00000000000E+00 0. -1.
         21    1    1    2  504  502  0.10866766138E+02  0.31777134360E+02 -0.95935681413E+02  0.10164412350E+03  0.00000000000E+00 0. -1.
         21    1    1    2  505  501 -0.11194709814E+02 -0.89651550030E+02  0.23599252009E+03  0.25269584779E+03  0.00000000000E+00 0. -1.
          1    1    1    2  501    0 -0.18692093669E+01 -0.45551771070E+02  0.46793773015E+03  0.47015335487E+03  0.00000000000E+00 0.  1.
<scales pt_clust_3="14000.00000" pt_clust_4="33.58382" pt_clust_5="119.55857" pt_clust_6="45.06362"></scales>
<clustering>
<clus scale="   33.584">  2  4  1 -1</clus>
<clus scale="   45.064">  1  6  2 -1</clus>
<clus scale="  119.559">  1  5  2 -1</clus>
<clus scale="   33.584">  2  3  1 -1</clus>
</clustering>
</event>
<event>
 6    0  0.7258365E+002  0.1855697E+03  0.7546771E-02  0.1162519E+00
          1   -1    0    0  503    0 -0.00000000000E+00  0.00000000000E+00  0.25116059116E+04  0.25116059116E+04  0.00000000000E+00 0. -1.
         21   -1    0    0  504  502  0.00000000000E+00 -0.00000000000E+00 -0.23158488713E+03  0.23158488713E+03  0.00000000000E+00 0.  1.
         21    1    1    2  503  502  0.17797726925E+03  0.57016244302E+02 -0.16679316622E+03  0.25049295555E+03  0.00000000000E+00 0.  1.
         21    1    1    2  504  505 -0.17652923623E+03 -0.38749102822E+01  0.48480053470E+03  0.51595459550E+03  0.00000000000E+00 0.  1.
         21    1    1    2  505  501  0.42608001846E+02 -0.40255982598E+02  0.11425136287E+03  0.12841090247E+03  0.00000000000E+00 0. -1.
          1    1    1    2  501    0 -0.44056034867E+02 -0.12885351422E+02  0.18477622931E+04  0.18483323452E+04  0.00000000000E+00 0. -1.
<scales pt_clust_3="14000.00000" pt_clust_4="185.56968" pt_clust_5="54.86033" pt_clust_6="45.90170"></scales>
<clustering>
<clus scale="   45.902">  1  6  2 -1</clus>
<clus scale="   54.860">  1  5  2 -1</clus>
<clus scale="  185.570">  1  4  2 -1</clus>
<clus scale="  185.570">  2  3  1 -1</clus>
</clustering>
</event>
<event>
 6    0  0.7258365E+002  0.8441052E+02  0.7546771E-02  0.1316981E+00
          1   -1    0    0  505    0 -0.00000000000E+00  0.00000000000E+00  0.36165594023E+04  0.36165594023E+04  0.00000000000E+00 0.  1.
         21   -1    0    0  504  502  0.00000000000E+00 -0.00000000000E+00 -0.79521627146E+01  0.79521627146E+01  0.00000000000E+00 0.  1.
         21    1    1    2  503  502 -0.43187369567E+02 -0.32752455328E+02  0.30775192197E+03  0.31248858810E+03  0.00000000000E+00 0.  1.
         21    1    1    2  504  501 -0.11924279241E+02 -0.65173469046E+02  0.81731031756E+03  0.81999141745E+03  0.00000000000E+00 0.  1.
         21    1    1    2  505  503  0.17832307210E+02  0.11544879469E+03  0.85250609255E+03  0.86047257551E+03  0.00000000000E+00 0.  1.
          1    1    1    2  501    0  0.37279341598E+02 -0.17522870315E+02  0.16310389075E+04  0.16315589840E+04  0.00000000000E+00 0.  1.
<scales pt_clust_3="51.53235" pt_clust_4="14000.00000" pt_clust_5="84.41052" pt_clust_6="41.19224"></scales>
<clustering>
<clus scale="   41.192">  1  6  2 -1</clus>
<clus scale="   51.532">  2  3  1 -1</clus>
<clus scale="   84.411">  2  5  1 -1</clus>
<clus scale="   51.532">  2  3  1 -1</clus>
</clustering>
</event>
<event>
 6    0  0.7258365E+002  0.7533552E+02  0.7546771E-02  0.1342835E+00
         21   -1    0    0  503  502  0.00000000000E+00  0.00000000000E+00  0.24098938307E+03  0.24098938307E+03  0.00000000000E+00 0. -1.
          1   -1    0    0  505    0 -0.00000000000E+00 -0.00000000000E+00 -0.55051071857E+03  0.55051071857E+03  0.00000000000E+00 0. -1.
         21    1    1    2  503  501 -0.14060205854E+02 -0.65526978134E+02  0.18294289600E+03  0.19483217765E+03  0.00000000000E+00 0. -1.
         21    1    1    2  504  502  0.89840952562E+02  0.18663615122E+02 -0.37344159727E+01  0.91835032255E+02  0.00000000000E+00 0. -1.
         21    1    1    2  505  504 -0.42213480955E+02  0.43837609312E+02 -0.11984700742E+03  0.13441361222E+03  0.00000000000E+00 0. -1.
          1    1    1    2  501    0 -0.33567265753E+02  0.30257536989E+01 -0.36888280811E+03  0.37041927951E+03  0.00000000000E+00 0. -1.
<scales pt_clust_3="67.16170" pt_clust_4="75.33552" pt_clust_5="14000.00000" pt_clust_6="33.70336"></scales>
<clustering>
<clus scale="   33.703">  2  6  1 -1</clus>
<clus scale="   67.162">  1  3  2 -1</clus>
<clus scale="   75.336">  1  4  2 -1</clus>
<clus scale="   67.162">  1  3  2 -1</clus>
</clustering>
</event>
<event>
 6    0  0.7258365E+002  0.8895435E+02  0.7546771E-02  0.1305404E+00
         21   -1    0    0  501  502  0.00000000000E+00  0.00000000000E+00  0.52762086989E+02  0.52762086989E+02  0.00000000000E+00 0. -1.
          1   -1    0    0  505    0 -0.00000000000E+00 -0.00000000000E+00 -0.78697486169E+03  0.78697486169E+03  0.00000000000E+00 0.  1.
         21    1    1    2  503  504  0.23489329992E+02 -0.57124452304E+02 -0.27552700589E+03  0.28236515835E+03  0.00000000000E+00 0. -1.
         21    1    1    2  504  502  0.65954545419E+02  0.70071016101E+02 -0.13241344664E+02  0.97135382675E+02  0.00000000000E+00 0. -1.
         21    1    1    2  505  503 -0.22201311988E+02 -0.26726004411E+02 -0.65530212243E+02  0.74171330596E+02  0.00000000000E+00 0.  1.
          1    1    1    2  501    0 -0.67242563422E+02  0.13779440615E+02 -0.37991421191E+03  0.38606507706E+03  0.00000000000E+00 0.  1.
<scales pt_clust_3="69.13478" pt_clust_4="88.95435" pt_clust_5="34.74446" pt_clust_6="14000.00000"></scales>
<clustering>
<clus scale="   34.744">  2  5  1 -1</clus>
<clus scale="   69.135">  2  3  1 -1</clus>
<clus scale="   88.954">  1  4  2 -1</clus>
<clus scale="   88.954">  1  3  2 -1</clus>
</clustering>
</event>
<event>
 6    0  0.7258365E+002  0.8264874E+02  0.7546771E-02  0.1321698E+00
         21   -1    0    0  501  502  0.00000000000E+00  0.00000000000E+00  0.22254943380E+03  0.22254943380E+03  0.00000000000E+00 0. -1.
          2   -1    0    0  504    0 -0.00000000000E+00 -0.00000000000E+00 -0.13208524219E+03  0.13208524219E+03  0.00000000000E+00 0. -1.
         21    1    1    2  503  505 -0.12908368139E+02 -0.10629811999E+03 -0.26803756079E+02  0.11038277774E+03  0.00000000000E+00 0. -1.
         21    1    1    2  504  503  0.42504785297E+02  0.52341530774E+02  0.54001280408E+01  0.67642102272E+02  0.00000000000E+00 0. -1.
         21    1    1    2  505  502  0.24870095548E+02  0.30335587152E+02  0.11046723179E+03  0.11722533344E+03  0.00000000000E+00 0. -1.
          2    1    1    2  501    0 -0.54466512706E+02  0.23621002061E+02  0.14005878600E+01  0.59384462539E+02  0.00000000000E+00 0. -1.
<scales pt_clust_3="82.64874" pt_clust_4="14000.00000" pt_clust_5="39.22715" pt_clust_6="57.34165"></scales>
<clustering>
<clus scale="   39.227">  1  5  2 -1</clus>
<clus scale="   57.342">  1  6  2 -1</clus>
<clus scale="   82.649">  1  3  2 -1</clus>
<clus scale="   39.227">  1  3  2 -1</clus>
</clustering>
</event>
<event>
 6    0  0.7258365E+002  0.1083159E+03  0.7546771E-02  0.1263721E+00
         21   -1    0    0  505  502  0.00000000000E+00  0.00000000000E+00  0.36516837040E+02  0.36516837040E+02  0.00000000000E+00 0. -1.
          1   -1    0    0  504    0 -0.00000000000E+00 -0.00000000000E+00 -0.17560635466E+04  0.17560635466E+04  0.00000000000E+00 0.  1.
         21    1    1    2  503  501  0.89646236302E+02 -0.19982526563E+02 -0.38619049862E+03  0.39696202624E+03  0.00000000000E+00 0.  1.
         21    1    1    2  504  502 -0.33994562983E+02 -0.79002918946E+01 -0.43258613186E+01  0.35167570297E+02  0.00000000000E+00 0. -1.
         21    1    1    2  505  503 -0.10203133852E+03  0.32032145077E+02 -0.17234233630E+03  0.20282586926E+03  0.00000000000E+00 0. -1.
          1    1    1    2  501    0  0.46379665204E+02 -0.41493266195E+01 -0.11566880133E+04  0.11576249179E+04  0.00000000000E+00 0.  1.
<scales pt_clust_3="108.31589" pt_clust_4="34.90050" pt_clust_5="14000.00000" pt_clust_6="45.82930"></scales>
<clustering>
<clus scale="   34.901">  1  4  2 -1</clus>
<clus scale="   45.829">  2  6  1 -1</clus>
<clus scale="  108.316">  2  3  1 -1</clus>
<clus scale="   34.901">  1  3  2 -1</clus>
</clustering>
</event>
<event>
 6    0  0.7258365E+002  0.7069867E+02  0.7546771E-02  0.1357733E+00
         21   -1    0    0  504  502  0.00000000000E+00  0.00000000000E+00  0.10922682999E+04  0.10922682999E+04  0.00000000000E+00 0.  1.
          2   -1    0    0  503    0 -0.00000000000E+00 -0.00000000000E+00 -0.94579140054E+03  0.94579140054E+03  0.00000000000E+00 0.  1.
         21    1    1    2  503  505  0.14756258842E+03  0.73776290653E+02  0.88471480450E+02  0.18720272812E+03  0.00000000000E+00 0. -1.
         21    1    1    2  504  501 -0.61761638374E+02  0.15327500392E+02  0.32203235045E+02  0.71319566672E+02  0.00000000000E+00 0. -1.
         21    1    1    2  505  502 -0.26960709343E+02 -0.51634879383E+02  0.90033978110E+03  0.90222212457E+03  0.00000000000E+00 0.  1.
          2    1    1    2  501    0 -0.58840240698E+02 -0.37468911662E+02 -0.87453759729E+03  0.87731528103E+03  0.00000000000E+00 0.  1.
<scales pt_clust_3="70.69867" pt_clust_4="69.08140" pt_clust_5="58.24981" pt_clust_6="14000.00000"></scales>
<clustering>
<clus scale="   58.250">  1  5  2 -1</clus>
<clus scale="   69.081">  1  4  2 -1</clus>
<clus scale="   70.699">  1  3  2 -1</clus>
<clus scale="   58.250">  1  3  2 -1</clus>
</clustering>
</event>
<event>
 6    0  0.7258365E+002  0.1140727E+03  0.7546771E-02  0.1253208E+00
         21   -1    0    0  505  502  0.00000000000E+00  0.00000000000E+00  0.15460117895E+04  0.15460117895E+04  0.00000000000E+00 0. -1.
         -2   -1    0    0    0  501 -0.00000000000E+00 -0.00000000000E+00 -0.16309816358E+04  0.16309816358E+04  0.00000000000E+00 0. -1.
         21    1    1    2  503  501 -0.53272026230E+02  0.16143801256E+03  0.23098983660E+03  0.28680384462E+03  0.00000000000E+00 0. -1.
         21    1    1    2  504  502  0.78991776155E+02 -0.67756741260E+02  0.85808370303E+03  0.86437163193E+03  0.00000000000E+00 0. -1.
         21    1    1    2  505  503 -0.63444005670E+02  0.13510702778E+02  0.42138463957E+03  0.42634809183E+03  0.00000000000E+00 0. -1.
         -2    1    1    2    0  504  0.37724255745E+02 -0.10719197407E+03 -0.15954280255E+04  0.15994698570E+04  0.00000000000E+00 0. -1.
<scales pt_clust_3="14000.00000" pt_clust_4="64.89522" pt_clust_5="64.86664" pt_clust_6="114.07274"></scales>
<clustering>
<clus scale="   64.867">  1  5  2 -1</clus>
<clus scale="   64.895">  1  4  2 -1</clus>
<clus scale="  114.073">  2  6  1 -1</clus>
<clus scale="   64.867">  1  3  2 -1</clus>
</clustering>
</event>
<event>
 6    0  0.7258365E+002  0.8924605E+02  0.7546771E-02  0.1304688E+00
         21   -1    0    0  503  502  0.00000000000E+00  0.00000000000E+00  0.42977113574E+02  0.42977113574E+02  0.00000000000E+00 0. -1.
          2   -1    0    0  502    0 -0.00000000000E+00 -0.00000000000E+00 -0.14459342859E+04  0.14459342859E+04  0.00000000000E+00 0.  1.
         21    1    1    2  503  505  0.39506330220E+02  0.36423639495E+02 -0.22415370830E+02  0.58222680211E+02  0.00000000000E+00 0. -1.
         21    1    1    2  504  501  0.61104553449E+01 -0.72468534295E+02 -0.34369111138E+03  0.35130130397E+03  0.00000000000E+00 0. -1.
         21    1    1    2  505  504 -0.93889375594E+02  0.53675694839E+02 -0.12176136023E+03  0.16285614483E+03  0.00000000000E+00 0. -1.
          2    1    1    2  501    0  0.48272590029E+02 -0.17630800039E+02 -0.91508932994E+03  0.91653127051E+03  0.00000000000E+00 0.  1.
<scales pt_clust_3="55.63375" pt_clust_4="14000.00000" pt_clust_5="89.24605" pt_clust_6="51.39152"></scales>
<clustering>
<clus scale="   51.392">  2  6  1 -1</clus>
<clus scale="   55.634">  1  3  2 -1</clus>
<clus scale="   89.246">  1  5  2 -1</clus>
<clus scale="   55.634">  1  3  2 -1</clus>
</clustering>
</event>
<event>
 6    0  0.7258365E+002  0.1343453E+03  0.7546771E-02  0.1221147E+00
          3   -1    0    0  504    0 -0.00000000000E+00  0.00000000000E+00  0.12904363025E+03  0.12904363025E+03  0.00000000000E+00 0. -1.
         21   -1    0    0  503  502  0.00000000000E+00 -0.00000000000E+00 -0.24929675686E+03  0.24929675686E+03  0.00000000000E+00 0. -1.
         21    1    1    2  503  501 -0.10573251903E+03  0.62838742395E+01 -0.25338424489E+01  0.10594938892E+03  0.00000000000E+00 0. -1.
         21    1    1    2  504  505  0.10690428147E+03 -0.64598101235E+00 -0.30969296685E+02  0.11130157243E+03  0.00000000000E+00 0. -1.
         21    1    1    2  505  502  0.24503050894E+02 -0.27173159450E+02 -0.11283746295E+03  0.11862155429E+03  0.00000000000E+00 0. -1.
          3    1    1    2  501    0 -0.25674813335E+02  0.21535266223E+02  0.26087475467E+02  0.42467871471E+02  0.00000000000E+00 0. -1.
<scales pt_clust_3="32.94748" pt_clust_4="120.90306" pt_clust_5="36.58934" pt_clust_6="32.94748"></scales>
<clustering>
<clus scale="   32.947">  3  6 -1 -1</clus>
<clus scale="   36.589">  2  5  1 -1</clus>
<clus scale="  120.903">  2  4  1 -1</clus>
<clus scale="   36.589">  2  3  1 -1</clus>
</clustering>
</event>
<event>
 6    0  0.7258365E+002  0.1557325E+03  0.7546771E-02  0.1193601E+00
          1   -1    0    0  505    0 -0.00000000000E+00  0.00000000000E+00  0.56661121655E+03  0.56661121655E+03  0.00000000000E+00 0.  1.
         21   -1    0    0  503  502  0.00000000000E+00 -0.00000000000E+00 -0.75447665627E+03  0.75447665627E+03  0.00000000000E+00 0.  1.
         21    1    1    2  503  504  0.69071914089E+02 -0.70565823089E+02 -0.60835527465E+03  0.61631696788E+03  0.00000000000E+00 0.  1.
         21    1    1    2  504  501 -0.14187292348E+03 -0.46146405295E+02  0.13944494993E+03  0.20421143749E+03  0.00000000000E+00 0.  1.
         21    1    1    2  505  502 -0.65370087804E+02  0.35132628588E+02 -0.77772384592E+02  0.10749927338E+03  0.00000000000E+00 0. -1.
          1    1    1    2  501    0  0.13817109720E+03  0.81579599796E+02  0.35881726960E+03  0.39306019407E+03  0.00000000000E+00 0.  1.
<scales pt_clust_3="39.01867" pt_clust_4="155.73254" pt_clust_5="74.21287" pt_clust_6="14000.00000"></scales>
<clustering>
<clus scale="   74.213">  2  5  1 -1</clus>
<clus scale="   39.019">  2  3  1 -1</clus>
<clus scale="  155.733">  2  4  1 -1</clus>
<clus scale="   74.213">  2  3  1 -1</clus>
</clustering>
</event>
<event>
 6    0  0.7258365E+002  0.6787899E+02  0.7546771E-02  0.1367458E+00
         21   -1    0    0  501  502  0.00000000000E+00  0.00000000000E+00  0.20939700184E+03  0.20939700184E+03  0.00000000000E+00 0.  1.
          2   -1    0    0  504    0 -0.00000000000E+00 -0.00000000000E+00 -0.10760972272E+04  0.10760972272E+04  0.00000000000E+00 0.  1.
         21    1    1    2  503  502 -0.29778511460E+02 -0.24577014888E+02  0.12737073478E+03  0.13309430297E+03  0.00000000000E+00 0.  1.
         21    1    1    2  504  505  0.81292786958E+02 -0.32468317755E+02 -0.54658331248E+03  0.55354857632E+03  0.00000000000E+00 0.  1.
         21    1    1    2  505  503  0.82631494898E+01  0.81190537752E+02  0.50984890348E+02  0.96227034162E+02  0.00000000000E+00 0.  1.
          2    1    1    2  501    0 -0.59777424988E+02 -0.24145205109E+02 -0.49847253798E+03  0.50262431556E+03  0.00000000000E+00 0.  1.
<scales pt_clust_3="38.61074" pt_clust_4="67.87899" pt_clust_5="61.48798" pt_clust_6="14000.00000"></scales>
<clustering>
<clus scale="   38.611">  1  3  2 -1</clus>
<clus scale="   61.488">  1  5  2 -1</clus>
<clus scale="   67.879">  1  4  2 -1</clus>
<clus scale="   38.611">  1  3  2 -1</clus>
</clustering>
</event>
<event>
 6    0  0.7258365E+002  0.1564930E+03  0.7546771E-02  0.1192714E+00
          2   -1    0    0  504    0 -0.00000000000E+00  0.00000000000E+00  0.62227502628E+03  0.62227502628E+03  0.00000000000E+00 0. -1.
         21   -1    0    0  503  502  0.00000000000E+00 -0.00000000000E+00 -0.25496749419E+03  0.25496749419E+03  0.00000000000E+00 0.  1.
         21    1    1    2  503  501  0.71136823144E+02 -0.53607763018E+02  0.26867469493E+03  0.28305535070E+03  0.00000000000E+00 0.  1.
         21    1    1    2  504  505 -0.12841202888E+03  0.11555279366E+02 -0.11105370993E+03  0.17016492039E+03  0.00000000000E+00 0.  1.
         21    1    1    2  505  502 -0.73693787171E+01  0.57542347915E+02 -0.95467600305E+02  0.11171164780E+03  0.00000000000E+00 0.  1.
          2    1    1    2  501    0  0.64644584453E+02 -0.15489864263E+02  0.30515414739E+03  0.31231060159E+03  0.00000000000E+00 0. -1.
<scales pt_clust_3="38.34288" pt_clust_4="150.06683" pt_clust_5="58.01232" pt_clust_6="38.34288"></scales>
<clustering>
<clus scale="   38.343">  3  6 -1 -1</clus>
<clus scale="   58.012">  2  5  1 -1</clus>
<clus scale="  150.067">  2  4  1 -1</clus>
<clus scale="   58.012">  2  3  1 -1</clus>
</clustering>
</event>
<event>
 6    0  0.7258365E+002  0.9606078E+02  0.7546771E-02  0.1288805E+00
         -4   -1    0    0    0  501 -0.00000000000E+00  0.00000000000E+00  0.30968288092E+03  0.30968288092E+03  0.00000000000E+00 0. -1.
         21   -1    0    0  504  502  0.00000000000E+00 -0.00000000000E+00 -0.28321940451E+03  0.28321940451E+03  0.00000000000E+00 0. -1.
         21    1    1    2  503  502 -0.38706515279E+02 -0.95309211590E+02 -0.22385556084E+02  0.10527655608E+03  0.00000000000E+00 0. -1.
         21    1    1    2  504  505  0.56991469217E+02 -0.72759896623E+02 -0.16039204412E+03  0.18511520180E+03  0.00000000000E+00 0. -1.
         21    1    1    2  505  501 -0.75055303677E+02  0.11650985362E+03  0.10912467098E+03  0.17639738778E+03  0.00000000000E+00 0. -1.
         -4    1    1    2    0  503  0.56770349739E+02  0.51559254595E+02  0.10011640564E+03  0.12611313977E+03  0.00000000000E+00 0. -1.
<scales pt_clust_3="88.57008" pt_clust_4="96.06078" pt_clust_5="14000.00000" pt_clust_6="76.68917"></scales>
<clustering>
<clus scale="   76.689">  1  6  2 -1</clus>
<clus scale="   88.570">  1  3  2 -1</clus>
<clus scale="   96.061">  2  4  1 -1</clus>
<clus scale="   96.061">  2  3  1 -1</clus>
</clustering>
</event>
<event>
 6    0  0.7258365E+002  0.8358109E+02  0.7546771E-02  0.1319185E+00
         21   -1    0    0  503  502  0.00000000000E+00  0.00000000000E+00  0.32320282693E+03  0.32320282693E+03  0.00000000000E+00 0.  1.
          2   -1    0    0  505    0 -0.00000000000E+00 -0.00000000000E+00 -0.10043398960E+04  0.10043398960E+04  0.00000000000E+00 0.  1.
         21    1    1    2  503  504  0.38952827052E+02 -0.53211721937E+02  0.26666386136E+03  0.27469696948E+03  0.00000000000E+00 0.  1.
         21    1    1    2  504  501 -0.60633240981E+02  0.75605087935E+02 -0.92835363307E+02  0.13420478350E+03  0.00000000000E+00 0. -1.
         21    1    1    2  505  502  0.40908108450E+02 -0.10187905068E+03 -0.71715393498E+02  0.13113318409E+03  0.00000000000E+00 0. -1.
          2    1    1    2  501    0 -0.19227694521E+02  0.79485684685E+02 -0.78325017365E+03  0.78750778589E+03  0.00000000000E+00 0.  1.
<scales pt_clust_3="65.94551" pt_clust_4="70.97832" pt_clust_5="14000.00000" pt_clust_6="83.58109"></scales>
<clustering>
<clus scale="   65.946">  1  3  2 -1</clus>
<clus scale="   70.978">  1  4  2 -1</clus>
<clus scale="   83.581">  2  6  1 -1</clus>
<clus scale="   65.946">  1  3  2 -1</clus>
</clustering>
</event>
<event>
 6    0  0.7258365E+002  0.1332166E+03  0.7546771E-02  0.1222759E+00
         21   -1    0    0  505  502  0.00000000000E+00  0.00000000000E+00  0.35740509732E+03  0.35740509732E+03  0.00000000000E+00 0. -1.
         -1   -1    0    0    0  501 -0.00000000000E+00 -0.00000000000E+00 -0.30629440668E+03  0.30629440668E+03  0.00000000000E+00 0. -1.
         21    1    1    2  503  504  0.19939198168E+02 -0.15526037096E+03  0.19675345067E+02  0.15776715000E+03  0.00000000000E+00 0. -1.
         21    1    1    2  504  502  0.34547655404E+02  0.75453461064E+02  0.31559342293E+02  0.88784893796E+02  0.00000000000E+00 0. -1.
         21    1    1    2  505  501 -0.13550429316E+03  0.40328391156E+02  0.17212605509E+03  0.22274463279E+03  0.00000000000E+00 0. -1.
         -1    1    1    2    0  503  0.81017439584E+02  0.39478518744E+02 -0.17225005181E+03  0.19440282742E+03  0.00000000000E+00 0. -1.
<scales pt_clust_3="133.21657" pt_clust_4="82.98654" pt_clust_5="14000.00000" pt_clust_6="92.53409"></scales>
<clustering>
<clus scale="   82.987">  1  4  2 -1</clus>
<clus scale="   92.534">  2  6  1 -1</clus>
<clus scale="  133.217">  2  3  1 -1</clus>
<clus scale="   82.987">  1  3  2 -1</clus>
</clustering>
</event>
<event>
 6    0  0.7258365E+002  0.8410135E+02  0.7546771E-02  0.1317799E+00
          1   -1    0    0  503    0 -0.00000000000E+00  0.00000000000E+00  0.21433070106E+04  0.21433070106E+04  0.00000000000E+00 0. -1.
         21   -1    0    0  505  502  0.00000000000E+00 -0.00000000000E+00 -0.14344837023E+03  0.14344837023E+03  0.00000000000E+00 0.  1.
         21    1    1    2  503  502 -0.93757718923E+02  0.47749491018E+01  0.10381282176E+03  0.13996575281E+03  0.00000000000E+00 0. -1.
         21    1    1    2  504  501  0.84189967208E+02  0.86746086034E+02  0.25710535333E+02  0.12358748176E+03  0.00000000000E+00 0. -1.
         21    1    1    2  505  504 -0.41079891489E+02 -0.27741698963E+02 -0.67450180672E+02  0.83705950916E+02  0.00000000000E+00 0.  1.
          1    1    1    2  501    0  0.50647643204E+02 -0.63779336173E+02  0.19377854639E+04  0.19394961953E+04  0.00000000000E+00 0. -1.
<scales pt_clust_3="14000.00000" pt_clust_4="84.10135" pt_clust_5="49.56974" pt_clust_6="81.39737"></scales>
<clustering>
<clus scale="   49.570">  2  5  1 -1</clus>
<clus scale="   81.397">  1  6  2 -1</clus>
<clus scale="   84.101">  2  4  1 -1</clus>
<clus scale="   49.570">  2  3  1 -1</clus>
</clustering>
</event>
<event>
 6    0  0.7258365E+002  0.7489882E+02  0.7546771E-02  0.1344185E+00
          1   -1    0    0  504    0 -0.00000000000E+00  0.00000000000E+00  0.11808975513E+04  0.11808975513E+04  0.00000000000E+00 0.  1.
         21   -1    0    0  505  502  0.00000000000E+00 -0.00000000000E+00 -0.96401657325E+02  0.96401657325E+02  0.00000000000E+00 0. -1.
         21    1    1    2  503  501  0.95935529776E+01  0.38903673776E+02 -0.46328224685E+02  0.61252236649E+02  0.00000000000E+00 0. -1.
         21    1    1    2  504  502 -0.11260353577E+03 -0.51151665803E+02  0.23013366992E+03  0.26126146906E+03  0.00000000000E+00 0.  1.
         21    1    1    2  505  503  0.31799499641E+02  0.23222103269E+02 -0.10499073202E+02  0.40751745923E+02  0.00000000000E+00 0. -1.
          1    1    1    2  501    0  0.71210483156E+02 -0.10974111241E+02  0.91118952193E+03  0.91403375699E+03  0.00000000000E+00 0.  1.
<scales pt_clust_3="65.86363" pt_clust_4="14000.00000" pt_clust_5="39.37606" pt_clust_6="74.89882"></scales>
<clustering>
<clus scale="   39.376">  2  5  1 -1</clus>
<clus scale="   65.864">  2  3  1 -1</clus>
<clus scale="   74.899">  1  6  2 -1</clus>
<clus scale="   39.376">  2  3  1 -1</clus>
</clustering>
</event>
<event>
 6    0  0.7258365E+002  0.1460089E+03  0.7546771E-02  0.1205465E+00
          2   -1    0    0  505    0 -0.00000000000E+00  0.00000000000E+00  0.74780738694E+03  0.74780738694E+03  0.00000000000E+00 0.  1.
         21   -1    0    0  504  502  0.00000000000E+00 -0.00000000000E+00 -0.58255393118E+02  0.58255393118E+02  0.00000000000E+00 0. -1.
         21    1    1    2  503  502 -0.25319735250E+01 -0.71121454510E+02  0.40026602719E+02  0.81650481362E+02  0.00000000000E+00 0. -1.
         21    1    1    2  504  501  0.20679368314E+02 -0.26782058931E+02 -0.83951656286E+01  0.34862497907E+02  0.00000000000E+00 0. -1.
         21    1    1    2  505  503  0.33111149696E+02 -0.33696740798E+02  0.66962057832E+02  0.81949592822E+02  0.00000000000E+00 0.  1.
          2    1    1    2  501    0 -0.51258544484E+02  0.13160025424E+03  0.59095849889E+03  0.60760020796E+03  0.00000000000E+00 0.  1.
<scales pt_clust_3="46.01149" pt_clust_4="33.83659" pt_clust_5="46.01149" pt_clust_6="133.87354"></scales>
<clustering>
<clus scale="   33.837">  2  4  1 -1</clus>
<clus scale="   46.011">  3  5 -1 -1</clus>
<clus scale="  133.874">  1  6  2 -1</clus>
<clus scale="   33.837">  2  3  1 -1</clus>
</clustering>
</event>
<event>
 6    0  0.7258365E+002  0.8614042E+02  0.7546771E-02  0.1312477E+00
         21   -1    0    0  505  502  0.00000000000E+00  0.00000000000E+00  0.50411290935E+03  0.50411290935E+03  0.00000000000E+00 0.  1.
          2   -1    0    0  504    0 -0.00000000000E+00 -0.00000000000E+00 -0.87295903065E+02  0.87295903065E+02  0.00000000000E+00 0.  1.
         21    1    1    2  503  501  0.35660078463E+02  0.61207246193E+02  0.21484945300E+03  0.22622611617E+03  0.00000000000E+00 0.  1.
         21    1    1    2  504  502 -0.93547697381E+02 -0.17259711338E+02 -0.41613165825E+02  0.10383026963E+03  0.00000000000E+00 0.  1.
         21    1    1    2  505  503  0.56788038740E+01 -0.40955441227E+02  0.12748391620E+03  0.13402143810E+03  0.00000000000E+00 0.  1.
          2    1    1    2  501    0  0.52208815043E+02 -0.29920936287E+01  0.11609680291E+03  0.12733098852E+03  0.00000000000E+00 0.  1.
<scales pt_clust_3="53.77990" pt_clust_4="14000.00000" pt_clust_5="41.34727" pt_clust_6="86.14042"></scales>
<clustering>
<clus scale="   41.347">  1  5  2 -1</clus>
<clus scale="   53.780">  1  3  2 -1</clus>
<clus scale="   86.140">  1  6  2 -1</clus>
<clus scale="   41.347">  1  3  2 -1</clus>
</clustering>
</event>
<event>
 6    0  0.7258365E+002  0.8216717E+02  0.7546771E-02  0.1323011E+00
         21   -1    0    0  504  502  0.00000000000E+00  0.00000000000E+00  0.61474270839E+03  0.61474270839E+03  0.00000000000E+00 0.  1.
          4   -1    0    0  505    0 -0.00000000000E+00 -0.00000000000E+00 -0.15416537884E+03  0.15416537884E+03  0.00000000000E+00 0. -1.
         21    1    1    2  503  502 -0.66463237286E+02  0.67773402278E+02  0.39594043698E+03  0.40716019649E+03  0.00000000000E+00 0.  1.
         21    1    1    2  504  501  0.16903096077E+02 -0.70501878960E+02  0.17694161156E+03  0.19121862748E+03  0.00000000000E+00 0.  1.
         21    1    1    2  505  503 -0.14250621384E+02  0.44550146412E+02 -0.20253653080E+02  0.50970640748E+02  0.00000000000E+00 0.  1.
          4    1    1    2  501    0  0.63810762593E+02 -0.41821669730E+02 -0.92051065914E+02  0.11955862252E+03  0.00000000000E+00 0. -1.
<scales pt_clust_3="14000.00000" pt_clust_4="82.16717" pt_clust_5="46.77388" pt_clust_6="51.13415"></scales>
<clustering>
<clus scale="   46.774">  2  5  1 -1</clus>
<clus scale="   51.134">  2  6  1 -1</clus>
<clus scale="   82.167">  2  4  1 -1</clus>
<clus scale="   82.167">  1  3  2 -1</clus>
</clustering>
</event>
<event>
 6    0  0.7258365E+002  0.1312446E+03  0.7546771E-02  0.1225621E+00
          2   -1    0    0  503    0 -0.00000000000E+00  0.00000000000E+00  0.11055431981E+04  0.11055431981E+04  0.00000000000E+00 0. -1.
         21   -1    0    0  505  502  0.00000000000E+00 -0.00000000000E+00 -0.59075819438E+03  0.59075819438E+03  0.00000000000E+00 0.  1.
         21    1    1    2  503  502 -0.37281808973E+02 -0.12183997459E+02 -0.14114594945E+03  0.14649423921E+03  0.00000000000E+00 0.  1.
         21    1    1    2  504  501 -0.14732160961E+02 -0.99467618038E+02 -0.23064939753E+03  0.25161476146E+03  0.00000000000E+00 0.  1.
         21    1    1    2  505  504  0.27844246775E+02 -0.17864459650E+02 -0.20047279651E+03  0.20318411143E+03  0.00000000000E+00 0.  1.
          2    1    1    2  501    0  0.24169723159E+02  0.12951607515E+03  0.10870531472E+04  0.10950082804E+04  0.00000000000E+00 0. -1.
<scales pt_clust_3="32.88279" pt_clust_4="131.24458" pt_clust_5="33.08234" pt_clust_6="14000.00000"></scales>
<clustering>
<clus scale="   33.082">  2  5  1 -1</clus>
<clus scale="   32.883">  2  3  1 -1</clus>
<clus scale="  131.245">  2  4  1 -1</clus>
<clus scale="   33.082">  2  3  1 -1</clus>
</clustering>
</event>
<event>
 6    0  0.7258365E+002  0.9717595E+02  0.7546771E-02  0.1286349E+00
          2   -1    0    0  505    0 -0.00000000000E+00  0.00000000000E+00  0.14275978021E+04  0.14275978021E+04  0.00000000000E+00 0.  1.
         21   -1    0    0  503  502  0.00000000000E+00 -0.00000000000E+00 -0.13024103587E+03  0.13024103587E+03  0.00000000000E+00 0.  1.
         21    1    1    2  503  501  0.77099887780E+02  0.44533388814E+02 -0.53913299496E+02  0.10408774797E+03  0.00000000000E+00 0.  1.
         21    1    1    2  504  502  0.40765982750E+02  0.61127566095E+02  0.42837137751E+02  0.85049779876E+02  0.00000000000E+00 0. -1.
         21    1    1    2  505  504 -0.85211636847E+02 -0.13401017212E+02  0.37586916031E+02  0.94092436323E+02  0.00000000000E+00 0.  1.
          2    1    1    2  501    0 -0.32654233684E+02 -0.92259937697E+02  0.12708460120E+04  0.12746088738E+04  0.00000000000E+00 0.  1.
<scales pt_clust_3="14000.00000" pt_clust_4="73.47411" pt_clust_5="74.69748" pt_clust_6="97.17595"></scales>
<clustering>
<clus scale="   73.474">  2  4  1 -1</clus>
<clus scale="   74.697">  2  5  1 -1</clus>
<clus scale="   97.176">  1  6  2 -1</clus>
<clus scale="   73.474">  2  3  1 -1</clus>
</clustering>
</event>
<event>
 6    0  0.7258365E+002  0.1402473E+03  0.7546771E-02  0.1212997E+00
         21   -1    0    0  504  502  0.00000000000E+00  0.00000000000E+00  0.38562817232E+02  0.38562817232E+02  0.00000000000E+00 0. -1.
          2   -1    0    0  503    0 -0.00000000000E+00 -0.00000000000E+00 -0.29022873474E+04  0.29022873474E+04  0.00000000000E+00 0.  1.
         21    1    1    2  503  505 -0.43390789996E+02  0.96238457682E+01 -0.21240359449E+03  0.21700383871E+03  0.00000000000E+00 0. -1.
         21    1    1    2  504  501  0.68102809804E+02 -0.13635480748E+03 -0.16295729108E+03  0.22312710490E+03  0.00000000000E+00 0. -1.
         21    1    1    2  505  502  0.59799959039E+02  0.11778102257E+03 -0.85474889050E+03  0.86489540997E+03  0.00000000000E+00 0. -1.
          2    1    1    2  501    0 -0.84511978847E+02  0.89499391429E+01 -0.16336147542E+04  0.16358238111E+04  0.00000000000E+00 0.  1.
<scales pt_clust_3="44.44524" pt_clust_4="14000.00000" pt_clust_5="140.24732" pt_clust_6="111.88801"></scales>
<clustering>
<clus scale="   44.445">  2  3  1 -1</clus>
<clus scale="  111.888">  2  6  1 -1</clus>
<clus scale="  140.247">  2  5  1 -1</clus>
<clus scale="  140.247">  1  3  2 -1</clus>
</clustering>
</event>
<event>
 6    0  0.7258365E+002  0.8564329E+02  0.7546771E-02  0.1313759E+00
         21   -1    0    0  505  502  0.00000000000E+00  0.00000000000E+00  0.87243422328E+03  0.87243422328E+03  0.00000000000E+00 0. -1.
          1   -1    0    0  504    0 -0.00000000000E+00 -0.00000000000E+00 -0.93097183957E+03  0.93097183957E+03  0.00000000000E+00 0. -1.
         21    1    1    2  503  502 -0.13810894585E+02 -0.53446650590E+02  0.75429289824E+03  0.75631016231E+03  0.00000000000E+00 0. -1.
         21    1    1    2  504  503  0.36045964548E+02  0.75740915863E+02 -0.23758167515E+02  0.87180550696E+02  0.00000000000E+00 0. -1.
         21    1    1    2  505  501 -0.77739488387E+02 -0.19405658684E+02  0.65528910224E+02  0.10350867461E+03  0.00000000000E+00 0. -1.
          1    1    1    2  501    0  0.55504418424E+02 -0.28886065889E+01 -0.85460125725E+03  0.85640667524E+03  0.00000000000E+00 0. -1.
<scales pt_clust_3="55.20222" pt_clust_4="85.64329" pt_clust_5="14000.00000" pt_clust_6="55.49621"></scales>
<clustering>
<clus scale="   55.202">  1  3  2 -1</clus>
<clus scale="   55.496">  2  6  1 -1</clus>
<clus scale="   85.643">  2  4  1 -1</clus>
<clus scale="   55.202">  1  3  2 -1</clus>
</clustering>
</event>
<event>
 6    0  0.7258365E+002  0.1436075E+03  0.7546771E-02  0.1208556E+00
         21   -1    0    0  505  502  0.00000000000E+00  0.00000000000E+00  0.35585565867E+03  0.35585565867E+03  0.00000000000E+00 0.  1.
          2   -1    0    0  503    0 -0.00000000000E+00 -0.00000000000E+00 -0.32237176454E+04  0.32237176454E+04  0.00000000000E+00 0. -1.
         21    1    1    2  503  504 -0.13963424029E+03 -0.11829662904E+03 -0.12589720590E+03  0.22213041205E+03  0.00000000000E+00 0.  1.
         21    1    1    2  504  502  0.45643664665E+02  0.89749723743E+01  0.30229950655E+03  0.30585762360E+03  0.00000000000E+00 0.  1.
         21    1    1    2  505  501  0.61686327308E+02  0.99103860934E+02 -0.96358285333E+03  0.97062798922E+03  0.00000000000E+00 0. -1.
          2    1    1    2  501    0  0.32304248318E+02  0.10217795730E+02 -0.20806814340E+04  0.20809572792E+04  0.00000000000E+00 0. -1.
<scales pt_clust_3="143.60753" pt_clust_4="46.57009" pt_clust_5="14000.00000" pt_clust_6="33.88167"></scales>
<clustering>
<clus scale="   33.882">  2  6  1 -1</clus>
<clus scale="   46.570">  1  4  2 -1</clus>
<clus scale="  143.608">  1  3  2 -1</clus>
<clus scale="   46.570">  1  3  2 -1</clus>
</clustering>
</event>
<event>
 6    0  0.7258365E+002  0.9883831E+02  0.7546771E-02  0.1282758E+00
          1   -1    0    0  505    0 -0.00000000000E+00  0.00000000000E+00  0.17613687831E+03  0.17613687831E+03  0.00000000000E+00 0. -1.
         21   -1    0    0  503  502  0.00000000000E+00 -0.00000000000E+00 -0.63994746427E+03  0.63994746427E+03  0.00000000000E+00 0. -1.
         21    1    1    2  503  504 -0.36261131303E+02 -0.17030585714E+02 -0.18661292622E+03  0.19086459788E+03  0.00000000000E+00 0.  1.
         21    1    1    2  504  501  0.82111440014E+01 -0.10727804644E+03  0.70489732031E+02  0.12862660866E+03  0.00000000000E+00 0. -1.
         21    1    1    2  505  502 -0.23672054028E+00  0.10816572038E+03 -0.41121519730E+03  0.42520326620E+03  0.00000000000E+00 0. -1.
          1    1    1    2  501    0  0.28286707842E+02  0.16142911779E+02  0.63527805520E+02  0.71389869838E+02  0.00000000000E+00 0. -1.
<scales pt_clust_3="39.42630" pt_clust_4="14000.00000" pt_clust_5="98.83831" pt_clust_6="32.56887"></scales>
<clustering>
<clus scale="   32.569">  1  6  2 -1</clus>
<clus scale="   39.426">  2  3  1 -1</clus>
<clus scale="   98.838">  2  5  1 -1</clus>
<clus scale="   39.426">  2  3  1 -1</clus>
</clustering>
</event>
<event>
 6    0  0.7258365E+002  0.1167973E+03  0.7546771E-02  0.1248476E+00
          2   -1    0    0  505    0 -0.00000000000E+00  0.00000000000E+00  0.79446041350E+03  0.79446041350E+03  0.00000000000E+00 0.  1.
         21   -1    0    0  504  502  0.00000000000E+00 -0.00000000000E+00 -0.30536994985E+02  0.30536994985E+02  0.00000000000E+00 0.  1.
         21    1    1    2  503  502  0.39543888220E+02 -0.40430935234E+02  0.94731948055E+02  0.11032915119E+03  0.00000000000E+00 0.  1.
         21    1    1    2  504  501 -0.39940936060E+02  0.11543977869E+03  0.17548657773E+03  0.21381571467E+03  0.00000000000E+00 0.  1.
         21    1    1    2  505  503  0.15010001749E+02 -0.34034584137E+02  0.15685651961E+03  0.16120676417E+03  0.00000000000E+00 0.  1.
          2    1    1    2  501    0 -0.14612953909E+02 -0.40974259319E+02  0.33684837312E+03  0.33964577846E+03  0.00000000000E+00 0.  1.
<scales pt_clust_3="35.47869" pt_clust_4="108.29525" pt_clust_5="35.47869" pt_clust_6="43.50205"></scales>
<clustering>
<clus scale="   35.479">  3  5 -1 -1</clus>
<clus scale="   43.502">  1  6  2 -1</clus>
<clus scale="  108.295">  2  4  1 -1</clus>
<clus scale="  108.295">  2  3  1 -1</clus>
</clustering>
</event>
<event>
 6    0  0.7258365E+002  0.1059659E+03  0.7546771E-02  0.1268228E+00
          2   -1    0    0  503    0 -0.00000000000E+00  0.00000000000E+00  0.13319131416E+04  0.13319131416E+04  0.00000000000E+00 0.  1.
         21   -1    0    0  504  502  0.00000000000E+00 -0.00000000000E+00 -0.20326803736E+03  0.20326803736E+03  0.00000000000E+00 0. -1.
         21    1    1    2  503  505 -0.12042574384E+03  0.84038403477E+02  0.34071180801E+03  0.37101125206E+03  0.00000000000E+00 0. -1.
         21    1    1    2  504  501  0.35746055508E+02  0.22263602844E+01  0.62414434168E+02  0.71960397143E+02  0.00000000000E+00 0. -1.
         21    1    1    2  505  502  0.37220296637E+01 -0.29768962366E+02 -0.17941536984E+03  0.18190634832E+03  0.00000000000E+00 0. -1.
          2    1    1    2  501    0  0.80957658668E+02 -0.56495801396E+02  0.90493423187E+03  0.91030318140E+03  0.00000000000E+00 0.  1.
<scales pt_clust_3="14000.00000" pt_clust_4="36.75664" pt_clust_5="30.00074" pt_clust_6="105.96587"></scales>
<clustering>
<clus scale="   30.001">  2  5  1 -1</clus>
<clus scale="   36.757">  2  4  1 -1</clus>
<clus scale="  105.966">  1  6  2 -1</clus>
<clus scale="   30.001">  2  3  1 -1</clus>
</clustering>
</event>
<event>
 6    0  0.7258365E+002  0.9433750E+02  0.7546771E-02  0.1292675E+00
          2   -1    0    0  503    0 -0.00000000000E+00  0.00000000000E+00  0.88020516709E+03  0.88020516709E+03  0.00000000000E+00 0. -1.
         21   -1    0    0  505  502  0.00000000000E+00 -0.00000000000E+00 -0.16558325216E+03  0.16558325216E+03  0.00000000000E+00 0. -1.
         21    1    1    2  503  502  0.23358104853E+02  0.94541157895E+02 -0.77156197082E+02  0.12424455862E+03  0.00000000000E+00 0. -1.
         21    1    1    2  504  501 -0.95517691585E+02  0.19338721637E+01  0.59173462794E+01  0.95720343994E+02  0.00000000000E+00 0. -1.
         21    1    1    2  505  504  0.41063061908E+02 -0.87966777673E+02  0.10059118248E+03  0.13979597641E+03  0.00000000000E+00 0. -1.
          2    1    1    2  501    0  0.31096524824E+02 -0.85082523855E+01  0.68526958325E+03  0.68602754023E+03  0.00000000000E+00 0. -1.
<scales pt_clust_3="14000.00000" pt_clust_4="87.39565" pt_clust_5="94.33750" pt_clust_6="32.23948"></scales>
<clustering>
<clus scale="   32.239">  1  6  2 -1</clus>
<clus scale="   87.396">  1  4  2 -1</clus>
<clus scale="   94.337">  1  5  2 -1</clus>
<clus scale="   94.337">  2  3  1 -1</clus>
</clustering>
</event>
<event>
 6    0  0.7258365E+002  0.6437146E+02  0.7546771E-02  0.1380352E+00
         -1   -1    0    0    0  501 -0.00000000000E+00  0.00000000000E+00  0.20334554079E+03  0.20334554079E+03  0.00000000000E+00 0.  1.
         21   -1    0    0  505  502  0.00000000000E+00 -0.00000000000E+00 -0.12749856147E+04  0.12749856147E+04  0.00000000000E+00 0. -1.
         21    1    1    2  503  504  0.52984095370E+02  0.83545706988E+02 -0.28523701293E+03  0.30190619912E+03  0.00000000000E+00 0. -1.
         21    1    1    2  504  501 -0.73281812077E+02 -0.28417624652E+02  0.74343372373E+02  0.10818836531E+03  0.00000000000E+00 0.  1.
         21    1    1    2  505  503 -0.96270267535E+01 -0.39691365254E+02 -0.96131430212E+03  0.96218151696E+03  0.00000000000E+00 0. -1.
         -1    1    1    2    0  502  0.29924743461E+02 -0.15436717082E+02  0.10056786879E+03  0.10605507408E+03  0.00000000000E+00 0.  1.
<scales pt_clust_3="14000.00000" pt_clust_4="64.37146" pt_clust_5="40.87688" pt_clust_6="33.67169"></scales>
<clustering>
<clus scale="   33.672">  1  6  2 -1</clus>
<clus scale="   40.877">  2  5  1 -1</clus>
<clus scale="   64.371">  1  4  2 -1</clus>
<clus scale="   40.877">  2  3  1 -1</clus>
</clustering>
</event>
<event>
 6    0  0.7258365E+002  0.7264452E+02  0.7546771E-02  0.1351324E+00
         21   -1    0    0  505  502  0.00000000000E+00  0.00000000000E+00  0.15015319963E+04  0.15015319963E+04  0.00000000000E+00 0. -1.
          2   -1    0    0  504    0 -0.00000000000E+00 -0.00000000000E+00 -0.10753575251E+03  0.10753575251E+03  0.00000000000E+00 0. -1.
         21    1    1    2  503  502 -0.40203017596E+02  0.10273163227E+03  0.12473848026E+04  0.12522535352E+04  0.00000000000E+00 0. -1.
         21    1    1    2  504  503  0.55056827626E+02 -0.72650837571E+01  0.62994334887E+02  0.83978103921E+02  0.00000000000E+00 0. -1.
         21    1    1    2  505  501  0.21063270235E+02 -0.34342104552E+02  0.16212445604E+03  0.16705502311E+03  0.00000000000E+00 0.  1.
          2    1    1    2  501    0 -0.35917080265E+02 -0.61124443965E+02 -0.78507349711E+02  0.10578108651E+03  0.00000000000E+00 0. -1.
<scales pt_clust_3="72.64452" pt_clust_4="56.95483" pt_clust_5="40.28699" pt_clust_6="14000.00000"></scales>
<clustering>
<clus scale="   40.287">  1  5  2 -1</clus>
<clus scale="   56.955">  2  4  1 -1</clus>
<clus scale="   72.645">  1  3  2 -1</clus>
<clus scale="   40.287">  1  3  2 -1</clus>
</clustering>
</event>
<event>
 6    0  0.7258365E+002  0.9345773E+02  0.7546771E-02  0.1294688E+00
         21   -1    0    0  505  502  0.00000000000E+00  0.00000000000E+00  0.20340458572E+03  0.20340458572E+03  0.00000000000E+00 0. -1.
          2   -1    0    0  503    0 -0.00000000000E+00 -0.00000000000E+00 -0.56329375295E+03  0.56329375295E+03  0.00000000000E+00 0. -1.
         21    1    1    2  503  504 -0.80862589102E+02  0.67817211427E+02 -0.31987959768E+03  0.33683956046E+03  0.00000000000E+00 0. -1.
         21    1    1    2  504  502 -0.42070255030E+02 -0.14821917005E+02 -0.43456939059E+01  0.44816075660E+02  0.00000000000E+00 0. -1.
         21    1    1    2  505  501  0.68188584160E+02  0.82073135903E+01  0.15930942682E+03  0.17348353374E+03  0.00000000000E+00 0. -1.
          2    1    1    2  501    0  0.54744259973E+02 -0.61202608012E+02 -0.19497330247E+03  0.21155916880E+03  0.00000000000E+00 0. -1.
<scales pt_clust_3="14000.00000" pt_clust_4="44.60488" pt_clust_5="30.42834" pt_clust_6="93.45773"></scales>
<clustering>
<clus scale="   44.605">  1  4  2 -1</clus>
<clus scale="   30.428">  1  5  2 -1</clus>
<clus scale="   93.458">  2  6  1 -1</clus>
<clus scale="   44.605">  1  3  2 -1</clus>
</clustering>
</event>
<event>
 6    0  0.7258365E+002  0.6675089E+02  0.7546771E-02  0.1371504E+00
          2   -1    0    0  503    0 -0.00000000000E+00  0.00000000000E+00  0.29288146567E+03  0.29288146567E+03  0.00000000000E+00 0.  1.
         21   -1    0    0  504  502  0.00000000000E+00 -0.00000000000E+00 -0.41349757885E+03  0.41349757885E+03  0.00000000000E+00 0.  1.
         21    1    1    2  503  505 -0.11313217306E+03  0.22040053660E+02 -0.84258541168E+01  0.11556663690E+03  0.00000000000E+00 0.  1.
         21    1    1    2  504  501  0.69916747850E+02  0.10527164001E+02 -0.21488745757E+03  0.22622067154E+03  0.00000000000E+00 0.  1.
         21    1    1    2  505  502 -0.14198833603E+02 -0.30900580478E+02 -0.12511287173E+03  0.12965216320E+03  0.00000000000E+00 0.  1.
          2    1    1    2  501    0  0.57414258816E+02 -0.16666371836E+01  0.22781007025E+03  0.23493957287E+03  0.00000000000E+00 0.  1.
<scales pt_clust_3="14000.00000" pt_clust_4="66.75089" pt_clust_5="34.00666" pt_clust_6="57.27411"></scales>
<clustering>
<clus scale="   34.007">  2  5  1 -1</clus>
<clus scale="   57.274">  1  6  2 -1</clus>
<clus scale="   66.751">  2  4  1 -1</clus>
<clus scale="   34.007">  2  3  1 -1</clus>
</clustering>
</event>
<event>
 6    0  0.7258365E+002  0.8340557E+02  0.7546771E-02  0.1319656E+00
         21   -1    0    0  503  502  0.00000000000E+00  0.00000000000E+00  0.26566344788E+03  0.26566344788E+03  0.00000000000E+00 0. -1.
          2   -1    0    0  505    0 -0.00000000000E+00 -0.00000000000E+00 -0.65049439376E+03  0.65049439376E+03  0.00000000000E+00 0. -1.
         21    1    1    2  503  501 -0.12774829792E+02  0.94241396521E+02 -0.58715022638E+02  0.11176802306E+03  0.00000000000E+00 0. -1.
         21    1    1    2  504  502 -0.64311319930E+02  0.40997608559E+01  0.21376468662E+03  0.22326686982E+03  0.00000000000E+00 0. -1.
         21    1    1    2  505  504  0.24557745875E+02 -0.72513224915E+02 -0.58901779570E+02  0.96595394852E+02  0.00000000000E+00 0. -1.
          2    1    1    2  501    0  0.52528403847E+02 -0.25827932462E+02 -0.48097883030E+03  0.48452755392E+03  0.00000000000E+00 0. -1.
<scales pt_clust_3="83.40557" pt_clust_4="62.91374" pt_clust_5="14000.00000" pt_clust_6="58.53474"></scales>
<clustering>
<clus scale="   58.535">  2  6  1 -1</clus>
<clus scale="   62.914">  1  4  2 -1</clus>
<clus scale="   83.406">  2  3  1 -1</clus>
<clus scale="   62.914">  1  3  2 -1</clus>
</clustering>
</event>
<event>
 6    0  0.9987043E+002  0.7970266E+02  0.7546771E-02  0.1329897E+00
          1   -1    0    0  505    0 -0.00000000000E+00  0.00000000000E+00  0.25125678070E+04  0.25125678070E+04  0.00000000000E+00 0. -1.
         21   -1    0    0  503  502  0.00000000000E+00 -0.00000000000E+00 -0.47751495846E+03  0.47751495846E+03  0.00000000000E+00 0.  1.
         21    1    1    2  503  501 -0.11846883658E+03  0.41473944193E+02 -0.37182305580E+03  0.39243768692E+03  0.00000000000E+00 0.  1.
         21    1    1    2  504  502  0.26502638894E+02 -0.24163007980E+02 -0.55966202820E+02  0.66471472686E+02  0.00000000000E+00 0. -1.
         21    1    1    2  505  504  0.47678567503E+02 -0.42360260292E+00 -0.17193046712E+02  0.50685560997E+02  0.00000000000E+00 0. -1.
          1    1    1    2  501    0  0.44287630181E+02 -0.16887333610E+02  0.24800351539E+04  0.24804880448E+04  0.00000000000E+00 0. -1.
<scales pt_clust_3="79.70266" pt_clust_4="35.86420" pt_clust_5="14000.00000" pt_clust_6="47.41621"></scales>
<clustering>
<clus scale="   35.864">  2  4  1 -1</clus>
<clus scale="   47.416">  1  6  2 -1</clus>
<clus scale="   79.703">  2  3  1 -1</clus>
<clus scale="   35.864">  2  3  1 -1</clus>
</clustering>
</event>
<event>
 6    0  0.7258365E+002  0.1311323E+03  0.7546771E-02  0.1225785E+00
         21   -1    0    0  505  502  0.00000000000E+00  0.00000000000E+00  0.36979164770E+03  0.36979164770E+03  0.00000000000E+00 0. -1.
          3   -1    0    0  503    0 -0.00000000000E+00 -0.00000000000E+00 -0.65593129906E+03  0.65593129906E+03  0.00000000000E+00 0.  1.
         21    1    1    2  503  504 -0.47891146699E+02  0.11100593708E+01 -0.29630925182E+02  0.56327487882E+02  0.00000000000E+00 0.  1.
         21    1    1    2  504  502 -0.68092086890E+02  0.13299948078E+02 -0.18978217003E+03  0.20206606093E+03  0.00000000000E+00 0.  1.
         21    1    1    2  505  501  0.13368617256E+03  0.22504767090E+02  0.33610877073E+03  0.36241904343E+03  0.00000000000E+00 0. -1.
          3    1    1    2  501    0 -0.17702938972E+02 -0.36914774539E+02 -0.40283532687E+03  0.40491035453E+03  0.00000000000E+00 0.  1.
<scales pt_clust_3="51.17302" pt_clust_4="14000.00000" pt_clust_5="131.13232" pt_clust_6="40.94013"></scales>
<clustering>
<clus scale="   40.940">  2  6  1 -1</clus>
<clus scale="   51.173">  2  3  1 -1</clus>
<clus scale="  131.132">  1  5  2 -1</clus>
<clus scale="  131.132">  1  3  2 -1</clus>
</clustering>
</event>
<event>
 6    0  0.7258365E+002  0.1163589E+03  0.7546771E-02  0.1249228E+00
          1   -1    0    0  504    0 -0.00000000000E+00  0.00000000000E+00  0.16239576447E+04  0.16239576447E+04  0.00000000000E+00 0.  1.
         21   -1    0    0  503  502  0.00000000000E+00 -0.00000000000E+00 -0.92849918429E+02  0.92849918429E+02  0.00000000000E+00 0.  1.
         21    1    1    2  503  505 -0.30705048204E+02  0.15101431625E+02  0.57008132015E+02  0.66488948993E+02  0.00000000000E+00 0.  1.
         21    1    1    2  504  502  0.12568942525E+03 -0.91793506014E+02 -0.10698043256E+02  0.15600745974E+03  0.00000000000E+00 0.  1.
         21    1    1    2  505  501 -0.72540393813E+02  0.43232706867E+02  0.40246825109E+03  0.41123213495E+03  0.00000000000E+00 0.  1.
          1    1    1    2  501    0 -0.22443983229E+02  0.33459367523E+02  0.10823293864E+04  0.10830790195E+04  0.00000000000E+00 0.  1.
<scales pt_clust_3="34.21773" pt_clust_4="14000.00000" pt_clust_5="116.35887" pt_clust_6="40.41590"></scales>
<clustering>
<clus scale="   34.218">  2  3  1 -1</clus>
<clus scale="   40.416">  1  6  2 -1</clus>
<clus scale="  116.359">  1  5  2 -1</clus>
<clus scale="   34.218">  2  3  1 -1</clus>
</clustering>
</event>
<event>
 6    0  0.7258365E+002  0.1876744E+03  0.7546771E-02  0.1160576E+00
          1   -1    0    0  503    0 -0.00000000000E+00  0.00000000000E+00  0.37028179724E+03  0.37028179724E+03  0.00000000000E+00 0.  1.
         21   -1    0    0  504  502  0.00000000000E+00 -0.00000000000E+00 -0.14151517770E+03  0.14151517770E+03  0.00000000000E+00 0.  1.
         21    1    1    2  503  505 -0.98234123975E+01 -0.86104074246E+02  0.37591812124E+02  0.94464572045E+02  0.00000000000E+00 0.  1.
         21    1    1    2  504  501 -0.36722860479E+02  0.21309549405E+02  0.77418939323E+01  0.43157876445E+02  0.00000000000E+00 0.  1.
         21    1    1    2  505  502  0.49223719803E+02 -0.98460006292E+02 -0.21491238039E+02  0.11215712524E+03  0.00000000000E+00 0.  1.
          1    1    1    2  501    0 -0.26774469267E+01  0.16325453113E+03  0.20492415152E+03  0.26201740120E+03  0.00000000000E+00 0.  1.
<scales pt_clust_3="78.62232" pt_clust_4="42.45781" pt_clust_5="78.62232" pt_clust_6="168.53683"></scales>
<clustering>
<clus scale="   42.458">  2  4  1 -1</clus>
<clus scale="   78.622">  3  5 -1 -1</clus>
<clus scale="  168.537">  1  6  2 -1</clus>
<clus scale="   42.458">  2  3  1 -1</clus>
</clustering>
</event>
<event>
 6    0  0.7258365E+002  0.1481310E+03  0.7546771E-02  0.1202789E+00
         21   -1    0    0  501  502  0.00000000000E+00  0.00000000000E+00  0.41513228323E+03  0.41513228323E+03  0.00000000000E+00 0. -1.
          1   -1    0    0  504    0 -0.00000000000E+00 -0.00000000000E+00 -0.16895509524E+03  0.16895509524E+03  0.00000000000E+00 0. -1.
         21    1    1    2  503  502  0.19176122755E+02  0.28754491463E+02  0.11988056587E+03  0.12476335414E+03  0.00000000000E+00 0. -1.
         21    1    1    2  504  505 -0.50688068160E+02 -0.12671348370E+03  0.63121072311E+02  0.15036574402E+03  0.00000000000E+00 0. -1.
         21    1    1    2  505  503 -0.29009252321E+02 -0.43222868585E+02  0.13106006514E+03  0.14101948008E+03  0.00000000000E+00 0. -1.
          1    1    1    2  501    0  0.60521197726E+02  0.14118186082E+03 -0.67884515325E+02  0.16793880023E+03  0.00000000000E+00 0. -1.
<scales pt_clust_3="34.56218" pt_clust_4="14000.00000" pt_clust_5="35.99779" pt_clust_6="148.13104"></scales>
<clustering>
<clus scale="   34.562">  1  3  2 -1</clus>
<clus scale="   35.998">  1  5  2 -1</clus>
<clus scale="  148.131">  2  6  1 -1</clus>
<clus scale="   34.562">  1  3  2 -1</clus>
</clustering>
</event>
<event>
 6    0  0.7258365E+002  0.1025516E+03  0.7546771E-02  0.1275020E+00
         21   -1    0    0  503  502  0.00000000000E+00  0.00000000000E+00  0.38382218276E+03  0.38382218276E+03  0.00000000000E+00 0.  1.
          4   -1    0    0  505    0 -0.00000000000E+00 -0.00000000000E+00 -0.10916549310E+04  0.10916549310E+04  0.00000000000E+00 0. -1.
         21    1    1    2  503  501 -0.10634870886E+03 -0.78199243316E+02 -0.18180687035E+03  0.22467511575E+03  0.00000000000E+00 0. -1.
         21    1    1    2  504  502  0.75569592651E+02  0.67801042363E+02  0.34989418580E+03  0.36432634537E+03  0.00000000000E+00 0.  1.
         21    1    1    2  505  504  0.62774748430E+02 -0.32386176378E+02 -0.67092902328E+03  0.67463715266E+03  0.00000000000E+00 0. -1.
          4    1    1    2  501    0 -0.31995632225E+02  0.42784377331E+02 -0.20499104038E+03  0.21183849995E+03  0.00000000000E+00 0. -1.
<scales pt_clust_3="14000.00000" pt_clust_4="102.55162" pt_clust_5="38.40352" pt_clust_6="53.42493"></scales>
<clustering>
<clus scale="   53.425">  2  6  1 -1</clus>
<clus scale="   38.404">  2  5  1 -1</clus>
<clus scale="  102.552">  1  4  2 -1</clus>
<clus scale="  102.552">  1  3  2 -1</clus>
</clustering>
</event>
<event>
 6    0  0.7258365E+002  0.9479583E+02  0.7546771E-02  0.1291637E+00
         21   -1    0    0  501  502  0.00000000000E+00  0.00000000000E+00  0.70347312354E+03  0.70347312354E+03  0.00000000000E+00 0.  1.
         -4   -1    0    0    0  501 -0.00000000000E+00 -0.00000000000E+00 -0.80489023241E+02  0.80489023241E+02  0.00000000000E+00 0. -1.
         21    1    1    2  503  502  0.29881715685E+02 -0.19215935814E+02  0.12311219571E+03  0.12813579459E+03  0.00000000000E+00 0. -1.
         21    1    1    2  504  505  0.16625271377E+02  0.64044671834E+02  0.45395850116E+02  0.80242774419E+02  0.00000000000E+00 0.  1.
         21    1    1    2  505  503 -0.75093726978E+02 -0.80287540277E+02  0.49955058666E+03  0.51150361249E+03  0.00000000000E+00 0.  1.
         -4    1    1    2    0  504  0.28586739917E+02  0.35458804257E+02 -0.45074532192E+02  0.64079965284E+02  0.00000000000E+00 0. -1.
<scales pt_clust_3="35.52702" pt_clust_4="94.79583" pt_clust_5="14000.00000" pt_clust_6="45.61310"></scales>
<clustering>
<clus scale="   35.527">  1  3  2 -1</clus>
<clus scale="   45.613">  2  6  1 -1</clus>
<clus scale="   94.796">  2  4  1 -1</clus>
<clus scale="   35.527">  1  3  2 -1</clus>
</clustering>
</event>
<event>
 6    0  0.7258365E+002  0.1048174E+03  0.7546771E-02  0.1270480E+00
         21   -1    0    0  504  502  0.00000000000E+00  0.00000000000E+00  0.28141484315E+03  0.28141484315E+03  0.00000000000E+00 0.  1.
          2   -1    0    0  503    0 -0.00000000000E+00 -0.00000000000E+00 -0.13408134483E+04  0.13408134483E+04  0.00000000000E+00 0.  1.
         21    1    1    2  503  505 -0.71757737625E+02  0.47304491004E+01 -0.50848316468E+03  0.51354325895E+03  0.00000000000E+00 0.  1.
         21    1    1    2  504  501 -0.24911581791E+01 -0.71546716596E+02  0.83720020591E+02  0.11015525576E+03  0.00000000000E+00 0.  1.
         21    1    1    2  505  502  0.10931498347E+03  0.63467789528E+02  0.15955546687E+03  0.20355803332E+03  0.00000000000E+00 0.  1.
          2    1    1    2  501    0 -0.35066087666E+02  0.33484779671E+01 -0.79419092792E+03  0.79497174340E+03  0.00000000000E+00 0.  1.
<scales pt_clust_3="104.81736" pt_clust_4="71.54368" pt_clust_5="14000.00000" pt_clust_6="35.22560"></scales>
<clustering>
<clus scale="   35.226">  2  6  1 -1</clus>
<clus scale="   71.544">  1  4  2 -1</clus>
<clus scale="  104.817">  2  3  1 -1</clus>
<clus scale="   71.544">  1  3  2 -1</clus>
</clustering>
</event>
<event>
 6    0  0.7258365E+002  0.9055024E+02  0.7546771E-02  0.1301525E+00
         -4   -1    0    0    0  501 -0.00000000000E+00  0.00000000000E+00  0.26454195270E+03  0.26454195270E+03  0.00000000000E+00 0. -1.
         21   -1    0    0  505  502  0.00000000000E+00 -0.00000000000E+00 -0.11502833196E+03  0.11502833196E+03  0.00000000000E+00 0. -1.
         21    1    1    2  503  501 -0.10365428413E+03 -0.84583535119E+01  0.49442992196E+02  0.11515365318E+03  0.00000000000E+00 0. -1.
         21    1    1    2  504  502  0.61100275160E+02  0.29727443746E+02 -0.28605783976E+01  0.68008436573E+02  0.00000000000E+00 0. -1.
         21    1    1    2  505  503 -0.37763510376E+02  0.16340941822E+02 -0.19253917163E+02  0.45429312362E+02  0.00000000000E+00 0. -1.
         -4    1    1    2    0  504  0.80317519347E+02 -0.37610032056E+02  0.12218512410E+03  0.15097888255E+03  0.00000000000E+00 0. -1.
<scales pt_clust_3="14000.00000" pt_clust_4="58.02288" pt_clust_5="41.14741" pt_clust_6="90.55024"></scales>
<clustering>
<clus scale="   41.147">  2  5  1 -1</clus>
<clus scale="   58.023">  2  4  1 -1</clus>
<clus scale="   90.550">  1  6  2 -1</clus>
<clus scale="   41.147">  2  3  1 -1</clus>
</clustering>
</event>
<event>
 6    0  0.7258365E+002  0.1015907E+03  0.7546771E-02  0.1276986E+00
          1   -1    0    0  505    0 -0.00000000000E+00  0.00000000000E+00  0.14103432284E+04  0.14103432284E+04  0.00000000000E+00 0.  1.
         21   -1    0    0  503  502  0.00000000000E+00 -0.00000000000E+00 -0.37413841427E+02  0.37413841427E+02  0.00000000000E+00 0.  1.
         21    1    1    2  503  501 -0.66073661577E+02 -0.19638907918E+01  0.19269358349E+02  0.68854148694E+02  0.00000000000E+00 0.  1.
         21    1    1    2  504  502 -0.31739834677E+02 -0.11402349578E+02  0.78652829807E+02  0.85578608997E+02  0.00000000000E+00 0.  1.
         21    1    1    2  505  504  0.30499423531E+02 -0.71164546011E+02  0.22866672560E+03  0.24141888667E+03  0.00000000000E+00 0. -1.
          1    1    1    2  501    0  0.67314072722E+02  0.84530786381E+02  0.10463404732E+04  0.10519054255E+04  0.00000000000E+00 0.  1.
<scales pt_clust_3="101.59074" pt_clust_4="33.72582" pt_clust_5="77.30397" pt_clust_6="14000.00000"></scales>
<clustering>
<clus scale="   33.726">  2  4  1 -1</clus>
<clus scale="   77.304">  2  5  1 -1</clus>
<clus scale="  101.591">  2  3  1 -1</clus>
<clus scale="   33.726">  2  3  1 -1</clus>
</clustering>
</event>
<event>
 6    0  0.7258365E+002  0.7452452E+02  0.7546771E-02  0.1345350E+00
          1   -1    0    0  502    0 -0.00000000000E+00  0.00000000000E+00  0.10537469326E+04  0.10537469326E+04  0.00000000000E+00 0.  1.
         21   -1    0    0  503  502  0.00000000000E+00 -0.00000000000E+00 -0.10626007920E+03  0.10626007920E+03  0.00000000000E+00 0. -1.
         21    1    1    2  503  505 -0.93548090169E+01 -0.43368133668E+02 -0.29786529272E+02  0.53437297795E+02  0.00000000000E+00 0. -1.
         21    1    1    2  504  501  0.48548552749E+02 -0.51424715703E+02  0.34328585437E+03  0.35049485185E+03  0.00000000000E+00 0.  1.
         21    1    1    2  505  504  0.49349985749E+01  0.11670450663E+03 -0.33294856844E+01  0.11685624311E+03  0.00000000000E+00 0. -1.
          1    1    1    2  501    0 -0.44128742307E+02 -0.21911657260E+02  0.63731701397E+03  0.63921861903E+03  0.00000000000E+00 0.  1.
<scales pt_clust_3="44.36561" pt_clust_4="74.52452" pt_clust_5="14000.00000" pt_clust_6="49.67884"></scales>
<clustering>
<clus scale="   44.366">  2  3  1 -1</clus>
<clus scale="   49.679">  1  6  2 -1</clus>
<clus scale="   74.525">  1  4  2 -1</clus>
<clus scale="   44.366">  2  3  1 -1</clus>
</clustering>
</event>
<event>
 6    0  0.7258365E+002  0.8164615E+02  0.7546771E-02  0.1324444E+00
         21   -1    0    0  501  502  0.00000000000E+00  0.00000000000E+00  0.16991596683E+03  0.16991596683E+03  0.00000000000E+00 0.  1.
          1   -1    0    0  505    0 -0.00000000000E+00 -0.00000000000E+00 -0.17769386462E+04  0.17769386462E+04  0.00000000000E+00 0.  1.
         21    1    1    2  503  502  0.65498238862E+02 -0.48212935661E+02  0.13951622250E+03  0.16149081336E+03  0.00000000000E+00 0.  1.
         21    1    1    2  504  503  0.71132352196E+02  0.39791050124E+02 -0.16668053386E+03  0.18554120719E+03  0.00000000000E+00 0.  1.
         21    1    1    2  505  504 -0.21712948428E+02 -0.46081071136E+02 -0.81732216576E+02  0.96307177681E+02  0.00000000000E+00 0. -1.
          1    1    1    2  501    0 -0.11491764263E+03  0.54502956673E+02 -0.14981261514E+04  0.15035154148E+04  0.00000000000E+00 0.  1.
<scales pt_clust_3="14000.00000" pt_clust_4="77.24293" pt_clust_5="50.94033" pt_clust_6="81.64615"></scales>
<clustering>
<clus scale="   50.940">  2  5  1 -1</clus>
<clus scale="   77.243">  2  4  1 -1</clus>
<clus scale="   81.646">  2  6  1 -1</clus>
<clus scale="   81.646">  1  3  2 -1</clus>
</clustering>
</event>
<event>
 6    0  0.7258365E+002  0.1226193E+03  0.7546771E-02  0.1238838E+00
         21   -1    0    0  504  502  0.00000000000E+00  0.00000000000E+00  0.68673927346E+02  0.68673927346E+02  0.00000000000E+00 0.  1.
          2   -1    0    0  505    0 -0.00000000000E+00 -0.00000000000E+00 -0.25825705744E+04  0.25825705744E+04  0.00000000000E+00 0. -1.
         21    1    1    2  503  501  0.54186592324E+02 -0.91457782137E+02 -0.32913849583E+03  0.34587983772E+03  0.00000000000E+00 0.  1.
         21    1    1    2  504  503 -0.12954640309E+03  0.64480189730E+02 -0.12101225312E+03  0.18863703461E+03  0.00000000000E+00 0.  1.
         21    1    1    2  505  502  0.37312513161E+02  0.25145518464E+02  0.70827130103E+01  0.45548716347E+02  0.00000000000E+00 0.  1.
          2    1    1    2  501    0  0.38047297607E+02  0.18320739434E+01 -0.20708286111E+04  0.20711789131E+04  0.00000000000E+00 0. -1.
<scales pt_clust_3="14000.00000" pt_clust_4="122.61927" pt_clust_5="46.22534" pt_clust_6="38.09138"></scales>
<clustering>
<clus scale="   38.091">  2  6  1 -1</clus>
<clus scale="   46.225">  1  5  2 -1</clus>
<clus scale="  122.619">  1  4  2 -1</clus>
<clus scale="   46.225">  1  3  2 -1</clus>
</clustering>
</event>
<event>
 6    0  0.7258365E+002  0.9916058E+02  0.7546771E-02  0.1282071E+00
         21   -1    0    0  504  502  0.00000000000E+00  0.00000000000E+00  0.11760337086E+03  0.11760337086E+03  0.00000000000E+00 0. -1.
          2   -1    0    0  505    0 -0.00000000000E+00 -0.00000000000E+00 -0.24838495151E+04  0.24838495151E+04  0.00000000000E+00 0. -1.
         21    1    1    2  503  502 -0.31662358201E+02 -0.18946447719E+01  0.10548487625E+03  0.11015059566E+03  0.00000000000E+00 0. -1.
         21    1    1    2  504  501 -0.79843193708E+02 -0.20185208666E+02 -0.23557146901E+03  0.24955218942E+03  0.00000000000E+00 0.  1.
         21    1    1    2  505  503  0.84537201550E+02  0.51899215398E+02 -0.99341775441E+03  0.99835810298E+03  0.00000000000E+00 0.  1.
          2    1    1    2  501    0  0.26968350358E+02 -0.29819361960E+02 -0.12427417971E+04  0.12433919980E+04  0.00000000000E+00 0. -1.
<scales pt_clust_3="31.71899" pt_clust_4="14000.00000" pt_clust_5="99.16058" pt_clust_6="39.55521"></scales>
<clustering>
<clus scale="   31.719">  1  3  2 -1</clus>
<clus scale="   39.555">  2  6  1 -1</clus>
<clus scale="   99.161">  2  5  1 -1</clus>
<clus scale="   31.719">  1  3  2 -1</clus>
</clustering>
</event>
<event>
 6    0  0.7258365E+002  0.1757537E+03  0.7546771E-02  0.1171977E+00
         21   -1    0    0  503  502  0.00000000000E+00  0.00000000000E+00  0.78687160731E+02  0.78687160731E+02  0.00000000000E+00 0. -1.
          2   -1    0    0  505    0 -0.00000000000E+00 -0.00000000000E+00 -0.29451960681E+04  0.29451960681E+04  0.00000000000E+00 0. -1.
         21    1    1    2  503  501  0.89293596514E+02  0.66662428376E+01 -0.17530825749E+02  0.91242068277E+02  0.00000000000E+00 0. -1.
         21    1    1    2  504  502 -0.60923235148E+02 -0.48874887793E+02 -0.26248888453E+02  0.82397811759E+02  0.00000000000E+00 0. -1.
         21    1    1    2  505  504 -0.13137408936E+03 -0.10590237794E+03 -0.70793504515E+03  0.72776815894E+03  0.00000000000E+00 0. -1.
          2    1    1    2  501    0  0.10300372800E+03  0.14811102290E+03 -0.21147941480E+04  0.21224751898E+04  0.00000000000E+00 0. -1.
<scales pt_clust_3="53.43495" pt_clust_4="78.10503" pt_clust_5="14000.00000" pt_clust_6="175.75366"></scales>
<clustering>
<clus scale="   78.105">  1  4  2 -1</clus>
<clus scale="   53.435">  1  3  2 -1</clus>
<clus scale="  175.754">  2  6  1 -1</clus>
<clus scale="   78.105">  1  3  2 -1</clus>
</clustering>
</event>
<event>
 6    0  0.7258365E+002  0.1451382E+03  0.7546771E-02  0.1206578E+00
          2   -1    0    0  505    0 -0.00000000000E+00  0.00000000000E+00  0.22312651198E+04  0.22312651198E+04  0.00000000000E+00 0. -1.
         21   -1    0    0  503  502  0.00000000000E+00 -0.00000000000E+00 -0.20422883782E+03  0.20422883782E+03  0.00000000000E+00 0. -1.
         21    1    1    2  503  501 -0.92005454094E+02  0.57277191015E+01  0.19724230953E+03  0.21772078224E+03  0.00000000000E+00 0. -1.
         21    1    1    2  504  502  0.81833376867E+01  0.31976375847E+02 -0.16098338959E+02  0.36723454974E+02  0.00000000000E+00 0. -1.
         21    1    1    2  505  504  0.14914521035E+03 -0.16123837424E+02 -0.13328820899E+03  0.20067391101E+03  0.00000000000E+00 0. -1.
          2    1    1    2  501    0 -0.65323093947E+02 -0.21580257525E+02  0.19791805204E+04  0.19803758094E+04  0.00000000000E+00 0. -1.
<scales pt_clust_3="145.13822" pt_clust_4="33.00690" pt_clust_5="14000.00000" pt_clust_6="68.73569"></scales>
<clustering>
<clus scale="   33.007">  2  4  1 -1</clus>
<clus scale="   68.736">  1  6  2 -1</clus>
<clus scale="  145.138">  1  3  2 -1</clus>
<clus scale="   33.007">  2  3  1 -1</clus>
</clustering>
</event>
<event>
 6    0  0.7258365E+002  0.1077311E+03  0.7546771E-02  0.1264830E+00
          2   -1    0    0  505    0 -0.00000000000E+00  0.00000000000E+00  0.25717760334E+04  0.25717760334E+04  0.00000000000E+00 0. -1.
         21   -1    0    0  503  502  0.00000000000E+00 -0.00000000000E+00 -0.80762224421E+03  0.80762224421E+03  0.00000000000E+00 0. -1.
         21    1    1    2  503  501 -0.26386872560E+02 -0.10069943470E+03  0.16014308581E+04  0.16048107167E+04  0.00000000000E+00 0. -1.
         21    1    1    2  504  502  0.89665870002E+01  0.29650396889E+02 -0.61174810160E+03  0.61253186491E+03  0.00000000000E+00 0. -1.
         21    1    1    2  505  504 -0.22932127973E+02  0.77602215001E+02 -0.18489082879E+03  0.20182320193E+03  0.00000000000E+00 0. -1.
          2    1    1    2  501    0  0.40352413533E+02 -0.65531771903E+01  0.95936186151E+03  0.96023249410E+03  0.00000000000E+00 0. -1.
<scales pt_clust_3="107.73106" pt_clust_4="30.97653" pt_clust_5="14000.00000" pt_clust_6="40.89025"></scales>
<clustering>
<clus scale="   30.977">  2  4  1 -1</clus>
<clus scale="   40.890">  1  6  2 -1</clus>
<clus scale="  107.731">  1  3  2 -1</clus>
<clus scale="   30.977">  2  3  1 -1</clus>
</clustering>
</event>
<event>
 6    0  0.7258365E+002  0.8409299E+02  0.7546771E-02  0.1317822E+00
         -1   -1    0    0    0  501 -0.00000000000E+00  0.00000000000E+00  0.91479398863E+03  0.91479398863E+03  0.00000000000E+00 0.  1.
         21   -1    0    0  504  502  0.00000000000E+00 -0.00000000000E+00 -0.29332478256E+03  0.29332478256E+03  0.00000000000E+00 0.  1.
         21    1    1    2  503  502  0.64523847627E+01 -0.44321007837E+02 -0.22625054057E+02  0.50178462272E+02  0.00000000000E+00 0. -1.
         21    1    1    2  504  505 -0.42551344073E+02 -0.24313309436E+02 -0.97716201266E+02  0.10931701555E+03  0.00000000000E+00 0. -1.
         21    1    1    2  505  501  0.62931097531E+00  0.14419528678E+03 -0.11704517284E+03  0.18572089071E+03  0.00000000000E+00 0.  1.
         -1    1    1    2    0  503  0.35469648335E+02 -0.75560969508E+02  0.85885563423E+03  0.86290240266E+03  0.00000000000E+00 0.  1.
<scales pt_clust_3="44.78822" pt_clust_4="58.09041" pt_clust_5="84.09299" pt_clust_6="14000.00000"></scales>
<clustering>
<clus scale="   44.788">  2  3  1 -1</clus>
<clus scale="   58.090">  2  4  1 -1</clus>
<clus scale="   84.093">  2  5  1 -1</clus>
<clus scale="   44.788">  2  3  1 -1</clus>
</clustering>
</event>
<event>
 6    0  0.7258365E+002  0.1275307E+03  0.7546771E-02  0.1231166E+00
         21   -1    0    0  503  502  0.00000000000E+00  0.00000000000E+00  0.81386458819E+03  0.81386458819E+03  0.00000000000E+00 0.  1.
         -1   -1    0    0    0  501 -0.00000000000E+00 -0.00000000000E+00 -0.94860014349E+02  0.94860014349E+02  0.00000000000E+00 0. -1.
         21    1    1    2  503  501 -0.57939938972E+02  0.56856112711E+01  0.22035469466E+03  0.22791567336E+03  0.00000000000E+00 0.  1.
         21    1    1    2  504  505  0.13038236953E+02 -0.43769916579E+02  0.12500036088E+02  0.47350312801E+02  0.00000000000E+00 0.  1.
         21    1    1    2  505  502  0.33642060306E+02  0.10848792652E+03  0.53506878133E+03  0.54699179078E+03  0.00000000000E+00 0.  1.
         -1    1    1    2    0  504  0.11259641713E+02 -0.70403621217E+02 -0.48918938236E+02  0.86466825605E+02  0.00000000000E+00 0. -1.
<scales pt_clust_3="58.21823" pt_clust_4="43.50466" pt_clust_5="115.36626" pt_clust_6="43.50466"></scales>
<clustering>
<clus scale="   43.505">  4  6 -1 -1</clus>
<clus scale="   58.218">  1  3  2 -1</clus>
<clus scale="  115.366">  1  5  2 -1</clus>
<clus scale="   58.218">  1  3  2 -1</clus>
</clustering>
</event>
<event>
 6    0  0.7258365E+002  0.7871275E+02  0.7546771E-02  0.1332745E+00
          2   -1    0    0  504    0 -0.00000000000E+00  0.00000000000E+00  0.32412001266E+04  0.32412001266E+04  0.00000000000E+00 0.  1.
         21   -1    0    0  503  502  0.00000000000E+00 -0.00000000000E+00 -0.80566443016E+02  0.80566443016E+02  0.00000000000E+00 0.  1.
         21    1    1    2  503  505  0.18666877733E+02 -0.77269582111E+02 -0.50496775269E+02  0.94175182275E+02  0.00000000000E+00 0.  1.
         21    1    1    2  504  502  0.66751604833E+02  0.70875459625E+02  0.67367897819E+03  0.68067795115E+03  0.00000000000E+00 0.  1.
         21    1    1    2  505  501 -0.44841888239E+02  0.35796338849E+01  0.10636162702E+03  0.11548335128E+03  0.00000000000E+00 0.  1.
          2    1    1    2  501    0 -0.40576594327E+02  0.28144886007E+01  0.24310898537E+04  0.24314300849E+04  0.00000000000E+00 0.  1.
<scales pt_clust_3="14000.00000" pt_clust_4="78.71275" pt_clust_5="50.55465" pt_clust_6="40.67409"></scales>
<clustering>
<clus scale="   40.674">  1  6  2 -1</clus>
<clus scale="   50.555">  1  5  2 -1</clus>
<clus scale="   78.713">  1  4  2 -1</clus>
<clus scale="   78.713">  2  3  1 -1</clus>
</clustering>
</event>
<event>
 6    0  0.9214182E+002  0.6230860E+02  0.7546771E-02  0.1388391E+00
         21   -1    0    0  505  502  0.00000000000E+00  0.00000000000E+00  0.10495906813E+04  0.10495906813E+04  0.00000000000E+00 0.  1.
          1   -1    0    0  503    0 -0.00000000000E+00 -0.00000000000E+00 -0.14539057338E+04  0.14539057338E+04  0.00000000000E+00 0.  1.
         21    1    1    2  503  504  0.76968301227E+02  0.63265908209E+02 -0.57665228491E+03  0.58519616559E+03  0.00000000000E+00 0. -1.
         21    1    1    2  504  502 -0.34349466928E+02 -0.86215669241E+02  0.12087234491E+03  0.15239144092E+03  0.00000000000E+00 0.  1.
         21    1    1    2  505  501 -0.67324449701E+01  0.41437350652E+02  0.90772619198E+03  0.90869643966E+03  0.00000000000E+00 0.  1.
          1    1    1    2  501    0 -0.35886389329E+02 -0.18487589620E+02 -0.85626130452E+03  0.85721236898E+03  0.00000000000E+00 0.  1.
<scales pt_clust_3="62.30860" pt_clust_4="14000.00000" pt_clust_5="41.97057" pt_clust_6="40.36860"></scales>
<clustering>
<clus scale="   40.369">  2  6  1 -1</clus>
<clus scale="   41.971">  1  5  2 -1</clus>
<clus scale="   62.309">  2  3  1 -1</clus>
<clus scale="   41.971">  1  3  2 -1</clus>
</clustering>
</event>
<event>
 6    0  0.7258365E+002  0.1916776E+03  0.7546771E-02  0.1156957E+00
          2   -1    0    0  504    0 -0.00000000000E+00  0.00000000000E+00  0.32848504724E+03  0.32848504724E+03  0.00000000000E+00 0.  1.
         21   -1    0    0  505  502  0.00000000000E+00 -0.00000000000E+00 -0.58971402189E+03  0.58971402189E+03  0.00000000000E+00 0. -1.
         21    1    1    2  503  502 -0.28586908137E+02 -0.18072523807E+03 -0.36079593047E+03  0.40453989474E+03  0.00000000000E+00 0. -1.
         21    1    1    2  504  503 -0.32052971892E+02  0.43668065548E+01  0.23504493534E+02  0.39986538020E+02  0.00000000000E+00 0. -1.
         21    1    1    2  505  501  0.70768515696E+02  0.20605588673E+03 -0.13762275898E+03  0.25769601289E+03  0.00000000000E+00 0. -1.
          2    1    1    2  501    0 -0.10128635667E+02 -0.29697455214E+02  0.21368522126E+03  0.21597662349E+03  0.00000000000E+00 0.  1.
<scales pt_clust_3="191.67758" pt_clust_4="35.10256" pt_clust_5="14000.00000" pt_clust_6="31.37719"></scales>
<clustering>
<clus scale="   31.377">  1  6  2 -1</clus>
<clus scale="   35.103">  1  4  2 -1</clus>
<clus scale="  191.678">  2  3  1 -1</clus>
<clus scale="  191.678">  2  3  1 -1</clus>
</clustering>
</event>
<event>
 6    0  0.7258365E+002  0.1124362E+03  0.7546771E-02  0.1256124E+00
          2   -1    0    0  504    0 -0.00000000000E+00  0.00000000000E+00  0.29103913563E+03  0.29103913563E+03  0.00000000000E+00 0.  1.
         21   -1    0    0  505  502  0.00000000000E+00 -0.00000000000E+00 -0.31191722067E+03  0.31191722067E+03  0.00000000000E+00 0.  1.
         21    1    1    2  503  502 -0.19850557624E+02  0.36032574410E+02 -0.90499500631E+02  0.99411018861E+02  0.00000000000E+00 0.  1.
         21    1    1    2  504  503 -0.31502943206E+02 -0.44430154495E+02 -0.23868770338E+02  0.59465891539E+02  0.00000000000E+00 0.  1.
         21    1    1    2  505  501  0.11889948617E+03 -0.79142490938E+02 -0.13101793972E+03  0.19382033488E+03  0.00000000000E+00 0.  1.
          2    1    1    2  501    0 -0.67545985344E+02  0.87540071024E+02  0.22450812564E+03  0.25025911102E+03  0.00000000000E+00 0.  1.
<scales pt_clust_3="41.13868" pt_clust_4="51.51869" pt_clust_5="14000.00000" pt_clust_6="112.43621"></scales>
<clustering>
<clus scale="   41.139">  2  3  1 -1</clus>
<clus scale="   51.519">  2  4  1 -1</clus>
<clus scale="  112.436">  1  6  2 -1</clus>
<clus scale="   41.139">  2  3  1 -1</clus>
</clustering>
</event>
<event>
 6    0  0.7258365E+002  0.1139036E+03  0.7546771E-02  0.1253507E+00
          2   -1    0    0  505    0 -0.00000000000E+00  0.00000000000E+00  0.56489608371E+03  0.56489608371E+03  0.00000000000E+00 0.  1.
         21   -1    0    0  503  502  0.00000000000E+00 -0.00000000000E+00 -0.10470294996E+04  0.10470294996E+04  0.00000000000E+00 0. -1.
         21    1    1    2  503  501 -0.33604353523E+02  0.97519977808E+01 -0.99242051535E+03  0.99303717621E+03  0.00000000000E+00 0. -1.
         21    1    1    2  504  502  0.13264451620E+03 -0.67610771182E+01  0.12866507822E+03  0.18491885300E+03  0.00000000000E+00 0.  1.
         21    1    1    2  505  504  0.44493028544E+01 -0.30481099742E+02 -0.63845786910E+01  0.31458807708E+02  0.00000000000E+00 0.  1.
          2    1    1    2  501    0 -0.10348946553E+03  0.27490179079E+02  0.38800659990E+03  0.40251074643E+03  0.00000000000E+00 0.  1.
<scales pt_clust_3="34.98365" pt_clust_4="14000.00000" pt_clust_5="30.80412" pt_clust_6="113.90356"></scales>
<clustering>
<clus scale="   30.804">  1  5  2 -1</clus>
<clus scale="   34.984">  2  3  1 -1</clus>
<clus scale="  113.904">  1  6  2 -1</clus>
<clus scale="   34.984">  2  3  1 -1</clus>
</clustering>
</event>
<event>
 6    0  0.7258365E+002  0.9781996E+02  0.7546771E-02  0.1284948E+00
          1   -1    0    0  505    0 -0.00000000000E+00  0.00000000000E+00  0.42623864004E+03  0.42623864004E+03  0.00000000000E+00 0. -1.
         21   -1    0    0  504  502  0.00000000000E+00 -0.00000000000E+00 -0.77792739794E+03  0.77792739794E+03  0.00000000000E+00 0. -1.
         21    1    1    2  503  501  0.41005418411E+02  0.12819754997E+03  0.11684758645E+03  0.17823976722E+03  0.00000000000E+00 0.  1.
         21    1    1    2  504  503 -0.37866610006E+01 -0.46666030177E+02 -0.52575390296E+02  0.70400488911E+02  0.00000000000E+00 0. -1.
         21    1    1    2  505  502 -0.16443867108E+02 -0.48075247634E+02 -0.68335796923E+03  0.68524429536E+03  0.00000000000E+00 0. -1.
          1    1    1    2  501    0 -0.20774890303E+02 -0.33456272160E+02  0.26739701518E+03  0.27028148649E+03  0.00000000000E+00 0. -1.
<scales pt_clust_3="97.81996" pt_clust_4="48.81341" pt_clust_5="14000.00000" pt_clust_6="39.38170"></scales>
<clustering>
<clus scale="   39.382">  1  6  2 -1</clus>
<clus scale="   48.813">  2  4  1 -1</clus>
<clus scale="   97.820">  1  3  2 -1</clus>
<clus scale="   48.813">  2  3  1 -1</clus>
</clustering>
</event>
<event>
 6    0  0.7258365E+002  0.7332825E+02  0.7546771E-02  0.1349127E+00
         -1   -1    0    0    0  501 -0.00000000000E+00  0.00000000000E+00  0.21429702962E+04  0.21429702962E+04  0.00000000000E+00 0.  1.
         21   -1    0    0  505  502  0.00000000000E+00 -0.00000000000E+00 -0.51594639774E+02  0.51594639774E+02  0.00000000000E+00 0.  1.
         21    1    1    2  503  501 -0.66690220070E+02 -0.18800565220E+02  0.50690850551E+03  0.51162220404E+03  0.00000000000E+00 0.  1.
         21    1    1    2  504  502  0.92642636170E+02  0.38533667399E+02  0.39060608836E+03  0.40328726464E+03  0.00000000000E+00 0.  1.
         21    1    1    2  505  503 -0.55290538198E+02 -0.45455618002E+02 -0.12502882874E+02  0.72660710857E+02  0.00000000000E+00 0.  1.
         -1    1    1    2    0  504  0.29338122098E+02  0.25722515823E+02  0.12063639454E+04  0.12069947564E+04  0.00000000000E+00 0.  1.
<scales pt_clust_3="50.96017" pt_clust_4="14000.00000" pt_clust_5="73.32825" pt_clust_6="39.01760"></scales>
<clustering>
<clus scale="   39.018">  1  6  2 -1</clus>
<clus scale="   50.960">  1  3  2 -1</clus>
<clus scale="   73.328">  2  5  1 -1</clus>
<clus scale="   73.328">  2  3  1 -1</clus>
</clustering>
</event>
<event>
 6    0  0.7258365E+002  0.1807560E+03  0.7546771E-02  0.1167073E+00
         -2   -1    0    0    0  501 -0.00000000000E+00  0.00000000000E+00  0.86462168367E+03  0.86462168367E+03  0.00000000000E+00 0.  1.
         21   -1    0    0  505  502  0.00000000000E+00 -0.00000000000E+00 -0.25868490262E+03  0.25868490262E+03  0.00000000000E+00 0.  1.
         21    1    1    2  503  502 -0.26873084972E+02 -0.55336628191E+02 -0.10450492233E+03  0.12126658198E+03  0.00000000000E+00 0.  1.
         21    1    1    2  504  503  0.29659620664E+02  0.93914345676E+02  0.12980965376E+02  0.99338325352E+02  0.00000000000E+00 0.  1.
         21    1    1    2  505  501 -0.16766826329E+03 -0.10760290253E+03  0.17903082808E+02  0.20002887672E+03  0.00000000000E+00 0.  1.
         -2    1    1    2    0  504  0.16488172760E+03  0.69025185044E+02  0.67955765520E+03  0.70267280223E+03  0.00000000000E+00 0.  1.
<scales pt_clust_3="61.51671" pt_clust_4="80.50631" pt_clust_5="14000.00000" pt_clust_6="180.75599"></scales>
<clustering>
<clus scale="   61.517">  2  3  1 -1</clus>
<clus scale="   80.506">  2  4  1 -1</clus>
<clus scale="  180.756">  1  6  2 -1</clus>
<clus scale="   61.517">  2  3  1 -1</clus>
</clustering>
</event>
<event>
 6    0  0.7258365E+002  0.2928860E+03  0.7546771E-02  0.1088852E+00
         21   -1    0    0  503  502  0.00000000000E+00  0.00000000000E+00  0.11763907375E+04  0.11763907375E+04  0.00000000000E+00 0.  1.
         -1   -1    0    0    0  501 -0.00000000000E+00 -0.00000000000E+00 -0.39446619462E+03  0.39446619462E+03  0.00000000000E+00 0. -1.
         21    1    1    2  503  504  0.13347807393E+02  0.30221549569E+02  0.20397786049E+03  0.20663608976E+03  0.00000000000E+00 0. -1.
         21    1    1    2  504  505  0.24537690213E+03 -0.12930205773E+03  0.65318173790E+03  0.70963034670E+03  0.00000000000E+00 0.  1.
         21    1    1    2  505  501 -0.53300721846E+02  0.33346491649E+03 -0.22019238603E+02  0.33841492927E+03  0.00000000000E+00 0. -1.
         -1    1    1    2    0  502 -0.20542398767E+03 -0.23438440834E+03 -0.53215816953E+02  0.31617556635E+03  0.00000000000E+00 0. -1.
<scales pt_clust_3="33.03795" pt_clust_4="276.72854" pt_clust_5="14000.00000" pt_clust_6="292.88604"></scales>
<clustering>
<clus scale="   33.038">  1  3  2 -1</clus>
<clus scale="  276.729">  1  4  2 -1</clus>
<clus scale="  292.886">  2  6  1 -1</clus>
<clus scale="   33.038">  1  3  2 -1</clus>
</clustering>
</event>
<event>
 6    0  0.7258365E+002  0.5735817E+02  0.7546771E-02  0.1409265E+00
         21   -1    0    0  504  502  0.00000000000E+00  0.00000000000E+00  0.15145231379E+04  0.15145231379E+04  0.00000000000E+00 0.  1.
          3   -1    0    0  503    0 -0.00000000000E+00 -0.00000000000E+00 -0.36642098692E+03  0.36642098692E+03  0.00000000000E+00 0. -1.
         21    1    1    2  503  502  0.64195704113E+02  0.11503341320E+03  0.20710325006E+03  0.24544965016E+03  0.00000000000E+00 0.  1.
         21    1    1    2  504  505  0.12681027932E+02 -0.46004053445E+02  0.11620816899E+04  0.11630610626E+04  0.00000000000E+00 0.  1.
         21    1    1    2  505  501 -0.43727767749E+02 -0.23155832408E+02  0.11836953333E+03  0.12829519347E+03  0.00000000000E+00 0.  1.
          3    1    1    2  501    0 -0.33148964295E+02 -0.45873527346E+02 -0.33945232231E+03  0.34413821855E+03  0.00000000000E+00 0. -1.
<scales pt_clust_3="14000.00000" pt_clust_4="47.71982" pt_clust_5="55.55087" pt_clust_6="57.35817"></scales>
<clustering>
<clus scale="   47.720">  1  4  2 -1</clus>
<clus scale="   55.551">  1  5  2 -1</clus>
<clus scale="   57.358">  2  6  1 -1</clus>
<clus scale="   47.720">  1  3  2 -1</clus>
</clustering>
</event>
<event>
 6    0  0.7258365E+002  0.1941067E+03  0.7546771E-02  0.1154809E+00
          1   -1    0    0  502    0 -0.00000000000E+00  0.00000000000E+00  0.12648335932E+04  0.12648335932E+04  0.00000000000E+00 0.  1.
         21   -1    0    0  503  502  0.00000000000E+00 -0.00000000000E+00 -0.77925788216E+02  0.77925788216E+02  0.00000000000E+00 0.  1.
         21    1    1    2  503  505 -0.11661426411E+03 -0.91667015561E+02  0.98229743376E+02  0.17790674754E+03  0.00000000000E+00 0.  1.
         21    1    1    2  504  501  0.12380097381E+03  0.86157519035E+02  0.40427425995E+03  0.43149446863E+03  0.00000000000E+00 0.  1.
         21    1    1    2  505  504 -0.48649500045E+02  0.29296440384E+01  0.10563164184E+01  0.48749076640E+02  0.00000000000E+00 0.  1.
          1    1    1    2  501    0  0.41462790348E+02  0.25798524871E+01  0.68334748520E+03  0.68460908857E+03  0.00000000000E+00 0.  1.
<scales pt_clust_3="46.02758" pt_clust_4="177.05570" pt_clust_5="46.02758" pt_clust_6="41.54297"></scales>
<clustering>
<clus scale="   41.543">  1  6  2 -1</clus>
<clus scale="   46.028">  3  5 -1 -1</clus>
<clus scale="  177.056">  1  4  2 -1</clus>
<clus scale="  194.107">  2  3  1 -1</clus>
</clustering>
</event>
<event>
 6    0  0.7258365E+002  0.1375237E+03  0.7546771E-02  0.1216700E+00
         21   -1    0    0  503  502  0.00000000000E+00  0.00000000000E+00  0.32270246708E+03  0.32270246708E+03  0.00000000000E+00 0.  1.
          2   -1    0    0  504    0 -0.00000000000E+00 -0.00000000000E+00 -0.36431600316E+04  0.36431600316E+04  0.00000000000E+00 0.  1.
         21    1    1    2  503  505 -0.43765041295E+02  0.50397495411E+01 -0.20188895158E+02  0.48459977329E+02  0.00000000000E+00 0.  1.
         21    1    1    2  504  502 -0.78644486998E+02  0.64706094584E+02  0.29727019040E+03  0.31423144354E+03  0.00000000000E+00 0.  1.
         21    1    1    2  505  501  0.53594283805E+02 -0.76201545684E+02 -0.91261035454E+03  0.91735308471E+03  0.00000000000E+00 0.  1.
          2    1    1    2  501    0  0.68815244487E+02  0.64557015595E+01 -0.26849285053E+04  0.26858179931E+04  0.00000000000E+00 0.  1.
<scales pt_clust_3="44.05426" pt_clust_4="137.52373" pt_clust_5="14000.00000" pt_clust_6="69.05527"></scales>
<clustering>
<clus scale="   44.054">  1  3  2 -1</clus>
<clus scale="   69.055">  2  6  1 -1</clus>
<clus scale="  137.524">  1  4  2 -1</clus>
<clus scale="   44.054">  1  3  2 -1</clus>
</clustering>
</event>
<event>
 6    0  0.7258365E+002  0.8436209E+02  0.7546771E-02  0.1317109E+00
          2   -1    0    0  503    0 -0.00000000000E+00  0.00000000000E+00  0.28351382917E+04  0.28351382917E+04  0.00000000000E+00 0. -1.
         21   -1    0    0  504  502  0.00000000000E+00 -0.00000000000E+00 -0.10140374876E+03  0.10140374876E+03  0.00000000000E+00 0.  1.
         21    1    1    2  503  502 -0.30456692470E+02 -0.33871702231E+01 -0.34348620802E+01  0.30836363532E+02  0.00000000000E+00 0.  1.
         21    1    1    2  504  505 -0.34639239691E+02  0.56792186366E+02  0.91184790596E+01  0.67144441460E+02  0.00000000000E+00 0. -1.
         21    1    1    2  505  501 -0.49523022857E+01 -0.10091424134E+03 -0.78604056114E+01  0.10134098568E+03  0.00000000000E+00 0.  1.
          2    1    1    2  501    0  0.70048234447E+02  0.47509225194E+02  0.27359113316E+04  0.27372202498E+04  0.00000000000E+00 0. -1.
<scales pt_clust_3="30.64446" pt_clust_4="71.62781" pt_clust_5="84.36209" pt_clust_6="14000.00000"></scales>
<clustering>
<clus scale="   30.644">  2  3  1 -1</clus>
<clus scale="   71.628">  2  4  1 -1</clus>
<clus scale="   84.362">  2  5  1 -1</clus>
<clus scale="   30.644">  2  3  1 -1</clus>
</clustering>
</event>
<event>
 6    0  0.7258365E+002  0.1073943E+03  0.7546771E-02  0.1265473E+00
         21   -1    0    0  505  502  0.00000000000E+00  0.00000000000E+00  0.30179182413E+03  0.30179182413E+03  0.00000000000E+00 0.  1.
          2   -1    0    0  503    0 -0.00000000000E+00 -0.00000000000E+00 -0.81364893043E+03  0.81364893043E+03  0.00000000000E+00 0.  1.
         21    1    1    2  503  504  0.65865524393E+02  0.13248714687E+03 -0.48307241427E+03  0.50522279127E+03  0.00000000000E+00 0.  1.
         21    1    1    2  504  502 -0.24183007264E+02 -0.26782605014E+02  0.25004108804E+02  0.43901380715E+02  0.00000000000E+00 0. -1.
         21    1    1    2  505  501 -0.53411073883E+02 -0.48198942708E+02  0.24833445280E+03  0.25854570454E+03  0.00000000000E+00 0.  1.
          2    1    1    2  501    0  0.11728556754E+02 -0.57505599144E+02 -0.30212325363E+03  0.30777087803E+03  0.00000000000E+00 0.  1.
<scales pt_clust_3="14000.00000" pt_clust_4="36.08498" pt_clust_5="107.39432" pt_clust_6="58.91640"></scales>
<clustering>
<clus scale="   36.085">  1  4  2 -1</clus>
<clus scale="   58.916">  2  6  1 -1</clus>
<clus scale="  107.394">  1  5  2 -1</clus>
<clus scale="   36.085">  1  3  2 -1</clus>
</clustering>
</event>
<event>
 6    0  0.7258365E+002  0.9293947E+02  0.7546771E-02  0.1295886E+00
          2   -1    0    0  504    0 -0.00000000000E+00  0.00000000000E+00  0.44676969853E+03  0.44676969853E+03  0.00000000000E+00 0. -1.
         21   -1    0    0  503  502  0.00000000000E+00 -0.00000000000E+00 -0.18890143663E+03  0.18890143663E+03  0.00000000000E+00 0. -1.
         21    1    1    2  503  505 -0.90633050259E+02 -0.81016122561E+02 -0.11650230339E+03  0.16837680544E+03  0.00000000000E+00 0. -1.
         21    1    1    2  504  502  0.21949036000E+02  0.26706564764E+02  0.55452916730E+02  0.65345441744E+02  0.00000000000E+00 0. -1.
         21    1    1    2  505  501  0.18772906793E+02  0.65224785144E+02 -0.10423573483E+02  0.68668373438E+02  0.00000000000E+00 0. -1.
          2    1    1    2  501    0  0.49911107465E+02 -0.10915227346E+02  0.32934122204E+03  0.33328051454E+03  0.00000000000E+00 0. -1.
<scales pt_clust_3="92.93947" pt_clust_4="34.56878" pt_clust_5="14000.00000" pt_clust_6="69.76949"></scales>
<clustering>
<clus scale="   34.569">  1  4  2 -1</clus>
<clus scale="   69.769">  1  6  2 -1</clus>
<clus scale="   92.939">  2  3  1 -1</clus>
<clus scale="   92.939">  2  3  1 -1</clus>
</clustering>
</event>
<event>
 6    0  0.7258365E+002  0.8966340E+02  0.7546771E-02  0.1303669E+00
         21   -1    0    0  505  502  0.00000000000E+00  0.00000000000E+00  0.14945271162E+03  0.14945271162E+03  0.00000000000E+00 0.  1.
          1   -1    0    0  504    0 -0.00000000000E+00 -0.00000000000E+00 -0.16147196564E+04  0.16147196564E+04  0.00000000000E+00 0.  1.
         21    1    1    2  503  502  0.10143934800E+02 -0.28266094913E+02 -0.77242301099E+01  0.31008632115E+02  0.00000000000E+00 0.  1.
         21    1    1    2  504  503 -0.95461757273E+02  0.85960424372E+02 -0.25583886158E+03  0.28627899810E+03  0.00000000000E+00 0.  1.
         21    1    1    2  505  501  0.58295495636E+02 -0.26779868235E+02  0.11385531884E+03  0.13068496387E+03  0.00000000000E+00 0.  1.
          1    1    1    2  501    0  0.27022326838E+02 -0.30914461224E+02 -0.13155591719E+04  0.13161997739E+04  0.00000000000E+00 0.  1.
<scales pt_clust_3="30.03118" pt_clust_4="14000.00000" pt_clust_5="89.66340" pt_clust_6="41.12482"></scales>
<clustering>
<clus scale="   30.031">  1  3  2 -1</clus>
<clus scale="   41.125">  2  6  1 -1</clus>
<clus scale="   89.663">  1  5  2 -1</clus>
<clus scale="   30.031">  1  3  2 -1</clus>
</clustering>
</event>
<event>
 6    0  0.7258365E+002  0.1558837E+03  0.7546771E-02  0.1193424E+00
          2   -1    0    0  504    0 -0.00000000000E+00  0.00000000000E+00  0.11066123127E+04  0.11066123127E+04  0.00000000000E+00 0. -1.
         21   -1    0    0  505  502  0.00000000000E+00 -0.00000000000E+00 -0.57098265412E+03  0.57098265412E+03  0.00000000000E+00 0. -1.
         21    1    1    2  503  502 -0.50945925687E+02 -0.20964924649E+02  0.32796852240E+02  0.64114342596E+02  0.00000000000E+00 0. -1.
         21    1    1    2  504  503 -0.32820056447E+02  0.25801605090E+02  0.64968045301E+02  0.77225163261E+02  0.00000000000E+00 0.  1.
         21    1    1    2  505  501  0.11327869170E+03 -0.10814097258E+03 -0.53501299589E+03  0.55746339585E+03  0.00000000000E+00 0. -1.
          2    1    1    2  501    0 -0.29512709566E+02  0.10330429213E+03  0.97287775695E+03  0.97879206513E+03  0.00000000000E+00 0. -1.
<scales pt_clust_3="56.07754" pt_clust_4="41.74780" pt_clust_5="155.88369" pt_clust_6="14000.00000"></scales>
<clustering>
<clus scale="   41.748">  1  4  2 -1</clus>
<clus scale="   56.078">  1  3  2 -1</clus>
<clus scale="  155.884">  2  5  1 -1</clus>
<clus scale="  155.884">  2  3  1 -1</clus>
</clustering>
</event>
<event>
 6    0  0.7258365E+002  0.1898977E+03  0.7546771E-02  0.1158554E+00
          2   -1    0    0  505    0 -0.00000000000E+00  0.00000000000E+00  0.37002906712E+04  0.37002906712E+04  0.00000000000E+00 0. -1.
         21   -1    0    0  503  502  0.00000000000E+00 -0.00000000000E+00 -0.18666817384E+03  0.18666817384E+03  0.00000000000E+00 0. -1.
         21    1    1    2  503  504  0.27882629067E+02 -0.12996102234E+02 -0.43542438088E+02  0.53313071489E+02  0.00000000000E+00 0. -1.
         21    1    1    2  504  501 -0.18136908056E+03 -0.98311257548E+02  0.42700860845E+03  0.47423221995E+03  0.00000000000E+00 0. -1.
         21    1    1    2  505  502  0.11770856595E+03  0.13543802294E+03 -0.44167882047E+02  0.18479601284E+03  0.00000000000E+00 0. -1.
          2    1    1    2  501    0  0.35777885540E+02 -0.24130663162E+02  0.31743242090E+04  0.31746175407E+04  0.00000000000E+00 0. -1.
<scales pt_clust_3="30.76263" pt_clust_4="189.89771" pt_clust_5="14000.00000" pt_clust_6="43.18714"></scales>
<clustering>
<clus scale="   30.763">  2  3  1 -1</clus>
<clus scale="   43.187">  1  6  2 -1</clus>
<clus scale="  189.898">  1  4  2 -1</clus>
<clus scale="   30.763">  2  3  1 -1</clus>
</clustering>
</event>
<event>
 6    0  0.7258365E+002  0.9542961E+02  0.7546771E-02  0.1290211E+00
         -4   -1    0    0    0  501 -0.00000000000E+00  0.00000000000E+00  0.18475106930E+03  0.18475106930E+03  0.00000000000E+00 0.  1.
         21   -1    0    0  505  502  0.00000000000E+00 -0.00000000000E+00 -0.34560028014E+03  0.34560028014E+03  0.00000000000E+00 0.  1.
         21    1    1    2  503  501 -0.17638484796E+02  0.10859343948E+03  0.12647822533E+02  0.11074122384E+03  0.00000000000E+00 0.  1.
         21    1    1    2  504  502  0.75420064274E+00 -0.96471976763E+02 -0.52524644036E+02  0.10984648083E+03  0.00000000000E+00 0.  1.
         21    1    1    2  505  503  0.50251010376E+02  0.22719228437E+02 -0.20531876201E+03  0.21259614629E+03  0.00000000000E+00 0.  1.
         -4    1    1    2    0  504 -0.33366726223E+02 -0.34840691150E+02  0.84346372672E+02  0.97167498484E+02  0.00000000000E+00 0.  1.
<scales pt_clust_3="95.42961" pt_clust_4="14000.00000" pt_clust_5="53.42015" pt_clust_6="48.24119"></scales>
<clustering>
<clus scale="   48.241">  1  6  2 -1</clus>
<clus scale="   53.420">  2  5  1 -1</clus>
<clus scale="   95.430">  1  3  2 -1</clus>
<clus scale="   53.420">  2  3  1 -1</clus>
</clustering>
</event>
<event>
 6    0  0.7258365E+002  0.1566573E+03  0.7546771E-02  0.1192523E+00
         21   -1    0    0  501  502  0.00000000000E+00  0.00000000000E+00  0.57604612940E+03  0.57604612940E+03  0.00000000000E+00 0.  1.
          2   -1    0    0  503    0 -0.00000000000E+00 -0.00000000000E+00 -0.56271615430E+03  0.56271615430E+03  0.00000000000E+00 0.  1.
         21    1    1    2  503  504 -0.15404331744E+03  0.99385072957E+02 -0.33571225767E+03  0.38250419125E+03  0.00000000000E+00 0.  1.
         21    1    1    2  504  505  0.15067773010E+02 -0.11483030481E+03  0.66356860480E+02  0.13347759969E+03  0.00000000000E+00 0.  1.
         21    1    1    2  505  502  0.60485886620E+02 -0.46437274120E+02  0.43443230314E+03  0.44107413087E+03  0.00000000000E+00 0.  1.
          2    1    1    2  501    0  0.78489657809E+02  0.61882505969E+02 -0.15174693085E+03  0.18170636189E+03  0.00000000000E+00 0.  1.
<scales pt_clust_3="14000.00000" pt_clust_4="156.65729" pt_clust_5="76.25590" pt_clust_6="102.29490"></scales>
<clustering>
<clus scale="   76.256">  1  5  2 -1</clus>
<clus scale="  102.295">  2  6  1 -1</clus>
<clus scale="  156.657">  1  4  2 -1</clus>
<clus scale="   76.256">  1  3  2 -1</clus>
</clustering>
</event>
<event>
 6    0  0.7258365E+002  0.1096521E+03  0.7546771E-02  0.1261215E+00
          2   -1    0    0  504    0 -0.00000000000E+00  0.00000000000E+00  0.29778963016E+04  0.29778963016E+04  0.00000000000E+00 0.  1.
         21   -1    0    0  505  502  0.00000000000E+00 -0.00000000000E+00 -0.30084975703E+03  0.30084975703E+03  0.00000000000E+00 0.  1.
         21    1    1    2  503  502 -0.14513181594E+03  0.71695492149E+02 -0.11770559069E+03  0.20014518148E+03  0.00000000000E+00 0.  1.
         21    1    1    2  504  503  0.97946238313E+02 -0.78048076450E+01  0.24494439679E+04  0.24514139048E+04  0.00000000000E+00 0.  1.
         21    1    1    2  505  501  0.78648240008E+02 -0.45822915139E+02 -0.12547173116E+03  0.15501109808E+03  0.00000000000E+00 0.  1.
          2    1    1    2  501    0 -0.31462662383E+02 -0.18067769365E+02  0.47077989853E+03  0.47217587430E+03  0.00000000000E+00 0.  1.
<scales pt_clust_3="14000.00000" pt_clust_4="71.85180" pt_clust_5="109.65214" pt_clust_6="36.28145"></scales>
<clustering>
<clus scale="   36.281">  1  6  2 -1</clus>
<clus scale="   71.852">  1  4  2 -1</clus>
<clus scale="  109.652">  2  5  1 -1</clus>
<clus scale="  109.652">  2  3  1 -1</clus>
</clustering>
</event>
<event>
 6    0  0.7258365E+002  0.1901514E+03  0.7546771E-02  0.1158325E+00
         21   -1    0    0  504  502  0.00000000000E+00  0.00000000000E+00  0.53721117080E+03  0.53721117080E+03  0.00000000000E+00 0.  1.
         -4   -1    0    0    0  501 -0.00000000000E+00 -0.00000000000E+00 -0.36717925804E+03  0.36717925804E+03  0.00000000000E+00 0. -1.
         21    1    1    2  503  501  0.82366615670E+02  0.42812270540E+02 -0.36128655998E+02  0.99611393273E+02  0.00000000000E+00 0. -1.
         21    1    1    2  504  503  0.11854857245E+03 -0.63291360102E+02  0.26046811428E+02  0.13688680243E+03  0.00000000000E+00 0. -1.
         21    1    1    2  505  502 -0.22743729066E+03  0.13389192435E+01  0.39215801390E+03  0.45334029354E+03  0.00000000000E+00 0.  1.
         -4    1    1    2    0  505  0.26522102534E+02  0.19140170319E+02 -0.21204425657E+03  0.21455193960E+03  0.00000000000E+00 0. -1.
<scales pt_clust_3="107.12181" pt_clust_4="14000.00000" pt_clust_5="190.15137" pt_clust_6="32.70731"></scales>
<clustering>
<clus scale="   32.707">  2  6  1 -1</clus>
<clus scale="  107.122">  2  3  1 -1</clus>
<clus scale="  190.151">  1  5  2 -1</clus>
<clus scale="  190.151">  1  3  2 -1</clus>
</clustering>
</event>
<event>
 6    0  0.7258365E+002  0.1965404E+03  0.7546771E-02  0.1152691E+00
          1   -1    0    0  505    0 -0.00000000000E+00  0.00000000000E+00  0.22150311186E+04  0.22150311186E+04  0.00000000000E+00 0.  1.
         21   -1    0    0  501  502  0.00000000000E+00 -0.00000000000E+00 -0.99341852064E+02  0.99341852064E+02  0.00000000000E+00 0. -1.
         21    1    1    2  503  502 -0.77860418613E+01  0.10182025998E+03 -0.31963340927E+02  0.10700300441E+03  0.00000000000E+00 0. -1.
         21    1    1    2  504  503 -0.73612608786E+02  0.27226274289E+02  0.11849482726E+03  0.14213060990E+03  0.00000000000E+00 0. -1.
         21    1    1    2  505  504 -0.90024146809E+02 -0.40980736869E+02  0.17440962357E+03  0.20050557249E+03  0.00000000000E+00 0. -1.
          1    1    1    2  501    0  0.17142279746E+03 -0.88065797399E+02  0.18547481566E+04  0.18647337838E+04  0.00000000000E+00 0.  1.
<scales pt_clust_3="102.11752" pt_clust_4="60.68008" pt_clust_5="60.68008" pt_clust_6="184.35775"></scales>
<clustering>
<clus scale="   60.680">  4  5 -1 -1</clus>
<clus scale="  102.118">  2  3  1 -1</clus>
<clus scale="  184.358">  1  6  2 -1</clus>
<clus scale="  102.118">  2  3  1 -1</clus>
</clustering>
</event>
<event>
 6    0  0.7258365E+002  0.5165601E+03  0.7546771E-02  0.1009545E+00
         21   -1    0    0  503  502  0.00000000000E+00  0.00000000000E+00  0.67158078655E+03  0.67158078655E+03  0.00000000000E+00 0.  1.
          2   -1    0    0  505    0 -0.00000000000E+00 -0.00000000000E+00 -0.59681379877E+03  0.59681379877E+03  0.00000000000E+00 0.  1.
         21    1    1    2  503  501 -0.14992886092E+03 -0.26554945851E+03 -0.15830745566E+03  0.34359340618E+03  0.00000000000E+00 0. -1.
         21    1    1    2  504  502  0.11871156459E+03  0.31777971167E+03  0.30133921960E+03  0.45374189358E+03  0.00000000000E+00 0.  1.
         21    1    1    2  505  504  0.13293057498E+03  0.11368222933E+03  0.11042931659E+03  0.20685458900E+03  0.00000000000E+00 0.  1.
          2    1    1    2  501    0 -0.10171327864E+03 -0.16591248250E+03 -0.17869409275E+03  0.26420469656E+03  0.00000000000E+00 0.  1.
<scales pt_clust_3="63.73471" pt_clust_4="94.58627" pt_clust_5="94.58627" pt_clust_6="505.81468"></scales>
<clustering>
<clus scale="   63.735">  3  6 -1 -1</clus>
<clus scale="   94.586">  4  5 -1 -1</clus>
<clus scale="  505.815">  2  3  1 -1</clus>
<clus scale="  516.560">  1  3  2 -1</clus>
</clustering>
</event>
<event>
 6    0  0.7258365E+002  0.8590270E+02  0.7546771E-02  0.1313089E+00
         21   -1    0    0  505  502  0.00000000000E+00  0.00000000000E+00  0.55768865898E+03  0.55768865898E+03  0.00000000000E+00 0. -1.
          2   -1    0    0  504    0 -0.00000000000E+00 -0.00000000000E+00 -0.21265010284E+04  0.21265010284E+04  0.00000000000E+00 0.  1.
         21    1    1    2  503  501  0.10435413349E+03 -0.78421889116E+02 -0.33752558598E+03  0.36188851744E+03  0.00000000000E+00 0.  1.
         21    1    1    2  504  502 -0.60038824698E+02 -0.18339357819E+02 -0.38702800456E+03  0.39208630278E+03  0.00000000000E+00 0.  1.
         21    1    1    2  505  503 -0.68676476116E+01  0.54702063281E+02  0.54100502715E+03  0.54380687722E+03  0.00000000000E+00 0. -1.
          2    1    1    2  501    0 -0.37447661179E+02  0.42059183654E+02 -0.13852638060E+04  0.13864079899E+04  0.00000000000E+00 0.  1.
<scales pt_clust_3="85.90270" pt_clust_4="14000.00000" pt_clust_5="55.13148" pt_clust_6="58.02643"></scales>
<clustering>
<clus scale="   55.131">  1  5  2 -1</clus>
<clus scale="   58.026">  2  6  1 -1</clus>
<clus scale="   85.903">  1  3  2 -1</clus>
<clus scale="   55.131">  1  3  2 -1</clus>
</clustering>
</event>
<event>
 6    0  0.7258365E+002  0.6924364E+02  0.7546771E-02  0.1362684E+00
         21   -1    0    0  503  502  0.00000000000E+00  0.00000000000E+00  0.12590335938E+03  0.12590335938E+03  0.00000000000E+00 0. -1.
          2   -1    0    0  504    0 -0.00000000000E+00 -0.00000000000E+00 -0.96655076536E+03  0.96655076536E+03  0.00000000000E+00 0.  1.
         21    1    1    2  503  505 -0.59294607823E+01 -0.33955792414E+02 -0.28158073753E+02  0.44508779595E+02  0.00000000000E+00 0.  1.
         21    1    1    2  504  502 -0.71743751302E+01  0.93389561268E+02  0.86909673046E+02  0.12777469656E+03  0.00000000000E+00 0. -1.
         21    1    1    2  505  501  0.33284947387E+02 -0.94061993034E+02 -0.24490212044E+03  0.26444771667E+03  0.00000000000E+00 0.  1.
          2    1    1    2  501    0 -0.20181111475E+02  0.34628224180E+02 -0.65449688483E+03  0.65572293190E+03  0.00000000000E+00 0.  1.
<scales pt_clust_3="34.46961" pt_clust_4="69.24364" pt_clust_5="14000.00000" pt_clust_6="39.94276"></scales>
<clustering>
<clus scale="   34.470">  1  3  2 -1</clus>
<clus scale="   39.943">  2  6  1 -1</clus>
<clus scale="   69.244">  1  4  2 -1</clus>
<clus scale="   34.470">  1  3  2 -1</clus>
</clustering>
</event>
<event>
 6    0  0.7258365E+002  0.8907687E+02  0.7546771E-02  0.1305103E+00
          2   -1    0    0  503    0 -0.00000000000E+00  0.00000000000E+00  0.27118660819E+04  0.27118660819E+04  0.00000000000E+00 0.  1.
         21   -1    0    0  504  502  0.00000000000E+00 -0.00000000000E+00 -0.12360738224E+02  0.12360738224E+02  0.00000000000E+00 0.  1.
         21    1    1    2  503  505  0.91801733418E+02 -0.13823456025E+02  0.82235111768E+03  0.82757477423E+03  0.00000000000E+00 0.  1.
         21    1    1    2  504  501 -0.54920454267E+02  0.88041429636E+02  0.72422974209E+03  0.73162577111E+03  0.00000000000E+00 0.  1.
         21    1    1    2  505  502  0.38055485471E+02  0.40019250083E+01  0.10948778360E+03  0.11598193884E+03  0.00000000000E+00 0.  1.
          2    1    1    2  501    0 -0.74936764622E+02 -0.78219898619E+02  0.10434367003E+04  0.10490443359E+04  0.00000000000E+00 0.  1.
<scales pt_clust_3="89.07687" pt_clust_4="97.97163" pt_clust_5="38.26533" pt_clust_6="14000.00000"></scales>
<clustering>
<clus scale="   38.265">  2  5  1 -1</clus>
<clus scale="   97.972">  2  4  1 -1</clus>
<clus scale="   89.077">  1  3  2 -1</clus>
<clus scale="   38.265">  2  3  1 -1</clus>
</clustering>
</event>
<event>
 6    0  0.7258365E+002  0.1357047E+03  0.7546771E-02  0.1219228E+00
          1   -1    0    0  505    0 -0.00000000000E+00  0.00000000000E+00  0.93094480130E+03  0.93094480130E+03  0.00000000000E+00 0.  1.
         21   -1    0    0  501  502  0.00000000000E+00 -0.00000000000E+00 -0.80806799001E+03  0.80806799001E+03  0.00000000000E+00 0.  1.
         21    1    1    2  503  502  0.22976288327E+02  0.34414100450E+02 -0.70007207306E+03  0.70129390958E+03  0.00000000000E+00 0.  1.
         21    1    1    2  504  503  0.10874465992E+03  0.76779688665E+01 -0.62751839098E+02  0.12578611043E+03  0.00000000000E+00 0.  1.
         21    1    1    2  505  504 -0.15417299297E+03 -0.10835292907E+02  0.47676546405E+03  0.50119060551E+03  0.00000000000E+00 0. -1.
          1    1    1    2  501    0  0.22452044725E+02 -0.31256776409E+02  0.40893525940E+03  0.41074216579E+03  0.00000000000E+00 0.  1.
<scales pt_clust_3="41.36338" pt_clust_4="14000.00000" pt_clust_5="135.70473" pt_clust_6="38.48481"></scales>
<clustering>
<clus scale="   38.485">  1  6  2 -1</clus>
<clus scale="   41.363">  2  3  1 -1</clus>
<clus scale="  135.705">  1  5  2 -1</clus>
<clus scale="   41.363">  2  3  1 -1</clus>
</clustering>
</event>
<event>
 6    0  0.7258365E+002  0.1115834E+03  0.7546771E-02  0.1257665E+00
          1   -1    0    0  503    0 -0.00000000000E+00  0.00000000000E+00  0.63292114992E+03  0.63292114992E+03  0.00000000000E+00 0.  1.
         21   -1    0    0  505  502  0.00000000000E+00 -0.00000000000E+00 -0.37642372227E+03  0.37642372227E+03  0.00000000000E+00 0.  1.
         21    1    1    2  503  504  0.69690753516E+02 -0.14419347435E+03 -0.12308847877E+02  0.16062399232E+03  0.00000000000E+00 0.  1.
         21    1    1    2  504  502  0.56954072917E+02  0.42640338840E+02 -0.25675673182E+03  0.26643195051E+03  0.00000000000E+00 0.  1.
         21    1    1    2  505  501 -0.42695808510E+02  0.31648803390E+02  0.85128235278E+01  0.53824223030E+02  0.00000000000E+00 0. -1.
          1    1    1    2  501    0 -0.83949017922E+02  0.69904332122E+02  0.51705018381E+03  0.52846470633E+03  0.00000000000E+00 0.  1.
<scales pt_clust_3="111.58344" pt_clust_4="70.75286" pt_clust_5="53.14677" pt_clust_6="14000.00000"></scales>
<clustering>
<clus scale="   53.147">  2  5  1 -1</clus>
<clus scale="   70.753">  2  4  1 -1</clus>
<clus scale="  111.583">  2  3  1 -1</clus>
<clus scale="   53.147">  2  3  1 -1</clus>
</clustering>
</event>
<event>
 6    0  0.7258365E+002  0.7981320E+02  0.7546771E-02  0.1329582E+00
         21   -1    0    0  501  502  0.00000000000E+00  0.00000000000E+00  0.15412589862E+03  0.15412589862E+03  0.00000000000E+00 0. -1.
          2   -1    0    0  503    0 -0.00000000000E+00 -0.00000000000E+00 -0.58675096723E+03  0.58675096723E+03  0.00000000000E+00 0. -1.
         21    1    1    2  503  505  0.34748621811E+02  0.63115284028E+02 -0.15707692618E+02  0.73741015745E+02  0.00000000000E+00 0. -1.
         21    1    1    2  504  502  0.24651477184E+02 -0.19329549952E+02  0.68245478549E+02  0.75091758343E+02  0.00000000000E+00 0. -1.
         21    1    1    2  505  504 -0.10315872930E+03 -0.22248755800E+02 -0.11060680800E+01  0.10553650530E+03  0.00000000000E+00 0. -1.
          2    1    1    2  501    0  0.43758630305E+02 -0.21536978276E+02 -0.48405678646E+03  0.48650758646E+03  0.00000000000E+00 0. -1.
<scales pt_clust_3="14000.00000" pt_clust_4="31.32614" pt_clust_5="79.81320" pt_clust_6="49.22713"></scales>
<clustering>
<clus scale="   31.326">  1  4  2 -1</clus>
<clus scale="   49.227">  2  6  1 -1</clus>
<clus scale="   79.813">  1  5  2 -1</clus>
<clus scale="   31.326">  1  3  2 -1</clus>
</clustering>
</event>
<event>
 6    0  0.7258365E+002  0.1065966E+03  0.7546771E-02  0.1267006E+00
         21   -1    0    0  505  502  0.00000000000E+00  0.00000000000E+00  0.25373509014E+03  0.25373509014E+03  0.00000000000E+00 0.  1.
          2   -1    0    0  504    0 -0.00000000000E+00 -0.00000000000E+00 -0.66081281110E+03  0.66081281110E+03  0.00000000000E+00 0. -1.
         21    1    1    2  503  501  0.19358372558E+02 -0.88436147658E+02 -0.22848972216E+03  0.24577073043E+03  0.00000000000E+00 0. -1.
         21    1    1    2  504  502 -0.12272022615E+02  0.11423198596E+03 -0.24240596665E+02  0.11741871947E+03  0.00000000000E+00 0. -1.
         21    1    1    2  505  503  0.30558802456E+02 -0.31822463325E+01  0.19593737742E+03  0.19833159851E+03  0.00000000000E+00 0.  1.
          2    1    1    2  501    0 -0.37645152399E+02 -0.22613591965E+02 -0.35028477955E+03  0.35302685284E+03  0.00000000000E+00 0. -1.
<scales pt_clust_3="14000.00000" pt_clust_4="106.59657" pt_clust_5="30.72405" pt_clust_6="43.32252"></scales>
<clustering>
<clus scale="   30.724">  1  5  2 -1</clus>
<clus scale="   43.323">  2  6  1 -1</clus>
<clus scale="  106.597">  1  4  2 -1</clus>
<clus scale="   30.724">  1  3  2 -1</clus>
</clustering>
</event>
<event>
 6    0  0.7258365E+002  0.8858721E+02  0.7546771E-02  0.1306309E+00
         21   -1    0    0  503  502  0.00000000000E+00  0.00000000000E+00  0.77706621347E+03  0.77706621347E+03  0.00000000000E+00 0. -1.
         -4   -1    0    0    0  501 -0.00000000000E+00 -0.00000000000E+00 -0.10725223474E+03  0.10725223474E+03  0.00000000000E+00 0.  1.
         21    1    1    2  503  501  0.36354910611E+02 -0.36543818874E+02  0.18748356284E+03  0.19444077905E+03  0.00000000000E+00 0.  1.
         21    1    1    2  504  502  0.38344898518E+02  0.22087181068E+02  0.31377455093E+03  0.31687954119E+03  0.00000000000E+00 0. -1.
         21    1    1    2  505  504 -0.74774807602E+02 -0.75093413810E+02  0.23744243777E+03  0.26001769921E+03  0.00000000000E+00 0. -1.
         -4    1    1    2    0  505  0.74998473473E-01  0.89550051617E+02 -0.68886572814E+02  0.11298042876E+03  0.00000000000E+00 0.  1.
<scales pt_clust_3="58.97024" pt_clust_4="44.25127" pt_clust_5="88.58721" pt_clust_6="14000.00000"></scales>
<clustering>
<clus scale="   44.251">  1  4  2 -1</clus>
<clus scale="   58.970">  1  3  2 -1</clus>
<clus scale="   88.587">  1  5  2 -1</clus>
<clus scale="   44.251">  1  3  2 -1</clus>
</clustering>
</event>
<event>
 6    0  0.7258365E+002  0.1035023E+03  0.7546771E-02  0.1273099E+00
          1   -1    0    0  505    0 -0.00000000000E+00  0.00000000000E+00  0.14635185339E+04  0.14635185339E+04  0.00000000000E+00 0. -1.
         21   -1    0    0  504  502  0.00000000000E+00 -0.00000000000E+00 -0.17999021827E+03  0.17999021827E+03  0.00000000000E+00 0. -1.
         21    1    1    2  503  501 -0.70766174017E+02 -0.29073820344E+02  0.90438202580E+02  0.11845761647E+03  0.00000000000E+00 0.  1.
         21    1    1    2  504  503 -0.22813421060E+02  0.50978116392E+02  0.45225037161E+02  0.71864626330E+02  0.00000000000E+00 0.  1.
         21    1    1    2  505  502  0.19385500681E+03 -0.41504802599E+02 -0.85282323999E+02  0.21581354705E+03  0.00000000000E+00 0. -1.
          1    1    1    2  501    0 -0.10027541173E+03  0.19600506552E+02  0.12331473999E+04  0.12373729623E+04  0.00000000000E+00 0. -1.
<scales pt_clust_3="76.79464" pt_clust_4="55.84998" pt_clust_5="103.50231" pt_clust_6="14000.00000"></scales>
<clustering>
<clus scale="   55.850">  2  4  1 -1</clus>
<clus scale="   76.795">  2  3  1 -1</clus>
<clus scale="  103.502">  2  5  1 -1</clus>
<clus scale="   55.850">  2  3  1 -1</clus>
</clustering>
</event>
<event>
 6    0  0.7258365E+002  0.1257520E+03  0.7546771E-02  0.1233899E+00
         -2   -1    0    0    0  501 -0.00000000000E+00  0.00000000000E+00  0.76763910450E+03  0.76763910450E+03  0.00000000000E+00 0. -1.
         21   -1    0    0  505  502  0.00000000000E+00 -0.00000000000E+00 -0.22927018341E+03  0.22927018341E+03  0.00000000000E+00 0.  1.
         21    1    1    2  503  504  0.30725762558E+02  0.98099242445E+02  0.20130363480E+02  0.10475096843E+03  0.00000000000E+00 0.  1.
         21    1    1    2  504  502  0.72137156252E+02  0.11268931228E+02 -0.16079517611E+03  0.17659514938E+03  0.00000000000E+00 0.  1.
         21    1    1    2  505  501 -0.61947399773E+02 -0.25238167950E+02  0.61126001752E+02  0.90613649911E+02  0.00000000000E+00 0.  1.
         -2    1    1    2    0  503 -0.40915519038E+02 -0.84130005723E+02  0.61790773197E+03  0.62494952019E+03  0.00000000000E+00 0. -1.
<scales pt_clust_3="14000.00000" pt_clust_4="72.26881" pt_clust_5="66.89130" pt_clust_6="125.75199"></scales>
<clustering>
<clus scale="   66.891">  1  5  2 -1</clus>
<clus scale="   72.269">  2  4  1 -1</clus>
<clus scale="  125.752">  1  6  2 -1</clus>
<clus scale="   72.269">  2  3  1 -1</clus>
</clustering>
</event>
<event>
 6    0  0.7258365E+002  0.9912661E+02  0.7546771E-02  0.1282143E+00
          2   -1    0    0  504    0 -0.00000000000E+00  0.00000000000E+00  0.60968732741E+03  0.60968732741E+03  0.00000000000E+00 0.  1.
         21   -1    0    0  505  502  0.00000000000E+00 -0.00000000000E+00 -0.32918102029E+03  0.32918102029E+03  0.00000000000E+00 0.  1.
         21    1    1    2  503  501  0.68081428955E+02 -0.36077445495E+02  0.17692137690E+03  0.19297107722E+03  0.00000000000E+00 0. -1.
         21    1    1    2  504  502 -0.49191364650E+02 -0.34756412962E+02  0.15896754525E+02  0.62293702752E+02  0.00000000000E+00 0. -1.
         21    1    1    2  505  503 -0.45337946116E+02  0.90008049354E+02 -0.28870778994E+03  0.30579268513E+03  0.00000000000E+00 0.  1.
          2    1    1    2  501    0  0.26447881811E+02 -0.19174190897E+02  0.37639596564E+03  0.37781088259E+03  0.00000000000E+00 0.  1.
<scales pt_clust_3="14000.00000" pt_clust_4="58.69085" pt_clust_5="99.12661" pt_clust_6="32.66711"></scales>
<clustering>
<clus scale="   32.667">  1  6  2 -1</clus>
<clus scale="   58.691">  1  4  2 -1</clus>
<clus scale="   99.127">  2  5  1 -1</clus>
<clus scale="   99.127">  2  3  1 -1</clus>
</clustering>
</event>
<event>
 6    0  0.7258365E+002  0.6812384E+02  0.7546771E-02  0.1366592E+00
         21   -1    0    0  505  502  0.00000000000E+00  0.00000000000E+00  0.39672224532E+03  0.39672224532E+03  0.00000000000E+00 0.  1.
         -1   -1    0    0    0  501 -0.00000000000E+00 -0.00000000000E+00 -0.92248750983E+02  0.92248750983E+02  0.00000000000E+00 0. -1.
         21    1    1    2  503  501  0.52553285988E+01 -0.97680725820E+02  0.60440379776E+02  0.11498774797E+03  0.00000000000E+00 0.  1.
         21    1    1    2  504  502 -0.38086934865E+02  0.57980802196E+02  0.91414730527E+02  0.11475644203E+03  0.00000000000E+00 0.  1.
         21    1    1    2  505  503  0.36933282369E+02 -0.92488606872E+01  0.19232966193E+03  0.19606199945E+03  0.00000000000E+00 0. -1.
         -1    1    1    2    0  504 -0.41016761037E+01  0.48948784311E+02 -0.39711277896E+02  0.63164806851E+02  0.00000000000E+00 0. -1.
<scales pt_clust_3="68.12384" pt_clust_4="14000.00000" pt_clust_5="38.07373" pt_clust_6="48.45304"></scales>
<clustering>
<clus scale="   38.074">  1  5  2 -1</clus>
<clus scale="   48.453">  2  6  1 -1</clus>
<clus scale="   68.124">  2  3  1 -1</clus>
<clus scale="   38.074">  1  3  2 -1</clus>
</clustering>
</event>
<event>
 6    0  0.7258365E+002  0.7790029E+02  0.7546771E-02  0.1335118E+00
         21   -1    0    0  504  502  0.00000000000E+00  0.00000000000E+00  0.93177007005E+02  0.93177007005E+02  0.00000000000E+00 0. -1.
         -2   -1    0    0    0  501 -0.00000000000E+00 -0.00000000000E+00 -0.82839290284E+03  0.82839290284E+03  0.00000000000E+00 0. -1.
         21    1    1    2  503  502  0.41040869210E+02 -0.27210830773E+02 -0.26127763987E+02  0.55744437461E+02  0.00000000000E+00 0. -1.
         21    1    1    2  504  505 -0.11614431599E+03  0.30557651626E+00  0.29308305366E+02  0.11978552616E+03  0.00000000000E+00 0. -1.
         21    1    1    2  505  501  0.21515259372E+02  0.36149225696E+02 -0.17328679677E+03  0.17831990029E+03  0.00000000000E+00 0. -1.
         -2    1    1    2    0  503  0.53588187405E+02 -0.92439714393E+01 -0.56510964044E+03  0.56772004593E+03  0.00000000000E+00 0. -1.
<scales pt_clust_3="49.18454" pt_clust_4="14000.00000" pt_clust_5="42.06748" pt_clust_6="77.90029"></scales>
<clustering>
<clus scale="   42.067">  2  5  1 -1</clus>
<clus scale="   49.185">  1  3  2 -1</clus>
<clus scale="   77.900">  2  6  1 -1</clus>
<clus scale="   49.185">  1  3  2 -1</clus>
</clustering>
</event>
<event>
 6    0  0.7258365E+002  0.8150477E+02  0.7546771E-02  0.1324835E+00
         21   -1    0    0  503  502  0.00000000000E+00  0.00000000000E+00  0.74091102314E+02  0.74091102314E+02  0.00000000000E+00 0.  1.
         -1   -1    0    0    0  501 -0.00000000000E+00 -0.00000000000E+00 -0.49059821768E+03  0.49059821768E+03  0.00000000000E+00 0.  1.
         21    1    1    2  503  505  0.55556589167E+02  0.85752759032E+02 -0.91194418652E+02  0.13695434376E+03  0.00000000000E+00 0.  1.
         21    1    1    2  504  502 -0.52396240151E+02 -0.18186530583E+02  0.12585325770E+02  0.56872720186E+02  0.00000000000E+00 0.  1.
         21    1    1    2  505  501  0.41227375657E+02 -0.10088297636E+02 -0.26349713943E+03  0.26689363563E+03  0.00000000000E+00 0. -1.
         -1    1    1    2    0  504 -0.44387724673E+02 -0.57477930813E+02 -0.74400883055E+02  0.10396862042E+03  0.00000000000E+00 0.  1.
<scales pt_clust_3="14000.00000" pt_clust_4="52.01077" pt_clust_5="42.44373" pt_clust_6="81.50477"></scales>
<clustering>
<clus scale="   42.444">  2  5  1 -1</clus>
<clus scale="   52.011">  1  4  2 -1</clus>
<clus scale="   81.505">  2  6  1 -1</clus>
<clus scale="   52.011">  1  3  2 -1</clus>
</clustering>
</event>
<event>
 6    0  0.7258365E+002  0.2219753E+03  0.7546771E-02  0.1132419E+00
         21   -1    0    0  503  502  0.00000000000E+00  0.00000000000E+00  0.21152505175E+03  0.21152505175E+03  0.00000000000E+00 0.  1.
          1   -1    0    0  505    0 -0.00000000000E+00 -0.00000000000E+00 -0.76807675250E+03  0.76807675250E+03  0.00000000000E+00 0.  1.
         21    1    1    2  503  504  0.16360378048E+03 -0.72156955759E+02 -0.68011880637E+02  0.19130718533E+03  0.00000000000E+00 0.  1.
         21    1    1    2  504  501 -0.87565270139E+02  0.10005396958E+03 -0.31068280887E+03  0.33793828000E+03  0.00000000000E+00 0.  1.
         21    1    1    2  505  502  0.18737642087E+02 -0.44437393758E+02  0.12426001883E+03  0.13329041029E+03  0.00000000000E+00 0.  1.
          1    1    1    2  501    0 -0.94776152427E+02  0.16540379932E+02 -0.30211703007E+03  0.31706592863E+03  0.00000000000E+00 0.  1.
<scales pt_clust_3="206.41900" pt_clust_4="70.63698" pt_clust_5="48.22635" pt_clust_6="70.63698"></scales>
<clustering>
<clus scale="   48.226">  1  5  2 -1</clus>
<clus scale="   70.637">  4  6 -1 -1</clus>
<clus scale="  206.419">  1  3  2 -1</clus>
<clus scale="   48.226">  1  3  2 -1</clus>
</clustering>
</event>
<event>
 6    0  0.7258365E+002  0.1418525E+03  0.7546771E-02  0.1210858E+00
          2   -1    0    0  505    0 -0.00000000000E+00  0.00000000000E+00  0.20776052505E+03  0.20776052505E+03  0.00000000000E+00 0.  1.
         21   -1    0    0  504  502  0.00000000000E+00 -0.00000000000E+00 -0.14167634389E+04  0.14167634389E+04  0.00000000000E+00 0.  1.
         21    1    1    2  503  502 -0.18273890588E+03  0.63350372636E+01 -0.21475599511E+03  0.28205279268E+03  0.00000000000E+00 0.  1.
         21    1    1    2  504  501  0.12800586322E+03 -0.51424019301E+02 -0.11396782344E+04  0.11479966937E+04  0.00000000000E+00 0.  1.
         21    1    1    2  505  503  0.75496468595E+02 -0.96937360622E-03  0.63371433468E+02  0.98568023979E+02  0.00000000000E+00 0.  1.
          2    1    1    2  501    0 -0.20763425937E+02  0.45089951411E+02  0.82059882197E+02  0.95906453595E+02  0.00000000000E+00 0.  1.
<scales pt_clust_3="141.85251" pt_clust_4="14000.00000" pt_clust_5="68.61194" pt_clust_6="49.64095"></scales>
<clustering>
<clus scale="   49.641">  1  6  2 -1</clus>
<clus scale="   68.612">  1  5  2 -1</clus>
<clus scale="  141.853">  1  3  2 -1</clus>
<clus scale="  141.853">  2  3  1 -1</clus>
</clustering>
</event>
<event>
 6    0  0.7258365E+002  0.9879807E+02  0.7546771E-02  0.1282844E+00
          2   -1    0    0  504    0 -0.00000000000E+00  0.00000000000E+00  0.72298025042E+03  0.72298025042E+03  0.00000000000E+00 0. -1.
         21   -1    0    0  503  502  0.00000000000E+00 -0.00000000000E+00 -0.31922029901E+03  0.31922029901E+03  0.00000000000E+00 0. -1.
         21    1    1    2  503  505 -0.28621922728E+02  0.75962082613E+02 -0.26105864718E+03  0.27338813018E+03  0.00000000000E+00 0. -1.
         21    1    1    2  504  502  0.23373453365E+02  0.26466454318E+02 -0.33234401204E+02  0.48490379971E+02  0.00000000000E+00 0. -1.
         21    1    1    2  505  501 -0.42722458724E+02 -0.73234335291E+02  0.17707598481E+03  0.19632722873E+03  0.00000000000E+00 0. -1.
          2    1    1    2  501    0  0.47970928088E+02 -0.29194201639E+02  0.52097701499E+03  0.52399481056E+03  0.00000000000E+00 0. -1.
<scales pt_clust_3="98.79807" pt_clust_4="35.30994" pt_clust_5="14000.00000" pt_clust_6="56.19010"></scales>
<clustering>
<clus scale="   35.310">  2  4  1 -1</clus>
<clus scale="   56.190">  1  6  2 -1</clus>
<clus scale="   98.798">  2  3  1 -1</clus>
<clus scale="   35.310">  2  3  1 -1</clus>
</clustering>
</event>
<event>
 6    0  0.7258365E+002  0.1273613E+03  0.7546771E-02  0.1231424E+00
         21   -1    0    0  505  502  0.00000000000E+00  0.00000000000E+00  0.92719950327E+02  0.92719950327E+02  0.00000000000E+00 0. -1.
          2   -1    0    0  503    0 -0.00000000000E+00 -0.00000000000E+00 -0.91420856998E+03  0.91420856998E+03  0.00000000000E+00 0.  1.
         21    1    1    2  503  504 -0.94855634903E+02 -0.83242141465E+02 -0.27718524242E+03  0.30456280831E+03  0.00000000000E+00 0.  1.
         21    1    1    2  504  502  0.37051513213E+00  0.33202926383E+02  0.58435767649E+02  0.67210940647E+02  0.00000000000E+00 0. -1.
         21    1    1    2  505  501  0.10343138881E+03  0.79656380741E+02 -0.25915176753E+03  0.29017723859E+03  0.00000000000E+00 0.  1.
          2    1    1    2  501    0 -0.89462690431E+01 -0.29617165659E+02 -0.34358737735E+03  0.34497753276E+03  0.00000000000E+00 0.  1.
<scales pt_clust_3="127.36127" pt_clust_4="32.97630" pt_clust_5="14000.00000" pt_clust_6="30.93885"></scales>
<clustering>
<clus scale="   30.939">  2  6  1 -1</clus>
<clus scale="   32.976">  1  4  2 -1</clus>
<clus scale="  127.361">  1  3  2 -1</clus>
<clus scale="   32.976">  1  3  2 -1</clus>
</clustering>
</event>
<event>
 6    0  0.7258365E+002  0.7225514E+02  0.7546771E-02  0.1352588E+00
         21   -1    0    0  505  502  0.00000000000E+00  0.00000000000E+00  0.73032530872E+02  0.73032530872E+02  0.00000000000E+00 0. -1.
          2   -1    0    0  503    0 -0.00000000000E+00 -0.00000000000E+00 -0.80220247977E+03  0.80220247977E+03  0.00000000000E+00 0. -1.
         21    1    1    2  503  502  0.46979699629E+02  0.48947752464E+02  0.13989864102E+02  0.69272584376E+02  0.00000000000E+00 0. -1.
         21    1    1    2  504  501  0.48658490590E+02 -0.30999726658E+02 -0.61002282358E+02  0.83963743439E+02  0.00000000000E+00 0. -1.
         21    1    1    2  505  504 -0.92001665867E+02  0.21264309232E+02 -0.96482927329E+02  0.13500160234E+03  0.00000000000E+00 0. -1.
          2    1    1    2  501    0 -0.36365243521E+01 -0.39212335038E+02 -0.58567460331E+03  0.58699708048E+03  0.00000000000E+00 0. -1.
<scales pt_clust_3="63.97742" pt_clust_4="14000.00000" pt_clust_5="72.25514" pt_clust_6="39.38060"></scales>
<clustering>
<clus scale="   39.381">  2  6  1 -1</clus>
<clus scale="   63.977">  1  3  2 -1</clus>
<clus scale="   72.255">  1  5  2 -1</clus>
<clus scale="   63.977">  1  3  2 -1</clus>
</clustering>
</event>
<event>
 6    0  0.7258365E+002  0.1054678E+03  0.7546771E-02  0.1269201E+00
         -4   -1    0    0    0  501 -0.00000000000E+00  0.00000000000E+00  0.50835698700E+03  0.50835698700E+03  0.00000000000E+00 0.  1.
         21   -1    0    0  504  502  0.00000000000E+00 -0.00000000000E+00 -0.15474722097E+03  0.15474722097E+03  0.00000000000E+00 0.  1.
         21    1    1    2  503  502  0.27459146722E+02 -0.26314996730E+02 -0.79061445660E+02  0.87733665040E+02  0.00000000000E+00 0.  1.
         21    1    1    2  504  501 -0.19033341468E+02 -0.42625502838E+02 -0.43774009434E+01  0.46886706204E+02  0.00000000000E+00 0. -1.
         21    1    1    2  505  503  0.71466075316E+02 -0.12348121084E+02 -0.43033961373E+01  0.72652565224E+02  0.00000000000E+00 0.  1.
         -4    1    1    2    0  505 -0.79891880570E+02  0.81288620652E+02  0.44135200878E+03  0.45583127150E+03  0.00000000000E+00 0.  1.
<scales pt_clust_3="38.03267" pt_clust_4="52.87999" pt_clust_5="14000.00000" pt_clust_6="105.46776"></scales>
<clustering>
<clus scale="   38.033">  2  3  1 -1</clus>
<clus scale="   52.880">  2  4  1 -1</clus>
<clus scale="  105.468">  1  6  2 -1</clus>
<clus scale="   38.033">  2  3  1 -1</clus>
</clustering>
</event>
<event>
 6    0  0.7258365E+002  0.1973142E+03  0.7546771E-02  0.1152025E+00
         21   -1    0    0  505  502  0.00000000000E+00  0.00000000000E+00  0.51669327259E+03  0.51669327259E+03  0.00000000000E+00 0. -1.
          2   -1    0    0  503    0 -0.00000000000E+00 -0.00000000000E+00 -0.63917024584E+03  0.63917024584E+03  0.00000000000E+00 0. -1.
         21    1    1    2  503  502  0.55611140991E+02  0.13741999688E+01  0.68173549630E+00  0.55632294498E+02  0.00000000000E+00 0.  1.
         21    1    1    2  504  501  0.90767112440E+02  0.11191136275E+03  0.31631863802E+03  0.34759214976E+03  0.00000000000E+00 0. -1.
         21    1    1    2  505  504 -0.86409051042E+02  0.78201280431E+02  0.11453865634E+03  0.16340461486E+03  0.00000000000E+00 0. -1.
          2    1    1    2  501    0 -0.59969202389E+02 -0.19148684315E+03 -0.55401600311E+03  0.58923445931E+03  0.00000000000E+00 0. -1.
<scales pt_clust_3="55.62812" pt_clust_4="14000.00000" pt_clust_5="105.63913" pt_clust_6="197.31417"></scales>
<clustering>
<clus scale="   55.628">  1  3  2 -1</clus>
<clus scale="  105.639">  1  5  2 -1</clus>
<clus scale="  197.314">  2  6  1 -1</clus>
<clus scale="   55.628">  1  3  2 -1</clus>
</clustering>
</event>
<event>
 6    0  0.7258365E+002  0.1320476E+03  0.7546771E-02  0.1224449E+00
         21   -1    0    0  503  502  0.00000000000E+00  0.00000000000E+00  0.65583577396E+03  0.65583577396E+03  0.00000000000E+00 0. -1.
          1   -1    0    0  504    0 -0.00000000000E+00 -0.00000000000E+00 -0.86934829714E+03  0.86934829714E+03  0.00000000000E+00 0. -1.
         21    1    1    2  503  505 -0.58301956380E+02 -0.10609455668E+03  0.45502829212E+03  0.47085658083E+03  0.00000000000E+00 0. -1.
         21    1    1    2  504  502  0.12858204128E+03  0.22484635595E+03  0.92051566516E+02  0.27488673308E+03  0.00000000000E+00 0. -1.
         21    1    1    2  505  501 -0.75727895409E+02 -0.39157938718E+02 -0.29536769374E+03  0.30742500355E+03  0.00000000000E+00 0. -1.
          1    1    1    2  501    0  0.54478105072E+01 -0.79593860553E+02 -0.46522468809E+03  0.47201575364E+03  0.00000000000E+00 0. -1.
<scales pt_clust_3="132.04763" pt_clust_4="14000.00000" pt_clust_5="122.21426" pt_clust_6="79.78008"></scales>
<clustering>
<clus scale="   79.780">  2  6  1 -1</clus>
<clus scale="  122.214">  2  5  1 -1</clus>
<clus scale="  132.048">  1  3  2 -1</clus>
<clus scale="  132.048">  1  3  2 -1</clus>
</clustering>
</event>
<event>
 6    0  0.7258365E+002  0.1230190E+03  0.7546771E-02  0.1238198E+00
         21   -1    0    0  504  502  0.00000000000E+00  0.00000000000E+00  0.28461251182E+04  0.28461251182E+04  0.00000000000E+00 0.  1.
          2   -1    0    0  503    0 -0.00000000000E+00 -0.00000000000E+00 -0.13274967025E+03  0.13274967025E+03  0.00000000000E+00 0. -1.
         21    1    1    2  503  505  0.20092769456E+03  0.10051963845E+02  0.50403738369E+03  0.54270310905E+03  0.00000000000E+00 0.  1.
         21    1    1    2  504  501 -0.11352333089E+03 -0.11240845037E+01  0.17411889355E+04  0.17448861623E+04  0.00000000000E+00 0.  1.
         21    1    1    2  505  502  0.39197367385E+01  0.37666238141E+02  0.55538251559E+03  0.55667211934E+03  0.00000000000E+00 0. -1.
          2    1    1    2  501    0 -0.91324100407E+02 -0.46594117482E+02 -0.87233386792E+02  0.13461339781E+03  0.00000000000E+00 0. -1.
<scales pt_clust_3="123.01896" pt_clust_4="14000.00000" pt_clust_5="37.86964" pt_clust_6="102.31100"></scales>
<clustering>
<clus scale="   37.870">  1  5  2 -1</clus>
<clus scale="  102.311">  2  6  1 -1</clus>
<clus scale="  123.019">  2  3  1 -1</clus>
<clus scale="   37.870">  1  3  2 -1</clus>
</clustering>
</event>
<event>
 6    0  0.7258365E+002  0.1195692E+03  0.7546771E-02  0.1243809E+00
         21   -1    0    0  505  502  0.00000000000E+00  0.00000000000E+00  0.33093789704E+03  0.33093789704E+03  0.00000000000E+00 0.  1.
          2   -1    0    0  504    0 -0.00000000000E+00 -0.00000000000E+00 -0.74850687830E+03  0.74850687830E+03  0.00000000000E+00 0. -1.
         21    1    1    2  503  502 -0.12153717105E+02  0.59495330161E+02  0.10137436752E+03  0.11817008734E+03  0.00000000000E+00 0.  1.
         21    1    1    2  504  503 -0.65169289547E+02 -0.42337891337E+01 -0.99439558617E+02  0.11896716811E+03  0.00000000000E+00 0.  1.
         21    1    1    2  505  501  0.75605986818E+02  0.47059358217E+02  0.19761853595E+03  0.21675777769E+03  0.00000000000E+00 0.  1.
          2    1    1    2  501    0  0.17170198335E+01 -0.10232089924E+03 -0.61712232611E+03  0.62554974220E+03  0.00000000000E+00 0. -1.
<scales pt_clust_3="60.72402" pt_clust_4="65.72549" pt_clust_5="14000.00000" pt_clust_6="119.56924"></scales>
<clustering>
<clus scale="   60.724">  1  3  2 -1</clus>
<clus scale="   65.725">  2  4  1 -1</clus>
<clus scale="  119.569">  2  6  1 -1</clus>
<clus scale="   60.724">  1  3  2 -1</clus>
</clustering>
</event>
<event>
 6    0  0.7258365E+002  0.1301590E+03  0.7546771E-02  0.1227220E+00
         -2   -1    0    0    0  501 -0.00000000000E+00  0.00000000000E+00  0.35200739717E+03  0.35200739717E+03  0.00000000000E+00 0.  1.
         21   -1    0    0  504  502  0.00000000000E+00 -0.00000000000E+00 -0.71070976675E+03  0.71070976675E+03  0.00000000000E+00 0.  1.
         21    1    1    2  503  502  0.36621473037E+02 -0.26635684279E+02 -0.55764067435E+03  0.55947628516E+03  0.00000000000E+00 0.  1.
         21    1    1    2  504  505  0.92526260548E+02  0.66936244129E+02 -0.79880790944E+02  0.13936466708E+03  0.00000000000E+00 0. -1.
         21    1    1    2  505  501 -0.12086333515E+03 -0.78107764569E+02  0.86932276093E+02  0.16812492170E+03  0.00000000000E+00 0.  1.
         -2    1    1    2    0  503 -0.82843984309E+01  0.37807204719E+02  0.19188681962E+03  0.19575128998E+03  0.00000000000E+00 0.  1.
<scales pt_clust_3="45.11581" pt_clust_4="14000.00000" pt_clust_5="130.15900" pt_clust_6="38.70421"></scales>
<clustering>
<clus scale="   38.704">  1  6  2 -1</clus>
<clus scale="   45.116">  2  3  1 -1</clus>
<clus scale="  130.159">  1  5  2 -1</clus>
<clus scale="   45.116">  2  3  1 -1</clus>
</clustering>
</event>
<event>
 6    0  0.7258365E+002  0.8316173E+02  0.7546771E-02  0.1320311E+00
          1   -1    0    0  503    0 -0.00000000000E+00  0.00000000000E+00  0.63942153024E+03  0.63942153024E+03  0.00000000000E+00 0.  1.
         21   -1    0    0  505  502  0.00000000000E+00 -0.00000000000E+00 -0.41192678535E+03  0.41192678535E+03  0.00000000000E+00 0.  1.
         21    1    1    2  503  502  0.47478662513E+02 -0.15991678109E+02 -0.18719578164E+03  0.19378394625E+03  0.00000000000E+00 0.  1.
         21    1    1    2  504  501  0.94070821660E+02  0.42643409989E+02 -0.65312651256E+02  0.12220279177E+03  0.00000000000E+00 0. -1.
         21    1    1    2  505  504 -0.61840548133E+02 -0.50874898793E+02 -0.11191284623E+03  0.13761175048E+03  0.00000000000E+00 0. -1.
          1    1    1    2  501    0 -0.79708936041E+02  0.24223166913E+02  0.59191602401E+03  0.59774982708E+03  0.00000000000E+00 0.  1.
<scales pt_clust_3="50.09947" pt_clust_4="14000.00000" pt_clust_5="69.40835" pt_clust_6="83.16173"></scales>
<clustering>
<clus scale="   50.099">  2  3  1 -1</clus>
<clus scale="   69.408">  2  5  1 -1</clus>
<clus scale="   83.162">  1  6  2 -1</clus>
<clus scale="   50.099">  2  3  1 -1</clus>
</clustering>
</event>
<event>
 6    0  0.7258365E+002  0.7876916E+02  0.7546771E-02  0.1332581E+00
          1   -1    0    0  504    0 -0.00000000000E+00  0.00000000000E+00  0.17156582596E+04  0.17156582596E+04  0.00000000000E+00 0. -1.
         21   -1    0    0  503  502  0.00000000000E+00 -0.00000000000E+00 -0.40893052019E+03  0.40893052019E+03  0.00000000000E+00 0. -1.
         21    1    1    2  503  501  0.70850574631E+02  0.24722745586E+02 -0.26016408263E+03  0.27076995396E+03  0.00000000000E+00 0. -1.
         21    1    1    2  504  505  0.32327660248E+02  0.51225229325E+02  0.13635956233E+03  0.14920801578E+03  0.00000000000E+00 0. -1.
         21    1    1    2  505  502 -0.60549028883E+02 -0.10022012901E+03 -0.11156632084E+03  0.16173219563E+03  0.00000000000E+00 0. -1.
          1    1    1    2  501    0 -0.42629205995E+02  0.24272154099E+02  0.15420985806E+04  0.15428786144E+04  0.00000000000E+00 0. -1.
<scales pt_clust_3="14000.00000" pt_clust_4="71.29423" pt_clust_5="78.76916" pt_clust_6="49.05494"></scales>
<clustering>
<clus scale="   49.055">  1  6  2 -1</clus>
<clus scale="   71.294">  1  4  2 -1</clus>
<clus scale="   78.769">  1  5  2 -1</clus>
<clus scale="   78.769">  2  3  1 -1</clus>
</clustering>
</event>
<event>
 6    0  0.7258365E+002  0.1961974E+03  0.7546771E-02  0.1152987E+00
         21   -1    0    0  504  502  0.00000000000E+00  0.00000000000E+00  0.30139313351E+03  0.30139313351E+03  0.00000000000E+00 0. -1.
          1   -1    0    0  502    0 -0.00000000000E+00 -0.00000000000E+00 -0.13095283678E+04  0.13095283678E+04  0.00000000000E+00 0. -1.
         21    1    1    2  503  501  0.22114981244E+03 -0.17728285067E+02 -0.99802314752E+02  0.24327357782E+03  0.00000000000E+00 0. -1.
         21    1    1    2  504  505 -0.27295283106E+02  0.31504895261E+02  0.77669182307E+02  0.88148129790E+02  0.00000000000E+00 0. -1.
         21    1    1    2  505  503 -0.17104865849E+03 -0.33381290619E+02  0.94724418658E+02  0.19835490825E+03  0.00000000000E+00 0. -1.
          1    1    1    2  501    0 -0.22805870840E+02  0.19604680425E+02 -0.10807265205E+04  0.10811448855E+04  0.00000000000E+00 0. -1.
<scales pt_clust_3="14000.00000" pt_clust_4="42.36644" pt_clust_5="196.19745" pt_clust_6="30.07410"></scales>
<clustering>
<clus scale="   30.074">  2  6  1 -1</clus>
<clus scale="   42.366">  1  4  2 -1</clus>
<clus scale="  196.197">  1  5  2 -1</clus>
<clus scale="   42.366">  1  3  2 -1</clus>
</clustering>
</event>
<event>
 6    0  0.7258365E+002  0.8364616E+02  0.7546771E-02  0.1319011E+00
         21   -1    0    0  503  502  0.00000000000E+00  0.00000000000E+00  0.32255712355E+03  0.32255712355E+03  0.00000000000E+00 0.  1.
          2   -1    0    0  505    0 -0.00000000000E+00 -0.00000000000E+00 -0.14440118487E+04  0.14440118487E+04  0.00000000000E+00 0.  1.
         21    1    1    2  503  504 -0.51662252776E+02 -0.32929046071E+02  0.78371461795E+02  0.99475607367E+02  0.00000000000E+00 0.  1.
         21    1    1    2  504  501  0.11869611365E+03  0.51591404169E+02 -0.35369814164E+02  0.13416953505E+03  0.00000000000E+00 0.  1.
         21    1    1    2  505  502 -0.30246485198E+02  0.15809155086E+02  0.18217742149E+03  0.18534668099E+03  0.00000000000E+00 0.  1.
          2    1    1    2  501    0 -0.36787375679E+02 -0.34471513184E+02 -0.13466337943E+04  0.13475771489E+04  0.00000000000E+00 0.  1.
<scales pt_clust_3="83.64616" pt_clust_4="14000.00000" pt_clust_5="34.12886" pt_clust_6="50.45263"></scales>
<clustering>
<clus scale="   34.129">  1  5  2 -1</clus>
<clus scale="   50.453">  2  6  1 -1</clus>
<clus scale="   83.646">  1  3  2 -1</clus>
<clus scale="   34.129">  1  3  2 -1</clus>
</clustering>
</event>
<event>
 6    0  0.7258365E+002  0.8831322E+02  0.7546771E-02  0.1306989E+00
          2   -1    0    0  503    0 -0.00000000000E+00  0.00000000000E+00  0.11170884873E+04  0.11170884873E+04  0.00000000000E+00 0. -1.
         21   -1    0    0  501  502  0.00000000000E+00 -0.00000000000E+00 -0.11167648957E+03  0.11167648957E+03  0.00000000000E+00 0.  1.
         21    1    1    2  503  505 -0.70201762071E+02 -0.34875722816E+02 -0.55573430626E+02  0.96088550990E+02  0.00000000000E+00 0.  1.
         21    1    1    2  504  502 -0.45961704856E+02 -0.35138858553E+02  0.40669890477E+02  0.70719570736E+02  0.00000000000E+00 0.  1.
         21    1    1    2  505  504  0.29313541632E+02  0.89854107368E+02  0.10096604710E+03  0.13830107375E+03  0.00000000000E+00 0.  1.
          2    1    1    2  501    0  0.86849925295E+02 -0.19839525999E+02  0.91934949081E+03  0.92365578142E+03  0.00000000000E+00 0. -1.
<scales pt_clust_3="14000.00000" pt_clust_4="57.85514" pt_clust_5="85.54428" pt_clust_6="88.31322"></scales>
<clustering>
<clus scale="   57.855">  2  4  1 -1</clus>
<clus scale="   85.544">  2  5  1 -1</clus>
<clus scale="   88.313">  1  6  2 -1</clus>
<clus scale="   57.855">  2  3  1 -1</clus>
</clustering>
</event>
<event>
 6    0  0.7258365E+002  0.7950775E+02  0.7546771E-02  0.1330454E+00
          2   -1    0    0  504    0 -0.00000000000E+00  0.00000000000E+00  0.11861628134E+04  0.11861628134E+04  0.00000000000E+00 0.  1.
         21   -1    0    0  501  502  0.00000000000E+00 -0.00000000000E+00 -0.19198741146E+04  0.19198741146E+04  0.00000000000E+00 0.  1.
         21    1    1    2  503  505 -0.85671859242E+02 -0.43057650791E+02 -0.78724359685E+03  0.79306122685E+03  0.00000000000E+00 0.  1.
         21    1    1    2  504  503  0.11048918075E+03 -0.46679984907E+01 -0.40486918593E+03  0.41970073503E+03  0.00000000000E+00 0.  1.
         21    1    1    2  505  502  0.34416114469E+02  0.66095428645E+02 -0.71468041644E+03  0.71855491945E+03  0.00000000000E+00 0.  1.
          2    1    1    2  501    0 -0.59233435975E+02 -0.18369779364E+02  0.11730818980E+04  0.11747200467E+04  0.00000000000E+00 0.  1.
<scales pt_clust_3="14000.00000" pt_clust_4="79.50775" pt_clust_5="67.97994" pt_clust_6="62.01652"></scales>
<clustering>
<clus scale="   62.017">  1  6  2 -1</clus>
<clus scale="   67.980">  2  5  1 -1</clus>
<clus scale="   79.508">  1  4  2 -1</clus>
<clus scale="   67.980">  2  3  1 -1</clus>
</clustering>
</event>
<event>
 6    0  0.7258365E+002  0.8999087E+02  0.7546771E-02  0.1302874E+00
          2   -1    0    0  505    0 -0.00000000000E+00  0.00000000000E+00  0.21998601230E+04  0.21998601230E+04  0.00000000000E+00 0.  1.
         21   -1    0    0  504  502  0.00000000000E+00 -0.00000000000E+00 -0.42443162185E+02  0.42443162185E+02  0.00000000000E+00 0.  1.
         21    1    1    2  503  502  0.33573032179E+02 -0.17260127738E+02  0.29169838832E+03  0.29413094065E+03  0.00000000000E+00 0. -1.
         21    1    1    2  504  501  0.68970772625E+02  0.58697354731E+02  0.13805175141E+02  0.91612934619E+02  0.00000000000E+00 0.  1.
         21    1    1    2  505  503 -0.12382367872E+02 -0.34676851061E+02  0.35123510691E+03  0.35315988923E+03  0.00000000000E+00 0. -1.
          2    1    1    2  501    0 -0.90161436932E+02 -0.67603759321E+01  0.15006782904E+04  0.15033995207E+04  0.00000000000E+00 0.  1.
<scales pt_clust_3="38.94996" pt_clust_4="89.99087" pt_clust_5="36.82129" pt_clust_6="14000.00000"></scales>
<clustering>
<clus scale="   36.821">  1  5  2 -1</clus>
<clus scale="   38.950">  1  3  2 -1</clus>
<clus scale="   89.991">  2  4  1 -1</clus>
<clus scale="   89.991">  2  3  1 -1</clus>
</clustering>
</event>
<event>
 6    0  0.7258365E+002  0.8101088E+02  0.7546771E-02  0.1326207E+00
          1   -1    0    0  503    0 -0.00000000000E+00  0.00000000000E+00  0.49972431115E+03  0.49972431115E+03  0.00000000000E+00 0. -1.
         21   -1    0    0  504  502  0.00000000000E+00 -0.00000000000E+00 -0.80115436812E+03  0.80115436812E+03  0.00000000000E+00 0.  1.
         21    1    1    2  503  505  0.15971290493E+02 -0.68314025861E+02 -0.13302127974E+02  0.71406126193E+02  0.00000000000E+00 0. -1.
         21    1    1    2  504  501  0.33994969575E+02  0.69026435237E+02  0.93608586299E+02  0.12117291012E+03  0.00000000000E+00 0.  1.
         21    1    1    2  505  502  0.89283161815E+00 -0.66161099095E+02 -0.73879235522E+03  0.74174944038E+03  0.00000000000E+00 0.  1.
          1    1    1    2  501    0 -0.50859091686E+02  0.65448689718E+02  0.35705583992E+03  0.36655020258E+03  0.00000000000E+00 0. -1.
<scales pt_clust_3="14000.00000" pt_clust_4="63.95934" pt_clust_5="66.16712" pt_clust_6="81.01088"></scales>
<clustering>
<clus scale="   66.167">  2  5  1 -1</clus>
<clus scale="   63.959">  2  4  1 -1</clus>
<clus scale="   81.011">  1  6  2 -1</clus>
<clus scale="   66.167">  2  3  1 -1</clus>
</clustering>
</event>
<event>
 6    0  0.7258365E+002  0.1620720E+03  0.7546771E-02  0.1186377E+00
          3   -1    0    0  504    0 -0.00000000000E+00  0.00000000000E+00  0.18325587962E+03  0.18325587962E+03  0.00000000000E+00 0.  1.
         21   -1    0    0  501  502  0.00000000000E+00 -0.00000000000E+00 -0.78559751260E+03  0.78559751260E+03  0.00000000000E+00 0.  1.
         21    1    1    2  503  502 -0.60864366990E+02 -0.67284794050E+02 -0.48222650298E+03  0.49068739015E+03  0.00000000000E+00 0.  1.
         21    1    1    2  504  505  0.10752464025E+03  0.15298598302E+03 -0.28264749896E+02  0.18911677701E+03  0.00000000000E+00 0.  1.
         21    1    1    2  505  503 -0.17697046998E+02 -0.58980553543E+02 -0.18120978618E+03  0.19138672310E+03  0.00000000000E+00 0.  1.
          3    1    1    2  501    0 -0.28963226259E+02 -0.26720635424E+02  0.89359406082E+02  0.97662501955E+02  0.00000000000E+00 0.  1.
<scales pt_clust_3="45.08203" pt_clust_4="152.65908" pt_clust_5="45.08203" pt_clust_6="39.40636"></scales>
<clustering>
<clus scale="   39.406">  1  6  2 -1</clus>
<clus scale="   45.082">  3  5 -1 -1</clus>
<clus scale="  152.659">  1  4  2 -1</clus>
<clus scale="  162.072">  2  3  1 -1</clus>
</clustering>
</event>
<event>
 6    0  0.7258365E+002  0.9855431E+02  0.7546771E-02  0.1283366E+00
          2   -1    0    0  504    0 -0.00000000000E+00  0.00000000000E+00  0.32154677809E+03  0.32154677809E+03  0.00000000000E+00 0. -1.
         21   -1    0    0  503  502  0.00000000000E+00 -0.00000000000E+00 -0.32754385168E+03  0.32754385168E+03  0.00000000000E+00 0. -1.
         21    1    1    2  503  501 -0.72103474812E+02 -0.90897325958E+02 -0.12761653730E+03  0.17247381117E+03  0.00000000000E+00 0. -1.
         21    1    1    2  504  505  0.13614839665E+02  0.27666132281E+02  0.72500602681E+02  0.78785253212E+02  0.00000000000E+00 0. -1.
         21    1    1    2  505  502  0.22598517749E+02  0.89475867089E+02 -0.15963743193E+03  0.18439287804E+03  0.00000000000E+00 0. -1.
          2    1    1    2  501    0  0.35890117397E+02 -0.26244673411E+02  0.20875629296E+03  0.21343868736E+03  0.00000000000E+00 0. -1.
<scales pt_clust_3="14000.00000" pt_clust_4="30.83470" pt_clust_5="98.55431" pt_clust_6="47.64320"></scales>
<clustering>
<clus scale="   30.835">  1  4  2 -1</clus>
<clus scale="   47.643">  1  6  2 -1</clus>
<clus scale="   98.554">  2  5  1 -1</clus>
<clus scale="   98.554">  2  3  1 -1</clus>
</clustering>
</event>
<event>
 6    0  0.7258365E+002  0.9607386E+02  0.7546771E-02  0.1288776E+00
         21   -1    0    0  503  502  0.00000000000E+00  0.00000000000E+00  0.11119789139E+03  0.11119789139E+03  0.00000000000E+00 0. -1.
          1   -1    0    0  505    0 -0.00000000000E+00 -0.00000000000E+00 -0.72988366466E+03  0.72988366466E+03  0.00000000000E+00 0.  1.
         21    1    1    2  503  504  0.40145342702E+02 -0.24148339449E+02 -0.99605503665E+01  0.47895755578E+02  0.00000000000E+00 0. -1.
         21    1    1    2  504  501  0.35279816282E+02 -0.45830304206E+02 -0.16237965414E+03  0.17237237105E+03  0.00000000000E+00 0.  1.
         21    1    1    2  505  502 -0.10578436474E+03  0.10639136202E+03  0.20624950891E+02  0.15144253806E+03  0.00000000000E+00 0. -1.
          1    1    1    2  501    0  0.30359205754E+02 -0.36412718364E+02 -0.46697051966E+03  0.46937089137E+03  0.00000000000E+00 0.  1.
<scales pt_clust_3="46.84859" pt_clust_4="96.07386" pt_clust_5="14000.00000" pt_clust_6="47.98483"></scales>
<clustering>
<clus scale="   46.849">  1  3  2 -1</clus>
<clus scale="   47.985">  2  6  1 -1</clus>
<clus scale="   96.074">  2  4  1 -1</clus>
<clus scale="   46.849">  1  3  2 -1</clus>
</clustering>
</event>
<event>
 6    0  0.7258365E+002  0.1499653E+03  0.7546771E-02  0.1200516E+00
         -1   -1    0    0    0  501 -0.00000000000E+00  0.00000000000E+00  0.13541113296E+04  0.13541113296E+04  0.00000000000E+00 0. -1.
         21   -1    0    0  504  502  0.00000000000E+00 -0.00000000000E+00 -0.17135612407E+03  0.17135612407E+03  0.00000000000E+00 0. -1.
         21    1    1    2  503  502  0.89191774319E+02 -0.49068755196E+02  0.51787957114E+02  0.11421430666E+03  0.00000000000E+00 0. -1.
         21    1    1    2  504  505 -0.79790394317E+02  0.53260658644E+02 -0.43341338756E+02  0.10526954179E+03  0.00000000000E+00 0. -1.
         21    1    1    2  505  501 -0.24670444784E+02  0.76670585168E+02 -0.39278835276E+02  0.89609354291E+02  0.00000000000E+00 0. -1.
         -1    1    1    2    0  503  0.15269064781E+02 -0.80862488616E+02  0.12135874224E+04  0.12163742509E+04  0.00000000000E+00 0. -1.
<scales pt_clust_3="138.31877" pt_clust_4="53.09261" pt_clust_5="53.09261" pt_clust_6="82.29147"></scales>
<clustering>
<clus scale="   53.093">  4  5 -1 -1</clus>
<clus scale="   82.291">  1  6  2 -1</clus>
<clus scale="  138.319">  1  3  2 -1</clus>
<clus scale="  149.965">  2  3  1 -1</clus>
</clustering>
</event>
<event>
 6    0  0.7258365E+002  0.7282482E+02  0.7546771E-02  0.1350742E+00
          2   -1    0    0  504    0 -0.00000000000E+00  0.00000000000E+00  0.72375093152E+03  0.72375093152E+03  0.00000000000E+00 0.  1.
         21   -1    0    0  505  502  0.00000000000E+00 -0.00000000000E+00 -0.13280529354E+03  0.13280529354E+03  0.00000000000E+00 0.  1.
         21    1    1    2  503  501 -0.38206333096E+02  0.22387291167E+02  0.32934232243E+02  0.55186758810E+02  0.00000000000E+00 0. -1.
         21    1    1    2  504  502  0.79948346795E+02  0.50582382108E+02  0.33745168107E+02  0.10044427264E+03  0.00000000000E+00 0.  1.
         21    1    1    2  505  503 -0.42404624974E+00 -0.76043911733E+02 -0.71107740383E+02  0.10411132056E+03  0.00000000000E+00 0.  1.
          2    1    1    2  501    0 -0.41317967449E+02  0.30742384578E+01  0.59537397801E+03  0.59681387306E+03  0.00000000000E+00 0.  1.
<scales pt_clust_3="57.46847" pt_clust_4="14000.00000" pt_clust_5="72.82482" pt_clust_6="41.43218"></scales>
<clustering>
<clus scale="   41.432">  1  6  2 -1</clus>
<clus scale="   57.468">  1  3  2 -1</clus>
<clus scale="   72.825">  2  5  1 -1</clus>
<clus scale="   72.825">  2  3  1 -1</clus>
</clustering>
</event>
<event>
 6    0  0.7258365E+002  0.1147937E+03  0.7546771E-02  0.1251942E+00
         21   -1    0    0  504  502  0.00000000000E+00  0.00000000000E+00  0.22130504814E+03  0.22130504814E+03  0.00000000000E+00 0. -1.
          1   -1    0    0  505    0 -0.00000000000E+00 -0.00000000000E+00 -0.10264920879E+04  0.10264920879E+04  0.00000000000E+00 0.  1.
         21    1    1    2  503  501 -0.34139023642E+02  0.19589742277E+01  0.64944841632E+02  0.73397159140E+02  0.00000000000E+00 0. -1.
         21    1    1    2  504  503 -0.23874017228E+01  0.30203205392E+02  0.11589193065E+03  0.11978678096E+03  0.00000000000E+00 0. -1.
         21    1    1    2  505  502  0.13751361736E+03  0.17896978877E+02 -0.12641436722E+03  0.18764564757E+03  0.00000000000E+00 0. -1.
          1    1    1    2  501    0 -0.10098719200E+03 -0.50059158497E+02 -0.85960944487E+03  0.86696754841E+03  0.00000000000E+00 0.  1.
<scales pt_clust_3="42.04362" pt_clust_4="30.29741" pt_clust_5="14000.00000" pt_clust_6="114.79366"></scales>
<clustering>
<clus scale="   30.297">  1  4  2 -1</clus>
<clus scale="   42.044">  1  3  2 -1</clus>
<clus scale="  114.794">  2  6  1 -1</clus>
<clus scale="   30.297">  1  3  2 -1</clus>
</clustering>
</event>
<event>
 6    0  0.7258365E+002  0.7956144E+02  0.7546771E-02  0.1330301E+00
          2   -1    0    0  502    0 -0.00000000000E+00  0.00000000000E+00  0.89840669395E+03  0.89840669395E+03  0.00000000000E+00 0. -1.
         21   -1    0    0  504  502  0.00000000000E+00 -0.00000000000E+00 -0.34904714022E+02  0.34904714022E+02  0.00000000000E+00 0. -1.
         21    1    1    2  503  505  0.77464033968E+02  0.63433836396E+02  0.16860658420E+03  0.19609362151E+03  0.00000000000E+00 0. -1.
         21    1    1    2  504  503 -0.51794443887E+02 -0.48953333454E+02  0.57005874830E+02  0.91262056951E+02  0.00000000000E+00 0. -1.
         21    1    1    2  505  501 -0.50992590526E+02  0.43970048514E+01  0.18450581040E+03  0.19147316264E+03  0.00000000000E+00 0. -1.
          2    1    1    2  501    0  0.25323000445E+02 -0.18877507793E+02  0.45338371049E+03  0.45448256688E+03  0.00000000000E+00 0. -1.
<scales pt_clust_3="79.56144" pt_clust_4="14000.00000" pt_clust_5="40.44167" pt_clust_6="31.58504"></scales>
<clustering>
<clus scale="   31.585">  1  6  2 -1</clus>
<clus scale="   40.442">  1  5  2 -1</clus>
<clus scale="   79.561">  1  3  2 -1</clus>
<clus scale="   79.561">  2  3  1 -1</clus>
</clustering>
</event>
<event>
 6    0  0.7258365E+002  0.8524109E+02  0.7546771E-02  0.1314803E+00
         21   -1    0    0  503  502  0.00000000000E+00  0.00000000000E+00  0.64707098763E+02  0.64707098763E+02  0.00000000000E+00 0.  1.
          1   -1    0    0  505    0 -0.00000000000E+00 -0.00000000000E+00 -0.14812655719E+04  0.14812655719E+04  0.00000000000E+00 0.  1.
         21    1    1    2  503  501  0.20554637738E+02 -0.31584857288E+02 -0.12145289389E+02  0.39592984186E+02  0.00000000000E+00 0.  1.
         21    1    1    2  504  502  0.24727496090E+02  0.28244996597E+02  0.36960441307E+02  0.52681145748E+02  0.00000000000E+00 0.  1.
         21    1    1    2  505  504 -0.49768972244E+02 -0.80858898321E+02 -0.53042944180E+03  0.53886037595E+03  0.00000000000E+00 0.  1.
          1    1    1    2  501    0  0.44868384165E+01  0.84198759012E+02 -0.91094418321E+03  0.91483816474E+03  0.00000000000E+00 0.  1.
<scales pt_clust_3="39.51524" pt_clust_4="37.53970" pt_clust_5="85.24109" pt_clust_6="14000.00000"></scales>
<clustering>
<clus scale="   37.540">  1  4  2 -1</clus>
<clus scale="   39.515">  1  3  2 -1</clus>
<clus scale="   85.241">  1  5  2 -1</clus>
<clus scale="   37.540">  1  3  2 -1</clus>
</clustering>
</event>
<event>
 6    0  0.7258365E+002  0.9262549E+02  0.7546771E-02  0.1296615E+00
         21   -1    0    0  505  502  0.00000000000E+00  0.00000000000E+00  0.12319437999E+03  0.12319437999E+03  0.00000000000E+00 0. -1.
          1   -1    0    0  504    0 -0.00000000000E+00 -0.00000000000E+00 -0.19753132000E+04  0.19753132000E+04  0.00000000000E+00 0.  1.
         21    1    1    2  503  501 -0.37405265306E+02  0.23804248817E+02 -0.17972173692E+02  0.47841354094E+02  0.00000000000E+00 0. -1.
         21    1    1    2  504  502  0.14247163872E+03 -0.50283002294E+02  0.41481329158E+01  0.15114150709E+03  0.00000000000E+00 0. -1.
         21    1    1    2  505  503 -0.29504982187E+02 -0.25733158428E+02  0.16479930414E+02  0.42477376602E+02  0.00000000000E+00 0. -1.
          1    1    1    2  501    0 -0.75561391231E+02  0.52211911904E+02 -0.18547747097E+04  0.18570473422E+04  0.00000000000E+00 0.  1.
<scales pt_clust_3="46.48914" pt_clust_4="14000.00000" pt_clust_5="39.15022" pt_clust_6="92.62549"></scales>
<clustering>
<clus scale="   39.150">  1  5  2 -1</clus>
<clus scale="   46.489">  1  3  2 -1</clus>
<clus scale="   92.625">  2  6  1 -1</clus>
<clus scale="   39.150">  1  3  2 -1</clus>
</clustering>
</event>
<event>
 6    0  0.7258365E+002  0.9465741E+02  0.7546771E-02  0.1291950E+00
         21   -1    0    0  503  502  0.00000000000E+00  0.00000000000E+00  0.43880428955E+03  0.43880428955E+03  0.00000000000E+00 0.  1.
          2   -1    0    0  504    0 -0.00000000000E+00 -0.00000000000E+00 -0.45473840753E+03  0.45473840753E+03  0.00000000000E+00 0.  1.
         21    1    1    2  503  505  0.10562162251E+00  0.10670476760E+03  0.32632310099E+03  0.34332591632E+03  0.00000000000E+00 0.  1.
         21    1    1    2  504  502 -0.59475871632E+02 -0.12025015058E+02  0.47264679042E+02  0.76915084206E+02  0.00000000000E+00 0. -1.
         21    1    1    2  505  501  0.31487695355E+02 -0.56654910634E+02  0.14597717734E+02  0.66440554037E+02  0.00000000000E+00 0. -1.
          2    1    1    2  501    0  0.27882554654E+02 -0.38024841904E+02 -0.40411961574E+03  0.40686114251E+03  0.00000000000E+00 0.  1.
<scales pt_clust_3="94.65741" pt_clust_4="56.21678" pt_clust_5="14000.00000" pt_clust_6="47.15215"></scales>
<clustering>
<clus scale="   47.152">  2  6  1 -1</clus>
<clus scale="   56.217">  2  4  1 -1</clus>
<clus scale="   94.657">  1  3  2 -1</clus>
<clus scale="   94.657">  1  3  2 -1</clus>
</clustering>
</event>
<event>
 6    0  0.7258365E+002  0.8180085E+02  0.7546771E-02  0.1324017E+00
         21   -1    0    0  505  502  0.00000000000E+00  0.00000000000E+00  0.24429116005E+03  0.24429116005E+03  0.00000000000E+00 0. -1.
          2   -1    0    0  504    0 -0.00000000000E+00 -0.00000000000E+00 -0.28796876299E+04  0.28796876299E+04  0.00000000000E+00 0. -1.
         21    1    1    2  503  501 -0.17356127711E+02  0.58601035586E+02 -0.19672150876E+02  0.64205218331E+02  0.00000000000E+00 0. -1.
         21    1    1    2  504  502  0.89267942077E+01 -0.12475562429E+03 -0.10544272560E+04  0.10618194252E+04  0.00000000000E+00 0. -1.
         21    1    1    2  505  503  0.20637378603E+02  0.23667862328E+02  0.21692331514E+03  0.21918438300E+03  0.00000000000E+00 0. -1.
          2    1    1    2  501    0 -0.12208045100E+02  0.42486726373E+02 -0.17782203780E+04  0.17787697634E+04  0.00000000000E+00 0. -1.
<scales pt_clust_3="14000.00000" pt_clust_4="81.80085" pt_clust_5="31.40174" pt_clust_6="44.38521"></scales>
<clustering>
<clus scale="   31.402">  1  5  2 -1</clus>
<clus scale="   44.385">  2  6  1 -1</clus>
<clus scale="   81.801">  2  4  1 -1</clus>
<clus scale="   31.402">  1  3  2 -1</clus>
</clustering>
</event>
<event>
 6    0  0.7258365E+002  0.9754288E+02  0.7546771E-02  0.1285549E+00
         21   -1    0    0  503  502  0.00000000000E+00  0.00000000000E+00  0.14999283757E+04  0.14999283757E+04  0.00000000000E+00 0. -1.
          2   -1    0    0  504    0 -0.00000000000E+00 -0.00000000000E+00 -0.25930799075E+03  0.25930799075E+03  0.00000000000E+00 0. -1.
         21    1    1    2  503  505  0.32950223038E+02 -0.39697316174E+01  0.74351434279E+03  0.74425469693E+03  0.00000000000E+00 0. -1.
         21    1    1    2  504  502  0.67238111313E+02  0.37580616630E+02  0.69765476645E+03  0.70189417971E+03  0.00000000000E+00 0. -1.
         21    1    1    2  505  501 -0.31279316156E+02  0.35889873800E+02  0.34289648869E+02  0.58670765123E+02  0.00000000000E+00 0.  1.
          2    1    1    2  501    0 -0.68909018194E+02 -0.69500758813E+02 -0.23483837318E+03  0.25441672465E+03  0.00000000000E+00 0. -1.
<scales pt_clust_3="33.18849" pt_clust_4="97.54288" pt_clust_5="46.11288" pt_clust_6="14000.00000"></scales>
<clustering>
<clus scale="   33.188">  1  3  2 -1</clus>
<clus scale="   46.113">  1  5  2 -1</clus>
<clus scale="   97.543">  1  4  2 -1</clus>
<clus scale="   33.188">  1  3  2 -1</clus>
</clustering>
</event>
<event>
 6    0  0.7258365E+002  0.1239520E+03  0.7546771E-02  0.1236716E+00
         21   -1    0    0  501  502  0.00000000000E+00  0.00000000000E+00  0.36910259259E+03  0.36910259259E+03  0.00000000000E+00 0.  1.
          1   -1    0    0  504    0 -0.00000000000E+00 -0.00000000000E+00 -0.15319682567E+03  0.15319682567E+03  0.00000000000E+00 0.  1.
         21    1    1    2  503  502  0.34431226202E+02  0.43564820411E+02  0.34625155990E+02  0.65439318017E+02  0.00000000000E+00 0.  1.
         21    1    1    2  504  505 -0.53964122166E+02 -0.98455382810E+02 -0.26877190150E+02  0.11544683727E+03  0.00000000000E+00 0.  1.
         21    1    1    2  505  503  0.76247576427E+02  0.51157360961E+02  0.25291659499E+03  0.26906797006E+03  0.00000000000E+00 0.  1.
          1    1    1    2  501    0 -0.56714680463E+02  0.37332014379E+01 -0.44758793920E+02  0.72345292910E+02  0.00000000000E+00 0.  1.
<scales pt_clust_3="55.52840" pt_clust_4="14000.00000" pt_clust_5="123.95204" pt_clust_6="55.51110"></scales>
<clustering>
<clus scale="   55.528">  1  3  2 -1</clus>
<clus scale="   55.511">  2  6  1 -1</clus>
<clus scale="  123.952">  1  5  2 -1</clus>
<clus scale="   55.528">  1  3  2 -1</clus>
</clustering>
</event>
<event>
 6    0  0.7258365E+002  0.1293157E+03  0.7546771E-02  0.1228475E+00
          2   -1    0    0  503    0 -0.00000000000E+00  0.00000000000E+00  0.15205631443E+03  0.15205631443E+03  0.00000000000E+00 0. -1.
         21   -1    0    0  505  502  0.00000000000E+00 -0.00000000000E+00 -0.72520239009E+03  0.72520239009E+03  0.00000000000E+00 0.  1.
         21    1    1    2  503  504  0.15469423098E+02  0.37270067057E+02 -0.25962778306E+02  0.47983609772E+02  0.00000000000E+00 0.  1.
         21    1    1    2  504  502  0.82976790660E+02  0.68154381487E+02 -0.25770629384E+03  0.27918220106E+03  0.00000000000E+00 0.  1.
         21    1    1    2  505  501 -0.83221105289E+02 -0.15048851089E+03 -0.39693097730E+03  0.43258148945E+03  0.00000000000E+00 0.  1.
          2    1    1    2  501    0 -0.15225108469E+02  0.45064062347E+02  0.10745397378E+03  0.11751140423E+03  0.00000000000E+00 0. -1.
<scales pt_clust_3="40.35295" pt_clust_4="14000.00000" pt_clust_5="129.31571" pt_clust_6="74.84232"></scales>
<clustering>
<clus scale="   40.353">  1  3  2 -1</clus>
<clus scale="   74.842">  1  6  2 -1</clus>
<clus scale="  129.316">  1  5  2 -1</clus>
<clus scale="  129.316">  2  3  1 -1</clus>
</clustering>
</event>
<event>
 6    0  0.7258365E+002  0.8542970E+02  0.7546771E-02  0.1314313E+00
         21   -1    0    0  503  502  0.00000000000E+00  0.00000000000E+00  0.13499135518E+04  0.13499135518E+04  0.00000000000E+00 0. -1.
          2   -1    0    0  504    0 -0.00000000000E+00 -0.00000000000E+00 -0.79699469135E+02  0.79699469135E+02  0.00000000000E+00 0. -1.
         21    1    1    2  503  505 -0.34233176629E+02  0.50456945018E+02  0.47572030887E+03  0.47961195351E+03  0.00000000000E+00 0. -1.
         21    1    1    2  504  502  0.12860252746E+03 -0.72825992979E+02  0.73827781353E+03  0.75292520563E+03  0.00000000000E+00 0. -1.
         21    1    1    2  505  501 -0.42533912725E+02  0.31583958555E+02  0.10982644999E+03  0.12193657896E+03  0.00000000000E+00 0. -1.
          2    1    1    2  501    0 -0.51835438108E+02 -0.92149105944E+01 -0.53610489707E+02  0.75139282854E+02  0.00000000000E+00 0. -1.
<scales pt_clust_3="63.99262" pt_clust_4="14000.00000" pt_clust_5="85.42970" pt_clust_6="52.64815"></scales>
<clustering>
<clus scale="   52.648">  2  6  1 -1</clus>
<clus scale="   63.993">  1  3  2 -1</clus>
<clus scale="   85.430">  2  5  1 -1</clus>
<clus scale="   63.993">  1  3  2 -1</clus>
</clustering>
</event>
<event>
 6    0  0.7258365E+002  0.1267931E+03  0.7546771E-02  0.1232293E+00
         -3   -1    0    0    0  501 -0.00000000000E+00  0.00000000000E+00  0.22861507985E+04  0.22861507985E+04  0.00000000000E+00 0. -1.
         21   -1    0    0  504  502  0.00000000000E+00 -0.00000000000E+00 -0.35523404622E+03  0.35523404622E+03  0.00000000000E+00 0.  1.
         21    1    1    2  503  502  0.44826027579E+02  0.83611521069E+02 -0.38683582771E+02  0.10245330048E+03  0.00000000000E+00 0.  1.
         21    1    1    2  504  505 -0.32062018833E+02  0.38403341280E+01 -0.21109998939E+03  0.21355544184E+03  0.00000000000E+00 0.  1.
         21    1    1    2  505  501 -0.69428109390E+02 -0.19847479528E+03  0.86330550461E+02  0.22730039744E+03  0.00000000000E+00 0.  1.
         -3    1    1    2    0  503  0.56664100644E+02  0.11102294008E+03  0.20943697740E+04  0.20980757050E+04  0.00000000000E+00 0. -1.
<scales pt_clust_3="90.28968" pt_clust_4="32.29119" pt_clust_5="126.79314" pt_clust_6="14000.00000"></scales>
<clustering>
<clus scale="   32.291">  2  4  1 -1</clus>
<clus scale="   90.290">  2  3  1 -1</clus>
<clus scale="  126.793">  2  5  1 -1</clus>
<clus scale="   32.291">  2  3  1 -1</clus>
</clustering>
</event>
<event>
 6    0  0.7258365E+002  0.1266203E+03  0.7546771E-02  0.1232559E+00
          2   -1    0    0  504    0 -0.00000000000E+00  0.00000000000E+00  0.22338934536E+04  0.22338934536E+04  0.00000000000E+00 0. -1.
         21   -1    0    0  501  502  0.00000000000E+00 -0.00000000000E+00 -0.14362302126E+03  0.14362302126E+03  0.00000000000E+00 0. -1.
         21    1    1    2  503  502  0.35607122355E+02  0.35707220635E+02 -0.70288499841E+02  0.86506334900E+02  0.00000000000E+00 0. -1.
         21    1    1    2  504  505 -0.20622441673E+02 -0.11299603073E+03  0.53830474061E+03  0.55042291179E+03  0.00000000000E+00 0.  1.
         21    1    1    2  505  503  0.17650507854E+02  0.68513125985E+02 -0.37782456997E+02  0.80206626388E+02  0.00000000000E+00 0. -1.
          2    1    1    2  501    0 -0.32635188535E+02  0.87756841106E+01  0.16600366486E+04  0.16603806018E+04  0.00000000000E+00 0. -1.
<scales pt_clust_3="41.38932" pt_clust_4="116.69218" pt_clust_5="41.38932" pt_clust_6="33.79450"></scales>
<clustering>
<clus scale="   33.794">  1  6  2 -1</clus>
<clus scale="   41.389">  3  5 -1 -1</clus>
<clus scale="  116.692">  1  4  2 -1</clus>
<clus scale="  126.620">  2  3  1 -1</clus>
</clustering>
</event>
<event>
 6    0  0.7258365E+002  0.1325957E+03  0.7546771E-02  0.1223654E+00
         21   -1    0    0  503  502  0.00000000000E+00  0.00000000000E+00  0.23520222354E+03  0.23520222354E+03  0.00000000000E+00 0. -1.
          1   -1    0    0  502    0 -0.00000000000E+00 -0.00000000000E+00 -0.13687773118E+04  0.13687773118E+04  0.00000000000E+00 0.  1.
         21    1    1    2  503  505 -0.21814676329E+02  0.30078784138E+02  0.76885674419E+02  0.85393326961E+02  0.00000000000E+00 0. -1.
         21    1    1    2  504  501  0.92155538828E+02 -0.38021150643E+02 -0.33654811055E+02  0.10521833272E+03  0.00000000000E+00 0.  1.
         21    1    1    2  505  504 -0.93722203780E+02  0.28053302437E+02  0.97833452811E+02  0.13835542544E+03  0.00000000000E+00 0. -1.
          1    1    1    2  501    0  0.23381341281E+02 -0.20110935933E+02 -0.12746394045E+04  0.12750124502E+04  0.00000000000E+00 0.  1.
<scales pt_clust_3="33.09570" pt_clust_4="121.54425" pt_clust_5="33.09570" pt_clust_6="30.84051"></scales>
<clustering>
<clus scale="   30.841">  2  6  1 -1</clus>
<clus scale="   33.096">  3  5 -1 -1</clus>
<clus scale="  121.544">  2  4  1 -1</clus>
<clus scale="  132.596">  1  3  2 -1</clus>
</clustering>
</event>
<event>
 6    0  0.7258365E+002  0.1018770E+03  0.7546771E-02  0.1276398E+00
         21   -1    0    0  504  502  0.00000000000E+00  0.00000000000E+00  0.42920277304E+03  0.42920277304E+03  0.00000000000E+00 0. -1.
         -2   -1    0    0    0  501 -0.00000000000E+00 -0.00000000000E+00 -0.38831999726E+03  0.38831999726E+03  0.00000000000E+00 0. -1.
         21    1    1    2  503  502 -0.38886361934E+02  0.16544046895E+02  0.22734397044E+03  0.23123826571E+03  0.00000000000E+00 0. -1.
         21    1    1    2  504  501  0.12959280766E+02 -0.14000574667E+03 -0.75996879780E+02  0.15982827596E+03  0.00000000000E+00 0. -1.
         21    1    1    2  505  503 -0.42535494126E+02  0.58949746036E+02  0.14063683029E+03  0.15831316702E+03  0.00000000000E+00 0. -1.
         -2    1    1    2    0  505  0.68462575294E+02  0.64511953741E+02 -0.25110114516E+03  0.26814306162E+03  0.00000000000E+00 0. -1.
<scales pt_clust_3="42.25937" pt_clust_4="14000.00000" pt_clust_5="101.87698" pt_clust_6="93.36056"></scales>
<clustering>
<clus scale="   42.259">  1  3  2 -1</clus>
<clus scale="   93.361">  2  6  1 -1</clus>
<clus scale="  101.877">  1  5  2 -1</clus>
<clus scale="   42.259">  1  3  2 -1</clus>
</clustering>
</event>
<event>
 6    0  0.7258365E+002  0.1099680E+03  0.7546771E-02  0.1260629E+00
         21   -1    0    0  503  502  0.00000000000E+00  0.00000000000E+00  0.76624165263E+02  0.76624165263E+02  0.00000000000E+00 0. -1.
          2   -1    0    0  505    0 -0.00000000000E+00 -0.00000000000E+00 -0.29295196151E+04  0.29295196151E+04  0.00000000000E+00 0. -1.
         21    1    1    2  503  501  0.70297273448E+02  0.36157733994E+02  0.27553288504E+02  0.83715423246E+02  0.00000000000E+00 0. -1.
         21    1    1    2  504  502 -0.28912743437E+02  0.86761866219E+02 -0.99805439254E+02  0.13536873298E+03  0.00000000000E+00 0.  1.
         21    1    1    2  505  504  0.22978630640E+01 -0.91466157941E+02 -0.73019983288E+03  0.73590973234E+03  0.00000000000E+00 0.  1.
          2    1    1    2  501    0 -0.43682393075E+02 -0.31453442272E+02 -0.20504434662E+04  0.20511498918E+04  0.00000000000E+00 0. -1.
<scales pt_clust_3="77.35048" pt_clust_4="109.96799" pt_clust_5="14000.00000" pt_clust_6="53.82816"></scales>
<clustering>
<clus scale="   53.828">  2  6  1 -1</clus>
<clus scale="   77.350">  1  3  2 -1</clus>
<clus scale="  109.968">  1  4  2 -1</clus>
<clus scale="   77.350">  1  3  2 -1</clus>
</clustering>
</event>
<event>
 6    0  0.7258365E+002  0.9386514E+02  0.7546771E-02  0.1293753E+00
          2   -1    0    0  505    0 -0.00000000000E+00  0.00000000000E+00  0.15626434554E+04  0.15626434554E+04  0.00000000000E+00 0.  1.
         21   -1    0    0  503  502  0.00000000000E+00 -0.00000000000E+00 -0.48969894555E+03  0.48969894555E+03  0.00000000000E+00 0.  1.
         21    1    1    2  503  504 -0.25108203088E+02  0.39769492132E+02 -0.42466423063E+03  0.42726074374E+03  0.00000000000E+00 0.  1.
         21    1    1    2  504  501  0.88666645510E+02  0.34140110397E+02 -0.14639466617E+01  0.95023493430E+02  0.00000000000E+00 0.  1.
         21    1    1    2  505  502 -0.38932909954E+02 -0.93533077343E+02  0.15231166992E+03  0.18292909235E+03  0.00000000000E+00 0.  1.
          2    1    1    2  501    0 -0.24625532467E+02  0.19623474814E+02  0.13467610172E+04  0.13471290714E+04  0.00000000000E+00 0.  1.
<scales pt_clust_3="47.21131" pt_clust_4="14000.00000" pt_clust_5="93.86514" pt_clust_6="31.48806"></scales>
<clustering>
<clus scale="   31.488">  1  6  2 -1</clus>
<clus scale="   47.211">  2  3  1 -1</clus>
<clus scale="   93.865">  1  5  2 -1</clus>
<clus scale="   47.211">  2  3  1 -1</clus>
</clustering>
</event>
<event>
 6    0  0.7258365E+002  0.7571046E+02  0.7546771E-02  0.1341685E+00
         21   -1    0    0  503  502  0.00000000000E+00  0.00000000000E+00  0.13450917211E+04  0.13450917211E+04  0.00000000000E+00 0.  1.
         -1   -1    0    0    0  501 -0.00000000000E+00 -0.00000000000E+00 -0.20538401876E+03  0.20538401876E+03  0.00000000000E+00 0.  1.
         21    1    1    2  503  505  0.54914896314E+02  0.22054790455E+02  0.10815830317E+04  0.10832007728E+04  0.00000000000E+00 0.  1.
         21    1    1    2  504  502  0.16364369354E+02 -0.50630768590E+02  0.19416975366E+03  0.20132848916E+03  0.00000000000E+00 0. -1.
         21    1    1    2  505  501 -0.58511475431E+02  0.75347378460E+02  0.24289593675E+02  0.98441884170E+02  0.00000000000E+00 0. -1.
         -1    1    1    2    0  504 -0.12767790237E+02 -0.46771400326E+02 -0.16033467674E+03  0.16750459373E+03  0.00000000000E+00 0.  1.
<scales pt_clust_3="14000.00000" pt_clust_4="56.75873" pt_clust_5="75.71046" pt_clust_6="48.48278"></scales>
<clustering>
<clus scale="   48.483">  2  6  1 -1</clus>
<clus scale="   56.759">  1  4  2 -1</clus>
<clus scale="   75.710">  2  5  1 -1</clus>
<clus scale="   56.759">  1  3  2 -1</clus>
</clustering>
</event>
<event>
 6    0  0.7258365E+002  0.8671680E+02  0.7546771E-02  0.1311003E+00
          4   -1    0    0  504    0 -0.00000000000E+00  0.00000000000E+00  0.21267449755E+03  0.21267449755E+03  0.00000000000E+00 0. -1.
         21   -1    0    0  505  502  0.00000000000E+00 -0.00000000000E+00 -0.66868549521E+03  0.66868549521E+03  0.00000000000E+00 0.  1.
         21    1    1    2  503  501 -0.57832270686E+02  0.44713697224E+02  0.22695712051E+02  0.76543984726E+02  0.00000000000E+00 0. -1.
         21    1    1    2  504  502  0.11332056226E+03 -0.10837000451E+02 -0.29448002752E+03  0.31571740056E+03  0.00000000000E+00 0.  1.
         21    1    1    2  505  503 -0.25054669524E+02  0.17034620789E+02 -0.33017279241E+03  0.33155993066E+03  0.00000000000E+00 0.  1.
          4    1    1    2  501    0 -0.30433622047E+02 -0.50911317562E+02  0.14594611022E+03  0.15753867682E+03  0.00000000000E+00 0. -1.
<scales pt_clust_3="14000.00000" pt_clust_4="86.71680" pt_clust_5="30.29711" pt_clust_6="59.28611"></scales>
<clustering>
<clus scale="   30.297">  2  5  1 -1</clus>
<clus scale="   59.286">  1  6  2 -1</clus>
<clus scale="   86.717">  2  4  1 -1</clus>
<clus scale="   30.297">  2  3  1 -1</clus>
</clustering>
</event>
<event>
 6    0  0.7258365E+002  0.1042835E+03  0.7546771E-02  0.1271538E+00
         21   -1    0    0  504  502  0.00000000000E+00  0.00000000000E+00  0.23591185930E+03  0.23591185930E+03  0.00000000000E+00 0. -1.
         -1   -1    0    0    0  501 -0.00000000000E+00 -0.00000000000E+00 -0.53855447959E+03  0.53855447959E+03  0.00000000000E+00 0.  1.
         21    1    1    2  503  502  0.99673242153E+02 -0.61584554745E+02  0.91346360332E+02  0.14856503670E+03  0.00000000000E+00 0. -1.
         21    1    1    2  504  501 -0.56628355235E+02 -0.22799596467E+02  0.10213400345E+03  0.11898717106E+03  0.00000000000E+00 0. -1.
         21    1    1    2  505  503 -0.36942097950E+01  0.53750797210E+02 -0.23863554675E+03  0.24464202329E+03  0.00000000000E+00 0. -1.
         -1    1    1    2    0  505 -0.39350677123E+02  0.30633354002E+02 -0.25748743733E+03  0.26227210784E+03  0.00000000000E+00 0.  1.
<scales pt_clust_3="94.99826" pt_clust_4="61.04582" pt_clust_5="41.38465" pt_clust_6="41.38465"></scales>
<clustering>
<clus scale="   41.385">  5  6 -1 -1</clus>
<clus scale="   61.046">  1  4  2 -1</clus>
<clus scale="   94.998">  1  3  2 -1</clus>
<clus scale="   61.046">  1  3  2 -1</clus>
</clustering>
</event>
<event>
 6    0  0.7258365E+002  0.7999027E+02  0.7546771E-02  0.1329079E+00
         21   -1    0    0  505  502  0.00000000000E+00  0.00000000000E+00  0.17444579549E+03  0.17444579549E+03  0.00000000000E+00 0.  1.
          2   -1    0    0  503    0 -0.00000000000E+00 -0.00000000000E+00 -0.61902958750E+03  0.61902958750E+03  0.00000000000E+00 0. -1.
         21    1    1    2  503  504 -0.90248049112E+02 -0.25562508894E+02 -0.82654439678E+01  0.94161933887E+02  0.00000000000E+00 0.  1.
         21    1    1    2  504  502 -0.32233197629E+02 -0.96505698013E+01  0.66633165918E+02  0.74646442160E+02  0.00000000000E+00 0.  1.
         21    1    1    2  505  501  0.44204954723E+02  0.50095129521E+02  0.38684574682E+02  0.77201660229E+02  0.00000000000E+00 0. -1.
          2    1    1    2  501    0  0.78276292018E+02 -0.14882050826E+02 -0.54163608864E+03  0.54746534671E+03  0.00000000000E+00 0. -1.
<scales pt_clust_3="79.99027" pt_clust_4="33.64688" pt_clust_5="51.82610" pt_clust_6="14000.00000"></scales>
<clustering>
<clus scale="   33.647">  1  4  2 -1</clus>
<clus scale="   51.826">  1  5  2 -1</clus>
<clus scale="   79.990">  1  3  2 -1</clus>
<clus scale="   33.647">  1  3  2 -1</clus>
</clustering>
</event>
<event>
 6    0  0.7258365E+002  0.1300392E+03  0.7546771E-02  0.1227398E+00
          2   -1    0    0  503    0 -0.00000000000E+00  0.00000000000E+00  0.33694477453E+04  0.33694477453E+04  0.00000000000E+00 0.  1.
         21   -1    0    0  505  502  0.00000000000E+00 -0.00000000000E+00 -0.19875726279E+02  0.19875726279E+02  0.00000000000E+00 0. -1.
         21    1    1    2  503  502 -0.11760385657E+03  0.80496689104E+02  0.48905419517E+03  0.50939610310E+03  0.00000000000E+00 0. -1.
         21    1    1    2  504  501 -0.19385094644E+02 -0.29503971908E+02  0.11568190402E+03  0.12094862202E+03  0.00000000000E+00 0. -1.
         21    1    1    2  505  504  0.88723041862E+01 -0.29658143169E+02  0.37932490866E+02  0.48961179532E+02  0.00000000000E+00 0. -1.
          2    1    1    2  501    0  0.12811664702E+03 -0.21334574027E+02  0.27069034290E+04  0.27100175669E+04  0.00000000000E+00 0.  1.
<scales pt_clust_3="130.03923" pt_clust_4="39.19582" pt_clust_5="30.95680" pt_clust_6="14000.00000"></scales>
<clustering>
<clus scale="   30.957">  2  5  1 -1</clus>
<clus scale="   39.196">  2  4  1 -1</clus>
<clus scale="  130.039">  2  3  1 -1</clus>
<clus scale="   30.957">  2  3  1 -1</clus>
</clustering>
</event>
<event>
 6    0  0.7258365E+002  0.1136139E+03  0.7546771E-02  0.1254020E+00
         21   -1    0    0  504  502  0.00000000000E+00  0.00000000000E+00  0.31953908331E+03  0.31953908331E+03  0.00000000000E+00 0.  1.
          1   -1    0    0  503    0 -0.00000000000E+00 -0.00000000000E+00 -0.36092690468E+03  0.36092690468E+03  0.00000000000E+00 0.  1.
         21    1    1    2  503  502  0.10493616079E+03  0.63883117485E+02  0.49566386693E+02  0.13247443992E+03  0.00000000000E+00 0.  1.
         21    1    1    2  504  505 -0.71084832821E+02 -0.86728760587E+02  0.20165341988E+03  0.23073585140E+03  0.00000000000E+00 0.  1.
         21    1    1    2  505  501 -0.49326119443E+02 -0.22027808222E+02 -0.63903163523E+02  0.83677384655E+02  0.00000000000E+00 0.  1.
          1    1    1    2  501    0  0.15474791472E+02  0.44873451324E+02 -0.22870446442E+03  0.23357831202E+03  0.00000000000E+00 0.  1.
<scales pt_clust_3="14000.00000" pt_clust_4="113.61386" pt_clust_5="40.67742" pt_clust_6="47.46679"></scales>
<clustering>
<clus scale="   47.467">  2  6  1 -1</clus>
<clus scale="   40.677">  2  5  1 -1</clus>
<clus scale="  113.614">  1  4  2 -1</clus>
<clus scale="  113.614">  1  3  2 -1</clus>
</clustering>
</event>
<event>
 6    0  0.7258365E+002  0.1125948E+03  0.7546771E-02  0.1255839E+00
          2   -1    0    0  504    0 -0.00000000000E+00  0.00000000000E+00  0.19708443546E+04  0.19708443546E+04  0.00000000000E+00 0.  1.
         21   -1    0    0  501  502  0.00000000000E+00 -0.00000000000E+00 -0.12444803975E+03  0.12444803975E+03  0.00000000000E+00 0.  1.
         21    1    1    2  503  502 -0.32976318220E+02  0.10601879177E+03 -0.54746637777E+02  0.12379263354E+03  0.00000000000E+00 0.  1.
         21    1    1    2  504  505  0.52759422629E+02 -0.39917712148E+02  0.34234587406E+02  0.74491525654E+02  0.00000000000E+00 0.  1.
         21    1    1    2  505  503  0.26076715321E+01 -0.34851910043E+02  0.57097741149E+01  0.35412668706E+02  0.00000000000E+00 0.  1.
          2    1    1    2  501    0 -0.22390775941E+02 -0.31249169580E+02  0.18611985911E+04  0.18615955664E+04  0.00000000000E+00 0.  1.
<scales pt_clust_3="104.16443" pt_clust_4="31.06983" pt_clust_5="31.06983" pt_clust_6="38.44291"></scales>
<clustering>
<clus scale="   31.070">  4  5 -1 -1</clus>
<clus scale="   38.443">  1  6  2 -1</clus>
<clus scale="  104.164">  2  3  1 -1</clus>
<clus scale="  104.164">  2  3  1 -1</clus>
</clustering>
</event>
<event>
 6    0  0.7258365E+002  0.1262940E+03  0.7546771E-02  0.1233061E+00
         21   -1    0    0  505  502  0.00000000000E+00  0.00000000000E+00  0.18416746314E+04  0.18416746314E+04  0.00000000000E+00 0.  1.
         -2   -1    0    0    0  501 -0.00000000000E+00 -0.00000000000E+00 -0.47888133593E+03  0.47888133593E+03  0.00000000000E+00 0. -1.
         21    1    1    2  503  502 -0.73171909946E+01  0.10560217056E+03  0.28556488092E+03  0.30455321526E+03  0.00000000000E+00 0. -1.
         21    1    1    2  504  501 -0.33492882602E+02 -0.39960809513E+02 -0.12089622543E+02  0.53523812039E+02  0.00000000000E+00 0. -1.
         21    1    1    2  505  504  0.11399236237E+03 -0.33717544670E+02  0.15199077808E+04  0.15245493739E+04  0.00000000000E+00 0.  1.
         -2    1    1    2    0  503 -0.73182288777E+02 -0.31923816378E+02 -0.43058974372E+03  0.43792956607E+03  0.00000000000E+00 0. -1.
<scales pt_clust_3="105.05898" pt_clust_4="52.14057" pt_clust_5="14000.00000" pt_clust_6="126.29397"></scales>
<clustering>
<clus scale="   52.141">  2  4  1 -1</clus>
<clus scale="  105.059">  1  3  2 -1</clus>
<clus scale="  126.294">  2  6  1 -1</clus>
<clus scale="  105.059">  1  3  2 -1</clus>
</clustering>
</event>
<event>
 6    0  0.7258365E+002  0.1151755E+03  0.7546771E-02  0.1251275E+00
         21   -1    0    0  505  502  0.00000000000E+00  0.00000000000E+00  0.31259296550E+03  0.31259296550E+03  0.00000000000E+00 0.  1.
          4   -1    0    0  503    0 -0.00000000000E+00 -0.00000000000E+00 -0.16050496677E+04  0.16050496677E+04  0.00000000000E+00 0. -1.
         21    1    1    2  503  502 -0.10509877949E+02 -0.33403318134E+02 -0.12203628289E+03  0.12696099219E+03  0.00000000000E+00 0. -1.
         21    1    1    2  504  501 -0.10852824656E+02  0.13218290703E+03 -0.45081461343E+03  0.46991905728E+03  0.00000000000E+00 0. -1.
         21    1    1    2  505  504 -0.25230368299E+02 -0.11209492783E+03  0.28899501859E+03  0.31099833617E+03  0.00000000000E+00 0.  1.
          4    1    1    2  501    0  0.46593070904E+02  0.13315338930E+02 -0.10086008245E+04  0.10097642475E+04  0.00000000000E+00 0. -1.
<scales pt_clust_3="35.01770" pt_clust_4="115.17547" pt_clust_5="14000.00000" pt_clust_6="40.54665"></scales>
<clustering>
<clus scale="   35.018">  2  3  1 -1</clus>
<clus scale="   40.547">  2  6  1 -1</clus>
<clus scale="  115.175">  2  4  1 -1</clus>
<clus scale="  115.175">  1  3  2 -1</clus>
</clustering>
</event>
<event>
 6    0  0.7258365E+002  0.1372754E+03  0.7546771E-02  0.1217043E+00
          1   -1    0    0  504    0 -0.00000000000E+00  0.00000000000E+00  0.70871589518E+03  0.70871589518E+03  0.00000000000E+00 0.  1.
         21   -1    0    0  503  502  0.00000000000E+00 -0.00000000000E+00 -0.96801542932E+02  0.96801542932E+02  0.00000000000E+00 0.  1.
         21    1    1    2  503  505  0.40430281136E+02 -0.15340146040E+01 -0.18644459897E+01  0.40502308482E+02  0.00000000000E+00 0.  1.
         21    1    1    2  504  502  0.20060577518E+02 -0.10631847850E+03  0.12838426633E+03  0.16789450701E+03  0.00000000000E+00 0.  1.
         21    1    1    2  505  501 -0.11595301213E+03  0.13642442505E+03  0.96773638953E+02  0.20352361526E+03  0.00000000000E+00 0.  1.
          1    1    1    2  501    0  0.55462153477E+02 -0.28571931944E+02  0.38862089295E+03  0.39359700736E+03  0.00000000000E+00 0.  1.
<scales pt_clust_3="40.45937" pt_clust_4="14000.00000" pt_clust_5="137.27538" pt_clust_6="63.59734"></scales>
<clustering>
<clus scale="   40.459">  2  3  1 -1</clus>
<clus scale="   63.597">  1  6  2 -1</clus>
<clus scale="  137.275">  2  5  1 -1</clus>
<clus scale="   40.459">  2  3  1 -1</clus>
</clustering>
</event>
<event>
 6    0  0.7258365E+002  0.8948063E+02  0.7546771E-02  0.1304114E+00
         21   -1    0    0  505  502  0.00000000000E+00  0.00000000000E+00  0.32745896053E+03  0.32745896053E+03  0.00000000000E+00 0. -1.
          2   -1    0    0  504    0 -0.00000000000E+00 -0.00000000000E+00 -0.28328385272E+04  0.28328385272E+04  0.00000000000E+00 0. -1.
         21    1    1    2  503  501 -0.23544382441E+01 -0.11688142081E+03 -0.78650166827E+03  0.79514255584E+03  0.00000000000E+00 0. -1.
         21    1    1    2  504  502 -0.30911512241E+02  0.10416907544E+03  0.30382443964E+03  0.32267012256E+03  0.00000000000E+00 0. -1.
         21    1    1    2  505  503 -0.20894568507E+02 -0.31919787334E+02 -0.29963407584E+02  0.48510427854E+02  0.00000000000E+00 0.  1.
          2    1    1    2  501    0  0.54160518991E+02  0.44632132703E+02 -0.19927389305E+04  0.19939743815E+04  0.00000000000E+00 0. -1.
<scales pt_clust_3="14000.00000" pt_clust_4="89.48063" pt_clust_5="38.15044" pt_clust_6="70.11041"></scales>
<clustering>
<clus scale="   38.150">  1  5  2 -1</clus>
<clus scale="   70.110">  2  6  1 -1</clus>
<clus scale="   89.481">  1  4  2 -1</clus>
<clus scale="   38.150">  1  3  2 -1</clus>
</clustering>
</event>
<event>
 6    0  0.7258365E+002  0.1925176E+03  0.7546771E-02  0.1156210E+00
          2   -1    0    0  503    0 -0.00000000000E+00  0.00000000000E+00  0.36874160833E+03  0.36874160833E+03  0.00000000000E+00 0. -1.
         21   -1    0    0  504  502  0.00000000000E+00 -0.00000000000E+00 -0.59145148904E+03  0.59145148904E+03  0.00000000000E+00 0. -1.
         21    1    1    2  503  505 -0.17458393527E+02  0.82568738651E+02 -0.29128841304E+02  0.89279793361E+02  0.00000000000E+00 0. -1.
         21    1    1    2  504  501 -0.10056802463E+03  0.28575220763E+02 -0.36780999458E+03  0.38238025960E+03  0.00000000000E+00 0. -1.
         21    1    1    2  505  502 -0.92133844656E+01  0.44804922637E+02 -0.12205860150E+03  0.13034826330E+03  0.00000000000E+00 0. -1.
          2    1    1    2  501    0  0.12723980262E+03 -0.15594888205E+03  0.29628755667E+03  0.35818478111E+03  0.00000000000E+00 0. -1.
<scales pt_clust_3="90.21505" pt_clust_4="14000.00000" pt_clust_5="45.74240" pt_clust_6="192.51764"></scales>
<clustering>
<clus scale="   45.742">  2  5  1 -1</clus>
<clus scale="   90.215">  2  3  1 -1</clus>
<clus scale="  192.518">  1  6  2 -1</clus>
<clus scale="   45.742">  2  3  1 -1</clus>
</clustering>
</event>
<event>
 6    0  0.7258365E+002  0.8057626E+02  0.7546771E-02  0.1327424E+00
         21   -1    0    0  503  502  0.00000000000E+00  0.00000000000E+00  0.57213882869E+03  0.57213882869E+03  0.00000000000E+00 0. -1.
          2   -1    0    0  504    0 -0.00000000000E+00 -0.00000000000E+00 -0.16038962018E+03  0.16038962018E+03  0.00000000000E+00 0. -1.
         21    1    1    2  503  505 -0.33289410910E+02  0.46364026314E+01  0.21969696398E+03  0.22225309242E+03  0.00000000000E+00 0. -1.
         21    1    1    2  504  502  0.38054650095E+02  0.96966900090E+02 -0.32731525843E+02  0.10918831847E+03  0.00000000000E+00 0. -1.
         21    1    1    2  505  501 -0.24512409153E+02 -0.28193739818E+02  0.29514683132E+03  0.29750192807E+03  0.00000000000E+00 0. -1.
          2    1    1    2  501    0  0.19747169968E+02 -0.73409562904E+02 -0.70363060951E+02  0.10358510990E+03  0.00000000000E+00 0. -1.
<scales pt_clust_3="32.65306" pt_clust_4="80.57626" pt_clust_5="71.28217" pt_clust_6="14000.00000"></scales>
<clustering>
<clus scale="   32.653">  3  5 -1 -1</clus>
<clus scale="   71.282">  1  3  2 -1</clus>
<clus scale="   80.576">  1  4  2 -1</clus>
<clus scale="   71.282">  1  3  2 -1</clus>
</clustering>
</event>
<event>
 6    0  0.7258365E+002  0.8976698E+02  0.7546771E-02  0.1303417E+00
         21   -1    0    0  501  502  0.00000000000E+00  0.00000000000E+00  0.71788202241E+03  0.71788202241E+03  0.00000000000E+00 0. -1.
         -4   -1    0    0    0  501 -0.00000000000E+00 -0.00000000000E+00 -0.10163948470E+04  0.10163948470E+04  0.00000000000E+00 0. -1.
         21    1    1    2  503  505  0.83955701341E+02  0.14359382736E+03 -0.26748399035E+03  0.31498481255E+03  0.00000000000E+00 0. -1.
         21    1    1    2  504  502 -0.33867418468E+02 -0.24161039448E+02  0.61806974154E+03  0.61946829077E+03  0.00000000000E+00 0. -1.
         21    1    1    2  505  504  0.11343824310E+02 -0.64109536692E+02  0.58430908049E+02  0.87480775375E+02  0.00000000000E+00 0. -1.
         -4    1    1    2    0  503 -0.61432107183E+02 -0.55323251221E+02 -0.70752948385E+03  0.71234299072E+03  0.00000000000E+00 0. -1.
<scales pt_clust_3="14000.00000" pt_clust_4="41.60238" pt_clust_5="83.01339" pt_clust_6="89.76698"></scales>
<clustering>
<clus scale="   41.602">  1  4  2 -1</clus>
<clus scale="   83.013">  1  5  2 -1</clus>
<clus scale="   89.767">  2  6  1 -1</clus>
<clus scale="   41.602">  1  3  2 -1</clus>
</clustering>
</event>
<event>
 6    0  0.7258365E+002  0.6509600E+02  0.7546771E-02  0.1377611E+00
         21   -1    0    0  503  502  0.00000000000E+00  0.00000000000E+00  0.53187485890E+03  0.53187485890E+03  0.00000000000E+00 0. -1.
          3   -1    0    0  504    0 -0.00000000000E+00 -0.00000000000E+00 -0.12709421552E+03  0.12709421552E+03  0.00000000000E+00 0.  1.
         21    1    1    2  503  501 -0.52356075240E+02  0.85190340140E+01  0.34573521302E+03  0.34978074572E+03  0.00000000000E+00 0. -1.
         21    1    1    2  504  505 -0.34776829796E+02  0.70318401392E+02 -0.17477978825E+02  0.80371544771E+02  0.00000000000E+00 0. -1.
         21    1    1    2  505  502  0.10137952768E+03 -0.25503049171E+02  0.11956163254E+03  0.15881812909E+03  0.00000000000E+00 0. -1.
          3    1    1    2  501    0 -0.14246622643E+02 -0.53334386235E+02 -0.43038223349E+02  0.69998654850E+02  0.00000000000E+00 0.  1.
<scales pt_clust_3="53.04463" pt_clust_4="65.09600" pt_clust_5="14000.00000" pt_clust_6="55.72519"></scales>
<clustering>
<clus scale="   53.045">  1  3  2 -1</clus>
<clus scale="   55.725">  2  6  1 -1</clus>
<clus scale="   65.096">  2  4  1 -1</clus>
<clus scale="   53.045">  1  3  2 -1</clus>
</clustering>
</event>
<event>
 6    0  0.7258365E+002  0.1119189E+03  0.7546771E-02  0.1257057E+00
         21   -1    0    0  505  502  0.00000000000E+00  0.00000000000E+00  0.78564090044E+02  0.78564090044E+02  0.00000000000E+00 0.  1.
          2   -1    0    0  504    0 -0.00000000000E+00 -0.00000000000E+00 -0.16923075950E+04  0.16923075950E+04  0.00000000000E+00 0. -1.
         21    1    1    2  503  502  0.21446933802E+02 -0.78394474053E+02 -0.10754323151E+03  0.13480063492E+03  0.00000000000E+00 0. -1.
         21    1    1    2  504  503 -0.11716870137E+02 -0.10327373046E+03 -0.10133376265E+04  0.10186539617E+04  0.00000000000E+00 0. -1.
         21    1    1    2  505  501  0.20921692525E+02  0.13223411164E+03 -0.13521825376E+02  0.13456008792E+03  0.00000000000E+00 0.  1.
          2    1    1    2  501    0 -0.30651756190E+02  0.49434092872E+02 -0.47934082158E+03  0.48285700049E+03  0.00000000000E+00 0. -1.
<scales pt_clust_3="111.91887" pt_clust_4="72.25646" pt_clust_5="14000.00000" pt_clust_6="58.16579"></scales>
<clustering>
<clus scale="   58.166">  2  6  1 -1</clus>
<clus scale="   72.256">  2  4  1 -1</clus>
<clus scale="  111.919">  2  3  1 -1</clus>
<clus scale="  111.919">  1  3  2 -1</clus>
</clustering>
</event>
<event>
 6    0  0.7258365E+002  0.1320334E+03  0.7546771E-02  0.1224469E+00
         21   -1    0    0  503  502  0.00000000000E+00  0.00000000000E+00  0.23278454533E+04  0.23278454533E+04  0.00000000000E+00 0. -1.
         -1   -1    0    0    0  501 -0.00000000000E+00 -0.00000000000E+00 -0.10684323314E+03  0.10684323314E+03  0.00000000000E+00 0.  1.
         21    1    1    2  503  501  0.11034411345E+03  0.72993303466E+02  0.21413696491E+03  0.25171111510E+03  0.00000000000E+00 0.  1.
         21    1    1    2  504  502 -0.72854992256E+02  0.11063099838E+03  0.18129147769E+04  0.18177477977E+04  0.00000000000E+00 0. -1.
         21    1    1    2  505  504  0.20608472475E+01 -0.14923953636E+03  0.24831450780E+03  0.28971845142E+03  0.00000000000E+00 0.  1.
         -1    1    1    2    0  505 -0.39549968442E+02 -0.34384765487E+02 -0.54364029397E+02  0.75511322288E+02  0.00000000000E+00 0.  1.
<scales pt_clust_3="109.05230" pt_clust_4="132.03335" pt_clust_5="14000.00000" pt_clust_6="52.40718"></scales>
<clustering>
<clus scale="   52.407">  2  6  1 -1</clus>
<clus scale="  109.052">  2  3  1 -1</clus>
<clus scale="  132.033">  1  4  2 -1</clus>
<clus scale="  132.033">  1  3  2 -1</clus>
</clustering>
</event>
<event>
 6    0  0.7258365E+002  0.1085805E+03  0.7546771E-02  0.1263221E+00
          2   -1    0    0  503    0 -0.00000000000E+00  0.00000000000E+00  0.14379876696E+03  0.14379876696E+03  0.00000000000E+00 0. -1.
         21   -1    0    0  505  502  0.00000000000E+00 -0.00000000000E+00 -0.65446509867E+03  0.65446509867E+03  0.00000000000E+00 0.  1.
         21    1    1    2  503  504  0.46412384507E+02 -0.76045960947E+02 -0.66196576172E+02  0.11099137043E+03  0.00000000000E+00 0.  1.
         21    1    1    2  504  502  0.48623003167E+02 -0.19349607074E+02 -0.48293010340E+02  0.71209680371E+02  0.00000000000E+00 0.  1.
         21    1    1    2  505  501 -0.72080650865E+02  0.61179803482E+02 -0.49764601885E+03  0.50654728177E+03  0.00000000000E+00 0.  1.
          2    1    1    2  501    0 -0.22954736809E+02  0.34215764539E+02  0.10146927365E+03  0.10951553306E+03  0.00000000000E+00 0. -1.
<scales pt_clust_3="33.90764" pt_clust_4="33.90764" pt_clust_5="99.15850" pt_clust_6="41.20241"></scales>
<clustering>
<clus scale="   33.908">  3  4 -1 -1</clus>
<clus scale="   41.202">  1  6  2 -1</clus>
<clus scale="   99.158">  2  5  1 -1</clus>
<clus scale="   99.158">  2  3  1 -1</clus>
</clustering>
</event>
<event>
 6    0  0.7258365E+002  0.1779549E+03  0.7546771E-02  0.1169797E+00
         21   -1    0    0  503  502  0.00000000000E+00  0.00000000000E+00  0.60027921215E+03  0.60027921215E+03  0.00000000000E+00 0. -1.
          2   -1    0    0  505    0 -0.00000000000E+00 -0.00000000000E+00 -0.32227958093E+04  0.32227958093E+04  0.00000000000E+00 0. -1.
         21    1    1    2  503  501  0.13700920214E+03 -0.51233185676E+02 -0.11153817292E+03  0.18394870156E+03  0.00000000000E+00 0.  1.
         21    1    1    2  504  502  0.65218460595E+02  0.57485036792E+02  0.54425594227E+03  0.55115561120E+03  0.00000000000E+00 0. -1.
         21    1    1    2  505  504 -0.71521537425E+02 -0.29918282372E+01 -0.70828887210E+02  0.10070259488E+03  0.00000000000E+00 0. -1.
          2    1    1    2  501    0 -0.13070612531E+03 -0.32600228786E+01 -0.29844054792E+04  0.29872681138E+04  0.00000000000E+00 0. -1.
<scales pt_clust_3="177.95488" pt_clust_4="86.87546" pt_clust_5="71.58409" pt_clust_6="14000.00000"></scales>
<clustering>
<clus scale="   71.584">  2  5  1 -1</clus>
<clus scale="   86.875">  1  4  2 -1</clus>
<clus scale="  177.955">  1  3  2 -1</clus>
<clus scale="   86.875">  1  3  2 -1</clus>
</clustering>
</event>
<event>
 6    0  0.7258365E+002  0.8075804E+02  0.7546771E-02  0.1326914E+00
         21   -1    0    0  504  502  0.00000000000E+00  0.00000000000E+00  0.52029832892E+02  0.52029832892E+02  0.00000000000E+00 0. -1.
          2   -1    0    0  503    0 -0.00000000000E+00 -0.00000000000E+00 -0.42996560003E+03  0.42996560003E+03  0.00000000000E+00 0.  1.
         21    1    1    2  503  502 -0.18447737020E+02 -0.67504211072E+02 -0.89372429593E+02  0.11351021401E+03  0.00000000000E+00 0. -1.
         21    1    1    2  504  505  0.16767993171E+02 -0.26388169863E+02 -0.75746948943E+01  0.32169505847E+02  0.00000000000E+00 0. -1.
         21    1    1    2  505  501  0.54953782247E+02  0.77435968788E+01 -0.24715468814E+02  0.60751426935E+02  0.00000000000E+00 0. -1.
          2    1    1    2  501    0 -0.53274038399E+02  0.86148784056E+02 -0.25627317384E+03  0.27556428613E+03  0.00000000000E+00 0.  1.
<scales pt_clust_3="80.75804" pt_clust_4="31.26501" pt_clust_5="62.70016" pt_clust_6="14000.00000"></scales>
<clustering>
<clus scale="   31.265">  1  4  2 -1</clus>
<clus scale="   62.700">  1  5  2 -1</clus>
<clus scale="   80.758">  1  3  2 -1</clus>
<clus scale="   31.265">  1  3  2 -1</clus>
</clustering>
</event>
<event>
 6    0  0.7258365E+002  0.1333157E+03  0.7546771E-02  0.1222617E+00
          2   -1    0    0  504    0 -0.00000000000E+00  0.00000000000E+00  0.46032625940E+04  0.46032625940E+04  0.00000000000E+00 0. -1.
         21   -1    0    0  505  502  0.00000000000E+00 -0.00000000000E+00 -0.11864881968E+03  0.11864881968E+03  0.00000000000E+00 0.  1.
         21    1    1    2  503  501 -0.96589158590E+01 -0.13224596938E+03 -0.11942295147E+02  0.13313492963E+03  0.00000000000E+00 0.  1.
         21    1    1    2  504  502  0.19063242672E+03  0.47962507887E+02  0.91311471696E+03  0.93403405217E+03  0.00000000000E+00 0.  1.
         21    1    1    2  505  503 -0.53987216111E+02  0.74151850797E+02  0.26436041485E+02  0.95456695780E+02  0.00000000000E+00 0.  1.
          2    1    1    2  501    0 -0.12698629475E+03  0.10131610700E+02  0.35570053110E+04  0.35592857361E+04  0.00000000000E+00 0. -1.
<scales pt_clust_3="88.46482" pt_clust_4="133.31574" pt_clust_5="91.72304" pt_clust_6="14000.00000"></scales>
<clustering>
<clus scale="   91.723">  2  5  1 -1</clus>
<clus scale="   88.465">  2  3  1 -1</clus>
<clus scale="  133.316">  2  4  1 -1</clus>
<clus scale="   91.723">  2  3  1 -1</clus>
</clustering>
</event>
<event>
 6    0  0.7258365E+002  0.5340125E+02  0.7546771E-02  0.1427814E+00
         21   -1    0    0  505  502  0.00000000000E+00  0.00000000000E+00  0.17869679269E+03  0.17869679269E+03  0.00000000000E+00 0.  1.
          1   -1    0    0  503    0 -0.00000000000E+00 -0.00000000000E+00 -0.57359545377E+03  0.57359545377E+03  0.00000000000E+00 0.  1.
         21    1    1    2  503  504 -0.43875389529E+02 -0.11123309257E+02 -0.12130621708E+03  0.12947577425E+03  0.00000000000E+00 0.  1.
         21    1    1    2  504  502  0.25939145220E+02  0.98976688670E+02 -0.19852560710E+03  0.22334198179E+03  0.00000000000E+00 0.  1.
         21    1    1    2  505  501 -0.15309238513E+02 -0.50118506710E+02  0.15518498952E+03  0.16379443968E+03  0.00000000000E+00 0.  1.
          1    1    1    2  501    0  0.33245482823E+02 -0.37734872703E+02 -0.23025182642E+03  0.23568005074E+03  0.00000000000E+00 0.  1.
<scales pt_clust_3="45.26343" pt_clust_4="14000.00000" pt_clust_5="53.40125" pt_clust_6="44.75133"></scales>
<clustering>
<clus scale="   45.263">  2  3  1 -1</clus>
<clus scale="   44.751">  2  6  1 -1</clus>
<clus scale="   53.401">  1  5  2 -1</clus>
<clus scale="   53.401">  1  3  2 -1</clus>
</clustering>
</event>
<event>
 6    0  0.7258365E+002  0.1567978E+03  0.7546771E-02  0.1192360E+00
         21   -1    0    0  505  502  0.00000000000E+00  0.00000000000E+00  0.18222942037E+03  0.18222942037E+03  0.00000000000E+00 0. -1.
          1   -1    0    0  504    0 -0.00000000000E+00 -0.00000000000E+00 -0.86344154627E+03  0.86344154627E+03  0.00000000000E+00 0. -1.
         21    1    1    2  503  502 -0.12182213218E+01 -0.46842590265E+02  0.49342131757E+02  0.68046736088E+02  0.00000000000E+00 0.  1.
         21    1    1    2  504  503 -0.20747236552E+02  0.15465404451E+03 -0.49843030456E+03  0.52228449126E+03  0.00000000000E+00 0. -1.
         21    1    1    2  505  501 -0.48262272710E+02  0.39218032014E+02  0.81142092581E+02  0.10223179638E+03  0.00000000000E+00 0. -1.
          1    1    1    2  501    0  0.70227730584E+02 -0.14702948626E+03 -0.31326604568E+03  0.35310794291E+03  0.00000000000E+00 0. -1.
<scales pt_clust_3="46.85843" pt_clust_4="156.79785" pt_clust_5="49.36756" pt_clust_6="14000.00000"></scales>
<clustering>
<clus scale="   46.858">  1  3  2 -1</clus>
<clus scale="   49.368">  1  5  2 -1</clus>
<clus scale="  156.798">  2  4  1 -1</clus>
<clus scale="   46.858">  1  3  2 -1</clus>
</clustering>
</event>
<event>
 6    0  0.7258365E+002  0.8764803E+02  0.7546771E-02  0.1308649E+00
         21   -1    0    0  503  502  0.00000000000E+00  0.00000000000E+00  0.45284240316E+03  0.45284240316E+03  0.00000000000E+00 0.  1.
          2   -1    0    0  505    0 -0.00000000000E+00 -0.00000000000E+00 -0.29449509871E+04  0.29449509871E+04  0.00000000000E+00 0.  1.
         21    1    1    2  503  501  0.16375559426E+02  0.80974605568E+02  0.31426410255E+03  0.32494148988E+03  0.00000000000E+00 0.  1.
         21    1    1    2  504  502  0.22283425185E+02 -0.11857650792E+03  0.10404063831E+03  0.15931539062E+03  0.00000000000E+00 0.  1.
         21    1    1    2  505  504 -0.29016766783E+02 -0.10355721362E+02 -0.17536896355E+03  0.17805473062E+03  0.00000000000E+00 0.  1.
          2    1    1    2  501    0 -0.96422178279E+01  0.47957623719E+02 -0.27350443612E+04  0.27354817791E+04  0.00000000000E+00 0.  1.
<scales pt_clust_3="14000.00000" pt_clust_4="87.64803" pt_clust_5="30.80931" pt_clust_6="53.76901"></scales>
<clustering>
<clus scale="   30.809">  2  5  1 -1</clus>
<clus scale="   53.769">  2  6  1 -1</clus>
<clus scale="   87.648">  2  4  1 -1</clus>
<clus scale="   87.648">  1  3  2 -1</clus>
</clustering>
</event>
<event>
 6    0  0.7258365E+002  0.9498114E+02  0.7546771E-02  0.1291219E+00
         21   -1    0    0  503  502  0.00000000000E+00  0.00000000000E+00  0.50845887445E+03  0.50845887445E+03  0.00000000000E+00 0.  1.
          1   -1    0    0  505    0 -0.00000000000E+00 -0.00000000000E+00 -0.16347031361E+03  0.16347031361E+03  0.00000000000E+00 0.  1.
         21    1    1    2  503  504  0.18410052216E+02  0.62108596532E+02  0.33870951577E+03  0.34484858106E+03  0.00000000000E+00 0.  1.
         21    1    1    2  504  501  0.87177681976E+02 -0.16714302083E+02  0.11436537357E+03  0.14477138806E+03  0.00000000000E+00 0.  1.
         21    1    1    2  505  502 -0.62383813703E+02  0.19233051332E+01 -0.72440414716E+01  0.62832439485E+02  0.00000000000E+00 0.  1.
          1    1    1    2  501    0 -0.43203920489E+02 -0.47317599582E+02 -0.10084228703E+03  0.11947677945E+03  0.00000000000E+00 0.  1.
<scales pt_clust_3="64.41619" pt_clust_4="14000.00000" pt_clust_5="62.41345" pt_clust_6="94.98114"></scales>
<clustering>
<clus scale="   62.413">  2  5  1 -1</clus>
<clus scale="   64.416">  1  3  2 -1</clus>
<clus scale="   94.981">  2  6  1 -1</clus>
<clus scale="   64.416">  1  3  2 -1</clus>
</clustering>
</event>
<event>
 6    0  0.7258365E+002  0.1740430E+03  0.7546771E-02  0.1173696E+00
         -2   -1    0    0    0  501 -0.00000000000E+00  0.00000000000E+00  0.13067540055E+04  0.13067540055E+04  0.00000000000E+00 0. -1.
         21   -1    0    0  504  502  0.00000000000E+00 -0.00000000000E+00 -0.65738573749E+02  0.65738573749E+02  0.00000000000E+00 0. -1.
         21    1    1    2  503  505 -0.86637056751E+02 -0.58365399648E+01  0.28525078440E+02  0.91398713893E+02  0.00000000000E+00 0. -1.
         21    1    1    2  504  501  0.97796616830E+02 -0.44062037349E+02  0.23315976116E+03  0.25664979178E+03  0.00000000000E+00 0. -1.
         21    1    1    2  505  502 -0.57984796311E+02 -0.67286248474E+02  0.90887495189E+02  0.12708348681E+03  0.00000000000E+00 0.  1.
         -2    1    1    2    0  503  0.46825236233E+02  0.11718482579E+03  0.88844309701E+03  0.89736058681E+03  0.00000000000E+00 0. -1.
<scales pt_clust_3="83.97059" pt_clust_4="107.26435" pt_clust_5="83.97059" pt_clust_6="151.91540"></scales>
<clustering>
<clus scale="   83.971">  3  5 -1 -1</clus>
<clus scale="  107.264">  1  4  2 -1</clus>
<clus scale="  151.915">  1  6  2 -1</clus>
<clus scale="  174.043">  2  3  1 -1</clus>
</clustering>
</event>
<event>
 6    0  0.7258365E+002  0.1226188E+03  0.7546771E-02  0.1238838E+00
         21   -1    0    0  504  502  0.00000000000E+00  0.00000000000E+00  0.41528674179E+03  0.41528674179E+03  0.00000000000E+00 0. -1.
          1   -1    0    0  505    0 -0.00000000000E+00 -0.00000000000E+00 -0.10346012460E+04  0.10346012460E+04  0.00000000000E+00 0.  1.
         21    1    1    2  503  502 -0.23847690157E+02 -0.10598465808E+03  0.27253361587E+03  0.29338717056E+03  0.00000000000E+00 0. -1.
         21    1    1    2  504  501  0.24578304987E+02 -0.17525293876E+02  0.74328908336E+02  0.80224781806E+02  0.00000000000E+00 0. -1.
         21    1    1    2  505  503  0.38686111082E+02  0.13387272112E+03 -0.34301885322E+02  0.14351006929E+03  0.00000000000E+00 0. -1.
          1    1    1    2  501    0 -0.39416725912E+02 -0.10362769164E+02 -0.93187514306E+03  0.93276596611E+03  0.00000000000E+00 0.  1.
<scales pt_clust_3="14000.00000" pt_clust_4="30.18657" pt_clust_5="122.61880" pt_clust_6="40.73073"></scales>
<clustering>
<clus scale="   30.187">  1  4  2 -1</clus>
<clus scale="   40.731">  2  6  1 -1</clus>
<clus scale="  122.619">  2  5  1 -1</clus>
<clus scale="   30.187">  1  3  2 -1</clus>
</clustering>
</event>
<event>
 6    0  0.7258365E+002  0.1235342E+03  0.7546771E-02  0.1237378E+00
          2   -1    0    0  505    0 -0.00000000000E+00  0.00000000000E+00  0.13904505217E+04  0.13904505217E+04  0.00000000000E+00 0.  1.
         21   -1    0    0  504  502  0.00000000000E+00 -0.00000000000E+00 -0.75676265825E+02  0.75676265825E+02  0.00000000000E+00 0. -1.
         21    1    1    2  503  501  0.13241272056E+03 -0.41053828134E+02  0.13583625704E+03  0.19408769693E+03  0.00000000000E+00 0. -1.
         21    1    1    2  504  503 -0.68396508487E+02 -0.10935191955E+03  0.82545819806E+02  0.15313306975E+03  0.00000000000E+00 0. -1.
         21    1    1    2  505  502 -0.14990150791E+02  0.32840800723E+02  0.36322050038E+02  0.51210488494E+02  0.00000000000E+00 0. -1.
          2    1    1    2  501    0 -0.49026061285E+02  0.11756494696E+03  0.10600701290E+04  0.10676955324E+04  0.00000000000E+00 0.  1.
<scales pt_clust_3="14000.00000" pt_clust_4="119.70844" pt_clust_5="36.10018" pt_clust_6="123.53420"></scales>
<clustering>
<clus scale="   36.100">  2  5  1 -1</clus>
<clus scale="  119.708">  2  4  1 -1</clus>
<clus scale="  123.534">  1  6  2 -1</clus>
<clus scale="   36.100">  2  3  1 -1</clus>
</clustering>
</event>
<event>
 6    0  0.7258365E+002  0.1309506E+03  0.7546771E-02  0.1226052E+00
          1   -1    0    0  505    0 -0.00000000000E+00  0.00000000000E+00  0.18238269139E+04  0.18238269139E+04  0.00000000000E+00 0.  1.
         21   -1    0    0  503  502  0.00000000000E+00 -0.00000000000E+00 -0.13225569236E+04  0.13225569236E+04  0.00000000000E+00 0. -1.
         21    1    1    2  503  501 -0.24605553573E+02  0.53590032652E+02 -0.30733207708E+03  0.31293822149E+03  0.00000000000E+00 0. -1.
         21    1    1    2  504  502  0.12793978372E+03 -0.13255175570E+03 -0.98453587449E+03  0.10016234045E+04  0.00000000000E+00 0. -1.
         21    1    1    2  505  504 -0.44551578912E+02 -0.23972839703E+02  0.19487772095E+02  0.54215435885E+02  0.00000000000E+00 0. -1.
          1    1    1    2  501    0 -0.58782651236E+02  0.10293456275E+03  0.17736501697E+04  0.17776067757E+04  0.00000000000E+00 0.  1.
<scales pt_clust_3="58.96389" pt_clust_4="130.95061" pt_clust_5="50.59190" pt_clust_6="14000.00000"></scales>
<clustering>
<clus scale="   50.592">  1  5  2 -1</clus>
<clus scale="   58.964">  2  3  1 -1</clus>
<clus scale="  130.951">  2  4  1 -1</clus>
<clus scale="   58.964">  2  3  1 -1</clus>
</clustering>
</event>
<event>
 6    0  0.7258365E+002  0.8598510E+02  0.7546771E-02  0.1312876E+00
         21   -1    0    0  503  502  0.00000000000E+00  0.00000000000E+00  0.22516097980E+03  0.22516097980E+03  0.00000000000E+00 0. -1.
          2   -1    0    0  505    0 -0.00000000000E+00 -0.00000000000E+00 -0.40116741919E+04  0.40116741919E+04  0.00000000000E+00 0. -1.
         21    1    1    2  503  504  0.43606786165E+02 -0.15319617703E+02  0.85582496747E+02  0.97265647767E+02  0.00000000000E+00 0. -1.
         21    1    1    2  504  501 -0.74345079447E+02  0.48042939479E+02  0.98911952463E+02  0.13273616392E+03  0.00000000000E+00 0. -1.
         21    1    1    2  505  502 -0.40520715712E+02 -0.81164510042E+02 -0.10058192537E+03  0.13544862422E+03  0.00000000000E+00 0. -1.
          2    1    1    2  501    0  0.71259008994E+02  0.48441188266E+02 -0.38704257359E+04  0.38713847358E+04  0.00000000000E+00 0. -1.
<scales pt_clust_3="46.21950" pt_clust_4="50.47121" pt_clust_5="14000.00000" pt_clust_6="85.98510"></scales>
<clustering>
<clus scale="   46.220">  1  3  2 -1</clus>
<clus scale="   50.471">  1  4  2 -1</clus>
<clus scale="   85.985">  2  6  1 -1</clus>
<clus scale="   46.220">  1  3  2 -1</clus>
</clustering>
</event>
<event>
 6    0  0.7258365E+002  0.7499260E+02  0.7546771E-02  0.1343894E+00
         21   -1    0    0  503  502  0.00000000000E+00  0.00000000000E+00  0.21336738119E+04  0.21336738119E+04  0.00000000000E+00 0.  1.
          2   -1    0    0  505    0 -0.00000000000E+00 -0.00000000000E+00 -0.83793696910E+02  0.83793696910E+02  0.00000000000E+00 0.  1.
         21    1    1    2  503  504 -0.29358254918E+02 -0.30850932193E+02  0.12201257669E+04  0.12208687785E+04  0.00000000000E+00 0.  1.
         21    1    1    2  504  501  0.39966694052E+02 -0.87829571612E+02  0.26418096364E+03  0.28125246991E+03  0.00000000000E+00 0.  1.
         21    1    1    2  505  502  0.16165933047E+02  0.89835711685E+02  0.63177221551E+03  0.63833214299E+03  0.00000000000E+00 0.  1.
          2    1    1    2  501    0 -0.26774372181E+02  0.28844792120E+02 -0.66198831111E+02  0.77014117399E+02  0.00000000000E+00 0.  1.
<scales pt_clust_3="42.52994" pt_clust_4="74.99260" pt_clust_5="14000.00000" pt_clust_6="39.35593"></scales>
<clustering>
<clus scale="   39.356">  2  6  1 -1</clus>
<clus scale="   42.530">  1  3  2 -1</clus>
<clus scale="   74.993">  2  4  1 -1</clus>
<clus scale="   42.530">  1  3  2 -1</clus>
</clustering>
</event>
<event>
 6    0  0.7258365E+002  0.8472701E+02  0.7546771E-02  0.1316148E+00
         21   -1    0    0  501  502  0.00000000000E+00  0.00000000000E+00  0.58586357588E+02  0.58586357588E+02  0.00000000000E+00 0. -1.
          2   -1    0    0  503    0 -0.00000000000E+00 -0.00000000000E+00 -0.62882614541E+03  0.62882614541E+03  0.00000000000E+00 0. -1.
         21    1    1    2  503  505 -0.24603828910E+02  0.50161528109E+02 -0.13058068925E+03  0.14203113639E+03  0.00000000000E+00 0.  1.
         21    1    1    2  504  502  0.16217243096E+01 -0.49279777433E+02 -0.17004907161E+02  0.52156431254E+02  0.00000000000E+00 0.  1.
         21    1    1    2  505  504  0.71233076997E+02  0.77995255374E+02 -0.65484178726E+02  0.12428028316E+03  0.00000000000E+00 0. -1.
          2    1    1    2  501    0 -0.48250972396E+02 -0.78877006050E+02 -0.35717001268E+03  0.36894465219E+03  0.00000000000E+00 0. -1.
<scales pt_clust_3="49.67476" pt_clust_4="49.30645" pt_clust_5="14000.00000" pt_clust_6="84.72701"></scales>
<clustering>
<clus scale="   49.306">  1  4  2 -1</clus>
<clus scale="   49.675">  2  3  1 -1</clus>
<clus scale="   84.727">  2  6  1 -1</clus>
<clus scale="   49.306">  1  3  2 -1</clus>
</clustering>
</event>
<event>
 6    0  0.7258365E+002  0.1168473E+03  0.7546771E-02  0.1248391E+00
          2   -1    0    0  503    0 -0.00000000000E+00  0.00000000000E+00  0.70701577612E+03  0.70701577612E+03  0.00000000000E+00 0. -1.
         21   -1    0    0  504  502  0.00000000000E+00 -0.00000000000E+00 -0.48071612754E+02  0.48071612754E+02  0.00000000000E+00 0. -1.
         21    1    1    2  503  502 -0.30183451408E+02  0.17464715399E+02  0.14940259034E+01  0.34903998857E+02  0.00000000000E+00 0. -1.
         21    1    1    2  504  505  0.11949967468E+03  0.38714011094E+02  0.13066239530E+03  0.18125012675E+03  0.00000000000E+00 0. -1.
         21    1    1    2  505  501 -0.65751159503E+02 -0.24829525696E+02  0.40295866212E+03  0.40904205615E+03  0.00000000000E+00 0. -1.
          2    1    1    2  501    0 -0.23565063766E+02 -0.31349200797E+02  0.12382908004E+03  0.12989120711E+03  0.00000000000E+00 0. -1.
<scales pt_clust_3="34.87201" pt_clust_4="108.82546" pt_clust_5="31.78299" pt_clust_6="31.78299"></scales>
<clustering>
<clus scale="   31.783">  5  6 -1 -1</clus>
<clus scale="   34.872">  2  3  1 -1</clus>
<clus scale="  108.825">  2  4  1 -1</clus>
<clus scale="   34.872">  2  3  1 -1</clus>
</clustering>
</event>
<event>
 6    0  0.7258365E+002  0.8485023E+02  0.7546771E-02  0.1315825E+00
          1   -1    0    0  504    0 -0.00000000000E+00  0.00000000000E+00  0.50931995976E+03  0.50931995976E+03  0.00000000000E+00 0.  1.
         21   -1    0    0  505  502  0.00000000000E+00 -0.00000000000E+00 -0.47822277434E+03  0.47822277434E+03  0.00000000000E+00 0. -1.
         21    1    1    2  503  501  0.18745015595E+02  0.49554962241E+02 -0.42644588817E+02  0.68011990470E+02  0.00000000000E+00 0. -1.
         21    1    1    2  504  502 -0.71917074426E+02  0.14185822528E+02 -0.11664241730E+03  0.13776340830E+03  0.00000000000E+00 0. -1.
         21    1    1    2  505  503  0.82616401545E+02 -0.46784357077E+02 -0.28745140794E+03  0.30272521830E+03  0.00000000000E+00 0. -1.
          1    1    1    2  501    0 -0.29444342714E+02 -0.16956427692E+02  0.47783559948E+03  0.47904211702E+03  0.00000000000E+00 0.  1.
<scales pt_clust_3="43.10675" pt_clust_4="84.85023" pt_clust_5="14000.00000" pt_clust_6="33.97778"></scales>
<clustering>
<clus scale="   33.978">  1  6  2 -1</clus>
<clus scale="   43.107">  1  3  2 -1</clus>
<clus scale="   84.850">  1  4  2 -1</clus>
<clus scale="   84.850">  2  3  1 -1</clus>
</clustering>
</event>
<event>
 6    0  0.7258365E+002  0.1488187E+03  0.7546771E-02  0.1201932E+00
         21   -1    0    0  505  502  0.00000000000E+00  0.00000000000E+00  0.79358430735E+03  0.79358430735E+03  0.00000000000E+00 0.  1.
          1   -1    0    0  504    0 -0.00000000000E+00 -0.00000000000E+00 -0.21514699544E+03  0.21514699544E+03  0.00000000000E+00 0.  1.
         21    1    1    2  503  502 -0.11475743367E+02 -0.31359556998E+02  0.31852817879E+02  0.46148851641E+02  0.00000000000E+00 0.  1.
         21    1    1    2  504  503  0.34850725914E+02 -0.41089687214E+02  0.37713207927E+02  0.65766416538E+02  0.00000000000E+00 0.  1.
         21    1    1    2  505  501  0.18277825672E+02  0.18016422208E+03  0.67254584360E+03  0.69649920142E+03  0.00000000000E+00 0.  1.
          1    1    1    2  501    0 -0.41652808219E+02 -0.10771497787E+03 -0.16367455749E+03  0.20031683319E+03  0.00000000000E+00 0.  1.
<scales pt_clust_3="33.39333" pt_clust_4="55.04578" pt_clust_5="148.81866" pt_clust_6="14000.00000"></scales>
<clustering>
<clus scale="   33.393">  1  3  2 -1</clus>
<clus scale="   55.046">  2  4  1 -1</clus>
<clus scale="  148.819">  1  5  2 -1</clus>
<clus scale="   33.393">  1  3  2 -1</clus>
</clustering>
</event>
<event>
 6    0  0.7258365E+002  0.2346550E+03  0.7546771E-02  0.1123406E+00
         21   -1    0    0  505  502  0.00000000000E+00  0.00000000000E+00  0.59819298743E+03  0.59819298743E+03  0.00000000000E+00 0.  1.
          2   -1    0    0  503    0 -0.00000000000E+00 -0.00000000000E+00 -0.16269973270E+04  0.16269973270E+04  0.00000000000E+00 0.  1.
         21    1    1    2  503  504 -0.10111698476E+03  0.10173237154E+02 -0.98627757002E+02  0.14161770303E+03  0.00000000000E+00 0.  1.
         21    1    1    2  504  502 -0.10553303765E+03  0.42417650433E+02 -0.35632707359E+02  0.11918963435E+03  0.00000000000E+00 0.  1.
         21    1    1    2  505  501  0.20892996821E+03 -0.87369261430E+02  0.51072518192E+03  0.55868177965E+03  0.00000000000E+00 0.  1.
          2    1    1    2  501    0 -0.22799458020E+01  0.34778373843E+02 -0.14052690571E+04  0.14057011974E+04  0.00000000000E+00 0.  1.
<scales pt_clust_3="63.46414" pt_clust_4="63.46414" pt_clust_5="224.80745" pt_clust_6="34.85303"></scales>
<clustering>
<clus scale="   34.853">  2  6  1 -1</clus>
<clus scale="   63.464">  3  4 -1 -1</clus>
<clus scale="  224.807">  1  5  2 -1</clus>
<clus scale="  224.807">  1  3  2 -1</clus>
</clustering>
</event>
<event>
 6    0  0.7258365E+002  0.9049125E+02  0.7546771E-02  0.1301666E+00
          2   -1    0    0  505    0 -0.00000000000E+00  0.00000000000E+00  0.39543593061E+03  0.39543593061E+03  0.00000000000E+00 0.  1.
         21   -1    0    0  503  502  0.00000000000E+00 -0.00000000000E+00 -0.14026655003E+04  0.14026655003E+04  0.00000000000E+00 0. -1.
         21    1    1    2  503  504 -0.19847393369E+02  0.29639317085E+02 -0.13140808402E+04  0.13145648949E+04  0.00000000000E+00 0. -1.
         21    1    1    2  504  501  0.53635806801E+02 -0.51923097443E+02 -0.12913420579E+02  0.75759911894E+02  0.00000000000E+00 0.  1.
         21    1    1    2  505  502  0.43651882753E+02  0.73385482553E+02  0.11872124719E+02  0.86208255189E+02  0.00000000000E+00 0.  1.
          2    1    1    2  501    0 -0.77440296185E+02 -0.51101702195E+02  0.30789256643E+03  0.32156836894E+03  0.00000000000E+00 0.  1.
<scales pt_clust_3="35.67083" pt_clust_4="57.27175" pt_clust_5="90.49125" pt_clust_6="14000.00000"></scales>
<clustering>
<clus scale="   35.671">  2  3  1 -1</clus>
<clus scale="   57.272">  2  4  1 -1</clus>
<clus scale="   90.491">  2  5  1 -1</clus>
<clus scale="   35.671">  2  3  1 -1</clus>
</clustering>
</event>
<event>
 6    0  0.7258365E+002  0.7254997E+02  0.7546771E-02  0.1351630E+00
         -2   -1    0    0    0  501 -0.00000000000E+00  0.00000000000E+00  0.21210943287E+03  0.21210943287E+03  0.00000000000E+00 0. -1.
         21   -1    0    0  504  502  0.00000000000E+00 -0.00000000000E+00 -0.14112288671E+03  0.14112288671E+03  0.00000000000E+00 0. -1.
         21    1    1    2  503  502  0.70087851732E+02 -0.25090807975E+02  0.34364587623E+01  0.74522914960E+02  0.00000000000E+00 0. -1.
         21    1    1    2  504  505 -0.49638969604E+02  0.39369287096E+02 -0.51838846169E+02  0.81861065482E+02  0.00000000000E+00 0. -1.
         21    1    1    2  505  501 -0.54946221215E+02  0.50118215325E+02  0.27121707551E+02  0.79161289490E+02  0.00000000000E+00 0. -1.
         -2    1    1    2    0  503  0.34497339087E+02 -0.64396694445E+02  0.92267226008E+02  0.11768704965E+03  0.00000000000E+00 0. -1.
<scales pt_clust_3="46.75291" pt_clust_4="63.35588" pt_clust_5="14000.00000" pt_clust_6="72.54997"></scales>
<clustering>
<clus scale="   63.356">  2  4  1 -1</clus>
<clus scale="   46.753">  2  3  1 -1</clus>
<clus scale="   72.550">  1  6  2 -1</clus>
<clus scale="   63.356">  2  3  1 -1</clus>
</clustering>
</event>
<event>
 6    0  0.7258365E+002  0.7550748E+02  0.7546771E-02  0.1342307E+00
         21   -1    0    0  505  502  0.00000000000E+00  0.00000000000E+00  0.21284968425E+04  0.21284968425E+04  0.00000000000E+00 0.  1.
          1   -1    0    0  504    0 -0.00000000000E+00 -0.00000000000E+00 -0.84879028476E+03  0.84879028476E+03  0.00000000000E+00 0. -1.
         21    1    1    2  503  502 -0.21333080097E+02  0.27764313671E+02  0.18490916562E+04  0.18494231291E+04  0.00000000000E+00 0.  1.
         21    1    1    2  504  503 -0.22375554170E+02 -0.53029358762E+02  0.80370236852E+02  0.98854202170E+02  0.00000000000E+00 0. -1.
         21    1    1    2  505  501  0.10286014747E+03  0.71462153135E+02  0.16703591232E+03  0.20877750184E+03  0.00000000000E+00 0. -1.
          1    1    1    2  501    0 -0.59151513201E+02 -0.46197108044E+02 -0.81679124759E+03  0.82023229420E+03  0.00000000000E+00 0. -1.
<scales pt_clust_3="35.01367" pt_clust_4="52.91903" pt_clust_5="14000.00000" pt_clust_6="75.50748"></scales>
<clustering>
<clus scale="   35.014">  1  3  2 -1</clus>
<clus scale="   52.919">  1  4  2 -1</clus>
<clus scale="   75.507">  2  6  1 -1</clus>
<clus scale="   35.014">  1  3  2 -1</clus>
</clustering>
</event>
<event>
 6    0  0.7258365E+002  0.6324457E+02  0.7546771E-02  0.1384699E+00
         21   -1    0    0  505  502  0.00000000000E+00  0.00000000000E+00  0.13551906714E+03  0.13551906714E+03  0.00000000000E+00 0. -1.
          1   -1    0    0  504    0 -0.00000000000E+00 -0.00000000000E+00 -0.33210354299E+04  0.33210354299E+04  0.00000000000E+00 0.  1.
         21    1    1    2  503  502 -0.10901120940E+02 -0.61629005107E+02  0.11911323380E+03  0.13455456579E+03  0.00000000000E+00 0. -1.
         21    1    1    2  504  503 -0.70444020167E+02 -0.33203868473E+01 -0.81289550066E+03  0.81594882189E+03  0.00000000000E+00 0.  1.
         21    1    1    2  505  501  0.61263609222E+02  0.89046276166E+02 -0.40779184931E+03  0.42187280249E+03  0.00000000000E+00 0. -1.
          1    1    1    2  501    0  0.20081531886E+02 -0.24096884211E+02 -0.20839422466E+04  0.20841783068E+04  0.00000000000E+00 0.  1.
<scales pt_clust_3="63.24457" pt_clust_4="60.35307" pt_clust_5="14000.00000" pt_clust_6="31.36762"></scales>
<clustering>
<clus scale="   31.368">  2  6  1 -1</clus>
<clus scale="   60.353">  2  4  1 -1</clus>
<clus scale="   63.245">  1  3  2 -1</clus>
<clus scale="   63.245">  1  3  2 -1</clus>
</clustering>
</event>
<event>
 6    0  0.7258365E+002  0.1192051E+03  0.7546771E-02  0.1244414E+00
          1   -1    0    0  503    0 -0.00000000000E+00  0.00000000000E+00  0.63863472600E+03  0.63863472600E+03  0.00000000000E+00 0.  1.
         21   -1    0    0  501  502  0.00000000000E+00 -0.00000000000E+00 -0.11105773262E+04  0.11105773262E+04  0.00000000000E+00 0.  1.
         21    1    1    2  503  504  0.11471799812E+03 -0.55581299413E+02  0.13810869986E+03  0.18794550517E+03  0.00000000000E+00 0.  1.
         21    1    1    2  504  505 -0.78160992031E+02  0.11157334498E+03 -0.18065982897E+03  0.22626472502E+03  0.00000000000E+00 0.  1.
         21    1    1    2  505  502 -0.72331996056E+01 -0.31781640739E+02 -0.88109640481E+03  0.88169907930E+03  0.00000000000E+00 0.  1.
          1    1    1    2  501    0 -0.29323806487E+02 -0.24210404829E+02  0.45170493376E+03  0.45330274267E+03  0.00000000000E+00 0.  1.
<scales pt_clust_3="119.20512" pt_clust_4="14000.00000" pt_clust_5="32.59435" pt_clust_6="38.11673"></scales>
<clustering>
<clus scale="   32.594">  2  5  1 -1</clus>
<clus scale="   38.117">  1  6  2 -1</clus>
<clus scale="  119.205">  1  3  2 -1</clus>
<clus scale="   32.594">  2  3  1 -1</clus>
</clustering>
</event>
<event>
 6    0  0.7258365E+002  0.1460492E+03  0.7546771E-02  0.1205414E+00
          2   -1    0    0  503    0 -0.00000000000E+00  0.00000000000E+00  0.44079116444E+04  0.44079116444E+04  0.00000000000E+00 0. -1.
         21   -1    0    0  504  502  0.00000000000E+00 -0.00000000000E+00 -0.10791137858E+03  0.10791137858E+03  0.00000000000E+00 0. -1.
         21    1    1    2  503  505 -0.70009043587E+02  0.85124954668E+02  0.70857493270E+03  0.71709550224E+03  0.00000000000E+00 0. -1.
         21    1    1    2  504  501 -0.55765544323E+02 -0.86857489675E+02 -0.21801389943E+02  0.10549559256E+03  0.00000000000E+00 0. -1.
         21    1    1    2  505  502  0.18640710265E+03 -0.63836056810E+01  0.17917359155E+03  0.25863397737E+03  0.00000000000E+00 0. -1.
          2    1    1    2  501    0 -0.60632514745E+02  0.81161406875E+01  0.34340531315E+04  0.34345979508E+04  0.00000000000E+00 0. -1.
<scales pt_clust_3="146.04915" pt_clust_4="104.35994" pt_clust_5="14000.00000" pt_clust_6="61.17331"></scales>
<clustering>
<clus scale="   61.173">  1  6  2 -1</clus>
<clus scale="  104.360">  2  4  1 -1</clus>
<clus scale="  146.049">  1  3  2 -1</clus>
<clus scale="  104.360">  2  3  1 -1</clus>
</clustering>
</event>
<event>
 6    0  0.7258365E+002  0.1541175E+03  0.7546771E-02  0.1195503E+00
         21   -1    0    0  503  502  0.00000000000E+00  0.00000000000E+00  0.61468157479E+03  0.61468157479E+03  0.00000000000E+00 0. -1.
         -3   -1    0    0    0  501 -0.00000000000E+00 -0.00000000000E+00 -0.13604022233E+03  0.13604022233E+03  0.00000000000E+00 0. -1.
         21    1    1    2  503  504 -0.34300521456E+02 -0.24804634079E+02  0.34125841917E+03  0.34387367491E+03  0.00000000000E+00 0. -1.
         21    1    1    2  504  501  0.79310092852E+02 -0.13274271455E+03  0.14667859563E+03  0.21313218788E+03  0.00000000000E+00 0. -1.
         21    1    1    2  505  502 -0.64995113090E+02  0.13307034540E+03  0.21434220618E+02  0.14963792088E+03  0.00000000000E+00 0. -1.
         -3    1    1    2    0  505  0.19985541695E+02  0.24477003221E+02 -0.30729882959E+02  0.44078013456E+02  0.00000000000E+00 0. -1.
<scales pt_clust_3="41.92490" pt_clust_4="154.11746" pt_clust_5="14000.00000" pt_clust_6="31.59977"></scales>
<clustering>
<clus scale="   31.600">  2  6  1 -1</clus>
<clus scale="   41.925">  1  3  2 -1</clus>
<clus scale="  154.117">  1  4  2 -1</clus>
<clus scale="   41.925">  1  3  2 -1</clus>
</clustering>
</event>
<event>
 6    0  0.7258365E+002  0.1135276E+03  0.7546771E-02  0.1254173E+00
         21   -1    0    0  505  502  0.00000000000E+00  0.00000000000E+00  0.88299288253E+03  0.88299288253E+03  0.00000000000E+00 0. -1.
          2   -1    0    0  503    0 -0.00000000000E+00 -0.00000000000E+00 -0.34770010110E+03  0.34770010110E+03  0.00000000000E+00 0. -1.
         21    1    1    2  503  504 -0.14740042284E+02  0.37940187401E+02  0.25869012558E+03  0.26187269377E+03  0.00000000000E+00 0. -1.
         21    1    1    2  504  502 -0.53231091255E+02  0.51311592098E+02  0.24718436056E+03  0.25800491597E+03  0.00000000000E+00 0. -1.
         21    1    1    2  505  501  0.18517061212E+02 -0.10275545783E+03  0.36074254346E+03  0.37554859650E+03  0.00000000000E+00 0. -1.
          2    1    1    2  501    0  0.49454072327E+02  0.13503678326E+02 -0.33132424817E+03  0.33526677739E+03  0.00000000000E+00 0. -1.
<scales pt_clust_3="31.28424" pt_clust_4="31.28424" pt_clust_5="105.40745" pt_clust_6="51.26455"></scales>
<clustering>
<clus scale="   31.284">  3  4 -1 -1</clus>
<clus scale="   51.265">  2  6  1 -1</clus>
<clus scale="  105.407">  2  5  1 -1</clus>
<clus scale="  113.528">  1  3  2 -1</clus>
</clustering>
</event>
<event>
 6    0  0.7258365E+002  0.1256160E+03  0.7546771E-02  0.1234110E+00
          2   -1    0    0  504    0 -0.00000000000E+00  0.00000000000E+00  0.16405761958E+04  0.16405761958E+04  0.00000000000E+00 0. -1.
         21   -1    0    0  505  502  0.00000000000E+00 -0.00000000000E+00 -0.10544203369E+03  0.10544203369E+03  0.00000000000E+00 0.  1.
         21    1    1    2  503  501  0.55278267151E+02  0.31929005310E+02 -0.50256096261E+01  0.64034404436E+02  0.00000000000E+00 0.  1.
         21    1    1    2  504  502 -0.12488923361E+03 -0.14990576492E+03  0.10037690527E+04  0.10225562919E+04  0.00000000000E+00 0. -1.
         21    1    1    2  505  503 -0.43085967910E+01  0.55625126258E+02 -0.43988252524E+02  0.71047062132E+02  0.00000000000E+00 0.  1.
          2    1    1    2  501    0  0.73919563252E+02  0.62351633353E+02  0.58037897159E+03  0.58838047102E+03  0.00000000000E+00 0. -1.
<scales pt_clust_3="88.92239" pt_clust_4="14000.00000" pt_clust_5="55.79174" pt_clust_6="125.61602"></scales>
<clustering>
<clus scale="   55.792">  2  5  1 -1</clus>
<clus scale="   88.922">  2  3  1 -1</clus>
<clus scale="  125.616">  1  6  2 -1</clus>
<clus scale="   55.792">  2  3  1 -1</clus>
</clustering>
</event>
<event>
 6    0  0.7258365E+002  0.1041755E+03  0.7546771E-02  0.1271753E+00
          2   -1    0    0  505    0 -0.00000000000E+00  0.00000000000E+00  0.44931750578E+03  0.44931750578E+03  0.00000000000E+00 0. -1.
         21   -1    0    0  503  502  0.00000000000E+00 -0.00000000000E+00 -0.31123242645E+03  0.31123242645E+03  0.00000000000E+00 0. -1.
         21    1    1    2  503  504 -0.75374055254E+02 -0.52315996067E+02 -0.23375804641E+03  0.25111956497E+03  0.00000000000E+00 0. -1.
         21    1    1    2  504  501  0.13505604994E+03  0.61608418142E+02  0.20577793969E+03  0.25373272212E+03  0.00000000000E+00 0. -1.
         21    1    1    2  505  502 -0.12874116748E+01  0.56880972498E+02 -0.10914996660E+02  0.57933061487E+02  0.00000000000E+00 0. -1.
          2    1    1    2  501    0 -0.58394583014E+02 -0.66173394573E+02  0.17698018271E+03  0.19776458365E+03  0.00000000000E+00 0. -1.
<scales pt_clust_3="76.54238" pt_clust_4="14000.00000" pt_clust_5="56.89554" pt_clust_6="104.17548"></scales>
<clustering>
<clus scale="   56.896">  2  5  1 -1</clus>
<clus scale="   76.542">  2  3  1 -1</clus>
<clus scale="  104.175">  1  6  2 -1</clus>
<clus scale="   56.896">  2  3  1 -1</clus>
</clustering>
</event>
<event>
 6    0  0.7258365E+002  0.2249653E+03  0.7546771E-02  0.1130234E+00
          1   -1    0    0  505    0 -0.00000000000E+00  0.00000000000E+00  0.17430387898E+04  0.17430387898E+04  0.00000000000E+00 0. -1.
         21   -1    0    0  503  502  0.00000000000E+00 -0.00000000000E+00 -0.20387695271E+03  0.20387695271E+03  0.00000000000E+00 0.  1.
         21    1    1    2  503  504  0.12128681981E+02  0.28632182454E+02  0.29903964918E+02  0.43141093131E+02  0.00000000000E+00 0.  1.
         21    1    1    2  504  501 -0.15613810371E+03  0.15889187794E+03  0.29033909028E+03  0.36595426442E+03  0.00000000000E+00 0. -1.
         21    1    1    2  505  502  0.16664097916E+03 -0.16355172916E+03 -0.73649422106E+02  0.24483182273E+03  0.00000000000E+00 0.  1.
          1    1    1    2  501    0 -0.22631557433E+02 -0.23972331232E+02  0.12925682040E+04  0.12929885622E+04  0.00000000000E+00 0. -1.
<scales pt_clust_3="31.09512" pt_clust_4="224.96531" pt_clust_5="14000.00000" pt_clust_6="32.93651"></scales>
<clustering>
<clus scale="   31.095">  2  3  1 -1</clus>
<clus scale="   32.937">  1  6  2 -1</clus>
<clus scale="  224.965">  1  4  2 -1</clus>
<clus scale="   31.095">  2  3  1 -1</clus>
</clustering>
</event>
<event>
 6    0  0.7258365E+002  0.1176247E+03  0.7546771E-02  0.1247068E+00
         -1   -1    0    0    0  501 -0.00000000000E+00  0.00000000000E+00  0.11703458494E+04  0.11703458494E+04  0.00000000000E+00 0.  1.
         21   -1    0    0  504  502  0.00000000000E+00 -0.00000000000E+00 -0.85193115931E+02  0.85193115931E+02  0.00000000000E+00 0. -1.
         21    1    1    2  503  501 -0.28910938896E+02 -0.31099448595E+02  0.38761154124E+03  0.38993041045E+03  0.00000000000E+00 0.  1.
         21    1    1    2  504  505  0.74351276284E+02 -0.96270522784E+02 -0.23722528498E+02  0.12393096546E+03  0.00000000000E+00 0. -1.
         21    1    1    2  505  503  0.23640227565E+02  0.62033297894E+02  0.43497959762E+03  0.44001618237E+03  0.00000000000E+00 0.  1.
         -1    1    1    2    0  502 -0.69080564952E+02  0.65336673486E+02  0.28628412313E+03  0.30166140706E+03  0.00000000000E+00 0.  1.
<scales pt_clust_3="42.46196" pt_clust_4="14000.00000" pt_clust_5="45.24367" pt_clust_6="117.62466"></scales>
<clustering>
<clus scale="   42.462">  1  3  2 -1</clus>
<clus scale="   45.244">  1  5  2 -1</clus>
<clus scale="  117.625">  1  6  2 -1</clus>
<clus scale="  117.625">  2  3  1 -1</clus>
</clustering>
</event>
<event>
 6    0  0.7258365E+002  0.6925028E+02  0.7546771E-02  0.1362661E+00
         -3   -1    0    0    0  501 -0.00000000000E+00  0.00000000000E+00  0.62269447514E+03  0.62269447514E+03  0.00000000000E+00 0. -1.
         21   -1    0    0  504  502  0.00000000000E+00 -0.00000000000E+00 -0.11491366722E+03  0.11491366722E+03  0.00000000000E+00 0. -1.
         21    1    1    2  503  501  0.15830998695E+02 -0.52156527711E+02  0.21576627823E+01  0.54548871769E+02  0.00000000000E+00 0. -1.
         21    1    1    2  504  503 -0.48760469408E+02  0.14110872306E+02 -0.11481374094E+02  0.52043463040E+02  0.00000000000E+00 0.  1.
         21    1    1    2  505  502  0.10020467941E+03  0.26786492387E+02 -0.56050028851E+01  0.10387449161E+03  0.00000000000E+00 0. -1.
         -3    1    1    2    0  505 -0.67275208697E+02  0.11259163018E+02  0.52270952211E+03  0.52714131594E+03  0.00000000000E+00 0. -1.
<scales pt_clust_3="47.71341" pt_clust_4="50.76121" pt_clust_5="69.25028" pt_clust_6="14000.00000"></scales>
<clustering>
<clus scale="   50.761">  2  4  1 -1</clus>
<clus scale="   47.713">  2  3  1 -1</clus>
<clus scale="   69.250">  2  5  1 -1</clus>
<clus scale="   50.761">  2  3  1 -1</clus>
</clustering>
</event>
<event>
 6    0  0.7258365E+002  0.9918311E+02  0.7546771E-02  0.1282023E+00
          3   -1    0    0  504    0 -0.00000000000E+00  0.00000000000E+00  0.37573410033E+03  0.37573410033E+03  0.00000000000E+00 0. -1.
         21   -1    0    0  503  502  0.00000000000E+00 -0.00000000000E+00 -0.51731284730E+03  0.51731284730E+03  0.00000000000E+00 0.  1.
         21    1    1    2  503  501 -0.22352876974E+02  0.63723417482E+02 -0.31882996118E+01  0.67605401404E+02  0.00000000000E+00 0.  1.
         21    1    1    2  504  505 -0.10745883257E+02 -0.13265693349E+03 -0.22018389151E+03  0.25728249472E+03  0.00000000000E+00 0.  1.
         21    1    1    2  505  502  0.38113763087E+02  0.24999599930E+02 -0.23951930740E+03  0.24381783682E+03  0.00000000000E+00 0.  1.
          3    1    1    2  501    0 -0.50150028559E+01  0.43933916081E+02  0.32131275155E+03  0.32434121469E+03  0.00000000000E+00 0. -1.
<scales pt_clust_3="99.18311" pt_clust_4="14000.00000" pt_clust_5="46.41737" pt_clust_6="44.21922"></scales>
<clustering>
<clus scale="   44.219">  1  6  2 -1</clus>
<clus scale="   46.417">  2  5  1 -1</clus>
<clus scale="   99.183">  1  3  2 -1</clus>
<clus scale="   46.417">  2  3  1 -1</clus>
</clustering>
</event>
<event>
 6    0  0.7258365E+002  0.8798981E+02  0.7546771E-02  0.1307794E+00
          1   -1    0    0  503    0 -0.00000000000E+00  0.00000000000E+00  0.11226754838E+04  0.11226754838E+04  0.00000000000E+00 0.  1.
         21   -1    0    0  504  502  0.00000000000E+00 -0.00000000000E+00 -0.52160550925E+03  0.52160550925E+03  0.00000000000E+00 0.  1.
         21    1    1    2  503  502  0.95040397550E+02  0.60624984466E+02 -0.42434579659E+03  0.43906425611E+03  0.00000000000E+00 0.  1.
         21    1    1    2  504  505 -0.52736059973E+01 -0.54526651103E+02 -0.77746300199E+02  0.95107590629E+02  0.00000000000E+00 0.  1.
         21    1    1    2  505  501 -0.54525665043E+02 -0.37246331395E+01  0.23670535607E+03  0.24293280271E+03  0.00000000000E+00 0. -1.
          1    1    1    2  501    0 -0.35241126510E+02 -0.23737002236E+01  0.86645671532E+03  0.86717634364E+03  0.00000000000E+00 0.  1.
<scales pt_clust_3="87.98981" pt_clust_4="54.98905" pt_clust_5="14000.00000" pt_clust_6="35.32098"></scales>
<clustering>
<clus scale="   35.321">  1  6  2 -1</clus>
<clus scale="   54.989">  2  4  1 -1</clus>
<clus scale="   87.990">  2  3  1 -1</clus>
<clus scale="   54.989">  2  3  1 -1</clus>
</clustering>
</event>
<event>
 6    0  0.7258365E+002  0.9276975E+02  0.7546771E-02  0.1296280E+00
         21   -1    0    0  505  502  0.00000000000E+00  0.00000000000E+00  0.18726598523E+03  0.18726598523E+03  0.00000000000E+00 0. -1.
         -3   -1    0    0    0  501 -0.00000000000E+00 -0.00000000000E+00 -0.66747261820E+03  0.66747261820E+03  0.00000000000E+00 0. -1.
         21    1    1    2  503  504  0.85815593421E+02 -0.72479353306E+02  0.32984505722E+02  0.11707070662E+03  0.00000000000E+00 0. -1.
         21    1    1    2  504  502 -0.51148084203E+02 -0.26754622270E+02  0.94347629437E+02  0.11060475356E+03  0.00000000000E+00 0. -1.
         21    1    1    2  505  501 -0.19898107368E+02  0.62374667990E+02 -0.11049301267E+03  0.12843379513E+03  0.00000000000E+00 0. -1.
         -3    1    1    2    0  503 -0.14769401850E+02  0.36859307586E+02 -0.49704575546E+03  0.49862934812E+03  0.00000000000E+00 0. -1.
<scales pt_clust_3="14000.00000" pt_clust_4="57.56253" pt_clust_5="92.76975" pt_clust_6="39.70823"></scales>
<clustering>
<clus scale="   39.708">  2  6  1 -1</clus>
<clus scale="   57.563">  1  4  2 -1</clus>
<clus scale="   92.770">  2  5  1 -1</clus>
<clus scale="   57.563">  1  3  2 -1</clus>
</clustering>
</event>
<event>
 6    0  0.7258365E+002  0.9247264E+02  0.7546771E-02  0.1296972E+00
          2   -1    0    0  503    0 -0.00000000000E+00  0.00000000000E+00  0.15134009458E+03  0.15134009458E+03  0.00000000000E+00 0. -1.
         21   -1    0    0  504  502  0.00000000000E+00 -0.00000000000E+00 -0.25682988727E+03  0.25682988727E+03  0.00000000000E+00 0. -1.
         21    1    1    2  503  505 -0.21763988653E+02 -0.46730939807E+02  0.35661144165E+01  0.51673679077E+02  0.00000000000E+00 0. -1.
         21    1    1    2  504  501 -0.42138864678E+02  0.51044210522E+02 -0.48554221853E+02  0.82089632743E+02  0.00000000000E+00 0.  1.
         21    1    1    2  505  502  0.12375132445E+03  0.12072632633E+02 -0.13091645947E+03  0.18055264640E+03  0.00000000000E+00 0. -1.
          2    1    1    2  501    0 -0.59848471121E+02 -0.16385903347E+02  0.70414774208E+02  0.93854023626E+02  0.00000000000E+00 0. -1.
<scales pt_clust_3="51.55048" pt_clust_4="63.49827" pt_clust_5="14000.00000" pt_clust_6="92.47264"></scales>
<clustering>
<clus scale="   51.550">  1  3  2 -1</clus>
<clus scale="   63.498">  2  4  1 -1</clus>
<clus scale="   92.473">  1  6  2 -1</clus>
<clus scale="   63.498">  2  3  1 -1</clus>
</clustering>
</event>
<event>
 6    0  0.7258365E+002  0.7631741E+02  0.7546771E-02  0.1339839E+00
          2   -1    0    0  505    0 -0.00000000000E+00  0.00000000000E+00  0.95417124119E+03  0.95417124119E+03  0.00000000000E+00 0. -1.
         21   -1    0    0  504  502  0.00000000000E+00 -0.00000000000E+00 -0.43324461761E+03  0.43324461761E+03  0.00000000000E+00 0. -1.
         21    1    1    2  503  501  0.35657591722E+02  0.43533754427E+02 -0.11377136722E+03  0.12692744235E+03  0.00000000000E+00 0. -1.
         21    1    1    2  504  503 -0.34087100412E+02 -0.29955769158E+02 -0.12218814690E+02  0.46995509921E+02  0.00000000000E+00 0. -1.
         21    1    1    2  505  502  0.69982015961E+02 -0.40070072638E+02 -0.27594267070E+03  0.28748469662E+03  0.00000000000E+00 0. -1.
          2    1    1    2  501    0 -0.71552507271E+02  0.26492087368E+02  0.92285947620E+03  0.92600820990E+03  0.00000000000E+00 0. -1.
<scales pt_clust_3="42.97969" pt_clust_4="45.37927" pt_clust_5="14000.00000" pt_clust_6="76.31741"></scales>
<clustering>
<clus scale="   45.379">  2  4  1 -1</clus>
<clus scale="   42.980">  2  3  1 -1</clus>
<clus scale="   76.317">  1  6  2 -1</clus>
<clus scale="   45.379">  2  3  1 -1</clus>
</clustering>
</event>
<event>
 6    0  0.7258365E+002  0.1256120E+03  0.7546771E-02  0.1234116E+00
         21   -1    0    0  503  502  0.00000000000E+00  0.00000000000E+00  0.12979592534E+04  0.12979592534E+04  0.00000000000E+00 0. -1.
          3   -1    0    0  504    0 -0.00000000000E+00 -0.00000000000E+00 -0.14181968298E+03  0.14181968298E+03  0.00000000000E+00 0. -1.
         21    1    1    2  503  501  0.10494506275E+03  0.55329457040E+02  0.22600478085E+03  0.25525080995E+03  0.00000000000E+00 0. -1.
         21    1    1    2  504  505 -0.11344583637E+03 -0.12548048992E+03  0.88676352927E+03  0.90275404623E+03  0.00000000000E+00 0. -1.
         21    1    1    2  505  502 -0.68607167307E+02 -0.26835998985E+02  0.11654520501E+03  0.13787639051E+03  0.00000000000E+00 0. -1.
          3    1    1    2  501    0  0.77107940933E+02  0.96987031861E+02 -0.73173944733E+02  0.14389768967E+03  0.00000000000E+00 0. -1.
<scales pt_clust_3="103.60523" pt_clust_4="125.61203" pt_clust_5="73.66895" pt_clust_6="14000.00000"></scales>
<clustering>
<clus scale="   73.669">  1  5  2 -1</clus>
<clus scale="  103.605">  1  3  2 -1</clus>
<clus scale="  125.612">  1  4  2 -1</clus>
<clus scale="   73.669">  1  3  2 -1</clus>
</clustering>
</event>
<event>
 6    0  0.7258365E+002  0.2406086E+03  0.7546771E-02  0.1119388E+00
         21   -1    0    0  504  502  0.00000000000E+00  0.00000000000E+00  0.61973961073E+03  0.61973961073E+03  0.00000000000E+00 0. -1.
          2   -1    0    0  503    0 -0.00000000000E+00 -0.00000000000E+00 -0.22741250491E+04  0.22741250491E+04  0.00000000000E+00 0. -1.
         21    1    1    2  503  505  0.73146256873E+02 -0.25896436795E+03  0.19178337207E+03  0.33044482227E+03  0.00000000000E+00 0. -1.
         21    1    1    2  504  501  0.53305552558E+02  0.23903330596E+03  0.84060138194E+02  0.25892954664E+03  0.00000000000E+00 0. -1.
         21    1    1    2  505  502 -0.73193943017E+02  0.48003140821E+02  0.17644136648E+03  0.19695992137E+03  0.00000000000E+00 0. -1.
          2    1    1    2  501    0 -0.53257866414E+02 -0.28072078830E+02 -0.21066703151E+04  0.21075303695E+04  0.00000000000E+00 0. -1.
<scales pt_clust_3="14000.00000" pt_clust_4="240.60858" pt_clust_5="89.37933" pt_clust_6="60.20334"></scales>
<clustering>
<clus scale="   60.203">  2  6  1 -1</clus>
<clus scale="   89.379">  1  5  2 -1</clus>
<clus scale="  240.609">  2  4  1 -1</clus>
<clus scale="   89.379">  1  3  2 -1</clus>
</clustering>
</event>
<event>
 6    0  0.7258365E+002  0.2359763E+03  0.7546771E-02  0.1122503E+00
         21   -1    0    0  503  502  0.00000000000E+00  0.00000000000E+00  0.12687847291E+04  0.12687847291E+04  0.00000000000E+00 0.  1.
          2   -1    0    0  504    0 -0.00000000000E+00 -0.00000000000E+00 -0.18161306775E+04  0.18161306775E+04  0.00000000000E+00 0.  1.
         21    1    1    2  503  505 -0.33310497908E+02 -0.28058298646E+02  0.68003342475E+03  0.68142667703E+03  0.00000000000E+00 0.  1.
         21    1    1    2  504  502  0.24160004727E+03  0.13358600030E+03  0.51286125654E+03  0.58244525131E+03  0.00000000000E+00 0.  1.
         21    1    1    2  505  501 -0.17938163507E+03 -0.14809521418E+03 -0.29873267758E+03  0.37861745353E+03  0.00000000000E+00 0.  1.
          2    1    1    2  501    0 -0.28907914291E+02  0.42567512532E+02 -0.14415079521E+04  0.14424260247E+04  0.00000000000E+00 0.  1.
<scales pt_clust_3="43.55293" pt_clust_4="235.97629" pt_clust_5="14000.00000" pt_clust_6="51.45192"></scales>
<clustering>
<clus scale="   43.553">  1  3  2 -1</clus>
<clus scale="   51.452">  2  6  1 -1</clus>
<clus scale="  235.976">  1  4  2 -1</clus>
<clus scale="   43.553">  1  3  2 -1</clus>
</clustering>
</event>
<event>
 6    0  0.7258365E+002  0.7934453E+02  0.7546771E-02  0.1330922E+00
         21   -1    0    0  504  502  0.00000000000E+00  0.00000000000E+00  0.24075886064E+03  0.24075886064E+03  0.00000000000E+00 0. -1.
          1   -1    0    0  505    0 -0.00000000000E+00 -0.00000000000E+00 -0.58842408028E+03  0.58842408028E+03  0.00000000000E+00 0. -1.
         21    1    1    2  503  501  0.45208241839E+02  0.94642434105E+02 -0.14815037327E+03  0.18151999494E+03  0.00000000000E+00 0. -1.
         21    1    1    2  504  503 -0.43651786210E+02 -0.30940685302E+02  0.15409234952E+03  0.16311730941E+03  0.00000000000E+00 0. -1.
         21    1    1    2  505  502  0.46873405648E+02 -0.52955916204E+02  0.44370781131E+02  0.83487792139E+02  0.00000000000E+00 0. -1.
          1    1    1    2  501    0 -0.48429861277E+02 -0.10745832598E+02 -0.39797797702E+03  0.40105784443E+03  0.00000000000E+00 0. -1.
<scales pt_clust_3="79.34453" pt_clust_4="54.59937" pt_clust_5="14000.00000" pt_clust_6="49.60770"></scales>
<clustering>
<clus scale="   49.608">  2  6  1 -1</clus>
<clus scale="   54.599">  1  4  2 -1</clus>
<clus scale="   79.345">  2  3  1 -1</clus>
<clus scale="   54.599">  1  3  2 -1</clus>
</clustering>
</event>
<event>
 6    0  0.7258365E+002  0.1266301E+03  0.7546771E-02  0.1232543E+00
          2   -1    0    0  503    0 -0.00000000000E+00  0.00000000000E+00  0.46347554508E+03  0.46347554508E+03  0.00000000000E+00 0. -1.
         21   -1    0    0  505  502  0.00000000000E+00 -0.00000000000E+00 -0.39101330417E+03  0.39101330417E+03  0.00000000000E+00 0.  1.
         21    1    1    2  503  504  0.45596748725E+02 -0.14601666526E+02  0.18815097799E+02  0.51442006811E+02  0.00000000000E+00 0. -1.
         21    1    1    2  504  502  0.98080443437E+02 -0.34958220265E+02 -0.14941831530E+03  0.18211997007E+03  0.00000000000E+00 0.  1.
         21    1    1    2  505  501 -0.15877778210E+03  0.10310849335E+03 -0.16350927463E+03  0.25015400932E+03  0.00000000000E+00 0.  1.
          2    1    1    2  501    0  0.15100589934E+02 -0.53548606560E+02  0.36657473304E+03  0.37077286306E+03  0.00000000000E+00 0. -1.
<scales pt_clust_3="47.87768" pt_clust_4="14000.00000" pt_clust_5="126.63013" pt_clust_6="85.58472"></scales>
<clustering>
<clus scale="   47.878">  1  3  2 -1</clus>
<clus scale="   85.585">  1  6  2 -1</clus>
<clus scale="  126.630">  1  5  2 -1</clus>
<clus scale="  126.630">  2  3  1 -1</clus>
</clustering>
</event>
<event>
 6    0  0.7258365E+002  0.6738885E+02  0.7546771E-02  0.1369204E+00
          1   -1    0    0  503    0 -0.00000000000E+00  0.00000000000E+00  0.38359529567E+03  0.38359529567E+03  0.00000000000E+00 0. -1.
         21   -1    0    0  504  502  0.00000000000E+00 -0.00000000000E+00 -0.16079234904E+03  0.16079234904E+03  0.00000000000E+00 0.  1.
         21    1    1    2  503  505 -0.49945396271E+02 -0.20900824899E+01  0.76115352023E+02  0.91062933552E+02  0.00000000000E+00 0.  1.
         21    1    1    2  504  501 -0.36202015248E+02 -0.45550755914E+02 -0.70570042003E+02  0.91463588934E+02  0.00000000000E+00 0.  1.
         21    1    1    2  505  502 -0.26764325999E+02  0.21745237197E+02 -0.55602788024E+02  0.65428239491E+02  0.00000000000E+00 0.  1.
          1    1    1    2  501    0  0.11291173752E+03  0.25895601207E+02  0.27286042464E+03  0.29643288273E+03  0.00000000000E+00 0. -1.
<scales pt_clust_3="51.94230" pt_clust_4="14000.00000" pt_clust_5="34.48455" pt_clust_6="67.38885"></scales>
<clustering>
<clus scale="   34.485">  2  5  1 -1</clus>
<clus scale="   51.942">  1  3  2 -1</clus>
<clus scale="   67.389">  1  6  2 -1</clus>
<clus scale="   34.485">  2  3  1 -1</clus>
</clustering>
</event>
<event>
 6    0  0.7258365E+002  0.1181289E+03  0.7546771E-02  0.1246216E+00
         21   -1    0    0  504  502  0.00000000000E+00  0.00000000000E+00  0.33654026966E+03  0.33654026966E+03  0.00000000000E+00 0.  1.
          4   -1    0    0  503    0 -0.00000000000E+00 -0.00000000000E+00 -0.81656001514E+03  0.81656001514E+03  0.00000000000E+00 0. -1.
         21    1    1    2  503  505 -0.61287209077E+02  0.51050954529E+02 -0.18346071326E+03  0.20005038182E+03  0.00000000000E+00 0.  1.
         21    1    1    2  504  501  0.27989086481E+02  0.33456374715E+02 -0.21020238624E+03  0.21468060265E+03  0.00000000000E+00 0.  1.
         21    1    1    2  505  502  0.38053887861E+02 -0.11492768871E+03  0.31415563120E+03  0.33667526287E+03  0.00000000000E+00 0.  1.
          4    1    1    2  501    0 -0.47557652650E+01  0.30420359466E+02 -0.40051227718E+03  0.40169403748E+03  0.00000000000E+00 0. -1.
<scales pt_clust_3="118.12886" pt_clust_4="55.27491" pt_clust_5="14000.00000" pt_clust_6="30.78986"></scales>
<clustering>
<clus scale="   30.790">  2  6  1 -1</clus>
<clus scale="   55.275">  2  4  1 -1</clus>
<clus scale="  118.129">  2  3  1 -1</clus>
<clus scale="  118.129">  1  3  2 -1</clus>
</clustering>
</event>
<event>
 6    0  0.7258365E+002  0.1540918E+03  0.7546771E-02  0.1195533E+00
         21   -1    0    0  504  502  0.00000000000E+00  0.00000000000E+00  0.31747201652E+03  0.31747201652E+03  0.00000000000E+00 0. -1.
          1   -1    0    0  503    0 -0.00000000000E+00 -0.00000000000E+00 -0.83504989463E+03  0.83504989463E+03  0.00000000000E+00 0.  1.
         21    1    1    2  503  505  0.77635675216E+02 -0.10154390410E+03 -0.11518162581E+03  0.17206181869E+03  0.00000000000E+00 0.  1.
         21    1    1    2  504  501 -0.74309245806E+02  0.18158777687E+03 -0.35519807550E+03  0.40578523576E+03  0.00000000000E+00 0.  1.
         21    1    1    2  505  502 -0.18361657358E+02 -0.37241205495E+02  0.26043013654E+03  0.26371938470E+03  0.00000000000E+00 0. -1.
          1    1    1    2  501    0  0.15035227948E+02 -0.42802667274E+02 -0.30762831333E+03  0.31095547201E+03  0.00000000000E+00 0.  1.
<scales pt_clust_3="154.09178" pt_clust_4="14000.00000" pt_clust_5="41.52178" pt_clust_6="46.24757"></scales>
<clustering>
<clus scale="   41.522">  1  5  2 -1</clus>
<clus scale="   46.248">  2  6  1 -1</clus>
<clus scale="  154.092">  1  3  2 -1</clus>
<clus scale="   41.522">  1  3  2 -1</clus>
</clustering>
</event>
<event>
 6    0  0.7258365E+002  0.1281286E+03  0.7546771E-02  0.1230259E+00
         21   -1    0    0  504  502  0.00000000000E+00  0.00000000000E+00  0.80576298401E+02  0.80576298401E+02  0.00000000000E+00 0. -1.
          2   -1    0    0  505    0 -0.00000000000E+00 -0.00000000000E+00 -0.84254774030E+03  0.84254774030E+03  0.00000000000E+00 0. -1.
         21    1    1    2  503  502 -0.61629794924E+02 -0.41548528314E+02 -0.19973457114E+02  0.76963957906E+02  0.00000000000E+00 0. -1.
         21    1    1    2  504  501 -0.26241487071E+02  0.12354773432E+03 -0.87249553371E+02  0.15350942272E+03  0.00000000000E+00 0. -1.
         21    1    1    2  505  503  0.74120837035E+02 -0.13694212336E+03 -0.35576610848E+03  0.38835108803E+03  0.00000000000E+00 0. -1.
          2    1    1    2  501    0  0.13750444960E+02  0.54942917347E+02 -0.29898232294E+03  0.30429957005E+03  0.00000000000E+00 0. -1.
<scales pt_clust_3="70.63491" pt_clust_4="128.12860" pt_clust_5="14000.00000" pt_clust_6="56.63743"></scales>
<clustering>
<clus scale="   56.637">  2  6  1 -1</clus>
<clus scale="   70.635">  1  3  2 -1</clus>
<clus scale="  128.129">  1  4  2 -1</clus>
<clus scale="   70.635">  1  3  2 -1</clus>
</clustering>
</event>
<event>
 6    0  0.7258365E+002  0.1689451E+03  0.7546771E-02  0.1178952E+00
          1   -1    0    0  503    0 -0.00000000000E+00  0.00000000000E+00  0.16032593031E+03  0.16032593031E+03  0.00000000000E+00 0.  1.
         21   -1    0    0  505  502  0.00000000000E+00 -0.00000000000E+00 -0.72768872443E+03  0.72768872443E+03  0.00000000000E+00 0.  1.
         21    1    1    2  503  504 -0.12675222365E+03  0.63992096719E+02  0.71193875291E+01  0.14216821136E+03  0.00000000000E+00 0.  1.
         21    1    1    2  504  502  0.43023273525E+02  0.15470979229E+03 -0.30424032478E+03  0.34401787325E+03  0.00000000000E+00 0.  1.
         21    1    1    2  505  501  0.39372161689E+02 -0.18937718617E+03 -0.28698213093E+03  0.34608182448E+03  0.00000000000E+00 0.  1.
          1    1    1    2  501    0  0.44356788433E+02 -0.29324702833E+02  0.16740274057E+02  0.55746745661E+02  0.00000000000E+00 0.  1.
<scales pt_clust_3="110.28231" pt_clust_4="14000.00000" pt_clust_5="168.94514" pt_clust_6="53.17389"></scales>
<clustering>
<clus scale="   53.174">  1  6  2 -1</clus>
<clus scale="  110.282">  1  3  2 -1</clus>
<clus scale="  168.945">  1  5  2 -1</clus>
<clus scale="  168.945">  2  3  1 -1</clus>
</clustering>
</event>
<event>
 6    0  0.7258365E+002  0.9709978E+02  0.7546771E-02  0.1286516E+00
          2   -1    0    0  504    0 -0.00000000000E+00  0.00000000000E+00  0.73024480602E+03  0.73024480602E+03  0.00000000000E+00 0.  1.
         21   -1    0    0  503  502  0.00000000000E+00 -0.00000000000E+00 -0.14756044436E+04  0.14756044436E+04  0.00000000000E+00 0.  1.
         21    1    1    2  503  501  0.12309939180E+03 -0.19074388461E+02 -0.16939292554E+03  0.21026472785E+03  0.00000000000E+00 0. -1.
         21    1    1    2  504  505 -0.73982971520E+02 -0.11440348464E+02  0.37367903820E+02  0.83670316623E+02  0.00000000000E+00 0.  1.
         21    1    1    2  505  502  0.23242304998E+02 -0.34008844551E+02 -0.12586666131E+04  0.12593404819E+04  0.00000000000E+00 0.  1.
          2    1    1    2  501    0 -0.72358725282E+02  0.64523581476E+02  0.64533199724E+03  0.65257372331E+03  0.00000000000E+00 0.  1.
<scales pt_clust_3="97.09978" pt_clust_4="73.07076" pt_clust_5="41.19231" pt_clust_6="14000.00000"></scales>
<clustering>
<clus scale="   41.192">  2  5  1 -1</clus>
<clus scale="   73.071">  2  4  1 -1</clus>
<clus scale="   97.100">  2  3  1 -1</clus>
<clus scale="   41.192">  2  3  1 -1</clus>
</clustering>
</event>
<event>
 6    0  0.7258365E+002  0.9688624E+02  0.7546771E-02  0.1286983E+00
          1   -1    0    0  503    0 -0.00000000000E+00  0.00000000000E+00  0.15413581216E+04  0.15413581216E+04  0.00000000000E+00 0. -1.
         21   -1    0    0  504  502  0.00000000000E+00 -0.00000000000E+00 -0.18219611964E+03  0.18219611964E+03  0.00000000000E+00 0. -1.
         21    1    1    2  503  505 -0.65864180681E+02  0.23593558460E+01  0.11722837248E+03  0.13448475070E+03  0.00000000000E+00 0. -1.
         21    1    1    2  504  501  0.93683517926E+01  0.62897711225E+02  0.84798360197E+03  0.85036467313E+03  0.00000000000E+00 0. -1.
         21    1    1    2  505  502  0.18419578338E+02 -0.80510702689E+02 -0.16168493399E+03  0.18155790259E+03  0.00000000000E+00 0. -1.
          1    1    1    2  501    0  0.38076250551E+02  0.15253635618E+02  0.55563496150E+03  0.55714691482E+03  0.00000000000E+00 0. -1.
<scales pt_clust_3="65.90643" pt_clust_4="40.83498" pt_clust_5="82.47284" pt_clust_6="40.83498"></scales>
<clustering>
<clus scale="   40.835">  4  6 -1 -1</clus>
<clus scale="   65.906">  1  3  2 -1</clus>
<clus scale="   82.473">  2  5  1 -1</clus>
<clus scale="   82.473">  2  3  1 -1</clus>
</clustering>
</event>
<event>
 6    0  0.7258365E+002  0.9794975E+02  0.7546771E-02  0.1284667E+00
         21   -1    0    0  501  502  0.00000000000E+00  0.00000000000E+00  0.29212176552E+04  0.29212176552E+04  0.00000000000E+00 0. -1.
          2   -1    0    0  504    0 -0.00000000000E+00 -0.00000000000E+00 -0.12351065001E+04  0.12351065001E+04  0.00000000000E+00 0. -1.
         21    1    1    2  503  502  0.29701762322E+02 -0.30818340553E+02  0.26672416316E+04  0.26675850288E+04  0.00000000000E+00 0. -1.
         21    1    1    2  504  505  0.10309501651E+03 -0.33593766467E+01 -0.13454453552E+03  0.16953495179E+03  0.00000000000E+00 0.  1.
         21    1    1    2  505  503 -0.12190207784E+03  0.27652751987E+01  0.22030374397E+03  0.25179655068E+03  0.00000000000E+00 0. -1.
          2    1    1    2  501    0 -0.10894700995E+02  0.31412442001E+02 -0.10668896849E+04  0.10674076240E+04  0.00000000000E+00 0. -1.
<scales pt_clust_3="42.77061" pt_clust_4="97.94975" pt_clust_5="14000.00000" pt_clust_6="33.24810"></scales>
<clustering>
<clus scale="   33.248">  2  6  1 -1</clus>
<clus scale="   42.771">  1  3  2 -1</clus>
<clus scale="   97.950">  2  4  1 -1</clus>
<clus scale="   42.771">  1  3  2 -1</clus>
</clustering>
</event>
<event>
 6    0  0.7258365E+002  0.7618109E+02  0.7546771E-02  0.1340252E+00
         -2   -1    0    0    0  501 -0.00000000000E+00  0.00000000000E+00  0.31299829434E+03  0.31299829434E+03  0.00000000000E+00 0.  1.
         21   -1    0    0  505  502  0.00000000000E+00 -0.00000000000E+00 -0.23395839301E+03  0.23395839301E+03  0.00000000000E+00 0.  1.
         21    1    1    2  503  502 -0.44365874960E+02 -0.90034555675E+02 -0.14928420271E+03  0.17988975862E+03  0.00000000000E+00 0.  1.
         21    1    1    2  504  503 -0.18957209096E+02  0.99350811661E+02  0.11564290888E+03  0.15363346617E+03  0.00000000000E+00 0.  1.
         21    1    1    2  505  501  0.42777477674E+02  0.20131612968E+02 -0.36666492780E+02  0.59829976849E+02  0.00000000000E+00 0.  1.
         -2    1    1    2    0  504  0.20545606382E+02 -0.29447868955E+02  0.14934768795E+03  0.15360348571E+03  0.00000000000E+00 0.  1.
<scales pt_clust_3="76.18109" pt_clust_4="14000.00000" pt_clust_5="47.77913" pt_clust_6="35.90681"></scales>
<clustering>
<clus scale="   35.907">  1  6  2 -1</clus>
<clus scale="   47.779">  2  5  1 -1</clus>
<clus scale="   76.181">  2  3  1 -1</clus>
<clus scale="   47.779">  2  3  1 -1</clus>
</clustering>
</event>
<event>
 6    0  0.7258365E+002  0.8160629E+02  0.7546771E-02  0.1324554E+00
         21   -1    0    0  505  502  0.00000000000E+00  0.00000000000E+00  0.23677160616E+03  0.23677160616E+03  0.00000000000E+00 0. -1.
         -2   -1    0    0    0  501 -0.00000000000E+00 -0.00000000000E+00 -0.18048046387E+03  0.18048046387E+03  0.00000000000E+00 0. -1.
         21    1    1    2  503  502 -0.88571307376E+01 -0.28749723456E+02  0.15773644475E+02  0.33967679105E+02  0.00000000000E+00 0.  1.
         21    1    1    2  504  501 -0.30752808323E+02  0.13265585649E+03  0.57648302573E+02  0.14787372407E+03  0.00000000000E+00 0. -1.
         21    1    1    2  505  504  0.39069304661E+02 -0.40822401069E+02  0.92808606807E+02  0.10865687504E+03  0.00000000000E+00 0. -1.
         -2    1    1    2    0  503  0.54063440049E+00 -0.63083731967E+02 -0.10993941156E+03  0.12675379181E+03  0.00000000000E+00 0. -1.
<scales pt_clust_3="30.08314" pt_clust_4="81.60629" pt_clust_5="14000.00000" pt_clust_6="64.22466"></scales>
<clustering>
<clus scale="   30.083">  1  3  2 -1</clus>
<clus scale="   64.225">  2  6  1 -1</clus>
<clus scale="   81.606">  2  4  1 -1</clus>
<clus scale="   30.083">  1  3  2 -1</clus>
</clustering>
</event>
<event>
 6    0  0.7258365E+002  0.7817857E+02  0.7546771E-02  0.1334301E+00
         21   -1    0    0  504  502  0.00000000000E+00  0.00000000000E+00  0.21490831646E+03  0.21490831646E+03  0.00000000000E+00 0.  1.
         -1   -1    0    0    0  501 -0.00000000000E+00 -0.00000000000E+00 -0.16609122808E+04  0.16609122808E+04  0.00000000000E+00 0. -1.
         21    1    1    2  503  505  0.15320132680E+02  0.10635855668E+03 -0.36560946912E+02  0.11350573503E+03  0.00000000000E+00 0.  1.
         21    1    1    2  504  503 -0.30157690401E+02 -0.35982690107E+02  0.16634812043E+03  0.17284657199E+03  0.00000000000E+00 0.  1.
         21    1    1    2  505  501 -0.22698785927E+02  0.48711946147E+02 -0.17358268665E+03  0.18171141319E+03  0.00000000000E+00 0.  1.
         -1    1    1    2    0  502  0.37536343647E+02 -0.11908781272E+03 -0.14022084512E+04  0.14077568771E+04  0.00000000000E+00 0. -1.
<scales pt_clust_3="14000.00000" pt_clust_4="46.94934" pt_clust_5="52.09781" pt_clust_6="78.17857"></scales>
<clustering>
<clus scale="   46.949">  1  4  2 -1</clus>
<clus scale="   52.098">  2  5  1 -1</clus>
<clus scale="   78.179">  2  6  1 -1</clus>
<clus scale="   46.949">  1  3  2 -1</clus>
</clustering>
</event>
<event>
 6    0  0.7258365E+002  0.8072666E+02  0.7546771E-02  0.1327002E+00
         21   -1    0    0  503  502  0.00000000000E+00  0.00000000000E+00  0.10633892757E+03  0.10633892757E+03  0.00000000000E+00 0. -1.
          2   -1    0    0  505    0 -0.00000000000E+00 -0.00000000000E+00 -0.56804076040E+03  0.56804076040E+03  0.00000000000E+00 0. -1.
         21    1    1    2  503  504  0.14244384998E+02  0.26676702897E+02  0.65608422593E+02  0.72242744248E+02  0.00000000000E+00 0. -1.
         21    1    1    2  504  501 -0.27769451003E+02  0.15650137078E+02 -0.33995733867E+02  0.46602351022E+02  0.00000000000E+00 0. -1.
         21    1    1    2  505  502  0.78157469179E+02 -0.83579427905E+02 -0.91623816297E+02  0.14659138607E+03  0.00000000000E+00 0. -1.
          2    1    1    2  501    0 -0.64632403174E+02  0.41252587930E+02 -0.40169070526E+03  0.40894320663E+03  0.00000000000E+00 0. -1.
<scales pt_clust_3="30.24151" pt_clust_4="32.39475" pt_clust_5="14000.00000" pt_clust_6="80.72666"></scales>
<clustering>
<clus scale="   30.242">  1  3  2 -1</clus>
<clus scale="   32.395">  1  4  2 -1</clus>
<clus scale="   80.727">  2  6  1 -1</clus>
<clus scale="   30.242">  1  3  2 -1</clus>
</clustering>
</event>
<event>
 6    0  0.7258365E+002  0.1538282E+03  0.7546771E-02  0.1195846E+00
         21   -1    0    0  503  502  0.00000000000E+00  0.00000000000E+00  0.15924508860E+04  0.15924508860E+04  0.00000000000E+00 0. -1.
         -1   -1    0    0    0  501 -0.00000000000E+00 -0.00000000000E+00 -0.32451735986E+03  0.32451735986E+03  0.00000000000E+00 0. -1.
         21    1    1    2  503  501  0.38609144741E+02 -0.15750945839E+02 -0.52142089128E+02  0.66764929499E+02  0.00000000000E+00 0. -1.
         21    1    1    2  504  505  0.16111752284E+03  0.13083845453E+03  0.56480733895E+03  0.60173489801E+03  0.00000000000E+00 0. -1.
         21    1    1    2  505  502 -0.13492391465E+03 -0.43722857188E+02  0.98718192727E+03  0.99731855920E+03  0.00000000000E+00 0. -1.
         -1    1    1    2    0  504 -0.64802752927E+02 -0.71364651501E+02 -0.23191365093E+03  0.25114985917E+03  0.00000000000E+00 0. -1.
<scales pt_clust_3="41.69842" pt_clust_4="14000.00000" pt_clust_5="153.82820" pt_clust_6="90.69105"></scales>
<clustering>
<clus scale="   41.698">  2  3  1 -1</clus>
<clus scale="   90.691">  2  6  1 -1</clus>
<clus scale="  153.828">  1  5  2 -1</clus>
<clus scale="  153.828">  1  3  2 -1</clus>
</clustering>
</event>
<event>
 6    0  0.7258365E+002  0.6337056E+02  0.7546771E-02  0.1384208E+00
         21   -1    0    0  504  502  0.00000000000E+00  0.00000000000E+00  0.13375071924E+03  0.13375071924E+03  0.00000000000E+00 0.  1.
          2   -1    0    0  505    0 -0.00000000000E+00 -0.00000000000E+00 -0.14265781654E+04  0.14265781654E+04  0.00000000000E+00 0.  1.
         21    1    1    2  503  501  0.60740008761E+02  0.54474604014E+02 -0.64296877375E+02  0.10387935111E+03  0.00000000000E+00 0.  1.
         21    1    1    2  504  503 -0.58701984585E+02  0.74249284749E+01  0.10370510568E+03  0.11939766120E+03  0.00000000000E+00 0.  1.
         21    1    1    2  505  502 -0.28376092978E+02 -0.77142346761E+02 -0.89959230635E+03  0.90333961607E+03  0.00000000000E+00 0.  1.
          2    1    1    2  501    0  0.26338068801E+02  0.15242814272E+02 -0.43264336814E+03  0.43371225628E+03  0.00000000000E+00 0.  1.
<scales pt_clust_3="63.37056" pt_clust_4="58.97860" pt_clust_5="14000.00000" pt_clust_6="30.43086"></scales>
<clustering>
<clus scale="   30.431">  2  6  1 -1</clus>
<clus scale="   58.979">  1  4  2 -1</clus>
<clus scale="   63.371">  1  3  2 -1</clus>
<clus scale="   58.979">  1  3  2 -1</clus>
</clustering>
</event>
<event>
 6    0  0.7258365E+002  0.1838511E+03  0.7546771E-02  0.1164127E+00
         21   -1    0    0  503  502  0.00000000000E+00  0.00000000000E+00  0.26448433503E+02  0.26448433503E+02  0.00000000000E+00 0.  1.
          2   -1    0    0  505    0 -0.00000000000E+00 -0.00000000000E+00 -0.46489636773E+04  0.46489636773E+04  0.00000000000E+00 0. -1.
         21    1    1    2  503  501  0.33700615626E+02  0.40672385779E+01 -0.85401163796E+01  0.35002964318E+02  0.00000000000E+00 0. -1.
         21    1    1    2  504  502 -0.16455311653E+02  0.17303790362E+03 -0.88235733995E+03  0.89931494413E+03  0.00000000000E+00 0.  1.
         21    1    1    2  505  504 -0.41088888047E+02  0.31147277733E+02 -0.10667208411E+04  0.10679661991E+04  0.00000000000E+00 0. -1.
          2    1    1    2  501    0  0.23843584074E+02 -0.20825241993E+03 -0.26648969464E+04  0.26731280032E+04  0.00000000000E+00 0. -1.
<scales pt_clust_3="33.94516" pt_clust_4="183.85114" pt_clust_5="50.42291" pt_clust_6="14000.00000"></scales>
<clustering>
<clus scale="   33.945">  1  3  2 -1</clus>
<clus scale="   50.423">  2  5  1 -1</clus>
<clus scale="  183.851">  1  4  2 -1</clus>
<clus scale="   33.945">  1  3  2 -1</clus>
</clustering>
</event>
<event>
 6    0  0.7258365E+002  0.1029620E+03  0.7546771E-02  0.1274188E+00
          2   -1    0    0  505    0 -0.00000000000E+00  0.00000000000E+00  0.22903060359E+04  0.22903060359E+04  0.00000000000E+00 0. -1.
         21   -1    0    0  503  502  0.00000000000E+00 -0.00000000000E+00 -0.31406429291E+02  0.31406429291E+02  0.00000000000E+00 0.  1.
         21    1    1    2  503  501  0.58585963292E+02  0.26664769623E+01  0.90673259339E+02  0.10798641189E+03  0.00000000000E+00 0.  1.
         21    1    1    2  504  502 -0.16304352158E+03 -0.10655510975E+02  0.31187309456E+03  0.35208174755E+03  0.00000000000E+00 0.  1.
         21    1    1    2  505  504  0.31255827068E+02  0.30027352480E+02  0.12115634246E+04  0.12123384430E+04  0.00000000000E+00 0. -1.
          2    1    1    2  501    0  0.73201731220E+02 -0.22038318468E+02  0.64478982812E+03  0.64930586273E+03  0.00000000000E+00 0. -1.
<scales pt_clust_3="61.70460" pt_clust_4="14000.00000" pt_clust_5="43.34246" pt_clust_6="102.96203"></scales>
<clustering>
<clus scale="   43.342">  1  5  2 -1</clus>
<clus scale="   61.705">  2  3  1 -1</clus>
<clus scale="  102.962">  1  6  2 -1</clus>
<clus scale="   61.705">  2  3  1 -1</clus>
</clustering>
</event>
<event>
 6    0  0.7258365E+002  0.1588843E+03  0.7546771E-02  0.1189962E+00
         21   -1    0    0  505  502  0.00000000000E+00  0.00000000000E+00  0.15305140719E+04  0.15305140719E+04  0.00000000000E+00 0. -1.
         -4   -1    0    0    0  501 -0.00000000000E+00 -0.00000000000E+00 -0.38157370789E+03  0.38157370789E+03  0.00000000000E+00 0.  1.
         21    1    1    2  503  502 -0.38136576473E+02 -0.67955429922E+01  0.65907594340E+03  0.66021335721E+03  0.00000000000E+00 0. -1.
         21    1    1    2  504  503 -0.10862901170E+03  0.20838219173E+02  0.83026379812E+03  0.83759922876E+03  0.00000000000E+00 0. -1.
         21    1    1    2  505  501  0.23425102318E+02  0.61973267833E+02 -0.32079683234E+02  0.73610647470E+02  0.00000000000E+00 0. -1.
         -4    1    1    2    0  504  0.12334048585E+03 -0.76015944014E+02 -0.30831969432E+03  0.34066454630E+03  0.00000000000E+00 0.  1.
<scales pt_clust_3="35.37078" pt_clust_4="35.37078" pt_clust_5="66.25271" pt_clust_6="147.21373"></scales>
<clustering>
<clus scale="   35.371">  3  4 -1 -1</clus>
<clus scale="   66.253">  2  5  1 -1</clus>
<clus scale="  147.214">  2  6  1 -1</clus>
<clus scale="  158.884">  1  3  2 -1</clus>
</clustering>
</event>
<event>
 6    0  0.7258365E+002  0.1160300E+03  0.7546771E-02  0.1249794E+00
         21   -1    0    0  504  502  0.00000000000E+00  0.00000000000E+00  0.18262948537E+03  0.18262948537E+03  0.00000000000E+00 0. -1.
         -1   -1    0    0    0  501 -0.00000000000E+00 -0.00000000000E+00 -0.13203465732E+04  0.13203465732E+04  0.00000000000E+00 0.  1.
         21    1    1    2  503  502  0.35630716079E+02  0.14520572370E+02  0.17405786428E+02  0.42229804066E+02  0.00000000000E+00 0.  1.
         21    1    1    2  504  505 -0.32590700658E+02 -0.49843624048E+02  0.13468785044E+03  0.14726628155E+03  0.00000000000E+00 0. -1.
         21    1    1    2  505  501 -0.59224652785E+02  0.12440926832E+03 -0.59595920928E+03  0.61168014899E+03  0.00000000000E+00 0.  1.
         -1    1    1    2    0  503  0.56184637363E+02 -0.89086216643E+02 -0.69385151540E+03  0.70179982395E+03  0.00000000000E+00 0.  1.
<scales pt_clust_3="38.47590" pt_clust_4="36.44869" pt_clust_5="14000.00000" pt_clust_6="116.02999"></scales>
<clustering>
<clus scale="   38.476">  1  3  2 -1</clus>
<clus scale="   36.449">  1  4  2 -1</clus>
<clus scale="  116.030">  2  6  1 -1</clus>
<clus scale="   38.476">  1  3  2 -1</clus>
</clustering>
</event>
<event>
 6    0  0.7258365E+002  0.7556370E+02  0.7546771E-02  0.1342134E+00
         21   -1    0    0  501  502  0.00000000000E+00  0.00000000000E+00  0.20050602725E+03  0.20050602725E+03  0.00000000000E+00 0. -1.
          2   -1    0    0  503    0 -0.00000000000E+00 -0.00000000000E+00 -0.78428567501E+03  0.78428567501E+03  0.00000000000E+00 0.  1.
         21    1    1    2  503  505 -0.11070657876E+03 -0.62826627897E+01 -0.53729455802E+02  0.12321636602E+03  0.00000000000E+00 0. -1.
         21    1    1    2  504  502  0.13764532673E+02 -0.31757180793E+02  0.12902500575E+03  0.13358679949E+03  0.00000000000E+00 0. -1.
         21    1    1    2  505  504  0.46785239400E+02 -0.18053916155E+02  0.12926485202E+02  0.51787030557E+02  0.00000000000E+00 0.  1.
          2    1    1    2  501    0  0.50156806691E+02  0.56093759738E+02 -0.67200168291E+03  0.67620150619E+03  0.00000000000E+00 0.  1.
<scales pt_clust_3="75.56370" pt_clust_4="34.61186" pt_clust_5="62.57087" pt_clust_6="14000.00000"></scales>
<clustering>
<clus scale="   34.612">  1  4  2 -1</clus>
<clus scale="   62.571">  1  5  2 -1</clus>
<clus scale="   75.564">  1  3  2 -1</clus>
<clus scale="   34.612">  1  3  2 -1</clus>
</clustering>
</event>
<event>
 6    0  0.7258365E+002  0.1160099E+03  0.7546771E-02  0.1249829E+00
         21   -1    0    0  504  502  0.00000000000E+00  0.00000000000E+00  0.37344711521E+03  0.37344711521E+03  0.00000000000E+00 0.  1.
          1   -1    0    0  502    0 -0.00000000000E+00 -0.00000000000E+00 -0.56361891159E+03  0.56361891159E+03  0.00000000000E+00 0.  1.
         21    1    1    2  503  501  0.14292503266E+02  0.98739102682E+02 -0.86607082335E+02  0.13211537669E+03  0.00000000000E+00 0.  1.
         21    1    1    2  504  505 -0.15728771883E+02 -0.56250303990E+02  0.27050012236E+03  0.27673418141E+03  0.00000000000E+00 0.  1.
         21    1    1    2  505  503 -0.36696172300E+02 -0.91441556769E+02  0.42319465054E+02  0.10723387752E+03  0.00000000000E+00 0.  1.
          1    1    1    2  501    0  0.38132440917E+02  0.48952758078E+02 -0.41638430146E+03  0.42098259118E+03  0.00000000000E+00 0.  1.
<scales pt_clust_3="14000.00000" pt_clust_4="58.40797" pt_clust_5="116.00986" pt_clust_6="60.80957"></scales>
<clustering>
<clus scale="   58.408">  1  4  2 -1</clus>
<clus scale="   60.810">  2  6  1 -1</clus>
<clus scale="  116.010">  1  5  2 -1</clus>
<clus scale="   58.408">  1  3  2 -1</clus>
</clustering>
</event>
<event>
 6    0  0.7258365E+002  0.1053604E+03  0.7546771E-02  0.1269411E+00
         -1   -1    0    0    0  501 -0.00000000000E+00  0.00000000000E+00  0.12144846110E+04  0.12144846110E+04  0.00000000000E+00 0.  1.
         21   -1    0    0  504  502  0.00000000000E+00 -0.00000000000E+00 -0.24716933998E+03  0.24716933998E+03  0.00000000000E+00 0.  1.
         21    1    1    2  503  505  0.18869825382E+03  0.13327003315E+02  0.30788734749E+03  0.36135752207E+03  0.00000000000E+00 0.  1.
         21    1    1    2  504  501 -0.96693013648E+02 -0.55280017564E+02 -0.12908679503E+03  0.17049580605E+03  0.00000000000E+00 0.  1.
         21    1    1    2  505  502 -0.94603960633E+00  0.53656684805E+02 -0.57596628866E+02  0.78722972961E+02  0.00000000000E+00 0.  1.
         -1    1    1    2    0  503 -0.91059200562E+02 -0.11703670556E+02  0.84611134745E+03  0.85107764992E+03  0.00000000000E+00 0.  1.
<scales pt_clust_3="14000.00000" pt_clust_4="105.36039" pt_clust_5="53.66502" pt_clust_6="91.72936"></scales>
<clustering>
<clus scale="   53.665">  2  5  1 -1</clus>
<clus scale="   91.729">  1  6  2 -1</clus>
<clus scale="  105.360">  2  4  1 -1</clus>
<clus scale="   53.665">  2  3  1 -1</clus>
</clustering>
</event>
<event>
 6    0  0.7258365E+002  0.1420302E+03  0.7546771E-02  0.1210623E+00
         21   -1    0    0  503  502  0.00000000000E+00  0.00000000000E+00  0.27668459532E+02  0.27668459532E+02  0.00000000000E+00 0.  1.
          2   -1    0    0  504    0 -0.00000000000E+00 -0.00000000000E+00 -0.33330772345E+04  0.33330772345E+04  0.00000000000E+00 0.  1.
         21    1    1    2  503  501  0.11096989442E+03  0.14994246065E+03 -0.10592855295E+04  0.10755849069E+04  0.00000000000E+00 0.  1.
         21    1    1    2  504  505 -0.83293998978E+02  0.24609221717E+02 -0.62988542779E+03  0.63584522975E+03  0.00000000000E+00 0.  1.
         21    1    1    2  505  502  0.35584217984E+02 -0.91339959770E+02 -0.14896972892E+03  0.17832892350E+03  0.00000000000E+00 0.  1.
          2    1    1    2  501    0 -0.63260113430E+02 -0.83211722598E+02 -0.14672680887E+04  0.14709866339E+04  0.00000000000E+00 0.  1.
<scales pt_clust_3="14000.00000" pt_clust_4="86.85335" pt_clust_5="94.89575" pt_clust_6="142.03024"></scales>
<clustering>
<clus scale="   86.853">  2  4  1 -1</clus>
<clus scale="   94.896">  1  5  2 -1</clus>
<clus scale="  142.030">  2  6  1 -1</clus>
<clus scale="   94.896">  1  3  2 -1</clus>
</clustering>
</event>
<event>
 6    0  0.7258365E+002  0.7652960E+02  0.7546771E-02  0.1339199E+00
         21   -1    0    0  501  502  0.00000000000E+00  0.00000000000E+00  0.44806956077E+02  0.44806956077E+02  0.00000000000E+00 0.  1.
          1   -1    0    0  505    0 -0.00000000000E+00 -0.00000000000E+00 -0.13899615121E+04  0.13899615121E+04  0.00000000000E+00 0. -1.
         21    1    1    2  503  502  0.11635046303E+02  0.58975712468E+02 -0.52898107195E+02  0.80073208431E+02  0.00000000000E+00 0.  1.
         21    1    1    2  504  503 -0.38943576086E+02 -0.89474797610E+02 -0.52034954118E+02  0.11058923083E+03  0.00000000000E+00 0.  1.
         21    1    1    2  505  504  0.12165998576E+02 -0.30212769978E+02 -0.28919034776E+03  0.29101869395E+03  0.00000000000E+00 0. -1.
          1    1    1    2  501    0  0.15142531207E+02  0.60711855119E+02 -0.95103114699E+03  0.95308733501E+03  0.00000000000E+00 0. -1.
<scales pt_clust_3="76.52960" pt_clust_4="14000.00000" pt_clust_5="32.57028" pt_clust_6="43.05189"></scales>
<clustering>
<clus scale="   32.570">  2  5  1 -1</clus>
<clus scale="   43.052">  2  6  1 -1</clus>
<clus scale="   76.530">  1  3  2 -1</clus>
<clus scale="   76.530">  1  3  2 -1</clus>
</clustering>
</event>
<event>
 6    0  0.7258365E+002  0.8968304E+02  0.7546771E-02  0.1303621E+00
         21   -1    0    0  503  502  0.00000000000E+00  0.00000000000E+00  0.22694308186E+02  0.22694308186E+02  0.00000000000E+00 0. -1.
          2   -1    0    0  504    0 -0.00000000000E+00 -0.00000000000E+00 -0.20641899209E+04  0.20641899209E+04  0.00000000000E+00 0.  1.
         21    1    1    2  503  501  0.64579717463E+02 -0.37751135890E+01 -0.15834056807E+03  0.17104539423E+03  0.00000000000E+00 0.  1.
         21    1    1    2  504  505 -0.92292577214E+02 -0.31431180564E+02 -0.59680462293E+03  0.60471612916E+03  0.00000000000E+00 0. -1.
         21    1    1    2  505  502 -0.39325983351E+02 -0.22660772709E+02 -0.36783432467E+02  0.58421438619E+02  0.00000000000E+00 0. -1.
          2    1    1    2  501    0  0.67038843101E+02  0.57867066861E+02 -0.12495669893E+04  0.12527012671E+04  0.00000000000E+00 0.  1.
<scales pt_clust_3="46.35434" pt_clust_4="89.68304" pt_clust_5="45.38770" pt_clust_6="14000.00000"></scales>
<clustering>
<clus scale="   45.388">  1  5  2 -1</clus>
<clus scale="   46.354">  1  3  2 -1</clus>
<clus scale="   89.683">  1  4  2 -1</clus>
<clus scale="   45.388">  1  3  2 -1</clus>
</clustering>
</event>
<event>
 6    0  0.7258365E+002  0.1426386E+03  0.7546771E-02  0.1209822E+00
         21   -1    0    0  501  502  0.00000000000E+00  0.00000000000E+00  0.60316120792E+02  0.60316120792E+02  0.00000000000E+00 0.  1.
          2   -1    0    0  504    0 -0.00000000000E+00 -0.00000000000E+00 -0.13763547702E+04  0.13763547702E+04  0.00000000000E+00 0. -1.
         21    1    1    2  503  502 -0.10123811871E+01  0.41550755099E+02  0.15751742296E+02  0.44447807036E+02  0.00000000000E+00 0.  1.
         21    1    1    2  504  505 -0.45420221757E+02 -0.10456297884E+02 -0.18337203416E+03  0.18920262584E+03  0.00000000000E+00 0. -1.
         21    1    1    2  505  503 -0.85711687296E+02  0.79323093989E+02 -0.15123645000E+03  0.19107880675E+03  0.00000000000E+00 0.  1.
          2    1    1    2  501    0  0.13214429024E+03 -0.11041755120E+03 -0.99718190752E+03  0.10119416514E+04  0.00000000000E+00 0. -1.
<scales pt_clust_3="41.56309" pt_clust_4="45.97226" pt_clust_5="142.63863" pt_clust_6="14000.00000"></scales>
<clustering>
<clus scale="   41.563">  1  3  2 -1</clus>
<clus scale="   45.972">  2  4  1 -1</clus>
<clus scale="  142.639">  1  5  2 -1</clus>
<clus scale="   41.563">  1  3  2 -1</clus>
</clustering>
</event>
<event>
 6    0  0.7258365E+002  0.1102466E+03  0.7546771E-02  0.1260114E+00
         21   -1    0    0  504  502  0.00000000000E+00  0.00000000000E+00  0.13097303850E+03  0.13097303850E+03  0.00000000000E+00 0.  1.
          1   -1    0    0  503    0 -0.00000000000E+00 -0.00000000000E+00 -0.13272114769E+04  0.13272114769E+04  0.00000000000E+00 0. -1.
         21    1    1    2  503  505 -0.56736622333E+02 -0.56380757417E+02 -0.46708552839E+03  0.47388471694E+03  0.00000000000E+00 0.  1.
         21    1    1    2  504  501  0.44845827173E+02 -0.47634769457E+02 -0.78306782422E+02  0.10204004924E+03  0.00000000000E+00 0.  1.
         21    1    1    2  505  502  0.42395487057E+02  0.10405664782E+03  0.88039353535E+02  0.14274484596E+03  0.00000000000E+00 0.  1.
          1    1    1    2  501    0 -0.30504691896E+02 -0.41120943819E-01 -0.73888548108E+03  0.73951490321E+03  0.00000000000E+00 0. -1.
<scales pt_clust_3="110.24660" pt_clust_4="62.31474" pt_clust_5="14000.00000" pt_clust_6="30.50472"></scales>
<clustering>
<clus scale="   30.505">  2  6  1 -1</clus>
<clus scale="   62.315">  2  4  1 -1</clus>
<clus scale="  110.247">  2  3  1 -1</clus>
<clus scale="  110.247">  1  3  2 -1</clus>
</clustering>
</event>
<event>
 6    0  0.7258365E+002  0.1487718E+03  0.7546771E-02  0.1201990E+00
         21   -1    0    0  505  502  0.00000000000E+00  0.00000000000E+00  0.10570694550E+04  0.10570694550E+04  0.00000000000E+00 0.  1.
          4   -1    0    0  503    0 -0.00000000000E+00 -0.00000000000E+00 -0.26253127827E+03  0.26253127827E+03  0.00000000000E+00 0.  1.
         21    1    1    2  503  502  0.14389647837E+03 -0.65736401747E+01 -0.38004063020E+02  0.14897556188E+03  0.00000000000E+00 0.  1.
         21    1    1    2  504  501 -0.13892032860E+03  0.44146058123E+01  0.84694141115E+03  0.85827041215E+03  0.00000000000E+00 0.  1.
         21    1    1    2  505  504  0.99525385265E+00  0.60641428745E+02  0.13706422053E+03  0.14988320106E+03  0.00000000000E+00 0.  1.
          4    1    1    2  501    0 -0.59714036227E+01 -0.58482394383E+02 -0.15146339195E+03  0.16247155817E+03  0.00000000000E+00 0.  1.
<scales pt_clust_3="14000.00000" pt_clust_4="148.77180" pt_clust_5="57.09407" pt_clust_6="58.78646"></scales>
<clustering>
<clus scale="   58.786">  2  6  1 -1</clus>
<clus scale="   57.094">  1  5  2 -1</clus>
<clus scale="  148.772">  1  4  2 -1</clus>
<clus scale="   57.094">  1  3  2 -1</clus>
</clustering>
</event>
<event>
 6    0  0.7258365E+002  0.1279807E+03  0.7546771E-02  0.1230483E+00
         -4   -1    0    0    0  501 -0.00000000000E+00  0.00000000000E+00  0.11628153661E+04  0.11628153661E+04  0.00000000000E+00 0. -1.
         21   -1    0    0  505  502  0.00000000000E+00 -0.00000000000E+00 -0.11902618917E+03  0.11902618917E+03  0.00000000000E+00 0.  1.
         21    1    1    2  503  501  0.30407522415E+02 -0.41922792301E+02  0.20735768471E+03  0.21372727328E+03  0.00000000000E+00 0.  1.
         21    1    1    2  504  502 -0.10983258263E+03  0.82365321635E+02  0.39782914678E+03  0.42085065337E+03  0.00000000000E+00 0. -1.
         21    1    1    2  505  503  0.12182003152E+03 -0.38506948252E+02 -0.63984751434E+02  0.14288790557E+03  0.00000000000E+00 0.  1.
         -4    1    1    2    0  504 -0.42394971307E+02 -0.19355810816E+01  0.50258709684E+03  0.50437572302E+03  0.00000000000E+00 0. -1.
<scales pt_clust_3="45.76366" pt_clust_4="14000.00000" pt_clust_5="127.98070" pt_clust_6="42.43913"></scales>
<clustering>
<clus scale="   42.439">  1  6  2 -1</clus>
<clus scale="   45.764">  1  3  2 -1</clus>
<clus scale="  127.981">  2  5  1 -1</clus>
<clus scale="  127.981">  2  3  1 -1</clus>
</clustering>
</event>
<event>
 6    0  0.7258365E+002  0.1069087E+03  0.7546771E-02  0.1266404E+00
          2   -1    0    0  505    0 -0.00000000000E+00  0.00000000000E+00  0.14688649782E+04  0.14688649782E+04  0.00000000000E+00 0.  1.
         21   -1    0    0  503  502  0.00000000000E+00 -0.00000000000E+00 -0.11503866336E+03  0.11503866336E+03  0.00000000000E+00 0.  1.
         21    1    1    2  503  504  0.49978257886E+02 -0.42014980702E+02 -0.53806744484E+02  0.84606445480E+02  0.00000000000E+00 0.  1.
         21    1    1    2  504  501 -0.90416323561E+02  0.13852907039E+03  0.26838109317E+03  0.31526786402E+03  0.00000000000E+00 0.  1.
         21    1    1    2  505  502  0.37979828482E+02  0.66920057431E+01 -0.15208366339E+01  0.38594860493E+02  0.00000000000E+00 0.  1.
          2    1    1    2  501    0  0.24582371926E+01 -0.10320609543E+03  0.11407728028E+04  0.11454344715E+04  0.00000000000E+00 0.  1.
<scales pt_clust_3="86.07613" pt_clust_4="14000.00000" pt_clust_5="38.56488" pt_clust_6="106.90873"></scales>
<clustering>
<clus scale="   38.565">  2  5  1 -1</clus>
<clus scale="   86.076">  2  3  1 -1</clus>
<clus scale="  106.909">  1  6  2 -1</clus>
<clus scale="   38.565">  2  3  1 -1</clus>
</clustering>
</event>
<event>
 6    0  0.7258365E+002  0.1346698E+03  0.7546771E-02  0.1220687E+00
          2   -1    0    0  505    0 -0.00000000000E+00  0.00000000000E+00  0.10610534601E+04  0.10610534601E+04  0.00000000000E+00 0. -1.
         21   -1    0    0  503  502  0.00000000000E+00 -0.00000000000E+00 -0.24386242859E+03  0.24386242859E+03  0.00000000000E+00 0.  1.
         21    1    1    2  503  504  0.49815527553E+02  0.10124720217E+02 -0.77034129395E+02  0.92294928553E+02  0.00000000000E+00 0.  1.
         21    1    1    2  504  501  0.56454682105E+02  0.75177119285E+02 -0.86751215315E+02  0.12792382012E+03  0.00000000000E+00 0.  1.
         21    1    1    2  505  502 -0.32648740395E+02  0.12527284845E+02 -0.41867990253E+02  0.54550909459E+02  0.00000000000E+00 0.  1.
          2    1    1    2  501    0 -0.73621469263E+02 -0.97829124347E+02  0.10228443665E+04  0.10301462306E+04  0.00000000000E+00 0. -1.
<scales pt_clust_3="36.49032" pt_clust_4="36.49032" pt_clust_5="34.96960" pt_clust_6="122.61750"></scales>
<clustering>
<clus scale="   34.970">  2  5  1 -1</clus>
<clus scale="   36.490">  3  4 -1 -1</clus>
<clus scale="  122.618">  1  6  2 -1</clus>
<clus scale="   34.970">  2  3  1 -1</clus>
</clustering>
</event>
<event>
 6    0  0.7258365E+002  0.1295075E+03  0.7546771E-02  0.1228188E+00
         21   -1    0    0  501  502  0.00000000000E+00  0.00000000000E+00  0.89606090883E+02  0.89606090883E+02  0.00000000000E+00 0. -1.
          2   -1    0    0  505    0 -0.00000000000E+00 -0.00000000000E+00 -0.73031992842E+03  0.73031992842E+03  0.00000000000E+00 0.  1.
         21    1    1    2  503  504 -0.75117260433E+00  0.65260576549E+02 -0.29717227170E+02  0.71712068039E+02  0.00000000000E+00 0.  1.
         21    1    1    2  504  502  0.65410512381E+02 -0.10997323324E+03 -0.21823351191E+02  0.12980333515E+03  0.00000000000E+00 0. -1.
         21    1    1    2  505  503 -0.11536277634E+02  0.63378125003E+02 -0.66040333838E+02  0.92256154938E+02  0.00000000000E+00 0.  1.
          2    1    1    2  501    0 -0.53123062142E+02 -0.18665468309E+02 -0.52313292534E+03  0.52615446117E+03  0.00000000000E+00 0.  1.
<scales pt_clust_3="31.68588" pt_clust_4="125.51903" pt_clust_5="31.68588" pt_clust_6="56.30683"></scales>
<clustering>
<clus scale="   31.686">  3  5 -1 -1</clus>
<clus scale="   56.307">  2  6  1 -1</clus>
<clus scale="  125.519">  1  4  2 -1</clus>
<clus scale="  125.519">  1  3  2 -1</clus>
</clustering>
</event>
<event>
 6    0  0.7258365E+002  0.1611522E+03  0.7546771E-02  0.1187402E+00
          1   -1    0    0  504    0 -0.00000000000E+00  0.00000000000E+00  0.54651384493E+03  0.54651384493E+03  0.00000000000E+00 0. -1.
         21   -1    0    0  503  502  0.00000000000E+00 -0.00000000000E+00 -0.23043026494E+03  0.23043026494E+03  0.00000000000E+00 0. -1.
         21    1    1    2  503  501  0.99091519742E+02  0.86016552415E+02 -0.10251996527E+03  0.16651822679E+03  0.00000000000E+00 0. -1.
         21    1    1    2  504  505 -0.11993770174E+03 -0.13804734564E+03  0.64271270968E+02  0.19383734988E+03  0.00000000000E+00 0. -1.
         21    1    1    2  505  502 -0.70993605631E+01 -0.37985050160E+02 -0.10283204262E+02  0.39987613657E+02  0.00000000000E+00 0. -1.
          1    1    1    2  501    0  0.27945542557E+02  0.90015843385E+02  0.36461547855E+03  0.37660091955E+03  0.00000000000E+00 0. -1.
<scales pt_clust_3="146.07003" pt_clust_4="31.29098" pt_clust_5="31.29098" pt_clust_6="94.25394"></scales>
<clustering>
<clus scale="   31.291">  4  5 -1 -1</clus>
<clus scale="   94.254">  1  6  2 -1</clus>
<clus scale="  146.070">  2  3  1 -1</clus>
<clus scale="  146.070">  2  3  1 -1</clus>
</clustering>
</event>
<event>
 6    0  0.7258365E+002  0.1132527E+03  0.7546771E-02  0.1254662E+00
          2   -1    0    0  503    0 -0.00000000000E+00  0.00000000000E+00  0.35227258690E+04  0.35227258690E+04  0.00000000000E+00 0.  1.
         21   -1    0    0  504  502  0.00000000000E+00 -0.00000000000E+00 -0.14866843480E+03  0.14866843480E+03  0.00000000000E+00 0.  1.
         21    1    1    2  503  505 -0.11832102074E+02  0.47729214385E+02  0.26501513774E+03  0.26953867955E+03  0.00000000000E+00 0. -1.
         21    1    1    2  504  501 -0.20799199362E+02 -0.10848730699E+03 -0.78301161827E+02  0.13540005323E+03  0.00000000000E+00 0.  1.
         21    1    1    2  505  502 -0.67638002337E+02  0.35620930521E+02 -0.98600026616E+00  0.76450783173E+02  0.00000000000E+00 0.  1.
          2    1    1    2  501    0  0.10026930377E+03  0.25137162087E+02  0.31883294586E+04  0.31900047879E+04  0.00000000000E+00 0.  1.
<scales pt_clust_3="49.17394" pt_clust_4="14000.00000" pt_clust_5="76.82472" pt_clust_6="113.25274"></scales>
<clustering>
<clus scale="   49.174">  1  3  2 -1</clus>
<clus scale="   76.825">  2  5  1 -1</clus>
<clus scale="  113.253">  1  6  2 -1</clus>
<clus scale="   76.825">  2  3  1 -1</clus>
</clustering>
</event>
<event>
 6    0  0.7258365E+002  0.1850569E+03  0.7546771E-02  0.1162997E+00
          1   -1    0    0  503    0 -0.00000000000E+00  0.00000000000E+00  0.50269812438E+04  0.50269812438E+04  0.00000000000E+00 0.  1.
         21   -1    0    0  504  502  0.00000000000E+00 -0.00000000000E+00 -0.17634980313E+02  0.17634980313E+02  0.00000000000E+00 0.  1.
         21    1    1    2  503  502 -0.11024290521E+03  0.16681323706E+01  0.25760840150E+03  0.28021129409E+03  0.00000000000E+00 0.  1.
         21    1    1    2  504  505 -0.16039194443E+02  0.28442455232E+02  0.23064896449E+03  0.23294886529E+03  0.00000000000E+00 0. -1.
         21    1    1    2  505  501 -0.76050454544E+02 -0.24082708612E+02  0.61882078661E+03  0.62394135496E+03  0.00000000000E+00 0.  1.
          1    1    1    2  501    0  0.20233255420E+03 -0.60278789908E+01  0.39022681109E+04  0.39075147098E+04  0.00000000000E+00 0.  1.
<scales pt_clust_3="14000.00000" pt_clust_4="32.65316" pt_clust_5="80.96599" pt_clust_6="185.05693"></scales>
<clustering>
<clus scale="   32.653">  2  4  1 -1</clus>
<clus scale="   80.966">  2  5  1 -1</clus>
<clus scale="  185.057">  1  6  2 -1</clus>
<clus scale="   32.653">  2  3  1 -1</clus>
</clustering>
</event>
<event>
 6    0  0.7258365E+002  0.2361467E+03  0.7546771E-02  0.1122387E+00
         -2   -1    0    0    0  501 -0.00000000000E+00  0.00000000000E+00  0.12627964332E+04  0.12627964332E+04  0.00000000000E+00 0. -1.
         21   -1    0    0  504  502  0.00000000000E+00 -0.00000000000E+00 -0.70296499187E+03  0.70296499187E+03  0.00000000000E+00 0.  1.
         21    1    1    2  503  502  0.10542266405E+03  0.13038224015E+02 -0.48948478625E+03  0.50087851756E+03  0.00000000000E+00 0.  1.
         21    1    1    2  504  501 -0.22100353439E+03 -0.17677493548E+03  0.34049572363E+03  0.44275193713E+03  0.00000000000E+00 0.  1.
         21    1    1    2  505  503  0.78387066944E+02  0.15631147038E+03 -0.10727928798E+03  0.20515031968E+03  0.00000000000E+00 0.  1.
         -2    1    1    2    0  505  0.37193803394E+02  0.74252410808E+01  0.81609979190E+03  0.81698065066E+03  0.00000000000E+00 0. -1.
<scales pt_clust_3="106.70872" pt_clust_4="14000.00000" pt_clust_5="236.14675" pt_clust_6="37.92774"></scales>
<clustering>
<clus scale="   37.928">  1  6  2 -1</clus>
<clus scale="  106.709">  2  3  1 -1</clus>
<clus scale="  236.147">  2  5  1 -1</clus>
<clus scale="  106.709">  2  3  1 -1</clus>
</clustering>
</event>
<event>
 6    0  0.7258365E+002  0.1698435E+03  0.7546771E-02  0.1178011E+00
         21   -1    0    0  503  502  0.00000000000E+00  0.00000000000E+00  0.18925728965E+02  0.18925728965E+02  0.00000000000E+00 0. -1.
          2   -1    0    0  504    0 -0.00000000000E+00 -0.00000000000E+00 -0.33526447607E+04  0.33526447607E+04  0.00000000000E+00 0. -1.
         21    1    1    2  503  501  0.60327999471E+02  0.15932375199E+03 -0.96984359082E+03  0.98469290448E+03  0.00000000000E+00 0. -1.
         21    1    1    2  504  505  0.35189832038E+02  0.11572670149E+02 -0.48893386265E+03  0.49033516397E+03  0.00000000000E+00 0. -1.
         21    1    1    2  505  502 -0.70142613210E+02 -0.15444561855E+03 -0.66729581207E+03  0.68851807244E+03  0.00000000000E+00 0. -1.
          2    1    1    2  501    0 -0.25375218299E+02 -0.16450803591E+02 -0.12076457662E+04  0.12080243488E+04  0.00000000000E+00 0. -1.
<scales pt_clust_3="14000.00000" pt_clust_4="30.41858" pt_clust_5="169.84350" pt_clust_6="30.24121"></scales>
<clustering>
<clus scale="   30.241">  2  6  1 -1</clus>
<clus scale="   30.419">  2  4  1 -1</clus>
<clus scale="  169.844">  1  5  2 -1</clus>
<clus scale="  169.844">  1  3  2 -1</clus>
</clustering>
</event>
<event>
 6    0  0.7258365E+002  0.1816267E+03  0.7546771E-02  0.1166238E+00
          2   -1    0    0  504    0 -0.00000000000E+00  0.00000000000E+00  0.21003712954E+03  0.21003712954E+03  0.00000000000E+00 0. -1.
         21   -1    0    0  503  502  0.00000000000E+00 -0.00000000000E+00 -0.16262767816E+04  0.16262767816E+04  0.00000000000E+00 0.  1.
         21    1    1    2  503  501 -0.13027459470E+03  0.12300117291E+03 -0.75233820023E+02  0.19432160518E+03  0.00000000000E+00 0.  1.
         21    1    1    2  504  505  0.93519819936E+02 -0.13613189120E+03 -0.24189061377E+03  0.29289745228E+03  0.00000000000E+00 0.  1.
         21    1    1    2  505  502  0.46658081849E+02 -0.23890567601E+02 -0.12205916856E+04  0.12217167425E+04  0.00000000000E+00 0.  1.
          2    1    1    2  501    0 -0.99033070826E+01  0.37021285888E+02  0.12147646734E+03  0.12737811122E+03  0.00000000000E+00 0. -1.
<scales pt_clust_3="14000.00000" pt_clust_4="181.62672" pt_clust_5="52.25039" pt_clust_6="38.32298"></scales>
<clustering>
<clus scale="   38.323">  1  6  2 -1</clus>
<clus scale="   52.250">  2  5  1 -1</clus>
<clus scale="  181.627">  2  4  1 -1</clus>
<clus scale="   52.250">  2  3  1 -1</clus>
</clustering>
</event>
<event>
 6    0  0.7258365E+002  0.8927900E+02  0.7546771E-02  0.1304607E+00
         21   -1    0    0  503  502  0.00000000000E+00  0.00000000000E+00  0.19763986592E+04  0.19763986592E+04  0.00000000000E+00 0.  1.
          2   -1    0    0  504    0 -0.00000000000E+00 -0.00000000000E+00 -0.93086019468E+03  0.93086019468E+03  0.00000000000E+00 0. -1.
         21    1    1    2  503  501 -0.31320711613E+01 -0.87585621767E+02  0.17938529184E+04  0.17959925790E+04  0.00000000000E+00 0.  1.
         21    1    1    2  504  505  0.43599808305E+02  0.13385540550E+02 -0.10942597381E+03  0.11855024135E+03  0.00000000000E+00 0.  1.
         21    1    1    2  505  502 -0.12887377262E+02  0.12301299047E+03  0.15418424248E+03  0.19766401025E+03  0.00000000000E+00 0. -1.
          2    1    1    2  501    0 -0.27580359882E+02 -0.48812909249E+02 -0.79307272258E+03  0.79505202324E+03  0.00000000000E+00 0. -1.
<scales pt_clust_3="89.27900" pt_clust_4="45.60829" pt_clust_5="14000.00000" pt_clust_6="38.74043"></scales>
<clustering>
<clus scale="   45.608">  2  4  1 -1</clus>
<clus scale="   38.740">  2  6  1 -1</clus>
<clus scale="   89.279">  1  3  2 -1</clus>
<clus scale="   89.279">  1  3  2 -1</clus>
</clustering>
</event>
<event>
 6    0  0.7258365E+002  0.7213798E+02  0.7546771E-02  0.1352970E+00
         21   -1    0    0  504  502  0.00000000000E+00  0.00000000000E+00  0.98907752727E+02  0.98907752727E+02  0.00000000000E+00 0.  1.
         -1   -1    0    0    0  501 -0.00000000000E+00 -0.00000000000E+00 -0.40066476731E+03  0.40066476731E+03  0.00000000000E+00 0.  1.
         21    1    1    2  503  505  0.34024950699E+02  0.42667246247E+02 -0.49123234649E+02  0.73425359071E+02  0.00000000000E+00 0. -1.
         21    1    1    2  504  501  0.41223174251E+02 -0.83076909963E+02 -0.31999534838E+01  0.92797428664E+02  0.00000000000E+00 0.  1.
         21    1    1    2  505  502 -0.74865356528E+02  0.70007435400E+01  0.62880579333E+01  0.75454434533E+02  0.00000000000E+00 0.  1.
         -1    1    1    2    0  503 -0.38276842212E+00  0.33408920177E+02 -0.25572188438E+03  0.25789529777E+03  0.00000000000E+00 0.  1.
<scales pt_clust_3="66.21143" pt_clust_4="72.13798" pt_clust_5="14000.00000" pt_clust_6="33.41111"></scales>
<clustering>
<clus scale="   33.411">  2  6  1 -1</clus>
<clus scale="   66.211">  2  3  1 -1</clus>
<clus scale="   72.138">  2  4  1 -1</clus>
<clus scale="   72.138">  1  3  2 -1</clus>
</clustering>
</event>
<event>
 6    0  0.7258365E+002  0.1129559E+03  0.7546771E-02  0.1255192E+00
          3   -1    0    0  502    0 -0.00000000000E+00  0.00000000000E+00  0.42219876462E+03  0.42219876462E+03  0.00000000000E+00 0. -1.
         21   -1    0    0  505  502  0.00000000000E+00 -0.00000000000E+00 -0.52124632954E+03  0.52124632954E+03  0.00000000000E+00 0. -1.
         21    1    1    2  503  501  0.60963075412E+02 -0.34369079826E+02 -0.10025434144E+03  0.12226472586E+03  0.00000000000E+00 0.  1.
         21    1    1    2  504  503  0.88866400555E+02  0.26354036850E+02 -0.64294947343E+02  0.11280785726E+03  0.00000000000E+00 0. -1.
         21    1    1    2  505  504 -0.12467714188E+03  0.35374817837E+02 -0.30741098612E+03  0.33361247253E+03  0.00000000000E+00 0. -1.
          3    1    1    2  501    0 -0.25152334084E+02 -0.27359774861E+02  0.37291270998E+03  0.37476003850E+03  0.00000000000E+00 0. -1.
<scales pt_clust_3="68.55183" pt_clust_4="14000.00000" pt_clust_5="112.95594" pt_clust_6="37.16446"></scales>
<clustering>
<clus scale="   37.164">  1  6  2 -1</clus>
<clus scale="   68.552">  1  3  2 -1</clus>
<clus scale="  112.956">  2  5  1 -1</clus>
<clus scale="  112.956">  2  3  1 -1</clus>
</clustering>
</event>
<event>
 6    0  0.7258365E+002  0.1432040E+03  0.7546771E-02  0.1209082E+00
          1   -1    0    0  504    0 -0.00000000000E+00  0.00000000000E+00  0.16918604894E+04  0.16918604894E+04  0.00000000000E+00 0. -1.
         21   -1    0    0  505  502  0.00000000000E+00 -0.00000000000E+00 -0.21439356245E+04  0.21439356245E+04  0.00000000000E+00 0. -1.
         21    1    1    2  503  502  0.30509696252E+02  0.18334442888E+02 -0.19708884543E+04  0.19712098551E+04  0.00000000000E+00 0. -1.
         21    1    1    2  504  503 -0.79957996897E+02 -0.15422880229E+03 -0.99495735446E+02  0.20019791731E+03  0.00000000000E+00 0. -1.
         21    1    1    2  505  501  0.62587147129E+02  0.10107305348E+03  0.13211410927E+03  0.17772746269E+03  0.00000000000E+00 0. -1.
          1    1    1    2  501    0 -0.13138846484E+02  0.34821305928E+02  0.14861949455E+04  0.14866608788E+04  0.00000000000E+00 0. -1.
<scales pt_clust_3="35.59485" pt_clust_4="14000.00000" pt_clust_5="143.20396" pt_clust_6="37.22627"></scales>
<clustering>
<clus scale="   35.595">  2  3  1 -1</clus>
<clus scale="   37.226">  1  6  2 -1</clus>
<clus scale="  143.204">  1  5  2 -1</clus>
<clus scale="   35.595">  2  3  1 -1</clus>
</clustering>
</event>
<event>
 6    0  0.7258365E+002  0.3315692E+03  0.7546771E-02  0.1070445E+00
         21   -1    0    0  503  502  0.00000000000E+00  0.00000000000E+00  0.11243626908E+04  0.11243626908E+04  0.00000000000E+00 0. -1.
          2   -1    0    0  505    0 -0.00000000000E+00 -0.00000000000E+00 -0.90066995448E+03  0.90066995448E+03  0.00000000000E+00 0. -1.
         21    1    1    2  503  501 -0.11161269766E+03 -0.34822358789E+03 -0.16118117043E+03  0.39962035877E+03  0.00000000000E+00 0. -1.
         21    1    1    2  504  502  0.45961057582E+02  0.32550484672E+03  0.97008676457E+03  0.10242725003E+04  0.00000000000E+00 0. -1.
         21    1    1    2  505  504 -0.21540636172E+01  0.38800587357E+02 -0.61076095525E+02  0.72390710826E+02  0.00000000000E+00 0.  1.
          2    1    1    2  501    0  0.67805703695E+02 -0.16081846181E+02 -0.52413676225E+03  0.52874907544E+03  0.00000000000E+00 0. -1.
<scales pt_clust_3="14000.00000" pt_clust_4="331.56923" pt_clust_5="38.86033" pt_clust_6="66.97626"></scales>
<clustering>
<clus scale="   38.860">  2  5  1 -1</clus>
<clus scale="   66.976">  2  6  1 -1</clus>
<clus scale="  331.569">  1  4  2 -1</clus>
<clus scale="  331.569">  1  3  2 -1</clus>
</clustering>
</event>
<event>
 6    0  0.7258365E+002  0.1799450E+03  0.7546771E-02  0.1167856E+00
         21   -1    0    0  503  502  0.00000000000E+00  0.00000000000E+00  0.66503215354E+03  0.66503215354E+03  0.00000000000E+00 0. -1.
          2   -1    0    0  505    0 -0.00000000000E+00 -0.00000000000E+00 -0.16879319334E+04  0.16879319334E+04  0.00000000000E+00 0. -1.
         21    1    1    2  503  501 -0.32222697479E+02 -0.55901691860E+01  0.56381136340E+03  0.56475906874E+03  0.00000000000E+00 0. -1.
         21    1    1    2  504  502 -0.89997192567E+01  0.61132598212E+02  0.11542087761E+02  0.62860236244E+02  0.00000000000E+00 0. -1.
         21    1    1    2  505  504 -0.14032210551E+03 -0.24808191083E+02 -0.29117199186E+02  0.14544260355E+03  0.00000000000E+00 0. -1.
          2    1    1    2  501    0  0.18154452224E+03 -0.30734237943E+02 -0.15691360318E+04  0.15799021784E+04  0.00000000000E+00 0. -1.
<scales pt_clust_3="32.70401" pt_clust_4="62.65625" pt_clust_5="179.94502" pt_clust_6="14000.00000"></scales>
<clustering>
<clus scale="   32.704">  1  3  2 -1</clus>
<clus scale="   62.656">  1  4  2 -1</clus>
<clus scale="  179.945">  1  5  2 -1</clus>
<clus scale="   32.704">  1  3  2 -1</clus>
</clustering>
</event>
<event>
 6    0  0.7258365E+002  0.2475581E+03  0.7546771E-02  0.1114858E+00
          2   -1    0    0  505    0 -0.00000000000E+00  0.00000000000E+00  0.22345300958E+04  0.22345300958E+04  0.00000000000E+00 0. -1.
         21   -1    0    0  503  502  0.00000000000E+00 -0.00000000000E+00 -0.15317973697E+03  0.15317973697E+03  0.00000000000E+00 0. -1.
         21    1    1    2  503  504 -0.23854897895E+03 -0.88151590191E+02  0.16543140452E+03  0.30338732309E+03  0.00000000000E+00 0. -1.
         21    1    1    2  504  501  0.20459222099E+03  0.11819664833E+03  0.38904560153E+03  0.45517568546E+03  0.00000000000E+00 0. -1.
         21    1    1    2  505  502 -0.14793319701E+02  0.30543792282E+02 -0.44436410083E+02  0.55913863180E+02  0.00000000000E+00 0. -1.
          2    1    1    2  501    0  0.48750077663E+02 -0.60588850423E+02  0.15713097628E+04  0.15732329610E+04  0.00000000000E+00 0. -1.
<scales pt_clust_3="247.55814" pt_clust_4="14000.00000" pt_clust_5="33.93767" pt_clust_6="77.45748"></scales>
<clustering>
<clus scale="   33.938">  2  5  1 -1</clus>
<clus scale="   77.457">  1  6  2 -1</clus>
<clus scale="  247.558">  2  3  1 -1</clus>
<clus scale="   33.938">  2  3  1 -1</clus>
</clustering>
</event>
<event>
 6    0  0.7258365E+002  0.6744200E+02  0.7546771E-02  0.1369014E+00
          2   -1    0    0  503    0 -0.00000000000E+00  0.00000000000E+00  0.95809731581E+03  0.95809731581E+03  0.00000000000E+00 0. -1.
         21   -1    0    0  504  502  0.00000000000E+00 -0.00000000000E+00 -0.64970250824E+03  0.64970250824E+03  0.00000000000E+00 0. -1.
         21    1    1    2  503  505 -0.23488267105E+02  0.10737461758E+03  0.64779512909E+02  0.12758288476E+03  0.00000000000E+00 0.  1.
         21    1    1    2  504  501  0.38175843672E+02 -0.14460199609E+02  0.51521322718E+02  0.65733850545E+02  0.00000000000E+00 0.  1.
         21    1    1    2  505  502 -0.30237836208E+02 -0.59886969420E+02 -0.60893663720E+03  0.61262109331E+03  0.00000000000E+00 0. -1.
          2    1    1    2  501    0  0.15550259640E+02 -0.33027448551E+02  0.80103060914E+03  0.80186199543E+03  0.00000000000E+00 0. -1.
<scales pt_clust_3="14000.00000" pt_clust_4="51.52646" pt_clust_5="67.44200" pt_clust_6="36.50511"></scales>
<clustering>
<clus scale="   36.505">  1  6  2 -1</clus>
<clus scale="   51.526">  1  4  2 -1</clus>
<clus scale="   67.442">  2  5  1 -1</clus>
<clus scale="   67.442">  2  3  1 -1</clus>
</clustering>
</event>
<event>
 6    0  0.7258365E+002  0.7856942E+02  0.7546771E-02  0.1333161E+00
         -1   -1    0    0    0  501 -0.00000000000E+00  0.00000000000E+00  0.34064825187E+03  0.34064825187E+03  0.00000000000E+00 0. -1.
         21   -1    0    0  505  502  0.00000000000E+00 -0.00000000000E+00 -0.27762591753E+03  0.27762591753E+03  0.00000000000E+00 0.  1.
         21    1    1    2  503  502  0.30561236475E+02  0.58172974637E+02 -0.16222790195E+03  0.17503135811E+03  0.00000000000E+00 0.  1.
         21    1    1    2  504  501 -0.11330625504E+02 -0.10635542705E+03  0.90521432388E+01  0.10733965360E+03  0.00000000000E+00 0.  1.
         21    1    1    2  505  504 -0.49487161520E+02 -0.21402235224E+02 -0.41006907597E+02  0.67739215367E+02  0.00000000000E+00 0.  1.
         -1    1    1    2    0  503  0.30256550550E+02  0.69584687634E+02  0.25720500064E+03  0.26816394232E+03  0.00000000000E+00 0. -1.
<scales pt_clust_3="42.55691" pt_clust_4="14000.00000" pt_clust_5="53.91693" pt_clust_6="78.56942"></scales>
<clustering>
<clus scale="   53.917">  2  5  1 -1</clus>
<clus scale="   42.557">  2  3  1 -1</clus>
<clus scale="   78.569">  1  6  2 -1</clus>
<clus scale="   53.917">  2  3  1 -1</clus>
</clustering>
</event>
<event>
 6    0  0.7258365E+002  0.9088888E+02  0.7546771E-02  0.1300713E+00
         -1   -1    0    0    0  501 -0.00000000000E+00  0.00000000000E+00  0.20653812759E+04  0.20653812759E+04  0.00000000000E+00 0. -1.
         21   -1    0    0  503  502  0.00000000000E+00 -0.00000000000E+00 -0.62734450551E+02  0.62734450551E+02  0.00000000000E+00 0. -1.
         21    1    1    2  503  505 -0.63831044757E+01  0.36744956550E+02  0.57627147146E+02  0.68642726802E+02  0.00000000000E+00 0. -1.
         21    1    1    2  504  502  0.76383602369E+02  0.16575718826E+02 -0.20455289937E+02  0.80793737702E+02  0.00000000000E+00 0. -1.
         21    1    1    2  505  501 -0.11962319049E+03 -0.43581989460E+02  0.65668841661E+03  0.66891611882E+03  0.00000000000E+00 0.  1.
         -1    1    1    2    0  504  0.49622692601E+02 -0.97386859156E+01  0.13087865516E+04  0.13097631432E+04  0.00000000000E+00 0. -1.
<scales pt_clust_3="37.29525" pt_clust_4="14000.00000" pt_clust_5="90.88888" pt_clust_6="50.45634"></scales>
<clustering>
<clus scale="   37.295">  2  3  1 -1</clus>
<clus scale="   50.456">  1  6  2 -1</clus>
<clus scale="   90.889">  1  5  2 -1</clus>
<clus scale="   37.295">  2  3  1 -1</clus>
</clustering>
</event>
<event>
 6    0  0.7258365E+002  0.1619875E+03  0.7546771E-02  0.1186471E+00
          3   -1    0    0  505    0 -0.00000000000E+00  0.00000000000E+00  0.20914385688E+03  0.20914385688E+03  0.00000000000E+00 0.  1.
         21   -1    0    0  503  502  0.00000000000E+00 -0.00000000000E+00 -0.15316070853E+04  0.15316070853E+04  0.00000000000E+00 0.  1.
         21    1    1    2  503  501 -0.25215165842E+02  0.69343455136E+02 -0.14320922648E+03  0.16109997488E+03  0.00000000000E+00 0.  1.
         21    1    1    2  504  502  0.10742796519E+03  0.63770605737E+02 -0.84023603023E+03  0.84947280378E+03  0.00000000000E+00 0.  1.
         21    1    1    2  505  504 -0.15869139145E+03 -0.13967021319E+03 -0.50491456705E+03  0.54738418519E+03  0.00000000000E+00 0.  1.
          3    1    1    2  501    0  0.76478592102E+02  0.65561523152E+01  0.16589659533E+03  0.18279397836E+03  0.00000000000E+00 0.  1.
<scales pt_clust_3="73.78563" pt_clust_4="14000.00000" pt_clust_5="161.98752" pt_clust_6="76.64274"></scales>
<clustering>
<clus scale="   73.786">  2  3  1 -1</clus>
<clus scale="   76.643">  1  6  2 -1</clus>
<clus scale="  161.988">  1  5  2 -1</clus>
<clus scale="   73.786">  2  3  1 -1</clus>
</clustering>
</event>
<event>
 6    0  0.7258365E+002  0.1394656E+03  0.7546771E-02  0.1214050E+00
          2   -1    0    0  503    0 -0.00000000000E+00  0.00000000000E+00  0.14212342567E+04  0.14212342567E+04  0.00000000000E+00 0.  1.
         21   -1    0    0  505  502  0.00000000000E+00 -0.00000000000E+00 -0.24376355510E+03  0.24376355510E+03  0.00000000000E+00 0. -1.
         21    1    1    2  503  504  0.22039663395E+02  0.93775276139E+02  0.37065651934E+03  0.38296971748E+03  0.00000000000E+00 0.  1.
         21    1    1    2  504  502  0.12184264619E+02 -0.27634639144E+02  0.29184270850E+02  0.41998229129E+02  0.00000000000E+00 0. -1.
         21    1    1    2  505  501 -0.17962196500E+02 -0.11947907460E+03 -0.21457858557E+03  0.24625567842E+03  0.00000000000E+00 0. -1.
          2    1    1    2  501    0 -0.16261731514E+02  0.53338437600E+02  0.99220849698E+03  0.99377418679E+03  0.00000000000E+00 0.  1.
<scales pt_clust_3="139.46559" pt_clust_4="30.20148" pt_clust_5="14000.00000" pt_clust_6="55.66339"></scales>
<clustering>
<clus scale="   30.201">  2  4  1 -1</clus>
<clus scale="   55.663">  1  6  2 -1</clus>
<clus scale="  139.466">  1  3  2 -1</clus>
<clus scale="   30.201">  2  3  1 -1</clus>
</clustering>
</event>
<event>
 6    0  0.7258365E+002  0.1347814E+03  0.7546771E-02  0.1220529E+00
         21   -1    0    0  503  502  0.00000000000E+00  0.00000000000E+00  0.17601140319E+03  0.17601140319E+03  0.00000000000E+00 0. -1.
          2   -1    0    0  505    0 -0.00000000000E+00 -0.00000000000E+00 -0.13063208307E+04  0.13063208307E+04  0.00000000000E+00 0. -1.
         21    1    1    2  503  504  0.34793515183E+02  0.63114499325E+02  0.52287961678E+02  0.89039652180E+02  0.00000000000E+00 0. -1.
         21    1    1    2  504  501  0.54183969266E+02 -0.13698386963E+03  0.30848388510E+02  0.15050616644E+03  0.00000000000E+00 0. -1.
         21    1    1    2  505  502  0.37071409703E+02  0.22472183553E+02 -0.32907714644E+02  0.54426153034E+02  0.00000000000E+00 0.  1.
          2    1    1    2  501    0 -0.12604889415E+03  0.51397186748E+02 -0.11805380631E+04  0.11883602623E+04  0.00000000000E+00 0. -1.
<scales pt_clust_3="88.62137" pt_clust_4="134.78136" pt_clust_5="43.35076" pt_clust_6="14000.00000"></scales>
<clustering>
<clus scale="   43.351">  1  5  2 -1</clus>
<clus scale="   88.621">  1  3  2 -1</clus>
<clus scale="  134.781">  1  4  2 -1</clus>
<clus scale="   43.351">  1  3  2 -1</clus>
</clustering>
</event>
<event>
 6    0  0.7258365E+002  0.8348098E+02  0.7546771E-02  0.1319453E+00
          1   -1    0    0  504    0 -0.00000000000E+00  0.00000000000E+00  0.46779501734E+03  0.46779501734E+03  0.00000000000E+00 0. -1.
         21   -1    0    0  505  502  0.00000000000E+00 -0.00000000000E+00 -0.74359341760E+02  0.74359341760E+02  0.00000000000E+00 0. -1.
         21    1    1    2  503  501 -0.62027466057E+02 -0.64907099776E+02  0.10584377957E+03  0.13879208846E+03  0.00000000000E+00 0. -1.
         21    1    1    2  504  502 -0.37669667487E+02  0.12313973177E+02  0.29776978837E+02  0.49571224039E+02  0.00000000000E+00 0. -1.
         21    1    1    2  505  503  0.59772993740E+02  0.65268459611E+02 -0.40514138999E+01  0.88595691516E+02  0.00000000000E+00 0. -1.
          1    1    1    2  501    0  0.39924139805E+02 -0.12675333013E+02  0.26186633108E+03  0.26519535508E+03  0.00000000000E+00 0. -1.
<scales pt_clust_3="14000.00000" pt_clust_4="39.63127" pt_clust_5="83.48098" pt_clust_6="40.86466"></scales>
<clustering>
<clus scale="   39.631">  2  4  1 -1</clus>
<clus scale="   40.865">  1  6  2 -1</clus>
<clus scale="   83.481">  2  5  1 -1</clus>
<clus scale="   39.631">  2  3  1 -1</clus>
</clustering>
</event>
<event>
 6    0  0.7258365E+002  0.1449179E+03  0.7546771E-02  0.1206861E+00
          1   -1    0    0  503    0 -0.00000000000E+00  0.00000000000E+00  0.86008329250E+03  0.86008329250E+03  0.00000000000E+00 0.  1.
         21   -1    0    0  504  502  0.00000000000E+00 -0.00000000000E+00 -0.71146137113E+03  0.71146137113E+03  0.00000000000E+00 0. -1.
         21    1    1    2  503  505  0.11037077363E+03  0.10514832688E+03  0.11415048808E+03  0.19044214935E+03  0.00000000000E+00 0. -1.
         21    1    1    2  504  501 -0.36951063678E+01 -0.97301778482E+02 -0.22719465962E+02  0.99987319398E+02  0.00000000000E+00 0. -1.
         21    1    1    2  505  502 -0.14241592143E+03 -0.30746138377E+02 -0.60259852644E+03  0.61996177605E+03  0.00000000000E+00 0. -1.
          1    1    1    2  501    0  0.35740254165E+02  0.22899589974E+02  0.65978942569E+03  0.66115341884E+03  0.00000000000E+00 0.  1.
<scales pt_clust_3="144.91790" pt_clust_4="92.92556" pt_clust_5="14000.00000" pt_clust_6="42.44711"></scales>
<clustering>
<clus scale="   42.447">  1  6  2 -1</clus>
<clus scale="   92.926">  1  4  2 -1</clus>
<clus scale="  144.918">  1  3  2 -1</clus>
<clus scale="  144.918">  2  3  1 -1</clus>
</clustering>
</event>
<event>
 6    0  0.7258365E+002  0.1114218E+03  0.7546771E-02  0.1257959E+00
          2   -1    0    0  505    0 -0.00000000000E+00  0.00000000000E+00  0.49538831412E+03  0.49538831412E+03  0.00000000000E+00 0. -1.
         21   -1    0    0  504  502  0.00000000000E+00 -0.00000000000E+00 -0.21756272738E+03  0.21756272738E+03  0.00000000000E+00 0. -1.
         21    1    1    2  503  501 -0.12454936026E+03  0.23242491892E+02  0.23419641812E+03  0.26627188893E+03  0.00000000000E+00 0. -1.
         21    1    1    2  504  503  0.51651436117E+02 -0.12175219383E+02 -0.17203315514E+03  0.18003197851E+03  0.00000000000E+00 0. -1.
         21    1    1    2  505  502 -0.28640220285E+02 -0.18322263294E+02  0.73391596642E+01  0.34782622310E+02  0.00000000000E+00 0. -1.
          2    1    1    2  501    0  0.10153814443E+03  0.72549907847E+01  0.20832316409E+03  0.23186455176E+03  0.00000000000E+00 0. -1.
<scales pt_clust_3="111.42183" pt_clust_4="38.83919" pt_clust_5="33.99952" pt_clust_6="14000.00000"></scales>
<clustering>
<clus scale="   34.000">  2  5  1 -1</clus>
<clus scale="   38.839">  2  4  1 -1</clus>
<clus scale="  111.422">  2  3  1 -1</clus>
<clus scale="   34.000">  2  3  1 -1</clus>
</clustering>
</event>
<event>
 6    0  0.7258365E+002  0.7950302E+02  0.7546771E-02  0.1330468E+00
         21   -1    0    0  504  502  0.00000000000E+00  0.00000000000E+00  0.18036294538E+02  0.18036294538E+02  0.00000000000E+00 0. -1.
          1   -1    0    0  505    0 -0.00000000000E+00 -0.00000000000E+00 -0.29893146464E+04  0.29893146464E+04  0.00000000000E+00 0. -1.
         21    1    1    2  503  502  0.34515041228E+02 -0.22851943054E+02 -0.19950695641E+03  0.20375604292E+03  0.00000000000E+00 0. -1.
         21    1    1    2  504  501 -0.31078558674E+02 -0.74454455708E+00 -0.22409207491E+02  0.38322366005E+02  0.00000000000E+00 0. -1.
         21    1    1    2  505  503 -0.20158150366E+02  0.99405293985E+02 -0.34359413537E+03  0.35825227614E+03  0.00000000000E+00 0. -1.
          1    1    1    2  501    0  0.16721667812E+02 -0.75808806374E+02 -0.24057680526E+04  0.24070202558E+04  0.00000000000E+00 0. -1.
<scales pt_clust_3="36.21354" pt_clust_4="31.08748" pt_clust_5="14000.00000" pt_clust_6="79.50302"></scales>
<clustering>
<clus scale="   31.087">  1  4  2 -1</clus>
<clus scale="   36.214">  1  3  2 -1</clus>
<clus scale="   79.503">  2  6  1 -1</clus>
<clus scale="   31.087">  1  3  2 -1</clus>
</clustering>
</event>
<event>
 6    0  0.7258365E+002  0.8783600E+02  0.7546771E-02  0.1308178E+00
         21   -1    0    0  504  502  0.00000000000E+00  0.00000000000E+00  0.38875758310E+03  0.38875758310E+03  0.00000000000E+00 0.  1.
          2   -1    0    0  503    0 -0.00000000000E+00 -0.00000000000E+00 -0.31289059052E+04  0.31289059052E+04  0.00000000000E+00 0.  1.
         21    1    1    2  503  502 -0.41930287122E+02 -0.67432355966E+01  0.34804070910E+03  0.35062224030E+03  0.00000000000E+00 0.  1.
         21    1    1    2  504  505  0.79738692842E+02 -0.74062203445E+02 -0.39461767044E+02  0.11576139328E+03  0.00000000000E+00 0. -1.
         21    1    1    2  505  501 -0.52498074805E+02  0.39141935230E+02 -0.10358152246E+04  0.10378830948E+04  0.00000000000E+00 0.  1.
          2    1    1    2  501    0  0.14689669085E+02  0.41663503812E+02 -0.20129120396E+04  0.20133967599E+04  0.00000000000E+00 0.  1.
<scales pt_clust_3="42.46905" pt_clust_4="14000.00000" pt_clust_5="87.83600" pt_clust_6="44.05310"></scales>
<clustering>
<clus scale="   42.469">  1  3  2 -1</clus>
<clus scale="   44.053">  2  6  1 -1</clus>
<clus scale="   87.836">  2  5  1 -1</clus>
<clus scale="   42.469">  1  3  2 -1</clus>
</clustering>
</event>
<event>
 6    0  0.7258365E+002  0.9709756E+02  0.7546771E-02  0.1286521E+00
         21   -1    0    0  505  502  0.00000000000E+00  0.00000000000E+00  0.12778170972E+04  0.12778170972E+04  0.00000000000E+00 0.  1.
         -3   -1    0    0    0  501 -0.00000000000E+00 -0.00000000000E+00 -0.12201114935E+03  0.12201114935E+03  0.00000000000E+00 0. -1.
         21    1    1    2  503  504 -0.41834896659E+02 -0.33928467705E+02  0.56609189888E+02  0.78140257736E+02  0.00000000000E+00 0.  1.
         21    1    1    2  504  501 -0.60418546417E+02 -0.55361047034E+00  0.10533523189E+03  0.12143400806E+03  0.00000000000E+00 0.  1.
         21    1    1    2  505  503  0.79586591149E+02 -0.34580470153E+02  0.10823027085E+04  0.10857757536E+04  0.00000000000E+00 0.  1.
         -3    1    1    2    0  502  0.22666851926E+02  0.69062548328E+02 -0.88441182365E+02  0.11447822717E+03  0.00000000000E+00 0. -1.
<scales pt_clust_3="41.79107" pt_clust_4="41.79107" pt_clust_5="86.42236" pt_clust_6="72.68715"></scales>
<clustering>
<clus scale="   41.791">  3  4 -1 -1</clus>
<clus scale="   72.687">  2  6  1 -1</clus>
<clus scale="   86.422">  1  5  2 -1</clus>
<clus scale="   86.422">  1  3  2 -1</clus>
</clustering>
</event>
<event>
 6    0  0.7258365E+002  0.9635024E+02  0.7546771E-02  0.1288164E+00
         21   -1    0    0  504  502  0.00000000000E+00  0.00000000000E+00  0.36597647828E+03  0.36597647828E+03  0.00000000000E+00 0.  1.
          2   -1    0    0  503    0 -0.00000000000E+00 -0.00000000000E+00 -0.89821534504E+03  0.89821534504E+03  0.00000000000E+00 0.  1.
         21    1    1    2  503  505  0.75365511898E+02  0.52405173436E+01 -0.25976142914E+02  0.79888568684E+02  0.00000000000E+00 0. -1.
         21    1    1    2  504  501 -0.48114518719E+02 -0.13501143998E+03  0.28510915379E+03  0.31910864202E+03  0.00000000000E+00 0.  1.
         21    1    1    2  505  502  0.12571025241E+01  0.37917881803E+02  0.23525996039E+02  0.44640996369E+02  0.00000000000E+00 0.  1.
          2    1    1    2  501    0 -0.28508095703E+02  0.91853040831E+02 -0.81489787367E+03  0.82055361625E+03  0.00000000000E+00 0.  1.
<scales pt_clust_3="75.92487" pt_clust_4="14000.00000" pt_clust_5="37.93871" pt_clust_6="96.35024"></scales>
<clustering>
<clus scale="   37.939">  1  5  2 -1</clus>
<clus scale="   75.925">  1  3  2 -1</clus>
<clus scale="   96.350">  2  6  1 -1</clus>
<clus scale="   37.939">  1  3  2 -1</clus>
</clustering>
</event>
<event>
 6    0  0.7258365E+002  0.8712582E+02  0.7546771E-02  0.1309965E+00
         21   -1    0    0  504  502  0.00000000000E+00  0.00000000000E+00  0.13902683314E+04  0.13902683314E+04  0.00000000000E+00 0.  1.
          1   -1    0    0  503    0 -0.00000000000E+00 -0.00000000000E+00 -0.12905016079E+04  0.12905016079E+04  0.00000000000E+00 0.  1.
         21    1    1    2  503  502  0.66048382848E+02 -0.21415314075E+01  0.32087849283E+02  0.73461589319E+02  0.00000000000E+00 0.  1.
         21    1    1    2  504  505  0.73906743676E+02  0.34692872598E+02  0.10263590064E+04  0.10296011909E+04  0.00000000000E+00 0.  1.
         21    1    1    2  505  501 -0.17218411829E+03 -0.35784601953E+02  0.28430442795E+03  0.33430063727E+03  0.00000000000E+00 0.  1.
          1    1    1    2  501    0  0.32228991763E+02  0.32332607625E+01 -0.12429845601E+04  0.12434065218E+04  0.00000000000E+00 0.  1.
<scales pt_clust_3="80.14537" pt_clust_4="14000.00000" pt_clust_5="87.12582" pt_clust_6="32.39077"></scales>
<clustering>
<clus scale="   32.391">  2  6  1 -1</clus>
<clus scale="   80.145">  2  3  1 -1</clus>
<clus scale="   87.126">  2  5  1 -1</clus>
<clus scale="   87.126">  1  3  2 -1</clus>
</clustering>
</event>
<event>
 6    0  0.7258365E+002  0.1325342E+03  0.7546771E-02  0.1223743E+00
         -2   -1    0    0    0  501 -0.00000000000E+00  0.00000000000E+00  0.39512011718E+03  0.39512011718E+03  0.00000000000E+00 0. -1.
         21   -1    0    0  503  502  0.00000000000E+00 -0.00000000000E+00 -0.34334740007E+03  0.34334740007E+03  0.00000000000E+00 0.  1.
         21    1    1    2  503  505 -0.74145209220E+02 -0.11269314460E+03 -0.25213574826E+03  0.28595400407E+03  0.00000000000E+00 0.  1.
         21    1    1    2  504  501  0.15586215555E+02 -0.37102260240E+02  0.40853839550E+02  0.57345828412E+02  0.00000000000E+00 0.  1.
         21    1    1    2  505  504  0.36133960740E+02  0.12295806372E+03 -0.16445832970E+01  0.12816806625E+03  0.00000000000E+00 0. -1.
         -2    1    1    2    0  502  0.22425032925E+02  0.26837341127E+02  0.26469920912E+03  0.26699961852E+03  0.00000000000E+00 0. -1.
<scales pt_clust_3="14000.00000" pt_clust_4="36.12584" pt_clust_5="132.53424" pt_clust_6="34.97320"></scales>
<clustering>
<clus scale="   34.973">  1  6  2 -1</clus>
<clus scale="   36.126">  1  4  2 -1</clus>
<clus scale="  132.534">  1  5  2 -1</clus>
<clus scale="  132.534">  2  3  1 -1</clus>
</clustering>
</event>
<event>
 6    0  0.7258365E+002  0.9004391E+02  0.7546771E-02  0.1302745E+00
         21   -1    0    0  504  502  0.00000000000E+00  0.00000000000E+00  0.54080839305E+02  0.54080839305E+02  0.00000000000E+00 0. -1.
          2   -1    0    0  503    0 -0.00000000000E+00 -0.00000000000E+00 -0.58221635136E+03  0.58221635136E+03  0.00000000000E+00 0. -1.
         21    1    1    2  503  502  0.48648366656E+02  0.10896207387E+03 -0.25232617616E+03  0.27911986009E+03  0.00000000000E+00 0. -1.
         21    1    1    2  504  505 -0.37734324184E+02 -0.10883140931E+02  0.16344583213E+02  0.42537834672E+02  0.00000000000E+00 0. -1.
         21    1    1    2  505  501 -0.21958146003E+02 -0.64698814082E+02 -0.11285319048E+03  0.13192399069E+03  0.00000000000E+00 0. -1.
          2    1    1    2  501    0  0.11044103531E+02 -0.33380118853E+02 -0.17930072863E+03  0.18271550522E+03  0.00000000000E+00 0. -1.
<scales pt_clust_3="90.04391" pt_clust_4="39.24473" pt_clust_5="14000.00000" pt_clust_6="35.15970"></scales>
<clustering>
<clus scale="   35.160">  2  6  1 -1</clus>
<clus scale="   39.245">  1  4  2 -1</clus>
<clus scale="   90.044">  2  3  1 -1</clus>
<clus scale="   39.245">  1  3  2 -1</clus>
</clustering>
</event>
<event>
 6    0  0.7258365E+002  0.8252036E+02  0.7546771E-02  0.1322047E+00
          2   -1    0    0  505    0 -0.00000000000E+00  0.00000000000E+00  0.11784246274E+04  0.11784246274E+04  0.00000000000E+00 0. -1.
         21   -1    0    0  504  502  0.00000000000E+00 -0.00000000000E+00 -0.42573281072E+03  0.42573281072E+03  0.00000000000E+00 0.  1.
         21    1    1    2  503  501  0.37276908779E+02 -0.58268234225E+02 -0.88347565709E+01  0.69733836633E+02  0.00000000000E+00 0.  1.
         21    1    1    2  504  503  0.60407937782E+02  0.50771568951E+02 -0.29551332465E+03  0.30586761222E+03  0.00000000000E+00 0.  1.
         21    1    1    2  505  502 -0.11580017048E+03 -0.34506632291E+02 -0.42482416748E+02  0.12808256278E+03  0.00000000000E+00 0.  1.
          2    1    1    2  501    0  0.18115323920E+02  0.42003297566E+02  0.10995223146E+04  0.11004734265E+04  0.00000000000E+00 0. -1.
<scales pt_clust_3="61.02510" pt_clust_4="82.52036" pt_clust_5="14000.00000" pt_clust_6="45.74322"></scales>
<clustering>
<clus scale="   45.743">  1  6  2 -1</clus>
<clus scale="   61.025">  1  3  2 -1</clus>
<clus scale="   82.520">  2  4  1 -1</clus>
<clus scale="   82.520">  2  3  1 -1</clus>
</clustering>
</event>
<event>
 6    0  0.7258365E+002  0.8315772E+02  0.7546771E-02  0.1320322E+00
         -1   -1    0    0    0  501 -0.00000000000E+00  0.00000000000E+00  0.53022278330E+03  0.53022278330E+03  0.00000000000E+00 0.  1.
         21   -1    0    0  505  502  0.00000000000E+00 -0.00000000000E+00 -0.49182439065E+03  0.49182439065E+03  0.00000000000E+00 0. -1.
         21    1    1    2  503  501  0.37241454133E+01 -0.77830312722E+02 -0.22877353333E+03  0.24167903589E+03  0.00000000000E+00 0. -1.
         21    1    1    2  504  502 -0.40117351337E+02  0.11506599160E+03  0.60213918733E+02  0.13592387690E+03  0.00000000000E+00 0. -1.
         21    1    1    2  505  503  0.39125393824E+02  0.88177858686E+01 -0.21563873227E+03  0.21933675625E+03  0.00000000000E+00 0. -1.
         -1    1    1    2    0  504 -0.27321879003E+01 -0.46053464750E+02  0.42259673953E+03  0.42510750490E+03  0.00000000000E+00 0.  1.
<scales pt_clust_3="83.15772" pt_clust_4="14000.00000" pt_clust_5="40.10673" pt_clust_6="46.08389"></scales>
<clustering>
<clus scale="   40.107">  2  5  1 -1</clus>
<clus scale="   46.084">  1  6  2 -1</clus>
<clus scale="   83.158">  2  3  1 -1</clus>
<clus scale="   40.107">  2  3  1 -1</clus>
</clustering>
</event>
<event>
 6    0  0.7258365E+002  0.1251933E+03  0.7546771E-02  0.1234768E+00
         21   -1    0    0  504  502  0.00000000000E+00  0.00000000000E+00  0.14545993707E+03  0.14545993707E+03  0.00000000000E+00 0.  1.
          2   -1    0    0  505    0 -0.00000000000E+00 -0.00000000000E+00 -0.27671794694E+04  0.27671794694E+04  0.00000000000E+00 0.  1.
         21    1    1    2  503  502 -0.45381820310E+02 -0.11324318451E+02  0.35720428357E+02  0.58853197067E+02  0.00000000000E+00 0.  1.
         21    1    1    2  504  501  0.44394096210E+02  0.12824903729E+03  0.18042111543E+02  0.13690934641E+03  0.00000000000E+00 0.  1.
         21    1    1    2  505  503  0.98461286235E+01 -0.14889617415E+03 -0.24985738594E+03  0.29102530858E+03  0.00000000000E+00 0.  1.
          2    1    1    2  501    0 -0.88584045237E+01  0.31971455304E+02 -0.24256246862E+04  0.24258515544E+04  0.00000000000E+00 0.  1.
<scales pt_clust_3="46.81581" pt_clust_4="125.19329" pt_clust_5="14000.00000" pt_clust_6="33.17597"></scales>
<clustering>
<clus scale="   33.176">  2  6  1 -1</clus>
<clus scale="   46.816">  1  3  2 -1</clus>
<clus scale="  125.193">  1  4  2 -1</clus>
<clus scale="   46.816">  1  3  2 -1</clus>
</clustering>
</event>
<event>
 6    0  0.7258365E+002  0.1999538E+03  0.7546771E-02  0.1149778E+00
         21   -1    0    0  505  502  0.00000000000E+00  0.00000000000E+00  0.77254038436E+03  0.77254038436E+03  0.00000000000E+00 0.  1.
         -3   -1    0    0    0  501 -0.00000000000E+00 -0.00000000000E+00 -0.26455017728E+03  0.26455017728E+03  0.00000000000E+00 0.  1.
         21    1    1    2  503  504  0.30209503031E+02 -0.44435722502E+02  0.97904989835E+01  0.54616859833E+02  0.00000000000E+00 0.  1.
         21    1    1    2  504  502 -0.10641045357E+02 -0.77622228791E+02  0.14781762180E+02  0.79730437989E+02  0.00000000000E+00 0.  1.
         21    1    1    2  505  501 -0.72532149924E+02  0.20497341531E+03  0.66312773430E+03  0.69786345782E+03  0.00000000000E+00 0.  1.
         -3    1    1    2    0  503  0.52963692249E+02 -0.82915464021E+02 -0.17970978838E+03  0.20487980601E+03  0.00000000000E+00 0.  1.
<scales pt_clust_3="38.52695" pt_clust_4="38.52695" pt_clust_5="194.46644" pt_clust_6="98.38764"></scales>
<clustering>
<clus scale="   38.527">  3  4 -1 -1</clus>
<clus scale="   98.388">  2  6  1 -1</clus>
<clus scale="  194.466">  1  5  2 -1</clus>
<clus scale="  194.466">  1  3  2 -1</clus>
</clustering>
</event>
<event>
 6    0  0.7258365E+002  0.2094273E+03  0.7546771E-02  0.1142020E+00
          2   -1    0    0  505    0 -0.00000000000E+00  0.00000000000E+00  0.22089822161E+04  0.22089822161E+04  0.00000000000E+00 0.  1.
         21   -1    0    0  503  502  0.00000000000E+00 -0.00000000000E+00 -0.15263349272E+03  0.15263349272E+03  0.00000000000E+00 0. -1.
         21    1    1    2  503  501 -0.61710159548E+00 -0.20616845961E+03 -0.48485770655E+01  0.20622638835E+03  0.00000000000E+00 0. -1.
         21    1    1    2  504  502 -0.78993049401E+02  0.21534083591E+03  0.25022964071E+03  0.33945021808E+03  0.00000000000E+00 0.  1.
         21    1    1    2  505  504  0.78718803938E+02 -0.41983257692E+02  0.15948296948E+04  0.15973230730E+04  0.00000000000E+00 0.  1.
          2    1    1    2  501    0  0.89134705824E+00  0.32810881393E+02  0.21613796499E+03  0.21861602948E+03  0.00000000000E+00 0.  1.
<scales pt_clust_3="209.42726" pt_clust_4="14000.00000" pt_clust_5="80.96760" pt_clust_6="32.82299"></scales>
<clustering>
<clus scale="   32.823">  1  6  2 -1</clus>
<clus scale="   80.968">  1  5  2 -1</clus>
<clus scale="  209.427">  2  3  1 -1</clus>
<clus scale="  209.427">  2  3  1 -1</clus>
</clustering>
</event>
<event>
 6    0  0.7258365E+002  0.7305747E+02  0.7546771E-02  0.1349994E+00
          1   -1    0    0  505    0 -0.00000000000E+00  0.00000000000E+00  0.35248254093E+03  0.35248254093E+03  0.00000000000E+00 0. -1.
         21   -1    0    0  503  502  0.00000000000E+00 -0.00000000000E+00 -0.99084095704E+02  0.99084095704E+02  0.00000000000E+00 0. -1.
         21    1    1    2  503  501  0.26266311929E+02  0.40346686333E+02  0.29399760267E+02  0.56410284028E+02  0.00000000000E+00 0. -1.
         21    1    1    2  504  502 -0.31951460898E+02 -0.68274035179E+02 -0.38624986299E+02  0.84700231993E+02  0.00000000000E+00 0. -1.
         21    1    1    2  505  504 -0.29285926980E+02 -0.44812851571E+02  0.24213766300E+02  0.58755116061E+02  0.00000000000E+00 0. -1.
          1    1    1    2  501    0  0.34971075948E+02  0.72740200417E+02  0.23840990495E+03  0.25170100455E+03  0.00000000000E+00 0. -1.
<scales pt_clust_3="48.14327" pt_clust_4="41.31014" pt_clust_5="73.05747" pt_clust_6="14000.00000"></scales>
<clustering>
<clus scale="   48.143">  2  3  1 -1</clus>
<clus scale="   41.310">  2  4  1 -1</clus>
<clus scale="   73.057">  2  5  1 -1</clus>
<clus scale="   48.143">  2  3  1 -1</clus>
</clustering>
</event>
<event>
 6    0  0.7258365E+002  0.4123623E+03  0.7546771E-02  0.1039581E+00
          2   -1    0    0  505    0 -0.00000000000E+00  0.00000000000E+00  0.12995521407E+04  0.12995521407E+04  0.00000000000E+00 0.  1.
         21   -1    0    0  504  502  0.00000000000E+00 -0.00000000000E+00 -0.74343254437E+03  0.74343254437E+03  0.00000000000E+00 0.  1.
         21    1    1    2  503  502 -0.49019336773E+02 -0.19703610728E+02 -0.88528291195E+02  0.10309406382E+03  0.00000000000E+00 0.  1.
         21    1    1    2  504  501  0.82749667533E+01 -0.69313139254E+02 -0.50493563427E+03  0.50973795336E+03  0.00000000000E+00 0.  1.
         21    1    1    2  505  503 -0.35532406587E+03  0.21428259129E+03  0.73020826593E+03  0.83986685394E+03  0.00000000000E+00 0.  1.
          2    1    1    2  501    0  0.39606843589E+03 -0.12526584131E+03  0.41937525586E+03  0.59028581394E+03  0.00000000000E+00 0.  1.
<scales pt_clust_3="52.83112" pt_clust_4="89.94394" pt_clust_5="14000.00000" pt_clust_6="412.36226"></scales>
<clustering>
<clus scale="   52.831">  2  3  1 -1</clus>
<clus scale="   89.944">  2  4  1 -1</clus>
<clus scale="  412.362">  2  6  1 -1</clus>
<clus scale="   52.831">  2  3  1 -1</clus>
</clustering>
</event>
<event>
 6    0  0.7258365E+002  0.7849139E+02  0.7546771E-02  0.1333388E+00
          2   -1    0    0  503    0 -0.00000000000E+00  0.00000000000E+00  0.45109492622E+03  0.45109492622E+03  0.00000000000E+00 0. -1.
         21   -1    0    0  504  502  0.00000000000E+00 -0.00000000000E+00 -0.12876458985E+04  0.12876458985E+04  0.00000000000E+00 0.  1.
         21    1    1    2  503  505 -0.73522798854E+02 -0.56860126703E+01  0.68154765746E+02  0.10041416626E+03  0.00000000000E+00 0.  1.
         21    1    1    2  504  501  0.48601500498E+02 -0.31094803523E+02 -0.12069638667E+04  0.12083421569E+04  0.00000000000E+00 0.  1.
         21    1    1    2  505  502 -0.31675127940E+02 -0.26905641039E+02 -0.51461931455E+02  0.66147997995E+02  0.00000000000E+00 0. -1.
          2    1    1    2  501    0  0.56596426296E+02  0.63686457233E+02  0.35372006018E+03  0.36383650350E+03  0.00000000000E+00 0. -1.
<scales pt_clust_3="78.49139" pt_clust_4="60.13104" pt_clust_5="41.55992" pt_clust_6="14000.00000"></scales>
<clustering>
<clus scale="   41.560">  2  5  1 -1</clus>
<clus scale="   60.131">  2  4  1 -1</clus>
<clus scale="   78.491">  2  3  1 -1</clus>
<clus scale="   41.560">  2  3  1 -1</clus>
</clustering>
</event>
<event>
 6    0  0.7258365E+002  0.1429036E+03  0.7546771E-02  0.1209474E+00
         21   -1    0    0  505  502  0.00000000000E+00  0.00000000000E+00  0.86673985061E+02  0.86673985061E+02  0.00000000000E+00 0. -1.
          2   -1    0    0  503    0 -0.00000000000E+00 -0.00000000000E+00 -0.16998855443E+04  0.16998855443E+04  0.00000000000E+00 0. -1.
         21    1    1    2  503  502 -0.78413549785E+02  0.68011585917E+02 -0.83947710241E+03  0.84587000542E+03  0.00000000000E+00 0. -1.
         21    1    1    2  504  501  0.10215903198E+02  0.34464996002E+02 -0.76118388619E+02  0.84179627663E+02  0.00000000000E+00 0.  1.
         21    1    1    2  505  504  0.60259756650E+02 -0.13386269295E+03  0.10946327929E+02  0.14720829097E+03  0.00000000000E+00 0. -1.
          2    1    1    2  501    0  0.79378899370E+01  0.31386111029E+02 -0.70856239612E+03  0.70930160528E+03  0.00000000000E+00 0. -1.
<scales pt_clust_3="142.90363" pt_clust_4="38.56366" pt_clust_5="14000.00000" pt_clust_6="32.37434"></scales>
<clustering>
<clus scale="   32.374">  2  6  1 -1</clus>
<clus scale="   38.564">  2  4  1 -1</clus>
<clus scale="  142.904">  2  3  1 -1</clus>
<clus scale="  142.904">  1  3  2 -1</clus>
</clustering>
</event>
<event>
 6    0  0.7258365E+002  0.1382318E+03  0.7546771E-02  0.1215728E+00
         21   -1    0    0  504  502  0.00000000000E+00  0.00000000000E+00  0.24695276142E+04  0.24695276142E+04  0.00000000000E+00 0.  1.
          4   -1    0    0  505    0 -0.00000000000E+00 -0.00000000000E+00 -0.20721950651E+03  0.20721950651E+03  0.00000000000E+00 0. -1.
         21    1    1    2  503  502  0.95665699557E+02  0.10195454746E+03  0.22457521596E+04  0.22500998685E+04  0.00000000000E+00 0.  1.
         21    1    1    2  504  501  0.81783420864E+01 -0.14234803593E+03  0.42745612701E+02  0.14885239675E+03  0.00000000000E+00 0.  1.
         21    1    1    2  505  503 -0.12937167536E+03  0.10641183259E+02  0.88157616251E+02  0.15691408627E+03  0.00000000000E+00 0.  1.
          4    1    1    2  501    0  0.25527633717E+02  0.29752305220E+02 -0.11434728081E+03  0.12088076926E+03  0.00000000000E+00 0. -1.
<scales pt_clust_3="138.23180" pt_clust_4="14000.00000" pt_clust_5="121.59478" pt_clust_6="39.20280"></scales>
<clustering>
<clus scale="   39.203">  2  6  1 -1</clus>
<clus scale="  121.595">  2  5  1 -1</clus>
<clus scale="  138.232">  1  3  2 -1</clus>
<clus scale="  138.232">  1  3  2 -1</clus>
</clustering>
</event>
<event>
 6    0  0.7258365E+002  0.1319212E+03  0.7546771E-02  0.1224633E+00
         21   -1    0    0  503  502  0.00000000000E+00  0.00000000000E+00  0.19097694159E+03  0.19097694159E+03  0.00000000000E+00 0. -1.
          2   -1    0    0  505    0 -0.00000000000E+00 -0.00000000000E+00 -0.20388430058E+04  0.20388430058E+04  0.00000000000E+00 0.  1.
         21    1    1    2  503  504 -0.33682373945E+02 -0.16101078217E+02  0.15648550194E+03  0.16087715609E+03  0.00000000000E+00 0. -1.
         21    1    1    2  504  501 -0.73071643917E+02 -0.79684653987E+02 -0.78128399962E+02  0.13339098960E+03  0.00000000000E+00 0.  1.
         21    1    1    2  505  502  0.53904135781E+02  0.38538537653E+02 -0.28997754071E+03  0.29745226315E+03  0.00000000000E+00 0.  1.
          2    1    1    2  501    0  0.52849882082E+02  0.57247194550E+02 -0.16362456254E+04  0.16380995385E+04  0.00000000000E+00 0.  1.
<scales pt_clust_3="37.33292" pt_clust_4="131.92122" pt_clust_5="62.01374" pt_clust_6="14000.00000"></scales>
<clustering>
<clus scale="   37.333">  1  3  2 -1</clus>
<clus scale="   62.014">  2  5  1 -1</clus>
<clus scale="  131.921">  1  4  2 -1</clus>
<clus scale="   37.333">  1  3  2 -1</clus>
</clustering>
</event>
<event>
 6    0  0.7258365E+002  0.2364950E+03  0.7546771E-02  0.1122150E+00
          2   -1    0    0  504    0 -0.00000000000E+00  0.00000000000E+00  0.11471504207E+04  0.11471504207E+04  0.00000000000E+00 0. -1.
         21   -1    0    0  503  502  0.00000000000E+00 -0.00000000000E+00 -0.68071191784E+02  0.68071191784E+02  0.00000000000E+00 0. -1.
         21    1    1    2  503  501 -0.28797494160E+02  0.19445560106E+03  0.41537530701E+03  0.45954207873E+03  0.00000000000E+00 0. -1.
         21    1    1    2  504  505  0.54871127623E+02 -0.11903032244E+03  0.18383080055E+03  0.22577161367E+03  0.00000000000E+00 0. -1.
         21    1    1    2  505  502 -0.51637406578E+02 -0.97569933602E+02  0.10129866125E+03  0.14982567361E+03  0.00000000000E+00 0. -1.
          2    1    1    2  501    0  0.25563773116E+02  0.22144654988E+02  0.37857446010E+03  0.38008224647E+03  0.00000000000E+00 0. -1.
<scales pt_clust_3="207.56085" pt_clust_4="102.44731" pt_clust_5="102.44731" pt_clust_6="33.82148"></scales>
<clustering>
<clus scale="   33.821">  1  6  2 -1</clus>
<clus scale="  102.447">  4  5 -1 -1</clus>
<clus scale="  207.561">  1  3  2 -1</clus>
<clus scale="  236.495">  2  3  1 -1</clus>
</clustering>
</event>
<event>
 6    0  0.1630514E+003  0.1227573E+03  0.7546771E-02  0.1238617E+00
         21   -1    0    0  503  502  0.00000000000E+00  0.00000000000E+00  0.38656389764E+03  0.38656389764E+03  0.00000000000E+00 0.  1.
          2   -1    0    0  504    0 -0.00000000000E+00 -0.00000000000E+00 -0.16986099285E+04  0.16986099285E+04  0.00000000000E+00 0. -1.
         21    1    1    2  503  501  0.55650762309E+01 -0.58293203753E+02  0.29603991477E+02  0.65616034539E+02  0.00000000000E+00 0.  1.
         21    1    1    2  504  505 -0.26426454915E+02  0.78519257163E+02 -0.21731719941E+03  0.23257342158E+03  0.00000000000E+00 0.  1.
         21    1    1    2  505  502  0.83303258091E+00 -0.72134125967E+02  0.32685969019E+03  0.33472568343E+03  0.00000000000E+00 0.  1.
          2    1    1    2  501    0  0.20028346103E+02  0.51908072557E+02 -0.14511925131E+04  0.14522586866E+04  0.00000000000E+00 0. -1.
<scales pt_clust_3="54.95833" pt_clust_4="122.75725" pt_clust_5="14000.00000" pt_clust_6="55.63796"></scales>
<clustering>
<clus scale="   55.638">  2  6  1 -1</clus>
<clus scale="   54.958">  1  3  2 -1</clus>
<clus scale="  122.757">  2  4  1 -1</clus>
<clus scale="   54.958">  1  3  2 -1</clus>
</clustering>
</event>
<event>
 6    0  0.7258365E+002  0.8474221E+02  0.7546771E-02  0.1316108E+00
         21   -1    0    0  503  502  0.00000000000E+00  0.00000000000E+00  0.75567556503E+03  0.75567556503E+03  0.00000000000E+00 0.  1.
         -2   -1    0    0    0  501 -0.00000000000E+00 -0.00000000000E+00 -0.51833000363E+03  0.51833000363E+03  0.00000000000E+00 0.  1.
         21    1    1    2  503  504 -0.35540772509E+02  0.91403331555E+02  0.50438593029E+03  0.51383156988E+03  0.00000000000E+00 0.  1.
         21    1    1    2  504  501  0.34730671761E+01 -0.12979694656E+03  0.11347036436E+03  0.17243791092E+03  0.00000000000E+00 0. -1.
         21    1    1    2  505  502  0.36450469719E+02 -0.23666757125E+02  0.96946711468E+02  0.10624225619E+03  0.00000000000E+00 0. -1.
         -2    1    1    2    0  505 -0.43827643856E+01  0.62060372135E+02 -0.47745744472E+03  0.48149383167E+03  0.00000000000E+00 0.  1.
<scales pt_clust_3="84.74221" pt_clust_4="14000.00000" pt_clust_5="43.45978" pt_clust_6="62.13426"></scales>
<clustering>
<clus scale="   43.460">  1  5  2 -1</clus>
<clus scale="   62.134">  2  6  1 -1</clus>
<clus scale="   84.742">  1  3  2 -1</clus>
<clus scale="   43.460">  1  3  2 -1</clus>
</clustering>
</event>
<event>
 6    0  0.7258365E+002  0.1332758E+03  0.7546771E-02  0.1222674E+00
         21   -1    0    0  503  502  0.00000000000E+00  0.00000000000E+00  0.11706953627E+03  0.11706953627E+03  0.00000000000E+00 0.  1.
          2   -1    0    0  505    0 -0.00000000000E+00 -0.00000000000E+00 -0.24569702621E+04  0.24569702621E+04  0.00000000000E+00 0. -1.
         21    1    1    2  503  501 -0.22512450158E+02  0.76626415000E+02  0.72951041412E+02  0.10816779711E+03  0.00000000000E+00 0.  1.
         21    1    1    2  504  502  0.62683256334E+01  0.61325294304E+02 -0.19449553150E+02  0.64640302796E+02  0.00000000000E+00 0.  1.
         21    1    1    2  505  504 -0.27502787050E+02 -0.69392550815E+02 -0.45161392749E+03  0.45774105005E+03  0.00000000000E+00 0. -1.
          2    1    1    2  501    0  0.43746911575E+02 -0.68559158490E+02 -0.19417882866E+04  0.19434906484E+04  0.00000000000E+00 0. -1.
<scales pt_clust_3="133.27578" pt_clust_4="61.64482" pt_clust_5="72.72244" pt_clust_6="14000.00000"></scales>
<clustering>
<clus scale="   61.645">  1  4  2 -1</clus>
<clus scale="   72.722">  2  5  1 -1</clus>
<clus scale="  133.276">  1  3  2 -1</clus>
<clus scale="   61.645">  1  3  2 -1</clus>
</clustering>
</event>
<event>
 6    0  0.7258365E+002  0.1212715E+03  0.7546771E-02  0.1241014E+00
          1   -1    0    0  503    0 -0.00000000000E+00  0.00000000000E+00  0.45822838006E+04  0.45822838006E+04  0.00000000000E+00 0.  1.
         21   -1    0    0  505  502  0.00000000000E+00 -0.00000000000E+00 -0.22167954870E+02  0.22167954870E+02  0.00000000000E+00 0.  1.
         21    1    1    2  503  502  0.29276978592E+02 -0.37652404500E+02  0.17923849373E+03  0.18547582774E+03  0.00000000000E+00 0.  1.
         21    1    1    2  504  501 -0.17408801343E+03  0.68301713894E+02  0.14739183585E+04  0.14857345281E+04  0.00000000000E+00 0.  1.
         21    1    1    2  505  504  0.88069733932E+02  0.24837605952E+02  0.15397018078E+03  0.17910890898E+03  0.00000000000E+00 0.  1.
          1    1    1    2  501    0  0.56741300904E+02 -0.55486915346E+02  0.27529888127E+04  0.27541324906E+04  0.00000000000E+00 0.  1.
<scales pt_clust_3="47.69534" pt_clust_4="14000.00000" pt_clust_5="121.27146" pt_clust_6="80.78113"></scales>
<clustering>
<clus scale="   47.695">  2  3  1 -1</clus>
<clus scale="   80.781">  1  6  2 -1</clus>
<clus scale="  121.271">  2  5  1 -1</clus>
<clus scale="   47.695">  2  3  1 -1</clus>
</clustering>
</event>
<event>
 6    0  0.7258365E+002  0.1083811E+03  0.7546771E-02  0.1263597E+00
          2   -1    0    0  505    0 -0.00000000000E+00  0.00000000000E+00  0.17528908973E+04  0.17528908973E+04  0.00000000000E+00 0.  1.
         21   -1    0    0  503  502  0.00000000000E+00 -0.00000000000E+00 -0.25814591377E+03  0.25814591377E+03  0.00000000000E+00 0. -1.
         21    1    1    2  503  501  0.14528519523E+02  0.41232176943E+02 -0.55895046080E+02  0.70960738943E+02  0.00000000000E+00 0. -1.
         21    1    1    2  504  502  0.89216631365E+02 -0.24826416948E+02 -0.10097466863E+03  0.13701037185E+03  0.00000000000E+00 0. -1.
         21    1    1    2  505  504 -0.13616151955E+03  0.15736644613E+02 -0.13129910251E+02  0.13769530106E+03  0.00000000000E+00 0. -1.
          2    1    1    2  501    0  0.32416368660E+02 -0.32142404609E+02  0.16647446085E+04  0.16653703992E+04  0.00000000000E+00 0.  1.
<scales pt_clust_3="43.71693" pt_clust_4="14000.00000" pt_clust_5="108.38112" pt_clust_6="45.62033"></scales>
<clustering>
<clus scale="   43.717">  2  3  1 -1</clus>
<clus scale="   45.620">  1  6  2 -1</clus>
<clus scale="  108.381">  1  5  2 -1</clus>
<clus scale="   43.717">  2  3  1 -1</clus>
</clustering>
</event>
<event>
 6    0  0.7258365E+002  0.8108660E+02  0.7546771E-02  0.1325996E+00
          1   -1    0    0  504    0 -0.00000000000E+00  0.00000000000E+00  0.12492475274E+04  0.12492475274E+04  0.00000000000E+00 0. -1.
         21   -1    0    0  505  502  0.00000000000E+00 -0.00000000000E+00 -0.54765646712E+03  0.54765646712E+03  0.00000000000E+00 0.  1.
         21    1    1    2  503  501  0.84101360179E+02  0.44062510629E+01  0.48739123326E+03  0.49461365538E+03  0.00000000000E+00 0.  1.
         21    1    1    2  504  502  0.42244101566E+02 -0.56161188671E+02 -0.36905828743E+02  0.79376844390E+02  0.00000000000E+00 0.  1.
         21    1    1    2  505  503 -0.10866957612E+03  0.10285606605E+03 -0.47335347123E+03  0.49643927708E+03  0.00000000000E+00 0.  1.
          1    1    1    2  501    0 -0.17675885623E+02 -0.51101128446E+02  0.72445912696E+03  0.72647421764E+03  0.00000000000E+00 0. -1.
<scales pt_clust_3="14000.00000" pt_clust_4="71.52349" pt_clust_5="81.08660" pt_clust_6="54.07183"></scales>
<clustering>
<clus scale="   54.072">  1  6  2 -1</clus>
<clus scale="   71.523">  2  4  1 -1</clus>
<clus scale="   81.087">  2  5  1 -1</clus>
<clus scale="   71.523">  2  3  1 -1</clus>
</clustering>
</event>
<event>
 6    0  0.7258365E+002  0.7511726E+02  0.7546771E-02  0.1343508E+00
          2   -1    0    0  504    0 -0.00000000000E+00  0.00000000000E+00  0.29408937863E+04  0.29408937863E+04  0.00000000000E+00 0.  1.
         21   -1    0    0  503  502  0.00000000000E+00 -0.00000000000E+00 -0.66590552237E+02  0.66590552237E+02  0.00000000000E+00 0.  1.
         21    1    1    2  503  501 -0.75408324559E+02 -0.57762407436E+02  0.60197963320E+03  0.60942792020E+03  0.00000000000E+00 0. -1.
         21    1    1    2  504  505  0.66359258149E+02 -0.24074013618E+02  0.20892813011E+03  0.22053134205E+03  0.00000000000E+00 0. -1.
         21    1    1    2  505  502  0.16838903842E+02  0.36905522193E+02 -0.49578382540E+02  0.64059209066E+02  0.00000000000E+00 0.  1.
          2    1    1    2  501    0 -0.77898374319E+01  0.44930898862E+02  0.21129738533E+04  0.21134658672E+04  0.00000000000E+00 0.  1.
<scales pt_clust_3="75.11726" pt_clust_4="14000.00000" pt_clust_5="40.56558" pt_clust_6="46.44779"></scales>
<clustering>
<clus scale="   40.566">  2  5  1 -1</clus>
<clus scale="   46.448">  1  6  2 -1</clus>
<clus scale="   75.117">  1  3  2 -1</clus>
<clus scale="   40.566">  2  3  1 -1</clus>
</clustering>
</event>
<event>
 6    0  0.7258365E+002  0.2280002E+03  0.7546771E-02  0.1128055E+00
         -2   -1    0    0    0  501 -0.00000000000E+00  0.00000000000E+00  0.38737494501E+03  0.38737494501E+03  0.00000000000E+00 0.  1.
         21   -1    0    0  503  502  0.00000000000E+00 -0.00000000000E+00 -0.16842075933E+04  0.16842075933E+04  0.00000000000E+00 0. -1.
         21    1    1    2  503  504 -0.16273639235E+03 -0.12881448309E+03 -0.14315222987E+04  0.14464896806E+04  0.00000000000E+00 0. -1.
         21    1    1    2  504  505  0.59988096140E+02  0.44492014923E+02 -0.13241661967E+03  0.15202720887E+03  0.00000000000E+00 0. -1.
         21    1    1    2  505  501  0.12314408851E+03  0.45403215975E+02 -0.59080982882E+02  0.14393221006E+03  0.00000000000E+00 0. -1.
         -2    1    1    2    0  502 -0.20395792299E+02  0.38919252193E+02  0.32618725295E+03  0.32913343878E+03  0.00000000000E+00 0.  1.
<scales pt_clust_3="206.59616" pt_clust_4="73.54840" pt_clust_5="73.54840" pt_clust_6="43.93969"></scales>
<clustering>
<clus scale="   43.940">  1  6  2 -1</clus>
<clus scale="   73.548">  4  5 -1 -1</clus>
<clus scale="  206.596">  2  3  1 -1</clus>
<clus scale="  206.596">  2  3  1 -1</clus>
</clustering>
</event>
<event>
 6    0  0.7258365E+002  0.1990134E+03  0.7546771E-02  0.1150574E+00
         21   -1    0    0  503  502  0.00000000000E+00  0.00000000000E+00  0.44910453350E+03  0.44910453350E+03  0.00000000000E+00 0. -1.
          2   -1    0    0  505    0 -0.00000000000E+00 -0.00000000000E+00 -0.20925376206E+04  0.20925376206E+04  0.00000000000E+00 0.  1.
         21    1    1    2  503  501  0.93945545009E+02  0.40381625325E+02  0.25363797507E+03  0.27347516065E+03  0.00000000000E+00 0. -1.
         21    1    1    2  504  502  0.10669632818E+03 -0.10902549478E+03  0.13276766156E+03  0.20223233401E+03  0.00000000000E+00 0. -1.
         21    1    1    2  505  504 -0.19004449431E+03 -0.80281885197E+02 -0.76556634330E+03  0.79287698724E+03  0.00000000000E+00 0.  1.
          2    1    1    2  501    0 -0.10597378874E+02  0.14892575466E+03 -0.12642723804E+04  0.12730576722E+04  0.00000000000E+00 0.  1.
<scales pt_clust_3="102.25674" pt_clust_4="199.01345" pt_clust_5="14000.00000" pt_clust_6="150.11546"></scales>
<clustering>
<clus scale="  102.257">  1  3  2 -1</clus>
<clus scale="  150.115">  2  6  1 -1</clus>
<clus scale="  199.013">  1  4  2 -1</clus>
<clus scale="  102.257">  1  3  2 -1</clus>
</clustering>
</event>
<event>
 6    0  0.7258365E+002  0.2122184E+03  0.7546771E-02  0.1139821E+00
          1   -1    0    0  504    0 -0.00000000000E+00  0.00000000000E+00  0.10479035804E+04  0.10479035804E+04  0.00000000000E+00 0. -1.
         21   -1    0    0  503  502  0.00000000000E+00 -0.00000000000E+00 -0.86350005989E+03  0.86350005989E+03  0.00000000000E+00 0. -1.
         21    1    1    2  503  505  0.42616082079E+01  0.56934960845E+02 -0.29547002886E+03  0.30093568919E+03  0.00000000000E+00 0. -1.
         21    1    1    2  504  502 -0.41984293762E+02 -0.15861454854E+03 -0.50070164687E+02  0.17154672053E+03  0.00000000000E+00 0. -1.
         21    1    1    2  505  501  0.81992118971E+02  0.13405272855E+03 -0.44010826673E+03  0.46732015584E+03  0.00000000000E+00 0. -1.
          1    1    1    2  501    0 -0.44269433417E+02 -0.32373140856E+02  0.97005198084E+03  0.97160107478E+03  0.00000000000E+00 0. -1.
<scales pt_clust_3="43.57345" pt_clust_4="199.52700" pt_clust_5="43.57345" pt_clust_6="54.84344"></scales>
<clustering>
<clus scale="   43.573">  3  5 -1 -1</clus>
<clus scale="   54.843">  1  6  2 -1</clus>
<clus scale="  199.527">  1  4  2 -1</clus>
<clus scale="  212.218">  2  3  1 -1</clus>
</clustering>
</event>
<event>
 6    0  0.7258365E+002  0.2680657E+03  0.7546771E-02  0.1102392E+00
         21   -1    0    0  503  502  0.00000000000E+00  0.00000000000E+00  0.75044591902E+03  0.75044591902E+03  0.00000000000E+00 0.  1.
          3   -1    0    0  505    0 -0.00000000000E+00 -0.00000000000E+00 -0.22236337515E+03  0.22236337515E+03  0.00000000000E+00 0.  1.
         21    1    1    2  503  501  0.28308817422E+02  0.16760579267E+03 -0.22768175158E+02  0.17149775707E+03  0.00000000000E+00 0.  1.
         21    1    1    2  504  502 -0.44934356040E+02 -0.11066922401E+03  0.29557596846E+03  0.31879762645E+03  0.00000000000E+00 0.  1.
         21    1    1    2  505  504  0.18412890710E+02 -0.13906512868E+03  0.33798558145E+03  0.36594042935E+03  0.00000000000E+00 0.  1.
          3    1    1    2  501    0 -0.17873520925E+01  0.82128560018E+02 -0.82710830883E+02  0.11657348130E+03  0.00000000000E+00 0.  1.
<scales pt_clust_3="65.17176" pt_clust_4="61.17603" pt_clust_5="259.74212" pt_clust_6="65.17176"></scales>
<clustering>
<clus scale="   61.176">  4  5 -1 -1</clus>
<clus scale="   65.172">  3  6 -1 -1</clus>
<clus scale="  259.742">  1  4  2 -1</clus>
<clus scale="  259.742">  1  3  2 -1</clus>
</clustering>
</event>
<event>
 6    0  0.7258365E+002  0.1332314E+03  0.7546771E-02  0.1222738E+00
         21   -1    0    0  505  502  0.00000000000E+00  0.00000000000E+00  0.33196222043E+03  0.33196222043E+03  0.00000000000E+00 0. -1.
          2   -1    0    0  504    0 -0.00000000000E+00 -0.00000000000E+00 -0.31097088357E+03  0.31097088357E+03  0.00000000000E+00 0.  1.
         21    1    1    2  503  502  0.77264890018E+02  0.25034671505E+02 -0.53378092590E+02  0.97189602198E+02  0.00000000000E+00 0. -1.
         21    1    1    2  504  503  0.33839708635E+02 -0.78323288938E+02 -0.18363806845E+02  0.87274812360E+02  0.00000000000E+00 0. -1.
         21    1    1    2  505  501 -0.14687522579E+03  0.30799836645E+02  0.25221490897E+03  0.29348479040E+03  0.00000000000E+00 0. -1.
          2    1    1    2  501    0  0.35770627139E+02  0.22488780789E+02 -0.15948167267E+03  0.16498389905E+03  0.00000000000E+00 0.  1.
<scales pt_clust_3="133.23141" pt_clust_4="84.34165" pt_clust_5="14000.00000" pt_clust_6="42.25261"></scales>
<clustering>
<clus scale="   42.253">  2  6  1 -1</clus>
<clus scale="   84.342">  2  4  1 -1</clus>
<clus scale="  133.231">  2  3  1 -1</clus>
<clus scale="  133.231">  1  3  2 -1</clus>
</clustering>
</event>
<event>
 6    0  0.7258365E+002  0.1103918E+03  0.7546771E-02  0.1259846E+00
         -4   -1    0    0    0  501 -0.00000000000E+00  0.00000000000E+00  0.45870738500E+03  0.45870738500E+03  0.00000000000E+00 0. -1.
         21   -1    0    0  505  502  0.00000000000E+00 -0.00000000000E+00 -0.17199546548E+03  0.17199546548E+03  0.00000000000E+00 0. -1.
         21    1    1    2  503  502  0.14406290684E+02  0.48549004512E+02 -0.71533359950E+02  0.87644558509E+02  0.00000000000E+00 0. -1.
         21    1    1    2  504  503 -0.31725540728E-01  0.62010255626E+02 -0.18322648451E+02  0.64660592756E+02  0.00000000000E+00 0. -1.
         21    1    1    2  505  501 -0.48920679018E+02 -0.71058055300E+02 -0.11290410464E+02  0.87005479293E+02  0.00000000000E+00 0.  1.
         -4    1    1    2    0  504  0.34546113875E+02 -0.39501204839E+02  0.38785833838E+03  0.39139221992E+03  0.00000000000E+00 0. -1.
<scales pt_clust_3="46.89442" pt_clust_4="46.89442" pt_clust_5="97.43495" pt_clust_6="52.47646"></scales>
<clustering>
<clus scale="   46.894">  3  4 -1 -1</clus>
<clus scale="   52.476">  1  6  2 -1</clus>
<clus scale="   97.435">  1  5  2 -1</clus>
<clus scale="  110.392">  2  3  1 -1</clus>
</clustering>
</event>
<event>
 6    0  0.7258365E+002  0.1080065E+03  0.7546771E-02  0.1264307E+00
         21   -1    0    0  503  502  0.00000000000E+00  0.00000000000E+00  0.10187461422E+03  0.10187461422E+03  0.00000000000E+00 0. -1.
          2   -1    0    0  504    0 -0.00000000000E+00 -0.00000000000E+00 -0.86306675572E+03  0.86306675572E+03  0.00000000000E+00 0. -1.
         21    1    1    2  503  501  0.56428775753E+02  0.13605277446E+02  0.42176610218E+02  0.71750796210E+02  0.00000000000E+00 0. -1.
         21    1    1    2  504  505  0.34722524528E+01 -0.15574827155E+03 -0.25404992049E+03  0.29801164864E+03  0.00000000000E+00 0. -1.
         21    1    1    2  505  502 -0.31165248823E+02  0.82858245535E+02 -0.74186211522E+02  0.11550045700E+03  0.00000000000E+00 0.  1.
          2    1    1    2  501    0 -0.28735779382E+02  0.59284748564E+02 -0.47513261971E+03  0.47967846808E+03  0.00000000000E+00 0. -1.
<scales pt_clust_3="58.04576" pt_clust_4="14000.00000" pt_clust_5="108.00653" pt_clust_6="65.31898"></scales>
<clustering>
<clus scale="   58.046">  1  3  2 -1</clus>
<clus scale="   65.319">  2  6  1 -1</clus>
<clus scale="  108.007">  1  5  2 -1</clus>
<clus scale="   58.046">  1  3  2 -1</clus>
</clustering>
</event>
<event>
 6    0  0.7258365E+002  0.1533457E+03  0.7546771E-02  0.1196421E+00
         21   -1    0    0  503  502  0.00000000000E+00  0.00000000000E+00  0.26312910243E+03  0.26312910243E+03  0.00000000000E+00 0.  1.
          2   -1    0    0  505    0 -0.00000000000E+00 -0.00000000000E+00 -0.10147994718E+04  0.10147994718E+04  0.00000000000E+00 0. -1.
         21    1    1    2  503  501 -0.43127773932E+02 -0.12084966737E+03 -0.42851548143E+03  0.44731439147E+03  0.00000000000E+00 0. -1.
         21    1    1    2  504  502 -0.20613077073E+02 -0.21853107662E+02  0.18582342537E+03  0.18823602917E+03  0.00000000000E+00 0.  1.
         21    1    1    2  505  504  0.43018997770E+02  0.17531441969E+03 -0.57792459977E+02  0.18954088833E+03  0.00000000000E+00 0.  1.
          2    1    1    2  501    0  0.20721853235E+02 -0.32611644657E+02 -0.45118585331E+03  0.45283726524E+03  0.00000000000E+00 0. -1.
<scales pt_clust_3="153.34566" pt_clust_4="30.04093" pt_clust_5="14000.00000" pt_clust_6="38.71972"></scales>
<clustering>
<clus scale="   30.041">  1  4  2 -1</clus>
<clus scale="   38.720">  2  6  1 -1</clus>
<clus scale="  153.346">  2  3  1 -1</clus>
<clus scale="   30.041">  1  3  2 -1</clus>
</clustering>
</event>
<event>
 6    0  0.7258365E+002  0.1037912E+03  0.7546771E-02  0.1272520E+00
          2   -1    0    0  505    0 -0.00000000000E+00  0.00000000000E+00  0.11552733595E+04  0.11552733595E+04  0.00000000000E+00 0.  1.
         21   -1    0    0  504  502  0.00000000000E+00 -0.00000000000E+00 -0.40533744432E+03  0.40533744432E+03  0.00000000000E+00 0. -1.
         21    1    1    2  503  502  0.59797326736E+02 -0.12310212429E+02 -0.35826845439E+03  0.36343300211E+03  0.00000000000E+00 0. -1.
         21    1    1    2  504  501  0.50211004941E+02  0.14733804457E+02 -0.17010300588E+02  0.55023452609E+02  0.00000000000E+00 0. -1.
         21    1    1    2  505  503 -0.61773218745E+02 -0.52132040530E+02  0.22147711436E+03  0.23576639368E+03  0.00000000000E+00 0.  1.
          2    1    1    2  501    0 -0.48235112932E+02  0.49708448502E+02  0.90373755578E+03  0.90638795540E+03  0.00000000000E+00 0.  1.
<scales pt_clust_3="103.79120" pt_clust_4="52.32810" pt_clust_5="14000.00000" pt_clust_6="69.17707"></scales>
<clustering>
<clus scale="   52.328">  2  4  1 -1</clus>
<clus scale="   69.177">  1  6  2 -1</clus>
<clus scale="  103.791">  2  3  1 -1</clus>
<clus scale="   52.328">  2  3  1 -1</clus>
</clustering>
</event>
<event>
 6    0  0.7258365E+002  0.7371030E+02  0.7546771E-02  0.1347912E+00
         21   -1    0    0  503  502  0.00000000000E+00  0.00000000000E+00  0.20049035607E+04  0.20049035607E+04  0.00000000000E+00 0. -1.
          2   -1    0    0  505    0 -0.00000000000E+00 -0.00000000000E+00 -0.16007368649E+04  0.16007368649E+04  0.00000000000E+00 0. -1.
         21    1    1    2  503  501  0.42261426165E+02 -0.38380800125E+00  0.70368911749E+03  0.70495712601E+03  0.00000000000E+00 0. -1.
         21    1    1    2  504  502 -0.10913353324E+03 -0.30534239760E+02  0.12959169455E+04  0.13008624821E+04  0.00000000000E+00 0. -1.
         21    1    1    2  505  504  0.72028927472E+02 -0.13692996399E+02 -0.10200641357E+04  0.10226957052E+04  0.00000000000E+00 0. -1.
          2    1    1    2  501    0 -0.51568203953E+01  0.44611044160E+02 -0.57537523150E+03  0.57712511216E+03  0.00000000000E+00 0. -1.
<scales pt_clust_3="42.26317" pt_clust_4="73.71030" pt_clust_5="14000.00000" pt_clust_6="44.90459"></scales>
<clustering>
<clus scale="   42.263">  1  3  2 -1</clus>
<clus scale="   44.905">  2  6  1 -1</clus>
<clus scale="   73.710">  1  4  2 -1</clus>
<clus scale="   42.263">  1  3  2 -1</clus>
</clustering>
</event>
<event>
 6    0  0.7258365E+002  0.7302823E+02  0.7546771E-02  0.1350088E+00
         21   -1    0    0  505  502  0.00000000000E+00  0.00000000000E+00  0.91219547809E+02  0.91219547809E+02  0.00000000000E+00 0. -1.
          2   -1    0    0  503    0 -0.00000000000E+00 -0.00000000000E+00 -0.27262990945E+04  0.27262990945E+04  0.00000000000E+00 0.  1.
         21    1    1    2  503  502  0.48399337754E+02  0.35646722645E+02  0.36458506202E+02  0.70302257466E+02  0.00000000000E+00 0. -1.
         21    1    1    2  504  501  0.28755543827E+02 -0.11276254514E+03 -0.70130759963E+03  0.71089705456E+03  0.00000000000E+00 0.  1.
         21    1    1    2  505  504 -0.83675499720E+02  0.24285970964E+02 -0.25392972891E+02  0.90753516248E+02  0.00000000000E+00 0.  1.
          2    1    1    2  501    0  0.65206181395E+01  0.52829851527E+02 -0.19448374804E+04  0.19455658140E+04  0.00000000000E+00 0.  1.
<scales pt_clust_3="60.90801" pt_clust_4="73.02823" pt_clust_5="14000.00000" pt_clust_6="53.23074"></scales>
<clustering>
<clus scale="   53.231">  2  6  1 -1</clus>
<clus scale="   60.908">  1  3  2 -1</clus>
<clus scale="   73.028">  2  4  1 -1</clus>
<clus scale="   60.908">  1  3  2 -1</clus>
</clustering>
</event>
<event>
 6    0  0.7258365E+002  0.1679405E+03  0.7546771E-02  0.1180013E+00
          2   -1    0    0  503    0 -0.00000000000E+00  0.00000000000E+00  0.16561950038E+04  0.16561950038E+04  0.00000000000E+00 0. -1.
         21   -1    0    0  505  502  0.00000000000E+00 -0.00000000000E+00 -0.70307419430E+02  0.70307419430E+02  0.00000000000E+00 0. -1.
         21    1    1    2  503  502 -0.41510603648E+02 -0.14800127184E+03  0.27680202236E+03  0.31661785525E+03  0.00000000000E+00 0. -1.
         21    1    1    2  504  501 -0.10522198305E+02  0.55580902417E+02  0.55541295956E+02  0.79276660671E+02  0.00000000000E+00 0. -1.
         21    1    1    2  505  504  0.22165873744E+02  0.10855356511E+03  0.41843525076E+02  0.11843176537E+03  0.00000000000E+00 0. -1.
          2    1    1    2  501    0  0.29866928210E+02 -0.16133195685E+02  0.12117007410E+04  0.12121761420E+04  0.00000000000E+00 0. -1.
<scales pt_clust_3="160.23384" pt_clust_4="35.19424" pt_clust_5="35.19424" pt_clust_6="33.94574"></scales>
<clustering>
<clus scale="   33.946">  1  6  2 -1</clus>
<clus scale="   35.194">  4  5 -1 -1</clus>
<clus scale="  160.234">  1  3  2 -1</clus>
<clus scale="  167.940">  2  3  1 -1</clus>
</clustering>
</event>
<event>
 6    0  0.7258365E+002  0.8953746E+02  0.7546771E-02  0.1303976E+00
         21   -1    0    0  505  502  0.00000000000E+00  0.00000000000E+00  0.16368234636E+04  0.16368234636E+04  0.00000000000E+00 0.  1.
         -1   -1    0    0    0  501 -0.00000000000E+00 -0.00000000000E+00 -0.12895240966E+03  0.12895240966E+03  0.00000000000E+00 0.  1.
         21    1    1    2  503  501 -0.55533894883E+02  0.21803202186E+02  0.42143759660E+02  0.73044435686E+02  0.00000000000E+00 0.  1.
         21    1    1    2  504  502 -0.46470456382E+01 -0.40856403325E+02  0.26913772175E+03  0.27226081979E+03  0.00000000000E+00 0.  1.
         21    1    1    2  505  503  0.10067838163E+03  0.57473938349E+02  0.12988246027E+04  0.13039880132E+04  0.00000000000E+00 0.  1.
         -1    1    1    2    0  504 -0.40497441110E+02 -0.38420737210E+02 -0.10223503012E+03  0.11648260458E+03  0.00000000000E+00 0.  1.
<scales pt_clust_3="14000.00000" pt_clust_4="41.11983" pt_clust_5="89.53746" pt_clust_6="55.98728"></scales>
<clustering>
<clus scale="   41.120">  1  4  2 -1</clus>
<clus scale="   55.987">  2  6  1 -1</clus>
<clus scale="   89.537">  1  5  2 -1</clus>
<clus scale="   41.120">  1  3  2 -1</clus>
</clustering>
</event>
<event>
 6    0  0.7258365E+002  0.2370875E+03  0.7546771E-02  0.1121748E+00
         21   -1    0    0  504  502  0.00000000000E+00  0.00000000000E+00  0.13420727089E+04  0.13420727089E+04  0.00000000000E+00 0. -1.
          1   -1    0    0  503    0 -0.00000000000E+00 -0.00000000000E+00 -0.42165020478E+03  0.42165020478E+03  0.00000000000E+00 0. -1.
         21    1    1    2  503  502 -0.19766611530E+03 -0.16183179576E+03  0.26705102667E+03  0.36956416777E+03  0.00000000000E+00 0.  1.
         21    1    1    2  504  505 -0.21024018826E+01  0.61263869419E+02  0.59165208781E+03  0.59481919505E+03  0.00000000000E+00 0. -1.
         21    1    1    2  505  501  0.24556319808E+03 -0.32434815658E+01  0.38503767108E+03  0.45669006183E+03  0.00000000000E+00 0. -1.
          1    1    1    2  501    0 -0.45794680898E+02  0.10381140790E+03 -0.32331828144E+03  0.34264948902E+03  0.00000000000E+00 0. -1.
<scales pt_clust_3="14000.00000" pt_clust_4="61.29993" pt_clust_5="237.08748" pt_clust_6="114.19831"></scales>
<clustering>
<clus scale="   61.300">  1  4  2 -1</clus>
<clus scale="  114.198">  2  6  1 -1</clus>
<clus scale="  237.087">  1  5  2 -1</clus>
<clus scale="   61.300">  1  3  2 -1</clus>
</clustering>
</event>
<event>
 6    0  0.7258365E+002  0.7901902E+02  0.7546771E-02  0.1331859E+00
         21   -1    0    0  504  502  0.00000000000E+00  0.00000000000E+00  0.18981746919E+03  0.18981746919E+03  0.00000000000E+00 0.  1.
          1   -1    0    0  505    0 -0.00000000000E+00 -0.00000000000E+00 -0.89553672063E+03  0.89553672063E+03  0.00000000000E+00 0. -1.
         21    1    1    2  503  502 -0.27315213762E+02 -0.32199737649E+02  0.13976704833E+03  0.14600606771E+03  0.00000000000E+00 0.  1.
         21    1    1    2  504  501  0.72659464925E+02  0.26986708991E+02 -0.19951532698E+03  0.21404215941E+03  0.00000000000E+00 0.  1.
         21    1    1    2  505  503 -0.54963438240E+02  0.66002899515E+02 -0.10122737134E+02  0.86486022539E+02  0.00000000000E+00 0.  1.
          1    1    1    2  501    0  0.96191870766E+01 -0.60789870857E+02 -0.63584823566E+03  0.63881994016E+03  0.00000000000E+00 0. -1.
<scales pt_clust_3="42.22492" pt_clust_4="79.01902" pt_clust_5="14000.00000" pt_clust_6="62.42621"></scales>
<clustering>
<clus scale="   42.225">  1  3  2 -1</clus>
<clus scale="   62.426">  2  6  1 -1</clus>
<clus scale="   79.019">  2  4  1 -1</clus>
<clus scale="   42.225">  1  3  2 -1</clus>
</clustering>
</event>
<event>
 6    0  0.7258365E+002  0.1530965E+03  0.7546771E-02  0.1196719E+00
         21   -1    0    0  504  502  0.00000000000E+00  0.00000000000E+00  0.24380165292E+03  0.24380165292E+03  0.00000000000E+00 0.  1.
         -3   -1    0    0    0  501 -0.00000000000E+00 -0.00000000000E+00 -0.13632243395E+04  0.13632243395E+04  0.00000000000E+00 0. -1.
         21    1    1    2  503  505 -0.35137727231E+02  0.14447974335E+03 -0.12544015365E+03  0.19453608473E+03  0.00000000000E+00 0.  1.
         21    1    1    2  504  503  0.64087191801E+02 -0.29940291935E+02  0.15046264147E+03  0.16626062586E+03  0.00000000000E+00 0.  1.
         21    1    1    2  505  501 -0.44133502949E+02 -0.16035023679E+03 -0.87019519262E+02  0.18770285361E+03  0.00000000000E+00 0.  1.
         -3    1    1    2    0  502  0.15184038379E+02  0.45810785378E+02 -0.10574256552E+04  0.10585264282E+04  0.00000000000E+00 0. -1.
<scales pt_clust_3="153.09648" pt_clust_4="70.60117" pt_clust_5="14000.00000" pt_clust_6="48.26161"></scales>
<clustering>
<clus scale="   48.262">  2  6  1 -1</clus>
<clus scale="   70.601">  1  4  2 -1</clus>
<clus scale="  153.096">  1  3  2 -1</clus>
<clus scale="   70.601">  1  3  2 -1</clus>
</clustering>
</event>
<event>
 6    0  0.7258365E+002  0.1149735E+03  0.7546771E-02  0.1251627E+00
          1   -1    0    0  503    0 -0.00000000000E+00  0.00000000000E+00  0.45585457421E+03  0.45585457421E+03  0.00000000000E+00 0.  1.
         21   -1    0    0  505  502  0.00000000000E+00 -0.00000000000E+00 -0.23539545154E+03  0.23539545154E+03  0.00000000000E+00 0. -1.
         21    1    1    2  503  504  0.23368991329E+02 -0.82756330389E+02  0.62641691129E+02  0.10638938595E+03  0.00000000000E+00 0. -1.
         21    1    1    2  504  502  0.39536207614E+02 -0.39669957676E+02 -0.17069907734E+03  0.17965242068E+03  0.00000000000E+00 0. -1.
         21    1    1    2  505  501 -0.39523975177E+02  0.14945613182E+03  0.12564667113E+03  0.19921437177E+03  0.00000000000E+00 0. -1.
          1    1    1    2  501    0 -0.23381223766E+02 -0.27029843759E+02  0.20286983775E+03  0.20599384735E+03  0.00000000000E+00 0.  1.
<scales pt_clust_3="14000.00000" pt_clust_4="56.05790" pt_clust_5="114.97353" pt_clust_6="35.73925"></scales>
<clustering>
<clus scale="   35.739">  1  6  2 -1</clus>
<clus scale="   56.058">  2  4  1 -1</clus>
<clus scale="  114.974">  2  5  1 -1</clus>
<clus scale="   56.058">  2  3  1 -1</clus>
</clustering>
</event>
<event>
 6    0  0.7258365E+002  0.1039206E+03  0.7546771E-02  0.1272261E+00
          2   -1    0    0  504    0 -0.00000000000E+00  0.00000000000E+00  0.20521937418E+04  0.20521937418E+04  0.00000000000E+00 0.  1.
         21   -1    0    0  505  502  0.00000000000E+00 -0.00000000000E+00 -0.79711730596E+02  0.79711730596E+02  0.00000000000E+00 0.  1.
         21    1    1    2  503  502 -0.47357059419E+01  0.44787872405E+02  0.19274998236E+02  0.48988835282E+02  0.00000000000E+00 0.  1.
         21    1    1    2  504  503  0.20753837119E+02  0.37151266481E+02  0.57122252753E+02  0.71231243958E+02  0.00000000000E+00 0.  1.
         21    1    1    2  505  501 -0.10105220645E+03 -0.56658923983E+02  0.23524002557E+01  0.11587629560E+03  0.00000000000E+00 0.  1.
          2    1    1    2  501    0  0.85034075271E+02 -0.25280214902E+02  0.18937323599E+04  0.18958090975E+04  0.00000000000E+00 0.  1.
<scales pt_clust_3="39.43366" pt_clust_4="39.43366" pt_clust_5="95.67534" pt_clust_6="88.71236"></scales>
<clustering>
<clus scale="   39.434">  3  4 -1 -1</clus>
<clus scale="   88.712">  1  6  2 -1</clus>
<clus scale="   95.675">  2  5  1 -1</clus>
<clus scale="   95.675">  2  3  1 -1</clus>
</clustering>
</event>
<event>
 6    0  0.7258365E+002  0.1160053E+03  0.7546771E-02  0.1249836E+00
         21   -1    0    0  503  502  0.00000000000E+00  0.00000000000E+00  0.35581496596E+02  0.35581496596E+02  0.00000000000E+00 0. -1.
          2   -1    0    0  504    0 -0.00000000000E+00 -0.00000000000E+00 -0.18618625914E+04  0.18618625914E+04  0.00000000000E+00 0. -1.
         21    1    1    2  503  501 -0.12662407344E+02 -0.44584303520E+02 -0.14740667737E+03  0.15452127754E+03  0.00000000000E+00 0. -1.
         21    1    1    2  504  505 -0.66201344236E+02 -0.65965764585E+02 -0.79979031111E+02  0.12300709530E+03  0.00000000000E+00 0. -1.
         21    1    1    2  505  502 -0.80105177917E+01  0.30202488747E+02 -0.21133447073E+02  0.37722424458E+02  0.00000000000E+00 0. -1.
          2    1    1    2  501    0  0.86874269372E+02  0.80347579358E+02 -0.15777619393E+04  0.15821932907E+04  0.00000000000E+00 0. -1.
<scales pt_clust_3="42.89576" pt_clust_4="116.00531" pt_clust_5="31.24674" pt_clust_6="14000.00000"></scales>
<clustering>
<clus scale="   31.247">  1  5  2 -1</clus>
<clus scale="   42.896">  1  3  2 -1</clus>
<clus scale="  116.005">  1  4  2 -1</clus>
<clus scale="   31.247">  1  3  2 -1</clus>
</clustering>
</event>
<event>
 6    0  0.7258365E+002  0.2054815E+03  0.7546771E-02  0.1145195E+00
          1   -1    0    0  504    0 -0.00000000000E+00  0.00000000000E+00  0.24963884150E+04  0.24963884150E+04  0.00000000000E+00 0.  1.
         21   -1    0    0  503  502  0.00000000000E+00 -0.00000000000E+00 -0.26567408418E+03  0.26567408418E+03  0.00000000000E+00 0.  1.
         21    1    1    2  503  501 -0.46795508481E+02  0.19582185383E+02  0.15596605296E+03  0.16400820490E+03  0.00000000000E+00 0. -1.
         21    1    1    2  504  505 -0.79263182043E+02 -0.21245361650E+03  0.56096475338E+03  0.60506251390E+03  0.00000000000E+00 0.  1.
         21    1    1    2  505  502  0.12601162027E+03  0.16121335363E+03 -0.19574557873E+03  0.28316957009E+03  0.00000000000E+00 0.  1.
          1    1    1    2  501    0  0.47070251830E-01  0.31658077482E+02  0.17095291032E+04  0.17098222103E+04  0.00000000000E+00 0.  1.
<scales pt_clust_3="53.53481" pt_clust_4="205.48149" pt_clust_5="14000.00000" pt_clust_6="31.65811"></scales>
<clustering>
<clus scale="   31.658">  1  6  2 -1</clus>
<clus scale="   53.535">  1  3  2 -1</clus>
<clus scale="  205.481">  1  4  2 -1</clus>
<clus scale="  205.481">  2  3  1 -1</clus>
</clustering>
</event>
<event>
 6    0  0.7258365E+002  0.1553072E+03  0.7546771E-02  0.1194099E+00
         21   -1    0    0  503  502  0.00000000000E+00  0.00000000000E+00  0.14847789241E+03  0.14847789241E+03  0.00000000000E+00 0.  1.
          2   -1    0    0  505    0 -0.00000000000E+00 -0.00000000000E+00 -0.10867388055E+04  0.10867388055E+04  0.00000000000E+00 0.  1.
         21    1    1    2  503  501  0.83863460993E+02  0.18066407827E+03 -0.46665204556E+02  0.20457328902E+03  0.00000000000E+00 0.  1.
         21    1    1    2  504  502 -0.53517695688E+02 -0.15975238813E+02  0.28929738731E+02  0.62898980834E+02  0.00000000000E+00 0.  1.
         21    1    1    2  505  504 -0.67665015460E+02 -0.99475415130E+02 -0.14422271307E+03  0.18781401305E+03  0.00000000000E+00 0.  1.
          2    1    1    2  501    0  0.37319250156E+02 -0.65213424323E+02 -0.77630273423E+03  0.77993041505E+03  0.00000000000E+00 0.  1.
<scales pt_clust_3="155.30717" pt_clust_4="55.85116" pt_clust_5="14000.00000" pt_clust_6="74.91795"></scales>
<clustering>
<clus scale="   55.851">  1  4  2 -1</clus>
<clus scale="   74.918">  2  6  1 -1</clus>
<clus scale="  155.307">  1  3  2 -1</clus>
<clus scale="   55.851">  1  3  2 -1</clus>
</clustering>
</event>
<event>
 6    0  0.7258365E+002  0.8064697E+02  0.7546771E-02  0.1327225E+00
         21   -1    0    0  503  502  0.00000000000E+00  0.00000000000E+00  0.24188983727E+03  0.24188983727E+03  0.00000000000E+00 0. -1.
          1   -1    0    0  505    0 -0.00000000000E+00 -0.00000000000E+00 -0.58148808033E+03  0.58148808033E+03  0.00000000000E+00 0. -1.
         21    1    1    2  503  501  0.86681543486E+02  0.14396505141E+03  0.51417925890E+02  0.17573681775E+03  0.00000000000E+00 0. -1.
         21    1    1    2  504  502  0.96585382205E+01 -0.43589818742E+02  0.56743038262E+02  0.72202022477E+02  0.00000000000E+00 0. -1.
         21    1    1    2  505  504 -0.46083008019E+02 -0.40306171028E+02  0.45324244437E+02  0.76174261958E+02  0.00000000000E+00 0. -1.
          1    1    1    2  501    0 -0.50257073687E+02 -0.60069061641E+02 -0.49308345165E+03  0.49926481542E+03  0.00000000000E+00 0. -1.
<scales pt_clust_3="14000.00000" pt_clust_4="44.64706" pt_clust_5="69.85925" pt_clust_6="80.64697"></scales>
<clustering>
<clus scale="   44.647">  1  4  2 -1</clus>
<clus scale="   69.859">  1  5  2 -1</clus>
<clus scale="   80.647">  2  6  1 -1</clus>
<clus scale="   44.647">  1  3  2 -1</clus>
</clustering>
</event>
<event>
 6    0  0.7258365E+002  0.1206392E+03  0.7546771E-02  0.1242046E+00
         21   -1    0    0  504  502  0.00000000000E+00  0.00000000000E+00  0.21968630626E+03  0.21968630626E+03  0.00000000000E+00 0.  1.
          1   -1    0    0  505    0 -0.00000000000E+00 -0.00000000000E+00 -0.13918826019E+04  0.13918826019E+04  0.00000000000E+00 0.  1.
         21    1    1    2  503  502 -0.63677777457E+02 -0.68554982356E+02  0.15964349726E+03  0.18504240370E+03  0.00000000000E+00 0.  1.
         21    1    1    2  504  501  0.88682611162E+00 -0.43234768048E+02  0.25321253655E+02  0.50111850049E+02  0.00000000000E+00 0. -1.
         21    1    1    2  505  503 -0.17643983451E+02  0.97204963352E+02 -0.29480584225E+03  0.31091895999E+03  0.00000000000E+00 0.  1.
          1    1    1    2  501    0  0.80434934796E+02  0.14584787052E+02 -0.10623552043E+04  0.10654956944E+04  0.00000000000E+00 0.  1.
<scales pt_clust_3="14000.00000" pt_clust_4="43.24386" pt_clust_5="120.63925" pt_clust_6="81.68833"></scales>
<clustering>
<clus scale="   43.244">  1  4  2 -1</clus>
<clus scale="   81.688">  2  6  1 -1</clus>
<clus scale="  120.639">  2  5  1 -1</clus>
<clus scale="   43.244">  1  3  2 -1</clus>
</clustering>
</event>
<event>
 6    0  0.7258365E+002  0.9124566E+02  0.7546771E-02  0.1299863E+00
          2   -1    0    0  504    0 -0.00000000000E+00  0.00000000000E+00  0.39699950252E+04  0.39699950252E+04  0.00000000000E+00 0. -1.
         21   -1    0    0  503  502  0.00000000000E+00 -0.00000000000E+00 -0.81540544286E+03  0.81540544286E+03  0.00000000000E+00 0. -1.
         21    1    1    2  503  505  0.32588513421E+02 -0.45514930455E+00 -0.63962123739E+03  0.64045104862E+03  0.00000000000E+00 0. -1.
         21    1    1    2  504  502 -0.77446363903E+02 -0.10241547804E+03 -0.10480356089E+03  0.16574273980E+03  0.00000000000E+00 0.  1.
         21    1    1    2  505  501  0.51732339117E+02  0.36058124154E+02 -0.14835513638E+02  0.64780519394E+02  0.00000000000E+00 0. -1.
          2    1    1    2  501    0 -0.68744886347E+01  0.66812503185E+02  0.39138498943E+04  0.39144261603E+04  0.00000000000E+00 0. -1.
<scales pt_clust_3="32.59169" pt_clust_4="14000.00000" pt_clust_5="91.24566" pt_clust_6="67.15903"></scales>
<clustering>
<clus scale="   32.592">  2  3  1 -1</clus>
<clus scale="   67.159">  1  6  2 -1</clus>
<clus scale="   91.246">  1  5  2 -1</clus>
<clus scale="   32.592">  2  3  1 -1</clus>
</clustering>
</event>
<event>
 6    0  0.7258365E+002  0.1160910E+03  0.7546771E-02  0.1249689E+00
         21   -1    0    0  503  502  0.00000000000E+00  0.00000000000E+00  0.27602088229E+03  0.27602088229E+03  0.00000000000E+00 0.  1.
          1   -1    0    0  504    0 -0.00000000000E+00 -0.00000000000E+00 -0.30872836397E+04  0.30872836397E+04  0.00000000000E+00 0. -1.
         21    1    1    2  503  505 -0.73616866117E+02  0.19520111260E+02 -0.21789057390E+02  0.79216417126E+02  0.00000000000E+00 0. -1.
         21    1    1    2  504  502 -0.21101524551E+02 -0.86203829377E+02  0.23114263380E+03  0.24759501550E+03  0.00000000000E+00 0.  1.
         21    1    1    2  505  501  0.76775254546E+02  0.12315012550E+03 -0.68868638153E+03  0.70381057481E+03  0.00000000000E+00 0.  1.
          1    1    1    2  501    0  0.17943136121E+02 -0.56466407379E+02 -0.23319299523E+04  0.23326825145E+04  0.00000000000E+00 0. -1.
<scales pt_clust_3="74.10804" pt_clust_4="116.09105" pt_clust_5="14000.00000" pt_clust_6="59.24872"></scales>
<clustering>
<clus scale="   59.249">  2  6  1 -1</clus>
<clus scale="   74.108">  1  3  2 -1</clus>
<clus scale="  116.091">  1  4  2 -1</clus>
<clus scale="   74.108">  1  3  2 -1</clus>
</clustering>
</event>
<event>
 6    0  0.7258365E+002  0.1008193E+03  0.7546771E-02  0.1278582E+00
         21   -1    0    0  505  502  0.00000000000E+00  0.00000000000E+00  0.10300552768E+04  0.10300552768E+04  0.00000000000E+00 0. -1.
          2   -1    0    0  502    0 -0.00000000000E+00 -0.00000000000E+00 -0.30195080393E+03  0.30195080393E+03  0.00000000000E+00 0. -1.
         21    1    1    2  503  504 -0.58929987115E+02 -0.51274969746E+02  0.56276308161E+03  0.56815856231E+03  0.00000000000E+00 0. -1.
         21    1    1    2  504  501  0.16211416945E+01  0.80948842790E+02  0.14331825466E+01  0.80977757821E+02  0.00000000000E+00 0. -1.
         21    1    1    2  505  503  0.33003150058E+02 -0.55566193251E+02  0.41968872901E+03  0.42463565442E+03  0.00000000000E+00 0. -1.
          2    1    1    2  501    0  0.24305695362E+02  0.25892320207E+02 -0.25578052026E+03  0.25823410622E+03  0.00000000000E+00 0. -1.
<scales pt_clust_3="14000.00000" pt_clust_4="100.81933" pt_clust_5="64.11367" pt_clust_6="35.51308"></scales>
<clustering>
<clus scale="   35.513">  2  6  1 -1</clus>
<clus scale="   64.114">  1  5  2 -1</clus>
<clus scale="  100.819">  2  4  1 -1</clus>
<clus scale="   64.114">  1  3  2 -1</clus>
</clustering>
</event>
<event>
 6    0  0.7258365E+002  0.2376235E+03  0.7546771E-02  0.1121386E+00
         21   -1    0    0  503  502  0.00000000000E+00  0.00000000000E+00  0.46498551118E+03  0.46498551118E+03  0.00000000000E+00 0.  1.
         -1   -1    0    0    0  501 -0.00000000000E+00 -0.00000000000E+00 -0.71100054758E+03  0.71100054758E+03  0.00000000000E+00 0. -1.
         21    1    1    2  503  501  0.94839567785E+02 -0.10296075655E+03 -0.17115548072E+03  0.22111006215E+03  0.00000000000E+00 0.  1.
         21    1    1    2  504  505 -0.55227562016E+02  0.24918703638E+03  0.31180124678E+03  0.40294451255E+03  0.00000000000E+00 0.  1.
         21    1    1    2  505  502  0.46642385126E+02 -0.13827840144E+01  0.59133240827E+02  0.75327049275E+02  0.00000000000E+00 0.  1.
         -1    1    1    2    0  504 -0.86254390894E+02 -0.14484349582E+03 -0.44579404328E+03  0.47660443478E+03  0.00000000000E+00 0. -1.
<scales pt_clust_3="142.04748" pt_clust_4="237.62347" pt_clust_5="46.66288" pt_clust_6="14000.00000"></scales>
<clustering>
<clus scale="   46.663">  1  5  2 -1</clus>
<clus scale="  142.047">  2  3  1 -1</clus>
<clus scale="  237.623">  1  4  2 -1</clus>
<clus scale="   46.663">  1  3  2 -1</clus>
</clustering>
</event>
<event>
 6    0  0.7258365E+002  0.1213405E+03  0.7546771E-02  0.1240902E+00
         21   -1    0    0  505  502  0.00000000000E+00  0.00000000000E+00  0.46026858521E+03  0.46026858521E+03  0.00000000000E+00 0.  1.
          2   -1    0    0  504    0 -0.00000000000E+00 -0.00000000000E+00 -0.63352715103E+03  0.63352715103E+03  0.00000000000E+00 0.  1.
         21    1    1    2  503  501  0.32945873430E+02 -0.11667908789E+03 -0.12742333649E+03  0.17588674427E+03  0.00000000000E+00 0.  1.
         21    1    1    2  504  502 -0.13392627515E+02  0.63515973195E+02 -0.41019158406E+02  0.76786800161E+02  0.00000000000E+00 0.  1.
         21    1    1    2  505  503 -0.43149396186E+02  0.11344327444E+03  0.40676230303E+03  0.42448417882E+03  0.00000000000E+00 0.  1.
          2    1    1    2  501    0  0.23596150271E+02 -0.60280159743E+02 -0.41157837395E+03  0.41663801299E+03  0.00000000000E+00 0.  1.
<scales pt_clust_3="14000.00000" pt_clust_4="47.85713" pt_clust_5="121.34049" pt_clust_6="64.73389"></scales>
<clustering>
<clus scale="   64.734">  2  6  1 -1</clus>
<clus scale="   47.857">  2  4  1 -1</clus>
<clus scale="  121.340">  1  5  2 -1</clus>
<clus scale="  121.340">  1  3  2 -1</clus>
</clustering>
</event>
<event>
 6    0  0.7258365E+002  0.1213127E+03  0.7546771E-02  0.1240947E+00
         21   -1    0    0  503  502  0.00000000000E+00  0.00000000000E+00  0.23975164715E+03  0.23975164715E+03  0.00000000000E+00 0. -1.
          2   -1    0    0  505    0 -0.00000000000E+00 -0.00000000000E+00 -0.16855721903E+04  0.16855721903E+04  0.00000000000E+00 0.  1.
         21    1    1    2  503  501  0.37995879416E+02 -0.82173533497E+02  0.16284190079E+03  0.18631602484E+03  0.00000000000E+00 0. -1.
         21    1    1    2  504  502 -0.27679683380E+02 -0.41353723081E+02  0.48609313703E+02  0.69564075954E+02  0.00000000000E+00 0. -1.
         21    1    1    2  505  504  0.44757650093E+02  0.59666626013E+02 -0.28549869399E+03  0.29508110371E+03  0.00000000000E+00 0.  1.
          2    1    1    2  501    0 -0.55073846129E+02  0.63860630564E+02 -0.13717730637E+04  0.13743626330E+04  0.00000000000E+00 0.  1.
<scales pt_clust_3="121.31275" pt_clust_4="49.76239" pt_clust_5="73.27014" pt_clust_6="14000.00000"></scales>
<clustering>
<clus scale="   49.762">  1  4  2 -1</clus>
<clus scale="   73.270">  2  5  1 -1</clus>
<clus scale="  121.313">  1  3  2 -1</clus>
<clus scale="   49.762">  1  3  2 -1</clus>
</clustering>
</event>
<event>
 6    0  0.7258365E+002  0.8720712E+02  0.7546771E-02  0.1309760E+00
         21   -1    0    0  505  502  0.00000000000E+00  0.00000000000E+00  0.17756623539E+03  0.17756623539E+03  0.00000000000E+00 0.  1.
          1   -1    0    0  504    0 -0.00000000000E+00 -0.00000000000E+00 -0.16543564738E+04  0.16543564738E+04  0.00000000000E+00 0. -1.
         21    1    1    2  503  501 -0.78746227249E+02 -0.29252057298E+02 -0.42998292710E+03  0.43811182221E+03  0.00000000000E+00 0. -1.
         21    1    1    2  504  502  0.97247410706E+02  0.41077701515E+01 -0.44892222225E+03  0.45935290823E+03  0.00000000000E+00 0. -1.
         21    1    1    2  505  503  0.13460514877E+02  0.36874257939E+02  0.16561281396E+03  0.17020135283E+03  0.00000000000E+00 0.  1.
          1    1    1    2  501    0 -0.31961698334E+02 -0.11729970792E+02 -0.76349790305E+03  0.76425662597E+03  0.00000000000E+00 0. -1.
<scales pt_clust_3="14000.00000" pt_clust_4="87.20712" pt_clust_5="39.19768" pt_clust_6="34.04618"></scales>
<clustering>
<clus scale="   34.046">  2  6  1 -1</clus>
<clus scale="   39.198">  1  5  2 -1</clus>
<clus scale="   87.207">  2  4  1 -1</clus>
<clus scale="   39.198">  1  3  2 -1</clus>
</clustering>
</event>
<event>
 6    0  0.7258365E+002  0.2587964E+03  0.7546771E-02  0.1107869E+00
         21   -1    0    0  505  502  0.00000000000E+00  0.00000000000E+00  0.23414957128E+03  0.23414957128E+03  0.00000000000E+00 0. -1.
          2   -1    0    0  504    0 -0.00000000000E+00 -0.00000000000E+00 -0.48195156261E+03  0.48195156261E+03  0.00000000000E+00 0. -1.
         21    1    1    2  503  501 -0.50159471959E+02 -0.17688076255E+03 -0.13794772797E+03  0.22985289305E+03  0.00000000000E+00 0. -1.
         21    1    1    2  504  502  0.24990013201E+02  0.20937440559E+03 -0.27787188164E+02  0.21268349795E+03  0.00000000000E+00 0. -1.
         21    1    1    2  505  503  0.49335485719E+02  0.37603730809E+02  0.76516988751E+02  0.98503199387E+02  0.00000000000E+00 0. -1.
          2    1    1    2  501    0 -0.24166026961E+02 -0.70097373841E+02 -0.15858406395E+03  0.17506154351E+03  0.00000000000E+00 0. -1.
<scales pt_clust_3="61.90364" pt_clust_4="239.73620" pt_clust_5="62.03250" pt_clust_6="61.90364"></scales>
<clustering>
<clus scale="   61.904">  3  6 -1 -1</clus>
<clus scale="   62.032">  1  5  2 -1</clus>
<clus scale="  239.736">  1  4  2 -1</clus>
<clus scale="   62.032">  1  3  2 -1</clus>
</clustering>
</event>
<event>
 6    0  0.7258365E+002  0.8586081E+02  0.7546771E-02  0.1313197E+00
         -1   -1    0    0    0  501 -0.00000000000E+00  0.00000000000E+00  0.27171884318E+03  0.27171884318E+03  0.00000000000E+00 0. -1.
         21   -1    0    0  503  502  0.00000000000E+00 -0.00000000000E+00 -0.92203579249E+03  0.92203579249E+03  0.00000000000E+00 0. -1.
         21    1    1    2  503  505 -0.79385819603E+02 -0.29159152547E+02 -0.83104632021E+03  0.83533846485E+03  0.00000000000E+00 0. -1.
         21    1    1    2  504  501 -0.33326812020E+02 -0.36031126871E+02  0.61109045555E+01  0.49459697305E+02  0.00000000000E+00 0. -1.
         21    1    1    2  505  504  0.12270959953E+03  0.19412607578E+02 -0.39943497097E+01  0.12429983901E+03  0.00000000000E+00 0.  1.
         -1    1    1    2    0  502 -0.99969679026E+01  0.45777671840E+02  0.17861281605E+03  0.18465663450E+03  0.00000000000E+00 0. -1.
<scales pt_clust_3="14000.00000" pt_clust_4="42.49499" pt_clust_5="85.86081" pt_clust_6="46.85653"></scales>
<clustering>
<clus scale="   46.857">  1  6  2 -1</clus>
<clus scale="   42.495">  1  4  2 -1</clus>
<clus scale="   85.861">  1  5  2 -1</clus>
<clus scale="   85.861">  2  3  1 -1</clus>
</clustering>
</event>
<event>
 6    0  0.7258365E+002  0.1668686E+03  0.7546771E-02  0.1181153E+00
          2   -1    0    0  503    0 -0.00000000000E+00  0.00000000000E+00  0.91889001387E+03  0.91889001387E+03  0.00000000000E+00 0.  1.
         21   -1    0    0  504  502  0.00000000000E+00 -0.00000000000E+00 -0.56335882475E+03  0.56335882475E+03  0.00000000000E+00 0.  1.
         21    1    1    2  503  505  0.16550310306E+02  0.18737346944E+03  0.63911046497E+03  0.66621686879E+03  0.00000000000E+00 0.  1.
         21    1    1    2  504  501  0.26807671751E+02 -0.52030129956E+02 -0.16160001081E+03  0.17187306124E+03  0.00000000000E+00 0. -1.
         21    1    1    2  505  502 -0.86100394180E+02  0.96303490680E+00 -0.35803566204E+03  0.36824413180E+03  0.00000000000E+00 0.  1.
          2    1    1    2  501    0  0.42742412122E+02 -0.13630637439E+03  0.23605639699E+03  0.27591477680E+03  0.00000000000E+00 0.  1.
<scales pt_clust_3="166.86864" pt_clust_4="58.53021" pt_clust_5="77.25057" pt_clust_6="14000.00000"></scales>
<clustering>
<clus scale="   58.530">  2  4  1 -1</clus>
<clus scale="   77.251">  2  5  1 -1</clus>
<clus scale="  166.869">  1  3  2 -1</clus>
<clus scale="   58.530">  2  3  1 -1</clus>
</clustering>
</event>
<event>
 6    0  0.7258365E+002  0.1560703E+03  0.7546771E-02  0.1193206E+00
         21   -1    0    0  501  502  0.00000000000E+00  0.00000000000E+00  0.50717832628E+03  0.50717832628E+03  0.00000000000E+00 0. -1.
          2   -1    0    0  503    0 -0.00000000000E+00 -0.00000000000E+00 -0.23231598592E+03  0.23231598592E+03  0.00000000000E+00 0. -1.
         21    1    1    2  503  504  0.40625334738E+02 -0.12158910386E+03 -0.97993291726E+02  0.16135988728E+03  0.00000000000E+00 0. -1.
         21    1    1    2  504  505 -0.16341993121E+03  0.43840749888E+02  0.98866399287E+02  0.19596594137E+03  0.00000000000E+00 0.  1.
         21    1    1    2  505  502  0.14712846241E+03  0.13401932213E+03  0.24098935417E+03  0.31254412806E+03  0.00000000000E+00 0. -1.
          2    1    1    2  501    0 -0.24333865939E+02 -0.56270968154E+02  0.32999878628E+02  0.69624355494E+02  0.00000000000E+00 0. -1.
<scales pt_clust_3="131.40060" pt_clust_4="14000.00000" pt_clust_5="156.07032" pt_clust_6="61.30709"></scales>
<clustering>
<clus scale="   61.307">  1  6  2 -1</clus>
<clus scale="  131.401">  2  3  1 -1</clus>
<clus scale="  156.070">  1  5  2 -1</clus>
<clus scale="   61.307">  1  3  2 -1</clus>
</clustering>
</event>
<event>
 6    0  0.7258365E+002  0.1152971E+03  0.7546771E-02  0.1251063E+00
         21   -1    0    0  504  502  0.00000000000E+00  0.00000000000E+00  0.22517468431E+03  0.22517468431E+03  0.00000000000E+00 0.  1.
          2   -1    0    0  505    0 -0.00000000000E+00 -0.00000000000E+00 -0.21607915055E+04  0.21607915055E+04  0.00000000000E+00 0. -1.
         21    1    1    2  503  502  0.33347435049E+02 -0.30242800230E+02 -0.17400590575E+02  0.48264468737E+02  0.00000000000E+00 0.  1.
         21    1    1    2  504  501 -0.37402119479E+02 -0.86399123808E+02  0.19632077581E+03  0.21772821165E+03  0.00000000000E+00 0.  1.
         21    1    1    2  505  503 -0.31178944208E+02  0.38308562295E+02 -0.36468171316E+03  0.36801144605E+03  0.00000000000E+00 0. -1.
          2    1    1    2  501    0  0.35233628639E+02  0.78333361744E+02 -0.17498552933E+04  0.17519620634E+04  0.00000000000E+00 0. -1.
<scales pt_clust_3="45.01864" pt_clust_4="14000.00000" pt_clust_5="49.03980" pt_clust_6="115.29706"></scales>
<clustering>
<clus scale="   45.019">  1  3  2 -1</clus>
<clus scale="   49.040">  2  5  1 -1</clus>
<clus scale="  115.297">  2  6  1 -1</clus>
<clus scale="   45.019">  1  3  2 -1</clus>
</clustering>
</event>
<event>
 6    0  0.7258365E+002  0.1470229E+03  0.7546771E-02  0.1204180E+00
          2   -1    0    0  505    0 -0.00000000000E+00  0.00000000000E+00  0.78549146158E+03  0.78549146158E+03  0.00000000000E+00 0. -1.
         21   -1    0    0  503  502  0.00000000000E+00 -0.00000000000E+00 -0.18800856100E+03  0.18800856100E+03  0.00000000000E+00 0. -1.
         21    1    1    2  503  501 -0.76912310425E+02  0.15373139094E+03 -0.10688011865E+03  0.20241591789E+03  0.00000000000E+00 0. -1.
         21    1    1    2  504  502  0.71031872392E+02 -0.21456421132E+01  0.44431819501E+02  0.83811200085E+02  0.00000000000E+00 0. -1.
         21    1    1    2  505  504  0.51453366899E+01 -0.37029085527E+02  0.32706818262E+02  0.49672564112E+02  0.00000000000E+00 0. -1.
          2    1    1    2  501    0  0.73510134378E+00 -0.11455666330E+03  0.62722438147E+03  0.63760034048E+03  0.00000000000E+00 0. -1.
<scales pt_clust_3="147.02294" pt_clust_4="71.67402" pt_clust_5="37.38486" pt_clust_6="14000.00000"></scales>
<clustering>
<clus scale="   37.385">  1  5  2 -1</clus>
<clus scale="   71.674">  2  4  1 -1</clus>
<clus scale="  147.023">  2  3  1 -1</clus>
<clus scale="   71.674">  2  3  1 -1</clus>
</clustering>
</event>
<event>
 6    0  0.7258365E+002  0.7792246E+02  0.7546771E-02  0.1335053E+00
          2   -1    0    0  503    0 -0.00000000000E+00  0.00000000000E+00  0.94680318545E+03  0.94680318545E+03  0.00000000000E+00 0. -1.
         21   -1    0    0  501  502  0.00000000000E+00 -0.00000000000E+00 -0.51480702942E+03  0.51480702942E+03  0.00000000000E+00 0.  1.
         21    1    1    2  503  505  0.38876868028E+02 -0.60819535084E+01  0.33509319241E+02  0.51684383543E+02  0.00000000000E+00 0. -1.
         21    1    1    2  504  502  0.23733940272E+02 -0.36653690398E+02 -0.79841979146E+02  0.91002937176E+02  0.00000000000E+00 0.  1.
         21    1    1    2  505  504 -0.69517971097E+02  0.98852986293E+02 -0.41069325379E+03  0.42810467168E+03  0.00000000000E+00 0.  1.
          2    1    1    2  501    0  0.69071627964E+01 -0.56117342386E+02  0.88902206973E+03  0.89081822247E+03  0.00000000000E+00 0. -1.
<scales pt_clust_3="39.34973" pt_clust_4="43.82913" pt_clust_5="14000.00000" pt_clust_6="77.92246"></scales>
<clustering>
<clus scale="   39.350">  1  3  2 -1</clus>
<clus scale="   43.829">  2  4  1 -1</clus>
<clus scale="   77.922">  1  6  2 -1</clus>
<clus scale="   43.829">  2  3  1 -1</clus>
</clustering>
</event>
<event>
 6    0  0.7258365E+002  0.1726444E+03  0.7546771E-02  0.1175118E+00
          2   -1    0    0  504    0 -0.00000000000E+00  0.00000000000E+00  0.31165459489E+03  0.31165459489E+03  0.00000000000E+00 0.  1.
         21   -1    0    0  501  502  0.00000000000E+00 -0.00000000000E+00 -0.94229024899E+03  0.94229024899E+03  0.00000000000E+00 0.  1.
         21    1    1    2  503  505 -0.57899236229E+02  0.94698573601E+02 -0.30303901676E+03  0.32272710930E+03  0.00000000000E+00 0.  1.
         21    1    1    2  504  503 -0.15050739916E+03 -0.90663564891E+02  0.22643599480E+03  0.28661057018E+03  0.00000000000E+00 0.  1.
         21    1    1    2  505  502  0.12957158767E+02  0.44617741060E+02 -0.36641013382E+03  0.36934403603E+03  0.00000000000E+00 0.  1.
          2    1    1    2  501    0  0.19544947662E+03 -0.48652749770E+02 -0.18762249831E+03  0.27526312838E+03  0.00000000000E+00 0.  1.
<scales pt_clust_3="129.40750" pt_clust_4="172.64442" pt_clust_5="46.46107" pt_clust_6="14000.00000"></scales>
<clustering>
<clus scale="   46.461">  2  5  1 -1</clus>
<clus scale="  129.407">  2  3  1 -1</clus>
<clus scale="  172.644">  1  4  2 -1</clus>
<clus scale="   46.461">  2  3  1 -1</clus>
</clustering>
</event>
<event>
 6    0  0.7258365E+002  0.1065870E+03  0.7546771E-02  0.1267024E+00
         21   -1    0    0  503  502  0.00000000000E+00  0.00000000000E+00  0.95647349521E+03  0.95647349521E+03  0.00000000000E+00 0. -1.
         -3   -1    0    0    0  501 -0.00000000000E+00 -0.00000000000E+00 -0.34511293690E+03  0.34511293690E+03  0.00000000000E+00 0. -1.
         21    1    1    2  503  505  0.41691295895E+01  0.50322423378E+02  0.35744663763E+03  0.36099560480E+03  0.00000000000E+00 0. -1.
         21    1    1    2  504  501  0.48476843382E+02 -0.18952806640E+02 -0.29202022144E+03  0.29662269460E+03  0.00000000000E+00 0. -1.
         21    1    1    2  505  504  0.71045114036E+02  0.29680490644E+02  0.48853477484E+03  0.49456502705E+03  0.00000000000E+00 0. -1.
         -3    1    1    2    0  502 -0.12369108701E+03 -0.61050107381E+02  0.57399367293E+02  0.14940310566E+03  0.00000000000E+00 0. -1.
<scales pt_clust_3="50.49483" pt_clust_4="51.99480" pt_clust_5="14000.00000" pt_clust_6="106.58699"></scales>
<clustering>
<clus scale="   50.495">  1  3  2 -1</clus>
<clus scale="   51.995">  2  4  1 -1</clus>
<clus scale="  106.587">  2  6  1 -1</clus>
<clus scale="   50.495">  1  3  2 -1</clus>
</clustering>
</event>
<event>
 6    0  0.7258365E+002  0.8922225E+02  0.7546771E-02  0.1304746E+00
         -2   -1    0    0    0  501 -0.00000000000E+00  0.00000000000E+00  0.21239597732E+04  0.21239597732E+04  0.00000000000E+00 0.  1.
         21   -1    0    0  504  502  0.00000000000E+00 -0.00000000000E+00 -0.27276011976E+02  0.27276011976E+02  0.00000000000E+00 0. -1.
         21    1    1    2  503  505  0.35527229122E+02  0.10025306116E+03  0.40532540478E+03  0.41904837912E+03  0.00000000000E+00 0. -1.
         21    1    1    2  504  501 -0.64252939753E+02 -0.76008406128E+02  0.18146937920E+03  0.20697065893E+03  0.00000000000E+00 0. -1.
         21    1    1    2  505  502  0.34588561024E+01  0.32193205135E+02  0.30327051013E+02  0.44363229882E+02  0.00000000000E+00 0. -1.
         -2    1    1    2    0  503  0.25266854528E+02 -0.56437860168E+02  0.14795619262E+04  0.14808535172E+04  0.00000000000E+00 0.  1.
<scales pt_clust_3="89.22225" pt_clust_4="14000.00000" pt_clust_5="32.37848" pt_clust_6="60.94622"></scales>
<clustering>
<clus scale="   32.378">  2  5  1 -1</clus>
<clus scale="   60.946">  1  6  2 -1</clus>
<clus scale="   89.222">  1  3  2 -1</clus>
<clus scale="   32.378">  2  3  1 -1</clus>
</clustering>
</event>
<event>
 6    0  0.7258365E+002  0.8909271E+02  0.7546771E-02  0.1305064E+00
          1   -1    0    0  504    0 -0.00000000000E+00  0.00000000000E+00  0.17451617214E+04  0.17451617214E+04  0.00000000000E+00 0.  1.
         21   -1    0    0  503  502  0.00000000000E+00 -0.00000000000E+00 -0.11496703274E+03  0.11496703274E+03  0.00000000000E+00 0. -1.
         21    1    1    2  503  505 -0.23825057587E+02 -0.22566324749E+02  0.14061196888E+02  0.35701395486E+02  0.00000000000E+00 0. -1.
         21    1    1    2  504  502  0.66612271355E+02  0.94580690824E+02 -0.60451631720E+02  0.13052624851E+03  0.00000000000E+00 0. -1.
         21    1    1    2  505  501 -0.80175305271E+02 -0.80072003137E+02  0.37479704840E+03  0.39155131560E+03  0.00000000000E+00 0.  1.
          1    1    1    2  501    0  0.37388091503E+02  0.80576370619E+01  0.13017880751E+04  0.13023497946E+04  0.00000000000E+00 0.  1.
<scales pt_clust_3="32.81573" pt_clust_4="14000.00000" pt_clust_5="89.09271" pt_clust_6="38.17090"></scales>
<clustering>
<clus scale="   32.816">  2  3  1 -1</clus>
<clus scale="   38.171">  1  6  2 -1</clus>
<clus scale="   89.093">  1  5  2 -1</clus>
<clus scale="   32.816">  2  3  1 -1</clus>
</clustering>
</event>
<event>
 6    0  0.7258365E+002  0.9011655E+02  0.7546771E-02  0.1302570E+00
         21   -1    0    0  504  502  0.00000000000E+00  0.00000000000E+00  0.41875660806E+04  0.41875660806E+04  0.00000000000E+00 0.  1.
         -1   -1    0    0    0  501 -0.00000000000E+00 -0.00000000000E+00 -0.13262177434E+03  0.13262177434E+03  0.00000000000E+00 0.  1.
         21    1    1    2  503  505 -0.22029075965E+01 -0.64531254225E+02  0.54478745319E+02  0.84481176988E+02  0.00000000000E+00 0.  1.
         21    1    1    2  504  501 -0.78162593822E+02  0.70998460680E+02  0.35519067157E+04  0.35534759729E+04  0.00000000000E+00 0.  1.
         21    1    1    2  505  502  0.54505202598E+02 -0.25817113964E+02  0.56151657491E+03  0.56474614154E+03  0.00000000000E+00 0. -1.
         -1    1    1    2    0  503  0.25860298820E+02  0.19349907509E+02 -0.11295772969E+03  0.11748456355E+03  0.00000000000E+00 0.  1.
<scales pt_clust_3="51.89649" pt_clust_4="14000.00000" pt_clust_5="90.11655" pt_clust_6="32.29820"></scales>
<clustering>
<clus scale="   32.298">  2  6  1 -1</clus>
<clus scale="   51.896">  2  3  1 -1</clus>
<clus scale="   90.117">  2  5  1 -1</clus>
<clus scale="   90.117">  1  3  2 -1</clus>
</clustering>
</event>
<event>
 6    0  0.7258365E+002  0.1284109E+03  0.7546771E-02  0.1229833E+00
         21   -1    0    0  505  502  0.00000000000E+00  0.00000000000E+00  0.72234588388E+03  0.72234588388E+03  0.00000000000E+00 0.  1.
         -2   -1    0    0    0  501 -0.00000000000E+00 -0.00000000000E+00 -0.20710832567E+04  0.20710832567E+04  0.00000000000E+00 0. -1.
         21    1    1    2  503  502 -0.13204439944E+02  0.11756708417E+03  0.68430592717E+03  0.69445732660E+03  0.00000000000E+00 0.  1.
         21    1    1    2  504  501  0.16319729359E+01 -0.42943426723E+02 -0.47053829615E+02  0.63724909696E+02  0.00000000000E+00 0. -1.
         21    1    1    2  505  504 -0.36500275111E+02  0.14973651545E+01  0.94852171369E+01  0.37742304245E+02  0.00000000000E+00 0. -1.
         -2    1    1    2    0  503  0.48072742119E+02 -0.76121022597E+02 -0.19954746875E+04  0.19975046000E+04  0.00000000000E+00 0. -1.
<scales pt_clust_3="128.41092" pt_clust_4="42.94224" pt_clust_5="36.53098" pt_clust_6="14000.00000"></scales>
<clustering>
<clus scale="   36.531">  1  5  2 -1</clus>
<clus scale="   42.942">  2  4  1 -1</clus>
<clus scale="  128.411">  1  3  2 -1</clus>
<clus scale="   36.531">  1  3  2 -1</clus>
</clustering>
</event>
<event>
 6    0  0.7258365E+002  0.1316418E+03  0.7546771E-02  0.1225040E+00
          1   -1    0    0  503    0 -0.00000000000E+00  0.00000000000E+00  0.11184707845E+04  0.11184707845E+04  0.00000000000E+00 0.  1.
         21   -1    0    0  504  502  0.00000000000E+00 -0.00000000000E+00 -0.53055881063E+02  0.53055881063E+02  0.00000000000E+00 0.  1.
         21    1    1    2  503  505  0.84641949755E+02 -0.36311444070E+01  0.14176010853E+03  0.16514652052E+03  0.00000000000E+00 0.  1.
         21    1    1    2  504  501 -0.45713170319E+02 -0.13393914592E+02  0.17537109799E+01  0.47667246521E+02  0.00000000000E+00 0.  1.
         21    1    1    2  505  502  0.74213499597E+02  0.41172669760E+02  0.11165247753E+03  0.14024659709E+03  0.00000000000E+00 0.  1.
          1    1    1    2  501    0 -0.11314227903E+03 -0.24147610762E+02  0.81024860637E+03  0.81846630141E+03  0.00000000000E+00 0.  1.
<scales pt_clust_3="47.36397" pt_clust_4="47.63498" pt_clust_5="47.36397" pt_clust_6="122.17594"></scales>
<clustering>
<clus scale="   47.635">  2  4  1 -1</clus>
<clus scale="   47.364">  3  5 -1 -1</clus>
<clus scale="  122.176">  1  6  2 -1</clus>
<clus scale="   47.635">  2  3  1 -1</clus>
</clustering>
</event>
<event>
 6    0  0.7258365E+002  0.7824271E+02  0.7546771E-02  0.1334114E+00
          3   -1    0    0  504    0 -0.00000000000E+00  0.00000000000E+00  0.17528534905E+03  0.17528534905E+03  0.00000000000E+00 0. -1.
         21   -1    0    0  501  502  0.00000000000E+00 -0.00000000000E+00 -0.42984377961E+03  0.42984377961E+03  0.00000000000E+00 0. -1.
         21    1    1    2  503  502 -0.18709082353E+02  0.72823954677E+02 -0.30543696119E+03  0.31455539322E+03  0.00000000000E+00 0. -1.
         21    1    1    2  504  505 -0.26100973384E+02 -0.37314024684E+02 -0.64187281994E+01  0.45986925549E+02  0.00000000000E+00 0. -1.
         21    1    1    2  505  503  0.89163705283E+02 -0.89125001706E+02 -0.33260540785E+02  0.13038288171E+03  0.00000000000E+00 0. -1.
          3    1    1    2  501    0 -0.44353649546E+02  0.53615071714E+02  0.90557799613E+02  0.11420392819E+03  0.00000000000E+00 0. -1.
<scales pt_clust_3="14000.00000" pt_clust_4="45.53677" pt_clust_5="78.24271" pt_clust_6="68.04955"></scales>
<clustering>
<clus scale="   45.537">  1  4  2 -1</clus>
<clus scale="   68.050">  1  6  2 -1</clus>
<clus scale="   78.243">  1  5  2 -1</clus>
<clus scale="   78.243">  2  3  1 -1</clus>
</clustering>
</event>
<event>
 6    0  0.7258365E+002  0.6744481E+02  0.7546771E-02  0.1369004E+00
         21   -1    0    0  505  502  0.00000000000E+00  0.00000000000E+00  0.11144348305E+03  0.11144348305E+03  0.00000000000E+00 0.  1.
          1   -1    0    0  504    0 -0.00000000000E+00 -0.00000000000E+00 -0.22156938809E+04  0.22156938809E+04  0.00000000000E+00 0.  1.
         21    1    1    2  503  501 -0.24632238231E+02 -0.53036076102E+02 -0.45580868335E+02  0.74143024532E+02  0.00000000000E+00 0.  1.
         21    1    1    2  504  502  0.11874804249E+03  0.30498082852E+02 -0.15715270415E+04  0.15763021515E+04  0.00000000000E+00 0.  1.
         21    1    1    2  505  503 -0.42871154552E+02  0.36708537629E+02  0.85028982959E+02  0.10205577186E+03  0.00000000000E+00 0.  1.
          1    1    1    2  501    0 -0.51244649702E+02 -0.14170544379E+02 -0.57217147093E+03  0.57463641600E+03  0.00000000000E+00 0.  1.
<scales pt_clust_3="67.44481" pt_clust_4="14000.00000" pt_clust_5="56.59428" pt_clust_6="53.16783"></scales>
<clustering>
<clus scale="   53.168">  2  6  1 -1</clus>
<clus scale="   56.594">  1  5  2 -1</clus>
<clus scale="   67.445">  1  3  2 -1</clus>
<clus scale="   56.594">  1  3  2 -1</clus>
</clustering>
</event>
<event>
 6    0  0.7258365E+002  0.7201525E+02  0.7546771E-02  0.1353371E+00
         21   -1    0    0  503  502  0.00000000000E+00  0.00000000000E+00  0.10038412934E+03  0.10038412934E+03  0.00000000000E+00 0. -1.
          1   -1    0    0  504    0 -0.00000000000E+00 -0.00000000000E+00 -0.10746948523E+04  0.10746948523E+04  0.00000000000E+00 0. -1.
         21    1    1    2  503  501 -0.41981907128E+02  0.55377489648E+02  0.43897343006E+02  0.82195642274E+02  0.00000000000E+00 0. -1.
         21    1    1    2  504  505  0.22490225505E+02  0.42957972742E+02 -0.78090585670E+03  0.78240983806E+03  0.00000000000E+00 0. -1.
         21    1    1    2  505  502  0.76845127691E+02 -0.40326106364E+02 -0.37271581875E+02  0.94448606764E+02  0.00000000000E+00 0. -1.
          1    1    1    2  501    0 -0.57353446067E+02 -0.58009356026E+02 -0.20003062737E+03  0.21602489451E+03  0.00000000000E+00 0. -1.
<scales pt_clust_3="14000.00000" pt_clust_4="48.48915" pt_clust_5="72.01525" pt_clust_6="49.69826"></scales>
<clustering>
<clus scale="   48.489">  2  4  1 -1</clus>
<clus scale="   49.698">  2  6  1 -1</clus>
<clus scale="   72.015">  2  5  1 -1</clus>
<clus scale="   72.015">  1  3  2 -1</clus>
</clustering>
</event>
<event>
 6    0  0.7258365E+002  0.1440177E+03  0.7546771E-02  0.1208023E+00
         21   -1    0    0  505  502  0.00000000000E+00  0.00000000000E+00  0.84085900146E+02  0.84085900146E+02  0.00000000000E+00 0. -1.
          2   -1    0    0  503    0 -0.00000000000E+00 -0.00000000000E+00 -0.20017610922E+04  0.20017610922E+04  0.00000000000E+00 0.  1.
         21    1    1    2  503  502  0.28271722320E+02  0.17353540478E+02 -0.17230572109E+02  0.37380854261E+02  0.00000000000E+00 0. -1.
         21    1    1    2  504  501 -0.62498792231E+02  0.91512952022E+02 -0.99279386530E+03  0.99895964804E+03  0.00000000000E+00 0.  1.
         21    1    1    2  505  504  0.59986337126E+02 -0.13576614586E+03 -0.75332960598E+01  0.14861883310E+03  0.00000000000E+00 0. -1.
          2    1    1    2  501    0 -0.25759267215E+02  0.26899653358E+02 -0.90011745854E+03  0.90088765690E+03  0.00000000000E+00 0.  1.
<scales pt_clust_3="33.17281" pt_clust_4="144.01767" pt_clust_5="14000.00000" pt_clust_6="37.20807"></scales>
<clustering>
<clus scale="   33.173">  1  3  2 -1</clus>
<clus scale="   37.208">  2  6  1 -1</clus>
<clus scale="  144.018">  2  4  1 -1</clus>
<clus scale="   33.173">  1  3  2 -1</clus>
</clustering>
</event>
<event>
 6    0  0.7258365E+002  0.1189261E+03  0.7546771E-02  0.1244879E+00
          2   -1    0    0  503    0 -0.00000000000E+00  0.00000000000E+00  0.95823126064E+03  0.95823126064E+03  0.00000000000E+00 0.  1.
         21   -1    0    0  505  502  0.00000000000E+00 -0.00000000000E+00 -0.16979088508E+03  0.16979088508E+03  0.00000000000E+00 0.  1.
         21    1    1    2  503  502  0.58080955947E+02 -0.24930832580E+02 -0.94606810161E+02  0.11377782027E+03  0.00000000000E+00 0.  1.
         21    1    1    2  504  501  0.50078738635E+02  0.15128989060E+02  0.28304252573E+02  0.59480224335E+02  0.00000000000E+00 0.  1.
         21    1    1    2  505  504  0.73933293962E+01  0.48228070031E+02 -0.32873947485E+02  0.58832852062E+02  0.00000000000E+00 0.  1.
          2    1    1    2  501    0 -0.11555302398E+03 -0.38426226511E+02  0.88761688064E+03  0.89593124905E+03  0.00000000000E+00 0.  1.
<scales pt_clust_3="118.92609" pt_clust_4="55.23674" pt_clust_5="48.79148" pt_clust_6="14000.00000"></scales>
<clustering>
<clus scale="   48.791">  2  5  1 -1</clus>
<clus scale="   55.237">  2  4  1 -1</clus>
<clus scale="  118.926">  2  3  1 -1</clus>
<clus scale="   48.791">  2  3  1 -1</clus>
</clustering>
</event>
<event>
 6    0  0.7258365E+002  0.8722911E+02  0.7546771E-02  0.1309704E+00
          2   -1    0    0  502    0 -0.00000000000E+00  0.00000000000E+00  0.17141598808E+03  0.17141598808E+03  0.00000000000E+00 0.  1.
         21   -1    0    0  504  502  0.00000000000E+00 -0.00000000000E+00 -0.15614643461E+04  0.15614643461E+04  0.00000000000E+00 0.  1.
         21    1    1    2  503  505  0.58384268097E+02 -0.37283595617E+02 -0.49835765471E+03  0.50314922366E+03  0.00000000000E+00 0.  1.
         21    1    1    2  504  503  0.28859653183E+02  0.27087947093E+02 -0.98878645449E+03  0.98957833901E+03  0.00000000000E+00 0.  1.
         21    1    1    2  505  501 -0.13545951144E+03  0.59130925104E+02  0.46883644195E+02  0.15506070307E+03  0.00000000000E+00 0.  1.
          2    1    1    2  501    0  0.48215590163E+02 -0.48935276581E+02  0.50212106961E+02  0.85092068457E+02  0.00000000000E+00 0.  1.
<scales pt_clust_3="14000.00000" pt_clust_4="39.58076" pt_clust_5="87.22911" pt_clust_6="68.73775"></scales>
<clustering>
<clus scale="   39.581">  2  4  1 -1</clus>
<clus scale="   68.738">  1  6  2 -1</clus>
<clus scale="   87.229">  1  5  2 -1</clus>
<clus scale="   39.581">  2  3  1 -1</clus>
</clustering>
</event>
<event>
 6    0  0.7258365E+002  0.2290847E+03  0.7546771E-02  0.1127286E+00
          1   -1    0    0  503    0 -0.00000000000E+00  0.00000000000E+00  0.21798520978E+04  0.21798520978E+04  0.00000000000E+00 0.  1.
         21   -1    0    0  504  502  0.00000000000E+00 -0.00000000000E+00 -0.13796668908E+03  0.13796668908E+03  0.00000000000E+00 0.  1.
         21    1    1    2  503  502  0.23273551332E+03 -0.13847365425E+02  0.33700215271E+03  0.40979021416E+03  0.00000000000E+00 0. -1.
         21    1    1    2  504  505 -0.25517639914E+02 -0.34002804575E+02 -0.43931937280E+01  0.42739218721E+02  0.00000000000E+00 0. -1.
         21    1    1    2  505  501 -0.18015225036E+03  0.64989855740E+01  0.26991869755E+02  0.18227899263E+03  0.00000000000E+00 0.  1.
          1    1    1    2  501    0 -0.27065623049E+02  0.41351184426E+02  0.16822845800E+04  0.16830103614E+04  0.00000000000E+00 0.  1.
<scales pt_clust_3="213.10529" pt_clust_4="40.82100" pt_clust_5="40.82100" pt_clust_6="49.42134"></scales>
<clustering>
<clus scale="   40.821">  4  5 -1 -1</clus>
<clus scale="   49.421">  1  6  2 -1</clus>
<clus scale="  213.105">  1  3  2 -1</clus>
<clus scale="  229.085">  2  3  1 -1</clus>
</clustering>
</event>
<event>
 6    0  0.7258365E+002  0.1593386E+03  0.7546771E-02  0.1189445E+00
          2   -1    0    0  504    0 -0.00000000000E+00  0.00000000000E+00  0.10773071146E+04  0.10773071146E+04  0.00000000000E+00 0. -1.
         21   -1    0    0  503  502  0.00000000000E+00 -0.00000000000E+00 -0.97047651833E+02  0.97047651833E+02  0.00000000000E+00 0.  1.
         21    1    1    2  503  501 -0.53614935245E+01  0.52507861569E+02  0.28822417294E+02  0.60137782451E+02  0.00000000000E+00 0.  1.
         21    1    1    2  504  505  0.80798585564E+02  0.33936732882E+02  0.11414833061E+02  0.88376533546E+02  0.00000000000E+00 0.  1.
         21    1    1    2  505  502  0.28119607873E+02  0.27107498061E+02 -0.26485204950E+02  0.47191046601E+02  0.00000000000E+00 0. -1.
          2    1    1    2  501    0 -0.10355669991E+03 -0.11355209251E+03  0.96650741738E+03  0.97864940385E+03  0.00000000000E+00 0. -1.
<scales pt_clust_3="52.78088" pt_clust_4="33.79035" pt_clust_5="33.79035" pt_clust_6="151.08578"></scales>
<clustering>
<clus scale="   33.790">  4  5 -1 -1</clus>
<clus scale="   52.781">  2  3  1 -1</clus>
<clus scale="  151.086">  1  6  2 -1</clus>
<clus scale="   52.781">  2  3  1 -1</clus>
</clustering>
</event>
<event>
 6    0  0.7258365E+002  0.1187203E+03  0.7546771E-02  0.1245223E+00
         21   -1    0    0  505  502  0.00000000000E+00  0.00000000000E+00  0.31609068478E+03  0.31609068478E+03  0.00000000000E+00 0. -1.
          2   -1    0    0  503    0 -0.00000000000E+00 -0.00000000000E+00 -0.98549851739E+03  0.98549851739E+03  0.00000000000E+00 0. -1.
         21    1    1    2  503  502 -0.24022423330E+02  0.74412958319E+02 -0.19961582264E+02  0.80702106261E+02  0.00000000000E+00 0. -1.
         21    1    1    2  504  501  0.27412376150E+02 -0.14971915659E+03  0.47141586516E+01  0.15228094926E+03  0.00000000000E+00 0. -1.
         21    1    1    2  505  504  0.32012499781E+02  0.10968953025E+03  0.19069598356E+03  0.22230958444E+03  0.00000000000E+00 0. -1.
          2    1    1    2  501    0 -0.35402452601E+02 -0.34383331985E+02 -0.84485639255E+03  0.84629656221E+03  0.00000000000E+00 0. -1.
<scales pt_clust_3="72.11551" pt_clust_4="14000.00000" pt_clust_5="118.72031" pt_clust_6="49.35126"></scales>
<clustering>
<clus scale="   49.351">  2  6  1 -1</clus>
<clus scale="   72.116">  2  3  1 -1</clus>
<clus scale="  118.720">  1  5  2 -1</clus>
<clus scale="  118.720">  1  3  2 -1</clus>
</clustering>
</event>
<event>
 6    0  0.7258365E+002  0.2043105E+03  0.7546771E-02  0.1146152E+00
          2   -1    0    0  505    0 -0.00000000000E+00  0.00000000000E+00  0.30083478737E+04  0.30083478737E+04  0.00000000000E+00 0. -1.
         21   -1    0    0  503  502  0.00000000000E+00 -0.00000000000E+00 -0.16873920053E+04  0.16873920053E+04  0.00000000000E+00 0.  1.
         21    1    1    2  503  501  0.17844894764E+03 -0.10039851232E+03 -0.13413995487E+04  0.13569364898E+04  0.00000000000E+00 0.  1.
         21    1    1    2  504  502 -0.19152316416E+03  0.71656588392E+02 -0.30529278279E+03  0.36744995889E+03  0.00000000000E+00 0. -1.
         21    1    1    2  505  504 -0.31353406959E+02  0.55035835678E+01  0.15385708837E+03  0.15711565549E+03  0.00000000000E+00 0. -1.
          2    1    1    2  501    0  0.44427623473E+02  0.23238340359E+02  0.28137911114E+04  0.28142377748E+04  0.00000000000E+00 0. -1.
<scales pt_clust_3="204.31045" pt_clust_4="14000.00000" pt_clust_5="31.83277" pt_clust_6="31.68717"></scales>
<clustering>
<clus scale="   31.833">  1  5  2 -1</clus>
<clus scale="   31.687">  1  6  2 -1</clus>
<clus scale="  204.310">  2  3  1 -1</clus>
<clus scale="  204.310">  2  3  1 -1</clus>
</clustering>
</event>
<event>
 6    0  0.7258365E+002  0.8720440E+02  0.7546771E-02  0.1309766E+00
          2   -1    0    0  502    0 -0.00000000000E+00  0.00000000000E+00  0.26545735155E+04  0.26545735155E+04  0.00000000000E+00 0. -1.
         21   -1    0    0  505  502  0.00000000000E+00 -0.00000000000E+00 -0.41297161792E+02  0.41297161792E+02  0.00000000000E+00 0.  1.
         21    1    1    2  503  504  0.26865294281E+02 -0.88534764034E+02  0.65454965375E+03  0.66105627423E+03  0.00000000000E+00 0.  1.
         21    1    1    2  504  501 -0.30634763681E+02  0.96321654529E+02  0.91499113867E+03  0.92055696929E+03  0.00000000000E+00 0.  1.
         21    1    1    2  505  503  0.19266992583E+02  0.43853056824E+02 -0.17988473725E+02  0.51165347482E+02  0.00000000000E+00 0.  1.
          2    1    1    2  501    0 -0.15497523183E+02 -0.51639947318E+02  0.10617240350E+04  0.10630920863E+04  0.00000000000E+00 0. -1.
<scales pt_clust_3="14000.00000" pt_clust_4="87.20440" pt_clust_5="47.89893" pt_clust_6="49.07994"></scales>
<clustering>
<clus scale="   47.899">  2  5  1 -1</clus>
<clus scale="   49.080">  1  6  2 -1</clus>
<clus scale="   87.204">  1  4  2 -1</clus>
<clus scale="   47.899">  2  3  1 -1</clus>
</clustering>
</event>
<event>
 6    0  0.7258365E+002  0.1061721E+03  0.7546771E-02  0.1267827E+00
         21   -1    0    0  505  502  0.00000000000E+00  0.00000000000E+00  0.36052213497E+03  0.36052213497E+03  0.00000000000E+00 0.  1.
         -2   -1    0    0    0  501 -0.00000000000E+00 -0.00000000000E+00 -0.23895243582E+03  0.23895243582E+03  0.00000000000E+00 0. -1.
         21    1    1    2  503  501 -0.79445546756E+02  0.12708709901E+02  0.24008408540E+03  0.25320638671E+03  0.00000000000E+00 0.  1.
         21    1    1    2  504  503 -0.43043144907E+02 -0.29528240483E+02  0.55240542271E+02  0.76000965914E+02  0.00000000000E+00 0. -1.
         21    1    1    2  505  504  0.29551291434E+02 -0.39694099214E+02  0.15606826367E+02  0.51889048624E+02  0.00000000000E+00 0.  1.
         -2    1    1    2    0  502  0.92937400230E+02  0.56513629797E+02 -0.18936175490E+03  0.21837816954E+03  0.00000000000E+00 0. -1.
<scales pt_clust_3="14000.00000" pt_clust_4="52.75669" pt_clust_5="49.48637" pt_clust_6="106.17215"></scales>
<clustering>
<clus scale="   49.486">  1  5  2 -1</clus>
<clus scale="   52.757">  1  4  2 -1</clus>
<clus scale="  106.172">  2  6  1 -1</clus>
<clus scale="   49.486">  1  3  2 -1</clus>
</clustering>
</event>
<event>
 6    0  0.7258365E+002  0.1304000E+03  0.7546771E-02  0.1226863E+00
         21   -1    0    0  504  502  0.00000000000E+00  0.00000000000E+00  0.60097877535E+03  0.60097877535E+03  0.00000000000E+00 0. -1.
          1   -1    0    0  503    0 -0.00000000000E+00 -0.00000000000E+00 -0.28584639757E+03  0.28584639757E+03  0.00000000000E+00 0. -1.
         21    1    1    2  503  502 -0.13231882821E+03 -0.72217469087E+02  0.12373045971E+03  0.19502015742E+03  0.00000000000E+00 0. -1.
         21    1    1    2  504  505  0.25583531657E+02  0.38117000577E+02  0.18247808070E+03  0.18816395181E+03  0.00000000000E+00 0.  1.
         21    1    1    2  505  501  0.74373954951E+02  0.22053616247E+02  0.24914915212E+03  0.26094663663E+03  0.00000000000E+00 0. -1.
          1    1    1    2  501    0  0.32361341597E+02  0.12046852263E+02 -0.24022531476E+03  0.24269442707E+03  0.00000000000E+00 0. -1.
<scales pt_clust_3="123.36087" pt_clust_4="32.51238" pt_clust_5="32.51238" pt_clust_6="34.53090"></scales>
<clustering>
<clus scale="   32.512">  4  5 -1 -1</clus>
<clus scale="   34.531">  2  6  1 -1</clus>
<clus scale="  123.361">  2  3  1 -1</clus>
<clus scale="  130.400">  1  3  2 -1</clus>
</clustering>
</event>
<event>
 6    0  0.7258365E+002  0.7912475E+02  0.7546771E-02  0.1331554E+00
         21   -1    0    0  503  502  0.00000000000E+00  0.00000000000E+00  0.23821396909E+03  0.23821396909E+03  0.00000000000E+00 0. -1.
          2   -1    0    0  505    0 -0.00000000000E+00 -0.00000000000E+00 -0.35456321495E+03  0.35456321495E+03  0.00000000000E+00 0. -1.
         21    1    1    2  503  504  0.29126512471E+02 -0.65556191856E+02  0.10488457050E+03  0.12706982784E+03  0.00000000000E+00 0. -1.
         21    1    1    2  504  501  0.70092720724E+02  0.88611784322E+02  0.67704864441E+02  0.13171555143E+03  0.00000000000E+00 0. -1.
         21    1    1    2  505  502 -0.39687552799E+02 -0.12871089700E+02 -0.30950067357E+01  0.41837134987E+02  0.00000000000E+00 0.  1.
          2    1    1    2  501    0 -0.59531680396E+02 -0.10184502766E+02 -0.28584367407E+03  0.29215466978E+03  0.00000000000E+00 0. -1.
<scales pt_clust_3="14000.00000" pt_clust_4="79.12475" pt_clust_5="41.72250" pt_clust_6="60.99198"></scales>
<clustering>
<clus scale="   41.722">  1  5  2 -1</clus>
<clus scale="   60.992">  2  6  1 -1</clus>
<clus scale="   79.125">  2  4  1 -1</clus>
<clus scale="   41.722">  1  3  2 -1</clus>
</clustering>
</event>
<event>
 6    0  0.7258365E+002  0.1406759E+03  0.7546771E-02  0.1212422E+00
         -2   -1    0    0    0  501 -0.00000000000E+00  0.00000000000E+00  0.17937915835E+03  0.17937915835E+03  0.00000000000E+00 0. -1.
         21   -1    0    0  505  502  0.00000000000E+00 -0.00000000000E+00 -0.19881113927E+04  0.19881113927E+04  0.00000000000E+00 0. -1.
         21    1    1    2  503  504  0.10206078820E+03  0.26501101931E+02  0.59428473739E+02  0.12103906966E+03  0.00000000000E+00 0. -1.
         21    1    1    2  504  502 -0.97333052080E+02 -0.14596058348E+03 -0.11779180125E+04  0.11909110206E+04  0.00000000000E+00 0. -1.
         21    1    1    2  505  501 -0.34445262318E+02  0.13037540554E+03 -0.76371962180E+03  0.77553328954E+03  0.00000000000E+00 0. -1.
         -2    1    1    2    0  503  0.29717526196E+02 -0.10915923993E+02  0.73476926207E+02  0.80007171207E+02  0.00000000000E+00 0. -1.
<scales pt_clust_3="129.29686" pt_clust_4="140.67585" pt_clust_5="14000.00000" pt_clust_6="31.65894"></scales>
<clustering>
<clus scale="   31.659">  1  6  2 -1</clus>
<clus scale="  129.297">  1  3  2 -1</clus>
<clus scale="  140.676">  1  4  2 -1</clus>
<clus scale="  140.676">  2  3  1 -1</clus>
</clustering>
</event>
<event>
 6    0  0.7258365E+002  0.1095478E+03  0.7546771E-02  0.1261410E+00
         -1   -1    0    0    0  501 -0.00000000000E+00  0.00000000000E+00  0.64689270755E+03  0.64689270755E+03  0.00000000000E+00 0. -1.
         21   -1    0    0  504  502  0.00000000000E+00 -0.00000000000E+00 -0.22030436861E+03  0.22030436861E+03  0.00000000000E+00 0.  1.
         21    1    1    2  503  502  0.74439287590E+01  0.89861590589E+02 -0.10171284463E+03  0.13592652538E+03  0.00000000000E+00 0.  1.
         21    1    1    2  504  501  0.37777832471E+02  0.69899053600E+01 -0.58144012687E+02  0.69690383945E+02  0.00000000000E+00 0.  1.
         21    1    1    2  505  503 -0.68948345084E+02 -0.14401503724E+03  0.14099217301E+03  0.21300938499E+03  0.00000000000E+00 0. -1.
         -1    1    1    2    0  505  0.23726583854E+02  0.47163541291E+02  0.44545302325E+03  0.44857078185E+03  0.00000000000E+00 0. -1.
<scales pt_clust_3="109.54779" pt_clust_4="38.41905" pt_clust_5="14000.00000" pt_clust_6="53.02772"></scales>
<clustering>
<clus scale="   38.419">  2  4  1 -1</clus>
<clus scale="   53.028">  1  6  2 -1</clus>
<clus scale="  109.548">  2  3  1 -1</clus>
<clus scale="   38.419">  2  3  1 -1</clus>
</clustering>
</event>
<event>
 6    0  0.7258365E+002  0.1113304E+03  0.7546771E-02  0.1258126E+00
         21   -1    0    0  503  502  0.00000000000E+00  0.00000000000E+00  0.70429458456E+03  0.70429458456E+03  0.00000000000E+00 0.  1.
         -1   -1    0    0    0  501 -0.00000000000E+00 -0.00000000000E+00 -0.21585973494E+03  0.21585973494E+03  0.00000000000E+00 0. -1.
         21    1    1    2  503  504  0.51759109152E+02  0.34907276335E+01  0.25396198212E+03  0.25920624785E+03  0.00000000000E+00 0.  1.
         21    1    1    2  504  501  0.31324119837E+02  0.10795405143E+03  0.41640804386E+02  0.11987174101E+03  0.00000000000E+00 0. -1.
         21    1    1    2  505  502 -0.12032284676E+01 -0.32256727032E+02  0.34749654296E+03  0.34899253799E+03  0.00000000000E+00 0.  1.
         -1    1    1    2    0  505 -0.81880000521E+02 -0.79188052032E+02 -0.15466447985E+03  0.19208379265E+03  0.00000000000E+00 0. -1.
<scales pt_clust_3="54.59165" pt_clust_4="111.33040" pt_clust_5="32.27916" pt_clust_6="14000.00000"></scales>
<clustering>
<clus scale="   32.279">  1  5  2 -1</clus>
<clus scale="   54.592">  1  3  2 -1</clus>
<clus scale="  111.330">  1  4  2 -1</clus>
<clus scale="   32.279">  1  3  2 -1</clus>
</clustering>
</event>
<event>
 6    0  0.7258365E+002  0.9385965E+02  0.7546771E-02  0.1293765E+00
         21   -1    0    0  503  502  0.00000000000E+00  0.00000000000E+00  0.81513439693E+03  0.81513439693E+03  0.00000000000E+00 0.  1.
         -2   -1    0    0    0  501 -0.00000000000E+00 -0.00000000000E+00 -0.74944301269E+03  0.74944301269E+03  0.00000000000E+00 0. -1.
         21    1    1    2  503  501 -0.96833689064E+02  0.44515401501E+02  0.50246955439E+03  0.51364777562E+03  0.00000000000E+00 0.  1.
         21    1    1    2  504  505  0.11174607344E+03 -0.87227280459E+02 -0.59968043815E+01  0.14188638077E+03  0.00000000000E+00 0.  1.
         21    1    1    2  505  502  0.14337536142E+02 -0.45194745652E+02  0.23353409450E+03  0.23829876892E+03  0.00000000000E+00 0.  1.
         -2    1    1    2    0  504 -0.29249920514E+02  0.87906624610E+02 -0.66431546026E+03  0.67074448432E+03  0.00000000000E+00 0. -1.
<scales pt_clust_3="84.39838" pt_clust_4="14000.00000" pt_clust_5="47.41445" pt_clust_6="93.85965"></scales>
<clustering>
<clus scale="   47.414">  1  5  2 -1</clus>
<clus scale="   84.398">  1  3  2 -1</clus>
<clus scale="   93.860">  2  6  1 -1</clus>
<clus scale="   47.414">  1  3  2 -1</clus>
</clustering>
</event>
<event>
 6    0  0.7258365E+002  0.1247458E+03  0.7546771E-02  0.1235467E+00
         21   -1    0    0  504  502  0.00000000000E+00  0.00000000000E+00  0.25880725383E+03  0.25880725383E+03  0.00000000000E+00 0. -1.
          1   -1    0    0  505    0 -0.00000000000E+00 -0.00000000000E+00 -0.20296020018E+04  0.20296020018E+04  0.00000000000E+00 0.  1.
         21    1    1    2  503  501 -0.13989079873E+03 -0.76172274993E+02 -0.81241392782E+03  0.82788165892E+03  0.00000000000E+00 0.  1.
         21    1    1    2  504  503 -0.18084529331E+02 -0.59526251751E+02  0.19068175191E+03  0.20057406453E+03  0.00000000000E+00 0. -1.
         21    1    1    2  505  502  0.11634381504E+03  0.11883948654E+03 -0.70793901165E+02  0.18074978091E+03  0.00000000000E+00 0.  1.
          1    1    1    2  501    0  0.41631513029E+02  0.16859040204E+02 -0.10782686709E+04  0.10792037512E+04  0.00000000000E+00 0.  1.
<scales pt_clust_3="124.74580" pt_clust_4="62.06614" pt_clust_5="14000.00000" pt_clust_6="44.91559"></scales>
<clustering>
<clus scale="   44.916">  2  6  1 -1</clus>
<clus scale="   62.066">  1  4  2 -1</clus>
<clus scale="  124.746">  2  3  1 -1</clus>
<clus scale="   62.066">  1  3  2 -1</clus>
</clustering>
</event>
<event>
 6    0  0.7258365E+002  0.1348717E+03  0.7546771E-02  0.1220401E+00
          2   -1    0    0  504    0 -0.00000000000E+00  0.00000000000E+00  0.13656642159E+04  0.13656642159E+04  0.00000000000E+00 0. -1.
         21   -1    0    0  505  502  0.00000000000E+00 -0.00000000000E+00 -0.87153521845E+02  0.87153521845E+02  0.00000000000E+00 0.  1.
         21    1    1    2  503  502  0.76780994474E+02 -0.34076047019E+02  0.27794962527E+02  0.88481964460E+02  0.00000000000E+00 0.  1.
         21    1    1    2  504  503  0.78190349474E+02  0.87370160561E+02  0.38420265038E+02  0.12338311259E+03  0.00000000000E+00 0.  1.
         21    1    1    2  505  501 -0.31621216097E+02  0.68707039908E+01  0.14738571545E+02  0.35557465770E+02  0.00000000000E+00 0.  1.
          2    1    1    2  501    0 -0.12335012785E+03 -0.60164817534E+02  0.11975568950E+04  0.12053951949E+04  0.00000000000E+00 0. -1.
<scales pt_clust_3="71.52015" pt_clust_4="14000.00000" pt_clust_5="32.35905" pt_clust_6="134.87175"></scales>
<clustering>
<clus scale="   32.359">  2  5  1 -1</clus>
<clus scale="   71.520">  2  3  1 -1</clus>
<clus scale="  134.872">  1  6  2 -1</clus>
<clus scale="   32.359">  2  3  1 -1</clus>
</clustering>
</event>
<event>
 6    0  0.7258365E+002  0.9223294E+02  0.7546771E-02  0.1297533E+00
         21   -1    0    0  503  502  0.00000000000E+00  0.00000000000E+00  0.14041591194E+03  0.14041591194E+03  0.00000000000E+00 0. -1.
          1   -1    0    0  505    0 -0.00000000000E+00 -0.00000000000E+00 -0.49334092320E+03  0.49334092320E+03  0.00000000000E+00 0. -1.
         21    1    1    2  503  501  0.69942172659E+02 -0.43314024568E+01 -0.27797137710E+02  0.75387992600E+02  0.00000000000E+00 0. -1.
         21    1    1    2  504  502 -0.45306417976E+02  0.56758008027E+02  0.56778354937E+02  0.92184188311E+02  0.00000000000E+00 0. -1.
         21    1    1    2  505  504 -0.24192250818E+02 -0.13693653207E+03 -0.98401388019E+02  0.17035173019E+03  0.00000000000E+00 0. -1.
          1    1    1    2  501    0 -0.44350386399E+00  0.84509926504E+02 -0.28350484047E+03  0.29583292404E+03  0.00000000000E+00 0. -1.
<scales pt_clust_3="70.07616" pt_clust_4="53.99545" pt_clust_5="92.23294" pt_clust_6="14000.00000"></scales>
<clustering>
<clus scale="   70.076">  1  3  2 -1</clus>
<clus scale="   53.995">  1  4  2 -1</clus>
<clus scale="   92.233">  1  5  2 -1</clus>
<clus scale="   70.076">  1  3  2 -1</clus>
</clustering>
</event>
<event>
 6    0  0.7258365E+002  0.1627930E+03  0.7546771E-02  0.1185579E+00
          2   -1    0    0  504    0 -0.00000000000E+00  0.00000000000E+00  0.23555000219E+04  0.23555000219E+04  0.00000000000E+00 0.  1.
         21   -1    0    0  505  502  0.00000000000E+00 -0.00000000000E+00 -0.11378921111E+03  0.11378921111E+03  0.00000000000E+00 0.  1.
         21    1    1    2  503  501 -0.30703396631E+02  0.36304072624E+02  0.23990610908E+01  0.47607139674E+02  0.00000000000E+00 0. -1.
         21    1    1    2  504  502  0.59390852425E+01 -0.32405760808E+02  0.24850249412E+02  0.41266705258E+02  0.00000000000E+00 0.  1.
         21    1    1    2  505  503  0.15618875824E+02  0.14358194859E+03 -0.15776201832E+02  0.14528803731E+03  0.00000000000E+00 0.  1.
          2    1    1    2  501    0  0.91454355646E+01 -0.14748026040E+03  0.22302377021E+04  0.22351273508E+04  0.00000000000E+00 0.  1.
<scales pt_clust_3="39.14396" pt_clust_4="32.94550" pt_clust_5="39.14396" pt_clust_6="148.52103"></scales>
<clustering>
<clus scale="   32.946">  2  4  1 -1</clus>
<clus scale="   39.144">  3  5 -1 -1</clus>
<clus scale="  148.521">  1  6  2 -1</clus>
<clus scale="   32.946">  2  3  1 -1</clus>
</clustering>
</event>
<event>
 6    0  0.7258365E+002  0.1911202E+03  0.7546771E-02  0.1157455E+00
          1   -1    0    0  504    0 -0.00000000000E+00  0.00000000000E+00  0.19522811462E+04  0.19522811462E+04  0.00000000000E+00 0.  1.
         21   -1    0    0  503  502  0.00000000000E+00 -0.00000000000E+00 -0.72723879421E+02  0.72723879421E+02  0.00000000000E+00 0.  1.
         21    1    1    2  503  501 -0.30612387539E+02 -0.10116951664E+03  0.78804607147E+03  0.79510313804E+03  0.00000000000E+00 0.  1.
         21    1    1    2  504  505  0.57549360215E+02  0.12727800126E+03  0.12687584436E+03  0.18870373167E+03  0.00000000000E+00 0.  1.
         21    1    1    2  505  502 -0.98613759913E+01  0.63627096881E+02 -0.74626745950E+01  0.64817788500E+02  0.00000000000E+00 0.  1.
          1    1    1    2  501    0 -0.17075596685E+02 -0.89735581500E+02  0.97209802553E+03  0.97638036739E+03  0.00000000000E+00 0.  1.
<scales pt_clust_3="33.87290" pt_clust_4="187.61464" pt_clust_5="64.38675" pt_clust_6="33.87290"></scales>
<clustering>
<clus scale="   33.873">  3  6 -1 -1</clus>
<clus scale="   64.387">  2  5  1 -1</clus>
<clus scale="  187.615">  2  4  1 -1</clus>
<clus scale="   64.387">  2  3  1 -1</clus>
</clustering>
</event>
<event>
 6    0  0.7258365E+002  0.1146980E+03  0.7546771E-02  0.1252109E+00
         21   -1    0    0  501  502  0.00000000000E+00  0.00000000000E+00  0.39511338188E+03  0.39511338188E+03  0.00000000000E+00 0. -1.
          2   -1    0    0  504    0 -0.00000000000E+00 -0.00000000000E+00 -0.10976885708E+04  0.10976885708E+04  0.00000000000E+00 0.  1.
         21    1    1    2  503  505  0.45222164080E+01  0.11340785314E+03  0.45189395481E+02  0.12216330488E+03  0.00000000000E+00 0. -1.
         21    1    1    2  504  503 -0.37779837972E+02  0.37113596891E+02 -0.13574034923E+03  0.14570579138E+03  0.00000000000E+00 0. -1.
         21    1    1    2  505  502  0.35081195554E+02 -0.11115810582E+03  0.29492710737E+03  0.31712586371E+03  0.00000000000E+00 0. -1.
          2    1    1    2  501    0 -0.18235739900E+01 -0.39363344203E+02 -0.90695134253E+03  0.90780699271E+03  0.00000000000E+00 0.  1.
<scales pt_clust_3="14000.00000" pt_clust_4="39.93905" pt_clust_5="114.69800" pt_clust_6="39.40556"></scales>
<clustering>
<clus scale="   39.406">  2  6  1 -1</clus>
<clus scale="   39.939">  2  4  1 -1</clus>
<clus scale="  114.698">  1  5  2 -1</clus>
<clus scale="  114.698">  1  3  2 -1</clus>
</clustering>
</event>
<event>
 6    0  0.7258365E+002  0.1372632E+03  0.7546771E-02  0.1217060E+00
         21   -1    0    0  503  502  0.00000000000E+00  0.00000000000E+00  0.11205533959E+04  0.11205533959E+04  0.00000000000E+00 0. -1.
          2   -1    0    0  504    0 -0.00000000000E+00 -0.00000000000E+00 -0.14120085167E+04  0.14120085167E+04  0.00000000000E+00 0.  1.
         21    1    1    2  503  505  0.14334491966E+02 -0.35609366667E+02  0.89948541450E+03  0.90030412392E+03  0.00000000000E+00 0. -1.
         21    1    1    2  504  502 -0.11440295633E+03 -0.41896150646E+02  0.11396238537E+03  0.16682550505E+03  0.00000000000E+00 0.  1.
         21    1    1    2  505  501 -0.32824316931E+02  0.11557695143E+03  0.29639192810E+02  0.12374954236E+03  0.00000000000E+00 0. -1.
          2    1    1    2  501    0  0.13289278129E+03 -0.38071434113E+02 -0.13345421136E+04  0.13416827413E+04  0.00000000000E+00 0.  1.
<scales pt_clust_3="38.38626" pt_clust_4="14000.00000" pt_clust_5="106.88995" pt_clust_6="137.26320"></scales>
<clustering>
<clus scale="   38.386">  1  3  2 -1</clus>
<clus scale="  106.890">  1  5  2 -1</clus>
<clus scale="  137.263">  2  6  1 -1</clus>
<clus scale="   38.386">  1  3  2 -1</clus>
</clustering>
</event>
<event>
 6    0  0.7258365E+002  0.1612104E+03  0.7546771E-02  0.1187337E+00
         21   -1    0    0  505  502  0.00000000000E+00  0.00000000000E+00  0.49407581795E+03  0.49407581795E+03  0.00000000000E+00 0. -1.
          2   -1    0    0  503    0 -0.00000000000E+00 -0.00000000000E+00 -0.47203486879E+03  0.47203486879E+03  0.00000000000E+00 0.  1.
         21    1    1    2  503  502  0.84887361843E+02  0.15412106865E+03  0.31155455195E+03  0.35780638178E+03  0.00000000000E+00 0. -1.
         21    1    1    2  504  501 -0.79226021544E+01 -0.34612599136E+02 -0.12367054797E+02  0.37599783087E+02  0.00000000000E+00 0.  1.
         21    1    1    2  505  504 -0.48238656552E+02 -0.13216806827E+03  0.11228539717E+03  0.18000937941E+03  0.00000000000E+00 0. -1.
          2    1    1    2  501    0 -0.28726103137E+02  0.12659598758E+02 -0.38943194516E+03  0.39069514247E+03  0.00000000000E+00 0.  1.
<scales pt_clust_3="14000.00000" pt_clust_4="34.98527" pt_clust_5="161.21036" pt_clust_6="31.39195"></scales>
<clustering>
<clus scale="   31.392">  2  6  1 -1</clus>
<clus scale="   34.985">  2  4  1 -1</clus>
<clus scale="  161.210">  2  5  1 -1</clus>
<clus scale="  161.210">  1  3  2 -1</clus>
</clustering>
</event>
<event>
 6    0  0.7258365E+002  0.9778431E+02  0.7546771E-02  0.1285025E+00
         21   -1    0    0  503  502  0.00000000000E+00  0.00000000000E+00  0.28512441936E+02  0.28512441936E+02  0.00000000000E+00 0.  1.
          2   -1    0    0  505    0 -0.00000000000E+00 -0.00000000000E+00 -0.25497538241E+04  0.25497538241E+04  0.00000000000E+00 0.  1.
         21    1    1    2  503  501  0.10551017413E+02 -0.80748289929E+02 -0.38173124570E+03  0.39032083501E+03  0.00000000000E+00 0.  1.
         21    1    1    2  504  502 -0.23546042527E+02 -0.22098076897E+02 -0.55612890943E+01  0.32766889654E+02  0.00000000000E+00 0.  1.
         21    1    1    2  505  504 -0.86494860779E+02  0.84453785997E+02 -0.39020230973E+03  0.40849926001E+03  0.00000000000E+00 0.  1.
          2    1    1    2  501    0  0.99489885894E+02  0.18392580828E+02 -0.17437465376E+04  0.17466792813E+04  0.00000000000E+00 0.  1.
<scales pt_clust_3="87.19522" pt_clust_4="32.29150" pt_clust_5="14000.00000" pt_clust_6="97.78431"></scales>
<clustering>
<clus scale="   32.292">  1  4  2 -1</clus>
<clus scale="   87.195">  1  3  2 -1</clus>
<clus scale="   97.784">  2  6  1 -1</clus>
<clus scale="   32.292">  1  3  2 -1</clus>
</clustering>
</event>
<event>
 6    0  0.7258365E+002  0.1070569E+03  0.7546771E-02  0.1266119E+00
         21   -1    0    0  503  502  0.00000000000E+00  0.00000000000E+00  0.67217782006E+02  0.67217782006E+02  0.00000000000E+00 0. -1.
          1   -1    0    0  504    0 -0.00000000000E+00 -0.00000000000E+00 -0.17186370712E+04  0.17186370712E+04  0.00000000000E+00 0.  1.
         21    1    1    2  503  501  0.45275260611E+01  0.36388015197E+02 -0.60739887128E+01  0.37168259054E+02  0.00000000000E+00 0.  1.
         21    1    1    2  504  505  0.24715993806E+02  0.88339005624E+02 -0.45024746583E+03  0.45949694313E+03  0.00000000000E+00 0. -1.
         21    1    1    2  505  502 -0.11174968405E+03 -0.53250802467E+02 -0.41679219466E+02  0.13061698658E+03  0.00000000000E+00 0. -1.
          1    1    1    2  501    0  0.82506164184E+02 -0.71476218354E+02 -0.11534186152E+04  0.11585726644E+04  0.00000000000E+00 0.  1.
<scales pt_clust_3="36.66860" pt_clust_4="94.97832" pt_clust_5="107.05690" pt_clust_6="14000.00000"></scales>
<clustering>
<clus scale="   36.669">  1  3  2 -1</clus>
<clus scale="   94.978">  2  4  1 -1</clus>
<clus scale="  107.057">  1  5  2 -1</clus>
<clus scale="   36.669">  1  3  2 -1</clus>
</clustering>
</event>
<event>
 6    0  0.7258365E+002  0.8948789E+02  0.7546771E-02  0.1304097E+00
         21   -1    0    0  501  502  0.00000000000E+00  0.00000000000E+00  0.32261050424E+02  0.32261050424E+02  0.00000000000E+00 0. -1.
          2   -1    0    0  503    0 -0.00000000000E+00 -0.00000000000E+00 -0.13479952117E+04  0.13479952117E+04  0.00000000000E+00 0.  1.
         21    1    1    2  503  504  0.26613958079E+01  0.31830716821E+02 -0.12708598940E+03  0.13103864416E+03  0.00000000000E+00 0.  1.
         21    1    1    2  504  505  0.45990788959E+02  0.50379646776E+02 -0.63564439426E+03  0.63929418692E+03  0.00000000000E+00 0. -1.
         21    1    1    2  505  502 -0.87316672033E+02 -0.32347162064E+02 -0.55430675336E+02  0.10836558437E+03  0.00000000000E+00 0. -1.
          2    1    1    2  501    0  0.38664487266E+02 -0.49863201533E+02 -0.49757310228E+03  0.50155784667E+03  0.00000000000E+00 0.  1.
<scales pt_clust_3="31.94178" pt_clust_4="89.48789" pt_clust_5="14000.00000" pt_clust_6="54.18510"></scales>
<clustering>
<clus scale="   31.942">  2  3  1 -1</clus>
<clus scale="   54.185">  2  6  1 -1</clus>
<clus scale="   89.488">  2  4  1 -1</clus>
<clus scale="   89.488">  1  3  2 -1</clus>
</clustering>
</event>
<event>
 6    0  0.7258365E+002  0.7942585E+02  0.7546771E-02  0.1330689E+00
         21   -1    0    0  504  502  0.00000000000E+00  0.00000000000E+00  0.10836553814E+03  0.10836553814E+03  0.00000000000E+00 0. -1.
          2   -1    0    0  505    0 -0.00000000000E+00 -0.00000000000E+00 -0.34713636263E+04  0.34713636263E+04  0.00000000000E+00 0.  1.
         21    1    1    2  503  502  0.55511721767E+02  0.28136581185E+02  0.30836798239E+02  0.69455932647E+02  0.00000000000E+00 0. -1.
         21    1    1    2  504  501  0.47480667443E+02 -0.31630847727E+02 -0.67933442402E+02  0.88712326682E+02  0.00000000000E+00 0. -1.
         21    1    1    2  505  503 -0.75211961922E+02 -0.61808857415E+02 -0.24805186469E+01  0.97382375427E+02  0.00000000000E+00 0. -1.
          2    1    1    2  501    0 -0.27780427288E+02  0.65303123957E+02 -0.33234209254E+04  0.33241785297E+04  0.00000000000E+00 0.  1.
<scales pt_clust_3="79.42585" pt_clust_4="57.05194" pt_clust_5="14000.00000" pt_clust_6="70.78225"></scales>
<clustering>
<clus scale="   57.052">  1  4  2 -1</clus>
<clus scale="   70.782">  2  6  1 -1</clus>
<clus scale="   79.426">  1  3  2 -1</clus>
<clus scale="   57.052">  1  3  2 -1</clus>
</clustering>
</event>
<event>
 6    0  0.7258365E+002  0.1236796E+03  0.7546771E-02  0.1237147E+00
         21   -1    0    0  505  502  0.00000000000E+00  0.00000000000E+00  0.11215412811E+04  0.11215412811E+04  0.00000000000E+00 0. -1.
          1   -1    0    0  503    0 -0.00000000000E+00 -0.00000000000E+00 -0.67171142684E+03  0.67171142684E+03  0.00000000000E+00 0. -1.
         21    1    1    2  503  504  0.30749967855E+02  0.27106513293E+02 -0.34064921684E+03  0.34310670720E+03  0.00000000000E+00 0. -1.
         21    1    1    2  504  502  0.64168987991E+02 -0.80246722999E+02  0.99237090952E+03  0.99767590811E+03  0.00000000000E+00 0. -1.
         21    1    1    2  505  501 -0.31249946735E+02 -0.39869576714E+02  0.10985518389E+03  0.12097232637E+03  0.00000000000E+00 0. -1.
          1    1    1    2  501    0 -0.63669009112E+02  0.93009786420E+02 -0.31174702233E+03  0.33149776624E+03  0.00000000000E+00 0. -1.
<scales pt_clust_3="40.99175" pt_clust_4="123.67959" pt_clust_5="49.97804" pt_clust_6="14000.00000"></scales>
<clustering>
<clus scale="   40.992">  2  3  1 -1</clus>
<clus scale="   49.978">  1  5  2 -1</clus>
<clus scale="  123.680">  1  4  2 -1</clus>
<clus scale="   49.978">  1  3  2 -1</clus>
</clustering>
</event>
<event>
 6    0  0.7258365E+002  0.1077003E+03  0.7546771E-02  0.1264889E+00
          1   -1    0    0  503    0 -0.00000000000E+00  0.00000000000E+00  0.62756235273E+03  0.62756235273E+03  0.00000000000E+00 0. -1.
         21   -1    0    0  505  502  0.00000000000E+00 -0.00000000000E+00 -0.25109589838E+04  0.25109589838E+04  0.00000000000E+00 0.  1.
         21    1    1    2  503  504 -0.39242700353E+02  0.20176231610E+02 -0.66585289520E+03  0.66731338058E+03  0.00000000000E+00 0.  1.
         21    1    1    2  504  502 -0.55846540306E+02 -0.18064899200E+02 -0.96236648002E+03  0.96415476896E+03  0.00000000000E+00 0.  1.
         21    1    1    2  505  501  0.11004359503E+03 -0.33704604577E+02 -0.87686401253E+03  0.88438458243E+03  0.00000000000E+00 0.  1.
          1    1    1    2  501    0 -0.14954354373E+02  0.31593272167E+02  0.62168675673E+03  0.62266860452E+03  0.00000000000E+00 0. -1.
<scales pt_clust_3="34.06476" pt_clust_4="34.06476" pt_clust_5="100.27860" pt_clust_6="34.95379"></scales>
<clustering>
<clus scale="   34.065">  3  4 -1 -1</clus>
<clus scale="   34.954">  1  6  2 -1</clus>
<clus scale="  100.279">  1  5  2 -1</clus>
<clus scale="  107.700">  2  3  1 -1</clus>
</clustering>
</event>
<event>
 6    0  0.7258365E+002  0.9057354E+02  0.7546771E-02  0.1301469E+00
         21   -1    0    0  505  502  0.00000000000E+00  0.00000000000E+00  0.19342089576E+03  0.19342089576E+03  0.00000000000E+00 0. -1.
         -2   -1    0    0    0  501 -0.00000000000E+00 -0.00000000000E+00 -0.26206099839E+03  0.26206099839E+03  0.00000000000E+00 0.  1.
         21    1    1    2  503  504  0.19476651166E+02  0.84908421370E+02 -0.83458151518E+02  0.12064013849E+03  0.00000000000E+00 0.  1.
         21    1    1    2  504  502  0.54404852800E+01 -0.88509674320E+02  0.39677800479E+02  0.97148799165E+02  0.00000000000E+00 0. -1.
         21    1    1    2  505  501  0.30358849652E+02 -0.38578833118E+01  0.98052387481E+02  0.10271715391E+03  0.00000000000E+00 0. -1.
         -2    1    1    2    0  503 -0.55275986098E+02  0.74591362615E+01 -0.12291213907E+03  0.13497580259E+03  0.00000000000E+00 0.  1.
<scales pt_clust_3="14000.00000" pt_clust_4="90.57354" pt_clust_5="30.60299" pt_clust_6="53.79297"></scales>
<clustering>
<clus scale="   30.603">  1  5  2 -1</clus>
<clus scale="   53.793">  2  6  1 -1</clus>
<clus scale="   90.574">  1  4  2 -1</clus>
<clus scale="   30.603">  1  3  2 -1</clus>
</clustering>
</event>
<event>
 6    0  0.7258365E+002  0.1065373E+03  0.7546771E-02  0.1267120E+00
         21   -1    0    0  503  502  0.00000000000E+00  0.00000000000E+00  0.38398798654E+03  0.38398798654E+03  0.00000000000E+00 0.  1.
          2   -1    0    0  504    0 -0.00000000000E+00 -0.00000000000E+00 -0.50908581953E+03  0.50908581953E+03  0.00000000000E+00 0. -1.
         21    1    1    2  503  501 -0.41142642894E+02 -0.25307239720E+01  0.21805667163E+03  0.22191852935E+03  0.00000000000E+00 0.  1.
         21    1    1    2  504  505  0.24909742874E+02  0.24786274811E+02 -0.36248050780E+02  0.50485402785E+02  0.00000000000E+00 0. -1.
         21    1    1    2  505  502  0.21360329986E+02 -0.10419965925E+03  0.13462230898E+03  0.17157213865E+03  0.00000000000E+00 0.  1.
          2    1    1    2  501    0 -0.51274299661E+01  0.81944108415E+02 -0.44152876281E+03  0.44909773528E+03  0.00000000000E+00 0. -1.
<scales pt_clust_3="41.11112" pt_clust_4="35.14050" pt_clust_5="106.53726" pt_clust_6="14000.00000"></scales>
<clustering>
<clus scale="   35.140">  2  4  1 -1</clus>
<clus scale="   41.111">  1  3  2 -1</clus>
<clus scale="  106.537">  1  5  2 -1</clus>
<clus scale="   41.111">  1  3  2 -1</clus>
</clustering>
</event>
<event>
 6    0  0.7258365E+002  0.1955741E+03  0.7546771E-02  0.1153528E+00
          2   -1    0    0  504    0 -0.00000000000E+00  0.00000000000E+00  0.21079981756E+03  0.21079981756E+03  0.00000000000E+00 0.  1.
         21   -1    0    0  505  502  0.00000000000E+00 -0.00000000000E+00 -0.76189152013E+03  0.76189152013E+03  0.00000000000E+00 0. -1.
         21    1    1    2  503  502  0.27806656968E+02 -0.34866727889E+02 -0.21056195976E+03  0.21523298489E+03  0.00000000000E+00 0. -1.
         21    1    1    2  504  503  0.82492146362E+02  0.14912129909E+03 -0.21607576139E+03  0.27519238855E+03  0.00000000000E+00 0. -1.
         21    1    1    2  505  501  0.53282907777E+02  0.87806867420E+01 -0.24082914009E+03  0.24680932608E+03  0.00000000000E+00 0. -1.
          2    1    1    2  501    0 -0.16358171111E+03 -0.12303525794E+03  0.11637515867E+03  0.23545663818E+03  0.00000000000E+00 0.  1.
<scales pt_clust_3="44.59707" pt_clust_4="14000.00000" pt_clust_5="65.97393" pt_clust_6="195.57406"></scales>
<clustering>
<clus scale="   44.597">  2  3  1 -1</clus>
<clus scale="   65.974">  2  5  1 -1</clus>
<clus scale="  195.574">  1  6  2 -1</clus>
<clus scale="   44.597">  2  3  1 -1</clus>
</clustering>
</event>
<event>
 6    0  0.7258365E+002  0.1694081E+03  0.7546771E-02  0.1178467E+00
          1   -1    0    0  502    0 -0.00000000000E+00  0.00000000000E+00  0.20498907322E+03  0.20498907322E+03  0.00000000000E+00 0. -1.
         21   -1    0    0  503  502  0.00000000000E+00 -0.00000000000E+00 -0.12342786470E+04  0.12342786470E+04  0.00000000000E+00 0. -1.
         21    1    1    2  503  505 -0.44250754933E+02 -0.74145390945E+02 -0.52673188385E+03  0.53376225585E+03  0.00000000000E+00 0. -1.
         21    1    1    2  504  501  0.63909902439E+02  0.19482196030E+03 -0.39761547592E+03  0.44736801242E+03  0.00000000000E+00 0. -1.
         21    1    1    2  505  504 -0.12388415838E+03  0.18969392928E+02 -0.21726471153E+03  0.25082080743E+03  0.00000000000E+00 0. -1.
          1    1    1    2  501    0  0.10422501088E+03 -0.13964596228E+03  0.11232249748E+03  0.20731664456E+03  0.00000000000E+00 0. -1.
<scales pt_clust_3="86.34621" pt_clust_4="14000.00000" pt_clust_5="138.71083" pt_clust_6="169.40806"></scales>
<clustering>
<clus scale="   86.346">  2  3  1 -1</clus>
<clus scale="  138.711">  2  5  1 -1</clus>
<clus scale="  169.408">  1  6  2 -1</clus>
<clus scale="   86.346">  2  3  1 -1</clus>
</clustering>
</event>
<event>
 6    0  0.7258365E+002  0.1722905E+03  0.7546771E-02  0.1175480E+00
         -4   -1    0    0    0  501 -0.00000000000E+00  0.00000000000E+00  0.24700621188E+03  0.24700621188E+03  0.00000000000E+00 0.  1.
         21   -1    0    0  503  502  0.00000000000E+00 -0.00000000000E+00 -0.40897357863E+03  0.40897357863E+03  0.00000000000E+00 0.  1.
         21    1    1    2  503  504 -0.24985883389E+02  0.22531784961E+02 -0.18571036363E+03  0.18873344924E+03  0.00000000000E+00 0.  1.
         21    1    1    2  504  501  0.14460996019E+03  0.79484782566E+02 -0.48961903305E+02  0.17212535903E+03  0.00000000000E+00 0.  1.
         21    1    1    2  505  502 -0.18930878626E+03 -0.57062562843E+02  0.24585663806E+02  0.19924459214E+03  0.00000000000E+00 0.  1.
         -4    1    1    2    0  505  0.69684709452E+02 -0.44954004684E+02  0.48119236375E+02  0.95876390096E+02  0.00000000000E+00 0.  1.
<scales pt_clust_3="33.64485" pt_clust_4="172.29050" pt_clust_5="14000.00000" pt_clust_6="79.35257"></scales>
<clustering>
<clus scale="   33.645">  2  3  1 -1</clus>
<clus scale="   79.353">  1  6  2 -1</clus>
<clus scale="  172.291">  2  4  1 -1</clus>
<clus scale="   33.645">  2  3  1 -1</clus>
</clustering>
</event>
<event>
 6    0  0.7258365E+002  0.9020423E+02  0.7546771E-02  0.1302358E+00
          2   -1    0    0  503    0 -0.00000000000E+00  0.00000000000E+00  0.39072272897E+04  0.39072272897E+04  0.00000000000E+00 0. -1.
         21   -1    0    0  505  502  0.00000000000E+00 -0.00000000000E+00 -0.92271031757E+03  0.92271031757E+03  0.00000000000E+00 0. -1.
         21    1    1    2  503  502  0.10161160403E+01  0.76400024441E+02  0.21682777530E+04  0.21696235642E+04  0.00000000000E+00 0. -1.
         21    1    1    2  504  501 -0.65903534173E+02 -0.11284792545E+03 -0.12187531105E+03  0.17869393257E+03  0.00000000000E+00 0. -1.
         21    1    1    2  505  504  0.41797277060E+02  0.75998467645E+02 -0.76900780711E+03  0.77388357448E+03  0.00000000000E+00 0. -1.
          2    1    1    2  501    0  0.23090141073E+02 -0.39550566633E+02  0.17071223373E+04  0.17077365360E+04  0.00000000000E+00 0. -1.
<scales pt_clust_3="44.32460" pt_clust_4="90.20423" pt_clust_5="14000.00000" pt_clust_6="45.79740"></scales>
<clustering>
<clus scale="   45.797">  1  6  2 -1</clus>
<clus scale="   44.325">  1  3  2 -1</clus>
<clus scale="   90.204">  1  4  2 -1</clus>
<clus scale="   90.204">  2  3  1 -1</clus>
</clustering>
</event>
<event>
 6    0  0.7258365E+002  0.2606199E+03  0.7546771E-02  0.1106771E+00
         21   -1    0    0  505  502  0.00000000000E+00  0.00000000000E+00  0.10616302707E+04  0.10616302707E+04  0.00000000000E+00 0. -1.
          2   -1    0    0  504    0 -0.00000000000E+00 -0.00000000000E+00 -0.23928181309E+03  0.23928181309E+03  0.00000000000E+00 0.  1.
         21    1    1    2  503  502  0.41976938612E+02  0.17151595062E+03  0.33620497477E+03  0.37975461781E+03  0.00000000000E+00 0. -1.
         21    1    1    2  504  503 -0.33190990798E+01  0.65752627587E+02  0.22317945874E+03  0.23268754856E+03  0.00000000000E+00 0. -1.
         21    1    1    2  505  501 -0.84451519745E+02 -0.25753974041E+03  0.43321137706E+03  0.51100966164E+03  0.00000000000E+00 0. -1.
          2    1    1    2  501    0  0.45793680213E+02  0.20271162201E+02 -0.17024735300E+03  0.17746025574E+03  0.00000000000E+00 0.  1.
<scales pt_clust_3="40.42805" pt_clust_4="40.42805" pt_clust_5="252.06956" pt_clust_6="50.07975"></scales>
<clustering>
<clus scale="   40.428">  3  4 -1 -1</clus>
<clus scale="   50.080">  2  6  1 -1</clus>
<clus scale="  252.070">  2  5  1 -1</clus>
<clus scale="  260.620">  1  3  2 -1</clus>
</clustering>
</event>
<event>
 6    0  0.7258365E+002  0.1051606E+03  0.7546771E-02  0.1269803E+00
          1   -1    0    0  504    0 -0.00000000000E+00  0.00000000000E+00  0.25530104985E+04  0.25530104985E+04  0.00000000000E+00 0.  1.
         21   -1    0    0  505  502  0.00000000000E+00 -0.00000000000E+00 -0.25422837497E+03  0.25422837497E+03  0.00000000000E+00 0. -1.
         21    1    1    2  503  501  0.15169219208E+02  0.81591183185E+02  0.12919599009E+03  0.15355399780E+03  0.00000000000E+00 0.  1.
         21    1    1    2  504  502 -0.51563095980E+02 -0.94551824716E+02 -0.12496820081E+00  0.10769779961E+03  0.00000000000E+00 0. -1.
         21    1    1    2  505  503  0.26159605128E+02 -0.24750623892E+02 -0.18625112955E+03  0.18970082125E+03  0.00000000000E+00 0. -1.
          1    1    1    2  501    0  0.10234271644E+02  0.37711265423E+02  0.23559622312E+04  0.23562862548E+04  0.00000000000E+00 0.  1.
<scales pt_clust_3="105.16064" pt_clust_4="14000.00000" pt_clust_5="36.01275" pt_clust_6="39.03373"></scales>
<clustering>
<clus scale="   36.013">  2  5  1 -1</clus>
<clus scale="   39.034">  1  6  2 -1</clus>
<clus scale="  105.161">  1  3  2 -1</clus>
<clus scale="   36.013">  2  3  1 -1</clus>
</clustering>
</event>
<event>
 6    0  0.7258365E+002  0.1271773E+03  0.7546771E-02  0.1231705E+00
         21   -1    0    0  503  502  0.00000000000E+00  0.00000000000E+00  0.21148837770E+03  0.21148837770E+03  0.00000000000E+00 0. -1.
          1   -1    0    0  504    0 -0.00000000000E+00 -0.00000000000E+00 -0.77089945112E+03  0.77089945112E+03  0.00000000000E+00 0. -1.
         21    1    1    2  503  501 -0.10219724381E+03  0.67198620462E+02  0.81834197468E+02  0.14716238347E+03  0.00000000000E+00 0. -1.
         21    1    1    2  504  505  0.12254938851E+03  0.11858871647E+02 -0.10997508055E+03  0.16508635256E+03  0.00000000000E+00 0.  1.
         21    1    1    2  505  502 -0.26424184324E+02 -0.19278259738E+02  0.63984022031E+02  0.71859890697E+02  0.00000000000E+00 0.  1.
          1    1    1    2  501    0  0.60720396218E+01 -0.59779232371E+02 -0.59525421238E+03  0.59827920208E+03  0.00000000000E+00 0. -1.
<scales pt_clust_3="127.17728" pt_clust_4="14000.00000" pt_clust_5="32.70915" pt_clust_6="60.26149"></scales>
<clustering>
<clus scale="   32.709">  1  5  2 -1</clus>
<clus scale="   60.261">  2  6  1 -1</clus>
<clus scale="  127.177">  1  3  2 -1</clus>
<clus scale="   32.709">  1  3  2 -1</clus>
</clustering>
</event>
<event>
 6    0  0.7258365E+002  0.7806913E+02  0.7546771E-02  0.1334622E+00
          1   -1    0    0  505    0 -0.00000000000E+00  0.00000000000E+00  0.14006063891E+04  0.14006063891E+04  0.00000000000E+00 0. -1.
         21   -1    0    0  504  502  0.00000000000E+00 -0.00000000000E+00 -0.18557912330E+03  0.18557912330E+03  0.00000000000E+00 0. -1.
         21    1    1    2  503  502 -0.41854781441E+02 -0.35818147371E+02 -0.10651592323E+03  0.11991832350E+03  0.00000000000E+00 0. -1.
         21    1    1    2  504  501  0.83834644345E+02  0.66295060086E+00 -0.27793673755E+02  0.88324262787E+02  0.00000000000E+00 0. -1.
         21    1    1    2  505  503 -0.58166730093E+02  0.10750128320E+03  0.27367871784E+03  0.29973310624E+03  0.00000000000E+00 0. -1.
          1    1    1    2  501    0  0.16186867189E+02 -0.72346086433E+02  0.10756581449E+04  0.10782098199E+04  0.00000000000E+00 0. -1.
<scales pt_clust_3="55.08868" pt_clust_4="57.56368" pt_clust_5="78.06913" pt_clust_6="14000.00000"></scales>
<clustering>
<clus scale="   55.089">  2  3  1 -1</clus>
<clus scale="   57.564">  2  4  1 -1</clus>
<clus scale="   78.069">  2  5  1 -1</clus>
<clus scale="   55.089">  2  3  1 -1</clus>
</clustering>
</event>
<event>
 6    0  0.7258365E+002  0.1020593E+03  0.7546771E-02  0.1276024E+00
         21   -1    0    0  504  502  0.00000000000E+00  0.00000000000E+00  0.10292372873E+04  0.10292372873E+04  0.00000000000E+00 0. -1.
          2   -1    0    0  505    0 -0.00000000000E+00 -0.00000000000E+00 -0.65089314042E+03  0.65089314042E+03  0.00000000000E+00 0. -1.
         21    1    1    2  503  501 -0.51223121148E+02  0.43623331690E+02  0.32048640971E+03  0.32747265842E+03  0.00000000000E+00 0. -1.
         21    1    1    2  504  503 -0.44265265242E+02  0.82478460616E+02  0.59654734296E+03  0.60384670452E+03  0.00000000000E+00 0. -1.
         21    1    1    2  505  502  0.64886202678E+02 -0.36357701485E+02  0.87867070061E+02  0.11512047497E+03  0.00000000000E+00 0.  1.
          2    1    1    2  501    0  0.30602183712E+02 -0.89744090820E+02 -0.62655667588E+03  0.63369058978E+03  0.00000000000E+00 0. -1.
<scales pt_clust_3="31.55335" pt_clust_4="31.55335" pt_clust_5="74.37810" pt_clust_6="95.03124"></scales>
<clustering>
<clus scale="   31.553">  3  4 -1 -1</clus>
<clus scale="   74.378">  1  5  2 -1</clus>
<clus scale="   95.031">  2  6  1 -1</clus>
<clus scale="   74.378">  1  3  2 -1</clus>
</clustering>
</event>
<event>
 6    0  0.7258365E+002  0.1433465E+03  0.7546771E-02  0.1208896E+00
          3   -1    0    0  505    0 -0.00000000000E+00  0.00000000000E+00  0.33926159571E+03  0.33926159571E+03  0.00000000000E+00 0.  1.
         21   -1    0    0  503  502  0.00000000000E+00 -0.00000000000E+00 -0.29805961794E+03  0.29805961794E+03  0.00000000000E+00 0.  1.
         21    1    1    2  503  501 -0.47546386318E+02 -0.28202583669E+02 -0.32329032335E+02  0.64040697289E+02  0.00000000000E+00 0. -1.
         21    1    1    2  504  502  0.15017759267E+03 -0.68963227214E+02 -0.14340568355E+03  0.21880225346E+03  0.00000000000E+00 0.  1.
         21    1    1    2  505  504 -0.97239449804E+02  0.62107474967E+02 -0.18089287746E+02  0.11679071614E+03  0.00000000000E+00 0.  1.
          3    1    1    2  501    0 -0.53917565475E+01  0.35058335917E+02  0.23502598140E+03  0.23768754677E+03  0.00000000000E+00 0.  1.
<scales pt_clust_3="53.48104" pt_clust_4="143.34653" pt_clust_5="14000.00000" pt_clust_6="35.47052"></scales>
<clustering>
<clus scale="   35.471">  1  6  2 -1</clus>
<clus scale="   53.481">  1  3  2 -1</clus>
<clus scale="  143.347">  2  4  1 -1</clus>
<clus scale="  143.347">  2  3  1 -1</clus>
</clustering>
</event>
<event>
 6    0  0.7258365E+002  0.8276897E+02  0.7546771E-02  0.1321372E+00
         21   -1    0    0  503  502  0.00000000000E+00  0.00000000000E+00  0.24207507612E+03  0.24207507612E+03  0.00000000000E+00 0. -1.
          1   -1    0    0  505    0 -0.00000000000E+00 -0.00000000000E+00 -0.45035314769E+03  0.45035314769E+03  0.00000000000E+00 0.  1.
         21    1    1    2  503  504 -0.55027229510E+02 -0.62414831840E+02  0.17287155830E+03  0.19185458788E+03  0.00000000000E+00 0. -1.
         21    1    1    2  504  501  0.67619110188E+02 -0.57354529984E+01 -0.77977957746E+02  0.10337214991E+03  0.00000000000E+00 0.  1.
         21    1    1    2  505  502 -0.53090691918E+02  0.92748945385E+02 -0.18310559281E+02  0.10842631147E+03  0.00000000000E+00 0. -1.
          1    1    1    2  501    0  0.40498811240E+02 -0.24598660547E+02 -0.28486111285E+03  0.28877517453E+03  0.00000000000E+00 0.  1.
<scales pt_clust_3="82.76897" pt_clust_4="82.10444" pt_clust_5="14000.00000" pt_clust_6="47.38405"></scales>
<clustering>
<clus scale="   47.384">  2  6  1 -1</clus>
<clus scale="   82.769">  1  3  2 -1</clus>
<clus scale="   82.104">  2  4  1 -1</clus>
<clus scale="   82.769">  1  3  2 -1</clus>
</clustering>
</event>
<event>
 6    0  0.7258365E+002  0.8925779E+02  0.7546771E-02  0.1304659E+00
          2   -1    0    0  503    0 -0.00000000000E+00  0.00000000000E+00  0.23699663752E+04  0.23699663752E+04  0.00000000000E+00 0. -1.
         21   -1    0    0  505  502  0.00000000000E+00 -0.00000000000E+00 -0.13174415141E+03  0.13174415141E+03  0.00000000000E+00 0.  1.
         21    1    1    2  503  504  0.32232207836E+02 -0.11033744309E+03  0.75737888508E+02  0.13765716227E+03  0.00000000000E+00 0. -1.
         21    1    1    2  504  502  0.86380129102E+01  0.28755749214E+02 -0.97264581891E+02  0.10179345397E+03  0.00000000000E+00 0.  1.
         21    1    1    2  505  501 -0.45896441728E+02  0.32288251489E+02  0.10530291884E+04  0.10545233455E+04  0.00000000000E+00 0. -1.
          2    1    1    2  501    0  0.50262209821E+01  0.49293442382E+02  0.12067197288E+04  0.12077365649E+04  0.00000000000E+00 0. -1.
<scales pt_clust_3="89.25779" pt_clust_4="30.02513" pt_clust_5="14000.00000" pt_clust_6="50.01442"></scales>
<clustering>
<clus scale="   30.025">  2  4  1 -1</clus>
<clus scale="   50.014">  1  6  2 -1</clus>
<clus scale="   89.258">  2  3  1 -1</clus>
<clus scale="   30.025">  2  3  1 -1</clus>
</clustering>
</event>
<event>
 6    0  0.7258365E+002  0.6233981E+02  0.7546771E-02  0.1388267E+00
         21   -1    0    0  505  502  0.00000000000E+00  0.00000000000E+00  0.16349701066E+03  0.16349701066E+03  0.00000000000E+00 0.  1.
          1   -1    0    0  504    0 -0.00000000000E+00 -0.00000000000E+00 -0.88071625331E+03  0.88071625331E+03  0.00000000000E+00 0.  1.
         21    1    1    2  503  502 -0.56969671901E+02 -0.15765331437E+02  0.88113092954E+02  0.10610375272E+03  0.00000000000E+00 0.  1.
         21    1    1    2  504  503  0.11122347402E+02 -0.46402642463E+02 -0.15100390093E+02  0.50049311885E+02  0.00000000000E+00 0. -1.
         21    1    1    2  505  501  0.56045653873E+02  0.10380415396E+03 -0.23693075165E+02  0.12032364484E+03  0.00000000000E+00 0.  1.
          1    1    1    2  501    0 -0.10198329374E+02 -0.41636180058E+02 -0.76653887035E+03  0.76773655453E+03  0.00000000000E+00 0.  1.
<scales pt_clust_3="14000.00000" pt_clust_4="58.91715" pt_clust_5="62.33981" pt_clust_6="42.86697"></scales>
<clustering>
<clus scale="   42.867">  2  6  1 -1</clus>
<clus scale="   58.917">  2  4  1 -1</clus>
<clus scale="   62.340">  2  5  1 -1</clus>
<clus scale="   62.340">  1  3  2 -1</clus>
</clustering>
</event>
<event>
 6    0  0.7258365E+002  0.1607292E+03  0.7546771E-02  0.1187876E+00
          2   -1    0    0  505    0 -0.00000000000E+00  0.00000000000E+00  0.12678314857E+04  0.12678314857E+04  0.00000000000E+00 0.  1.
         21   -1    0    0  504  502  0.00000000000E+00 -0.00000000000E+00 -0.67717614311E+03  0.67717614311E+03  0.00000000000E+00 0. -1.
         21    1    1    2  503  502 -0.31508606046E+02  0.22829244265E+02 -0.52831494235E+03  0.52974583053E+03  0.00000000000E+00 0. -1.
         21    1    1    2  504  501  0.78869165210E+02  0.47901410675E+02 -0.10862360928E+03  0.14252711622E+03  0.00000000000E+00 0. -1.
         21    1    1    2  505  503  0.64376149860E+02 -0.16684259690E+03  0.82102953383E+03  0.84027985590E+03  0.00000000000E+00 0.  1.
          2    1    1    2  501    0 -0.11173670902E+03  0.96111941962E+02  0.40656436035E+03  0.43245482612E+03  0.00000000000E+00 0.  1.
<scales pt_clust_3="38.90972" pt_clust_4="85.10978" pt_clust_5="160.72922" pt_clust_6="14000.00000"></scales>
<clustering>
<clus scale="   38.910">  2  3  1 -1</clus>
<clus scale="   85.110">  2  4  1 -1</clus>
<clus scale="  160.729">  1  5  2 -1</clus>
<clus scale="   38.910">  2  3  1 -1</clus>
</clustering>
</event>
<event>
 6    0  0.7258365E+002  0.7657952E+02  0.7546771E-02  0.1339048E+00
          2   -1    0    0  505    0 -0.00000000000E+00  0.00000000000E+00  0.11688961918E+04  0.11688961918E+04  0.00000000000E+00 0.  1.
         21   -1    0    0  503  502  0.00000000000E+00 -0.00000000000E+00 -0.37980815292E+03  0.37980815292E+03  0.00000000000E+00 0. -1.
         21    1    1    2  503  504  0.20288091818E+02  0.70147003461E+02 -0.54001655297E+02  0.90820633883E+02  0.00000000000E+00 0. -1.
         21    1    1    2  504  501 -0.92837688912E+02  0.12565394877E+02  0.62482390219E+02  0.11260894600E+03  0.00000000000E+00 0.  1.
         21    1    1    2  505  502  0.58611307952E+02 -0.18710713302E+02 -0.27795749353E+03  0.28468534283E+03  0.00000000000E+00 0. -1.
          2    1    1    2  501    0  0.13938289142E+02 -0.64001685036E+02  0.10585647975E+04  0.10605894221E+04  0.00000000000E+00 0.  1.
<scales pt_clust_3="76.57952" pt_clust_4="14000.00000" pt_clust_5="61.52541" pt_clust_6="65.82024"></scales>
<clustering>
<clus scale="   61.525">  2  5  1 -1</clus>
<clus scale="   65.820">  1  6  2 -1</clus>
<clus scale="   76.580">  2  3  1 -1</clus>
<clus scale="   61.525">  2  3  1 -1</clus>
</clustering>
</event>
<event>
 6    0  0.7258365E+002  0.2200303E+03  0.7546771E-02  0.1133860E+00
         -2   -1    0    0    0  501 -0.00000000000E+00  0.00000000000E+00  0.12060183303E+04  0.12060183303E+04  0.00000000000E+00 0.  1.
         21   -1    0    0  505  502  0.00000000000E+00 -0.00000000000E+00 -0.42939160502E+03  0.42939160502E+03  0.00000000000E+00 0.  1.
         21    1    1    2  503  502  0.21993500407E+03  0.81639233393E+02  0.12869400434E+03  0.26757899245E+03  0.00000000000E+00 0.  1.
         21    1    1    2  504  501 -0.15045212324E+03 -0.35259446111E+02  0.11432329472E+03  0.19222092926E+03  0.00000000000E+00 0.  1.
         21    1    1    2  505  504 -0.20917888043E+03 -0.59181242846E+02 -0.27747037150E+03  0.35248834106E+03  0.00000000000E+00 0.  1.
         -2    1    1    2    0  503  0.13969599960E+03  0.12801455564E+02  0.81107979773E+03  0.82312167257E+03  0.00000000000E+00 0.  1.
<scales pt_clust_3="14000.00000" pt_clust_4="100.06846" pt_clust_5="220.03029" pt_clust_6="140.28132"></scales>
<clustering>
<clus scale="  140.281">  1  6  2 -1</clus>
<clus scale="  100.068">  1  4  2 -1</clus>
<clus scale="  220.030">  2  5  1 -1</clus>
<clus scale="  220.030">  2  3  1 -1</clus>
</clustering>
</event>
<event>
 6    0  0.7258365E+002  0.9622359E+02  0.7546771E-02  0.1288444E+00
         -4   -1    0    0    0  501 -0.00000000000E+00  0.00000000000E+00  0.39835951197E+03  0.39835951197E+03  0.00000000000E+00 0.  1.
         21   -1    0    0  503  502  0.00000000000E+00 -0.00000000000E+00 -0.93433436967E+03  0.93433436967E+03  0.00000000000E+00 0.  1.
         21    1    1    2  503  501 -0.28094165237E+02 -0.79750408895E+02 -0.45177637607E+03  0.45962082613E+03  0.00000000000E+00 0.  1.
         21    1    1    2  504  502  0.86026812617E+02  0.97565687008E+02 -0.43957670510E+03  0.45841831926E+03  0.00000000000E+00 0.  1.
         21    1    1    2  505  504 -0.56123320561E+02  0.12892743156E+02 -0.36271418600E+00  0.57586296100E+02  0.00000000000E+00 0.  1.
         -4    1    1    2    0  505 -0.18093268186E+01 -0.30708021270E+02  0.35574093765E+03  0.35706844015E+03  0.00000000000E+00 0.  1.
<scales pt_clust_3="96.22359" pt_clust_4="14000.00000" pt_clust_5="57.91924" pt_clust_6="30.76128"></scales>
<clustering>
<clus scale="   30.761">  1  6  2 -1</clus>
<clus scale="   57.919">  1  5  2 -1</clus>
<clus scale="   96.224">  2  3  1 -1</clus>
<clus scale="   96.224">  2  3  1 -1</clus>
</clustering>
</event>
<event>
 6    0  0.7258365E+002  0.1116196E+03  0.7546771E-02  0.1257600E+00
         21   -1    0    0  503  502  0.00000000000E+00  0.00000000000E+00  0.12707921807E+03  0.12707921807E+03  0.00000000000E+00 0. -1.
          1   -1    0    0  505    0 -0.00000000000E+00 -0.00000000000E+00 -0.47200718334E+04  0.47200718334E+04  0.00000000000E+00 0. -1.
         21    1    1    2  503  501  0.88866261995E+02 -0.56369778159E+01 -0.66978178235E+03  0.67567493961E+03  0.00000000000E+00 0.  1.
         21    1    1    2  504  502  0.36228136838E+02  0.22904946343E+02  0.11893971947E+03  0.12642694070E+03  0.00000000000E+00 0. -1.
         21    1    1    2  505  504 -0.11882777213E+03  0.12239660550E+02 -0.28243940427E+04  0.28269190928E+04  0.00000000000E+00 0.  1.
          1    1    1    2  501    0 -0.62666267045E+01 -0.29507629077E+02 -0.12177565097E+04  0.12181300783E+04  0.00000000000E+00 0. -1.
<scales pt_clust_3="111.61957" pt_clust_4="42.83906" pt_clust_5="14000.00000" pt_clust_6="30.16572"></scales>
<clustering>
<clus scale="   30.166">  2  6  1 -1</clus>
<clus scale="   42.839">  1  4  2 -1</clus>
<clus scale="  111.620">  1  3  2 -1</clus>
<clus scale="   42.839">  1  3  2 -1</clus>
</clustering>
</event>
<event>
 6    0  0.7258365E+002  0.1155176E+03  0.7546771E-02  0.1250680E+00
          2   -1    0    0  505    0 -0.00000000000E+00  0.00000000000E+00  0.30285179027E+04  0.30285179027E+04  0.00000000000E+00 0.  1.
         21   -1    0    0  504  502  0.00000000000E+00 -0.00000000000E+00 -0.91742676132E+02  0.91742676132E+02  0.00000000000E+00 0. -1.
         21    1    1    2  503  501 -0.41061246533E+02 -0.17190204081E+03  0.27619384554E+03  0.32790147592E+03  0.00000000000E+00 0. -1.
         21    1    1    2  504  503  0.10101666376E+02  0.10625124698E+03 -0.19843162519E+02  0.10855930290E+03  0.00000000000E+00 0. -1.
         21    1    1    2  505  502 -0.21369896986E+01  0.43705945562E+02  0.31318142182E+03  0.31622362242E+03  0.00000000000E+00 0. -1.
          2    1    1    2  501    0  0.33096569855E+02  0.21944848266E+02  0.23672431217E+04  0.23675761776E+04  0.00000000000E+00 0.  1.
<scales pt_clust_3="14000.00000" pt_clust_4="115.51757" pt_clust_5="55.83818" pt_clust_6="39.71095"></scales>
<clustering>
<clus scale="   39.711">  1  6  2 -1</clus>
<clus scale="   55.838">  1  5  2 -1</clus>
<clus scale="  115.518">  2  4  1 -1</clus>
<clus scale="  115.518">  2  3  1 -1</clus>
</clustering>
</event>
<event>
 6    0  0.7258365E+002  0.7575911E+02  0.7546771E-02  0.1341536E+00
         21   -1    0    0  501  502  0.00000000000E+00  0.00000000000E+00  0.32486172207E+03  0.32486172207E+03  0.00000000000E+00 0.  1.
          1   -1    0    0  505    0 -0.00000000000E+00 -0.00000000000E+00 -0.17028053267E+04  0.17028053267E+04  0.00000000000E+00 0.  1.
         21    1    1    2  503  502  0.76583591870E+02  0.36352843426E+02  0.15288509709E+03  0.17481541317E+03  0.00000000000E+00 0.  1.
         21    1    1    2  504  503 -0.13899392653E+02 -0.85226068827E+02  0.14773559464E+03  0.17112124897E+03  0.00000000000E+00 0.  1.
         21    1    1    2  505  504 -0.39612164819E+02  0.21521426781E+02 -0.37872380810E+03  0.38139745442E+03  0.00000000000E+00 0.  1.
          1    1    1    2  501    0 -0.23072034397E+02  0.27351798620E+02 -0.12998404883E+04  0.13003329322E+04  0.00000000000E+00 0.  1.
<scales pt_clust_3="75.75911" pt_clust_4="14000.00000" pt_clust_5="77.51641" pt_clust_6="35.78323"></scales>
<clustering>
<clus scale="   35.783">  2  6  1 -1</clus>
<clus scale="   77.516">  2  5  1 -1</clus>
<clus scale="   75.759">  1  3  2 -1</clus>
<clus scale="   75.759">  1  3  2 -1</clus>
</clustering>
</event>
<event>
 6    0  0.7258365E+002  0.1512010E+03  0.7546771E-02  0.1199005E+00
         -3   -1    0    0    0  501 -0.00000000000E+00  0.00000000000E+00  0.39158431652E+03  0.39158431652E+03  0.00000000000E+00 0. -1.
         21   -1    0    0  504  502  0.00000000000E+00 -0.00000000000E+00 -0.28612835423E+03  0.28612835423E+03  0.00000000000E+00 0.  1.
         21    1    1    2  503  505 -0.55499084937E+01 -0.12628224318E+03  0.22513825260E+02  0.12839345293E+03  0.00000000000E+00 0.  1.
         21    1    1    2  504  501  0.43701046184E+02  0.17418936187E+03 -0.15544774700E+03  0.23751993027E+03  0.00000000000E+00 0.  1.
         21    1    1    2  505  502  0.15174664526E+02 -0.27563438906E+02 -0.26310682828E+02  0.41015431714E+02  0.00000000000E+00 0. -1.
         -3    1    1    2    0  503 -0.53325802216E+02 -0.20343679791E+02  0.26470056685E+03  0.27078385584E+03  0.00000000000E+00 0. -1.
<scales pt_clust_3="151.20104" pt_clust_4="14000.00000" pt_clust_5="31.46448" pt_clust_6="57.02336"></scales>
<clustering>
<clus scale="   31.464">  2  5  1 -1</clus>
<clus scale="   57.023">  1  6  2 -1</clus>
<clus scale="  151.201">  1  3  2 -1</clus>
<clus scale="   31.464">  2  3  1 -1</clus>
</clustering>
</event>
<event>
 6    0  0.7258365E+002  0.2362466E+03  0.7546771E-02  0.1122319E+00
         21   -1    0    0  503  502  0.00000000000E+00  0.00000000000E+00  0.52672685403E+03  0.52672685403E+03  0.00000000000E+00 0.  1.
          2   -1    0    0  504    0 -0.00000000000E+00 -0.00000000000E+00 -0.10538567086E+04  0.10538567086E+04  0.00000000000E+00 0.  1.
         21    1    1    2  503  505  0.41284231697E+02 -0.98466279379E+02  0.16148319230E+03  0.19358930073E+03  0.00000000000E+00 0.  1.
         21    1    1    2  504  502  0.75121915183E+02  0.33151622483E+03  0.18701544958E+03  0.38797047291E+03  0.00000000000E+00 0.  1.
         21    1    1    2  505  501 -0.20831466621E+02 -0.16072287989E+03 -0.57199571522E+02  0.17186502001E+03  0.00000000000E+00 0.  1.
          2    1    1    2  501    0 -0.95574680258E+02 -0.72327065558E+02 -0.81842892497E+03  0.82715876900E+03  0.00000000000E+00 0.  1.
<scales pt_clust_3="106.77076" pt_clust_4="236.24661" pt_clust_5="14000.00000" pt_clust_6="120.19529"></scales>
<clustering>
<clus scale="  106.771">  1  3  2 -1</clus>
<clus scale="  120.195">  2  6  1 -1</clus>
<clus scale="  236.247">  1  4  2 -1</clus>
<clus scale="  106.771">  1  3  2 -1</clus>
</clustering>
</event>
<event>
 6    0  0.7258365E+002  0.8650285E+02  0.7546771E-02  0.1311549E+00
         21   -1    0    0  503  502  0.00000000000E+00  0.00000000000E+00  0.86901242786E+01  0.86901242786E+01  0.00000000000E+00 0.  1.
          1   -1    0    0  505    0 -0.00000000000E+00 -0.00000000000E+00 -0.33154312777E+04  0.33154312777E+04  0.00000000000E+00 0.  1.
         21    1    1    2  503  501  0.18187083865E+02  0.24731483657E+02 -0.81906434031E+02  0.87470453520E+02  0.00000000000E+00 0.  1.
         21    1    1    2  504  502  0.65342692344E+02 -0.28817352014E+02 -0.50339377602E+03  0.50843426415E+03  0.00000000000E+00 0.  1.
         21    1    1    2  505  504 -0.94210309346E+02 -0.66616523018E+02 -0.19718630541E+04  0.19752359980E+04  0.00000000000E+00 0.  1.
          1    1    1    2  501    0  0.10680533138E+02  0.70702391375E+02 -0.74957788925E+03  0.75298068633E+03  0.00000000000E+00 0.  1.
<scales pt_clust_3="30.69880" pt_clust_4="75.34874" pt_clust_5="86.50285" pt_clust_6="14000.00000"></scales>
<clustering>
<clus scale="   30.699">  1  3  2 -1</clus>
<clus scale="   75.349">  1  4  2 -1</clus>
<clus scale="   86.503">  2  5  1 -1</clus>
<clus scale="   30.699">  1  3  2 -1</clus>
</clustering>
</event>
<event>
 6    0  0.7258365E+002  0.7848919E+02  0.7546771E-02  0.1333394E+00
         -1   -1    0    0    0  501 -0.00000000000E+00  0.00000000000E+00  0.11073840009E+03  0.11073840009E+03  0.00000000000E+00 0. -1.
         21   -1    0    0  505  502  0.00000000000E+00 -0.00000000000E+00 -0.10790091419E+04  0.10790091419E+04  0.00000000000E+00 0. -1.
         21    1    1    2  503  501 -0.32112793138E+02 -0.12704979984E+02 -0.46212329230E+02  0.57690791053E+02  0.00000000000E+00 0. -1.
         21    1    1    2  504  502  0.34602559860E+02  0.69538663122E+02 -0.93432797461E+03  0.93755091966E+03  0.00000000000E+00 0. -1.
         21    1    1    2  505  503  0.77343856302E+02  0.17267501808E+02  0.28832372282E+02  0.84329973424E+02  0.00000000000E+00 0.  1.
         -1    1    1    2    0  504 -0.79833623024E+02 -0.74101184946E+02 -0.16562810294E+02  0.11017585788E+03  0.00000000000E+00 0. -1.
<scales pt_clust_3="34.53474" pt_clust_4="14000.00000" pt_clust_5="60.93685" pt_clust_6="78.48919"></scales>
<clustering>
<clus scale="   34.535">  1  3  2 -1</clus>
<clus scale="   60.937">  1  5  2 -1</clus>
<clus scale="   78.489">  1  6  2 -1</clus>
<clus scale="   78.489">  2  3  1 -1</clus>
</clustering>
</event>
<event>
 6    0  0.7258365E+002  0.6991501E+02  0.7546771E-02  0.1360382E+00
         21   -1    0    0  503  502  0.00000000000E+00  0.00000000000E+00  0.78804067250E+03  0.78804067250E+03  0.00000000000E+00 0.  1.
          2   -1    0    0  504    0 -0.00000000000E+00 -0.00000000000E+00 -0.14382545969E+03  0.14382545969E+03  0.00000000000E+00 0.  1.
         21    1    1    2  503  501 -0.54148807663E+02 -0.33733512800E+02  0.57233600151E+02  0.85707223987E+02  0.00000000000E+00 0.  1.
         21    1    1    2  504  505 -0.64334820003E+02  0.36189762719E+02  0.17111134211E+03  0.18635385531E+03  0.00000000000E+00 0.  1.
         21    1    1    2  505  502  0.48624064904E+02 -0.16878843189E+02  0.52604334308E+03  0.52855538389E+03  0.00000000000E+00 0.  1.
          2    1    1    2  501    0  0.69859562762E+02  0.14422593271E+02 -0.11017307253E+03  0.13124966902E+03  0.00000000000E+00 0.  1.
<scales pt_clust_3="14000.00000" pt_clust_4="39.59015" pt_clust_5="51.47033" pt_clust_6="69.91501"></scales>
<clustering>
<clus scale="   51.470">  1  5  2 -1</clus>
<clus scale="   39.590">  1  4  2 -1</clus>
<clus scale="   69.915">  2  6  1 -1</clus>
<clus scale="   51.470">  1  3  2 -1</clus>
</clustering>
</event>
<event>
 6    0  0.7258365E+002  0.1274157E+03  0.7546771E-02  0.1231341E+00
         21   -1    0    0  504  502  0.00000000000E+00  0.00000000000E+00  0.91491893252E+02  0.91491893252E+02  0.00000000000E+00 0. -1.
          1   -1    0    0  503    0 -0.00000000000E+00 -0.00000000000E+00 -0.10244190069E+04  0.10244190069E+04  0.00000000000E+00 0. -1.
         21    1    1    2  503  505  0.35269869041E+02 -0.38074555794E+02 -0.45942379718E+03  0.46234604018E+03  0.00000000000E+00 0. -1.
         21    1    1    2  504  501  0.21444098121E+02  0.13274592073E+03 -0.95904068562E+02  0.16516331064E+03  0.00000000000E+00 0. -1.
         21    1    1    2  505  502  0.97352874930E+02 -0.76684573818E+02 -0.66182553805E+02  0.14049283450E+03  0.00000000000E+00 0. -1.
          1    1    1    2  501    0 -0.15406684209E+03 -0.17986791118E+02 -0.31141669414E+03  0.34790871486E+03  0.00000000000E+00 0. -1.
<scales pt_clust_3="51.90025" pt_clust_4="127.41573" pt_clust_5="14000.00000" pt_clust_6="125.64543"></scales>
<clustering>
<clus scale="   51.900">  2  3  1 -1</clus>
<clus scale="  127.416">  1  4  2 -1</clus>
<clus scale="  125.645">  2  6  1 -1</clus>
<clus scale="  127.416">  1  3  2 -1</clus>
</clustering>
</event>
<event>
 6    0  0.7258365E+002  0.1295767E+03  0.7546771E-02  0.1228085E+00
         21   -1    0    0  503  502  0.00000000000E+00  0.00000000000E+00  0.19199382734E+03  0.19199382734E+03  0.00000000000E+00 0. -1.
          2   -1    0    0  505    0 -0.00000000000E+00 -0.00000000000E+00 -0.22259423238E+04  0.22259423238E+04  0.00000000000E+00 0.  1.
         21    1    1    2  503  501  0.48631249647E+02  0.54965316621E+02 -0.75076207446E+01  0.73773632436E+02  0.00000000000E+00 0.  1.
         21    1    1    2  504  502 -0.18557742587E+02  0.31237683870E+02  0.82380716218E+02  0.90037576090E+02  0.00000000000E+00 0. -1.
         21    1    1    2  505  504 -0.89036514937E+02  0.31132273237E+02  0.39163310014E+02  0.10212974239E+03  0.00000000000E+00 0. -1.
          2    1    1    2  501    0  0.58963007877E+02 -0.11733527373E+03 -0.21479849019E+04  0.21519952002E+04  0.00000000000E+00 0.  1.
<scales pt_clust_3="77.62680" pt_clust_4="36.33432" pt_clust_5="129.57667" pt_clust_6="14000.00000"></scales>
<clustering>
<clus scale="   36.334">  1  4  2 -1</clus>
<clus scale="   77.627">  1  3  2 -1</clus>
<clus scale="  129.577">  1  5  2 -1</clus>
<clus scale="   36.334">  1  3  2 -1</clus>
</clustering>
</event>
<event>
 6    0  0.7258365E+002  0.1103409E+03  0.7546771E-02  0.1259940E+00
         21   -1    0    0  503  502  0.00000000000E+00  0.00000000000E+00  0.12519652156E+04  0.12519652156E+04  0.00000000000E+00 0.  1.
          1   -1    0    0  505    0 -0.00000000000E+00 -0.00000000000E+00 -0.15807951000E+03  0.15807951000E+03  0.00000000000E+00 0.  1.
         21    1    1    2  503  504 -0.34637447665E+02 -0.10628157760E+02  0.98723760773E+03  0.98790222423E+03  0.00000000000E+00 0.  1.
         21    1    1    2  504  501  0.45735523329E+02  0.26671622193E+02  0.12563453837E+03  0.13633470122E+03  0.00000000000E+00 0.  1.
         21    1    1    2  505  502 -0.10636370245E+03 -0.65098204975E+02  0.73075607884E+02  0.14453739294E+03  0.00000000000E+00 0.  1.
          1    1    1    2  501    0  0.95265626782E+02  0.49054740541E+02 -0.92062048359E+02  0.14127040725E+03  0.00000000000E+00 0.  1.
<scales pt_clust_3="36.23135" pt_clust_4="35.70436" pt_clust_5="14000.00000" pt_clust_6="110.34088"></scales>
<clustering>
<clus scale="   36.231">  1  3  2 -1</clus>
<clus scale="   35.704">  1  4  2 -1</clus>
<clus scale="  110.341">  2  6  1 -1</clus>
<clus scale="   36.231">  1  3  2 -1</clus>
</clustering>
</event>
<event>
 6    0  0.7258365E+002  0.8994989E+02  0.7546771E-02  0.1302973E+00
         -2   -1    0    0    0  501 -0.00000000000E+00  0.00000000000E+00  0.29662402005E+03  0.29662402005E+03  0.00000000000E+00 0. -1.
         21   -1    0    0  504  502  0.00000000000E+00 -0.00000000000E+00 -0.93734569177E+03  0.93734569177E+03  0.00000000000E+00 0. -1.
         21    1    1    2  503  501  0.15562202253E+01  0.73120686336E+02  0.33261728873E+02  0.80345498936E+02  0.00000000000E+00 0. -1.
         21    1    1    2  504  503  0.74487900538E+02 -0.69506447717E+02 -0.85527511718E+03  0.86132172832E+03  0.00000000000E+00 0. -1.
         21    1    1    2  505  502 -0.33518037152E+02 -0.14807363710E+02 -0.47122976903E+02  0.59693314423E+02  0.00000000000E+00 0. -1.
         -2    1    1    2    0  505 -0.42526083612E+02  0.11193125090E+02  0.22841469348E+03  0.23260917014E+03  0.00000000000E+00 0. -1.
<scales pt_clust_3="89.94989" pt_clust_4="14000.00000" pt_clust_5="36.64310" pt_clust_6="44.04246"></scales>
<clustering>
<clus scale="   36.643">  2  5  1 -1</clus>
<clus scale="   44.042">  1  6  2 -1</clus>
<clus scale="   89.950">  1  3  2 -1</clus>
<clus scale="   36.643">  2  3  1 -1</clus>
</clustering>
</event>
<event>
 6    0  0.7258365E+002  0.7370839E+02  0.7546771E-02  0.1347918E+00
          3   -1    0    0  504    0 -0.00000000000E+00  0.00000000000E+00  0.19340127223E+04  0.19340127223E+04  0.00000000000E+00 0. -1.
         21   -1    0    0  505  502  0.00000000000E+00 -0.00000000000E+00 -0.22826368232E+02  0.22826368232E+02  0.00000000000E+00 0. -1.
         21    1    1    2  503  501 -0.37160348864E+02 -0.57824841089E+02  0.11325566471E+03  0.13248188315E+03  0.00000000000E+00 0. -1.
         21    1    1    2  504  502 -0.76494866703E+02  0.36238401080E+02  0.63067950272E+03  0.63633428440E+03  0.00000000000E+00 0. -1.
         21    1    1    2  505  503  0.47075643831E+02 -0.27136552571E+02  0.74758304365E+02  0.92419223104E+02  0.00000000000E+00 0. -1.
          3    1    1    2  501    0  0.66579571735E+02  0.48722992580E+02  0.10924928823E+04  0.10956036999E+04  0.00000000000E+00 0. -1.
<scales pt_clust_3="73.05631" pt_clust_4="73.70839" pt_clust_5="54.33699" pt_clust_6="14000.00000"></scales>
<clustering>
<clus scale="   54.337">  2  5  1 -1</clus>
<clus scale="   73.708">  1  4  2 -1</clus>
<clus scale="   73.056">  2  3  1 -1</clus>
<clus scale="   54.337">  2  3  1 -1</clus>
</clustering>
</event>
<event>
 6    0  0.7258365E+002  0.6393466E+02  0.7546771E-02  0.1382024E+00
          2   -1    0    0  504    0 -0.00000000000E+00  0.00000000000E+00  0.38334742079E+03  0.38334742079E+03  0.00000000000E+00 0.  1.
         21   -1    0    0  501  502  0.00000000000E+00 -0.00000000000E+00 -0.11898134046E+04  0.11898134046E+04  0.00000000000E+00 0. -1.
         21    1    1    2  503  502  0.55723746690E+02  0.16026850244E+02 -0.32351513329E+03  0.32867010412E+03  0.00000000000E+00 0. -1.
         21    1    1    2  504  505 -0.48251411976E+02  0.91300363945E+02 -0.21030121491E+03  0.23428733685E+03  0.00000000000E+00 0. -1.
         21    1    1    2  505  503 -0.28398353203E+02 -0.61616976133E+02 -0.63790587337E+03  0.64150371900E+03  0.00000000000E+00 0. -1.
          2    1    1    2  501    0  0.20926018488E+02 -0.45710238057E+02  0.36525623772E+03  0.36869966546E+03  0.00000000000E+00 0.  1.
<scales pt_clust_3="59.67550" pt_clust_4="63.93466" pt_clust_5="14000.00000" pt_clust_6="50.27250"></scales>
<clustering>
<clus scale="   50.272">  1  6  2 -1</clus>
<clus scale="   59.676">  2  3  1 -1</clus>
<clus scale="   63.935">  1  4  2 -1</clus>
<clus scale="   59.676">  2  3  1 -1</clus>
</clustering>
</event>
<event>
 6    0  0.7258365E+002  0.6776592E+02  0.7546771E-02  0.1367859E+00
         21   -1    0    0  501  502  0.00000000000E+00  0.00000000000E+00  0.72887914863E+02  0.72887914863E+02  0.00000000000E+00 0.  1.
         -2   -1    0    0    0  501 -0.00000000000E+00 -0.00000000000E+00 -0.60993307194E+03  0.60993307194E+03  0.00000000000E+00 0. -1.
         21    1    1    2  503  505 -0.30288339222E+02 -0.53936707663E+02 -0.71268376437E+01  0.62268320526E+02  0.00000000000E+00 0.  1.
         21    1    1    2  504  503  0.11545830875E+03  0.13346401140E+02 -0.28039977841E+03  0.30353382549E+03  0.00000000000E+00 0. -1.
         21    1    1    2  505  502 -0.31775604692E+02  0.35394411274E+02  0.12810854794E+02  0.49260241611E+02  0.00000000000E+00 0. -1.
         -2    1    1    2    0  504 -0.53394364837E+02  0.51958952490E+01 -0.26232939582E+03  0.26775859918E+03  0.00000000000E+00 0. -1.
<scales pt_clust_3="67.76592" pt_clust_4="14000.00000" pt_clust_5="47.56525" pt_clust_6="55.95912"></scales>
<clustering>
<clus scale="   47.565">  1  5  2 -1</clus>
<clus scale="   55.959">  2  6  1 -1</clus>
<clus scale="   67.766">  1  3  2 -1</clus>
<clus scale="   47.565">  1  3  2 -1</clus>
</clustering>
</event>
<event>
 6    0  0.7258365E+002  0.1518545E+03  0.7546771E-02  0.1198213E+00
         21   -1    0    0  504  502  0.00000000000E+00  0.00000000000E+00  0.37173934739E+02  0.37173934739E+02  0.00000000000E+00 0. -1.
          2   -1    0    0  503    0 -0.00000000000E+00 -0.00000000000E+00 -0.19645696030E+04  0.19645696030E+04  0.00000000000E+00 0. -1.
         21    1    1    2  503  505 -0.16889687803E+03  0.10348415575E+02 -0.13032108092E+04  0.13141505463E+04  0.00000000000E+00 0. -1.
         21    1    1    2  504  501  0.73286293789E+02 -0.99289994195E+02 -0.25351504872E+03  0.28195613796E+03  0.00000000000E+00 0. -1.
         21    1    1    2  505  502 -0.16815817037E+02  0.34973554862E+02 -0.68213713589E+02  0.78479500278E+02  0.00000000000E+00 0. -1.
          2    1    1    2  501    0  0.11242640128E+03  0.53968023758E+02 -0.30245609668E+03  0.32715735314E+03  0.00000000000E+00 0. -1.
<scales pt_clust_3="151.85447" pt_clust_4="106.53516" pt_clust_5="38.80620" pt_clust_6="14000.00000"></scales>
<clustering>
<clus scale="   38.806">  1  5  2 -1</clus>
<clus scale="  106.535">  1  4  2 -1</clus>
<clus scale="  151.854">  2  3  1 -1</clus>
<clus scale="   38.806">  1  3  2 -1</clus>
</clustering>
</event>
<event>
 6    0  0.7258365E+002  0.9976948E+02  0.7546771E-02  0.1280781E+00
          2   -1    0    0  505    0 -0.00000000000E+00  0.00000000000E+00  0.89422563054E+03  0.89422563054E+03  0.00000000000E+00 0. -1.
         21   -1    0    0  504  502  0.00000000000E+00 -0.00000000000E+00 -0.15684363186E+03  0.15684363186E+03  0.00000000000E+00 0.  1.
         21    1    1    2  503  501 -0.50649547162E+02 -0.82857646176E+02  0.13089886191E+03  0.16298858306E+03  0.00000000000E+00 0. -1.
         21    1    1    2  504  503 -0.45731164506E+01  0.29823424675E+02 -0.11243521304E+02  0.32198863718E+02  0.00000000000E+00 0.  1.
         21    1    1    2  505  502  0.99395786413E+02  0.15661794898E+02 -0.96439809427E+02  0.13937521666E+03  0.00000000000E+00 0.  1.
          2    1    1    2  501    0 -0.44173122801E+02  0.37372426603E+02  0.71416646750E+03  0.71650659896E+03  0.00000000000E+00 0. -1.
<scales pt_clust_3="99.76948" pt_clust_4="30.17201" pt_clust_5="14000.00000" pt_clust_6="58.05887"></scales>
<clustering>
<clus scale="   30.172">  2  4  1 -1</clus>
<clus scale="   58.059">  1  6  2 -1</clus>
<clus scale="   99.769">  1  3  2 -1</clus>
<clus scale="   30.172">  2  3  1 -1</clus>
</clustering>
</event>
<event>
 6    0  0.7258365E+002  0.1121905E+03  0.7546771E-02  0.1256566E+00
         21   -1    0    0  501  502  0.00000000000E+00  0.00000000000E+00  0.12862777164E+03  0.12862777164E+03  0.00000000000E+00 0. -1.
          2   -1    0    0  505    0 -0.00000000000E+00 -0.00000000000E+00 -0.14491617113E+04  0.14491617113E+04  0.00000000000E+00 0.  1.
         21    1    1    2  503  502  0.30545441843E+02  0.32547194761E-01  0.92261560290E+01  0.31908416315E+02  0.00000000000E+00 0. -1.
         21    1    1    2  504  503 -0.45770034029E+02 -0.11552599824E+03  0.64905590014E+02  0.14019232468E+03  0.00000000000E+00 0. -1.
         21    1    1    2  505  504  0.15717916002E+02  0.79055328225E+02 -0.30675284825E+03  0.31716574171E+03  0.00000000000E+00 0.  1.
          2    1    1    2  501    0 -0.49332381564E+00  0.36438122821E+02 -0.10879128375E+04  0.10885230003E+04  0.00000000000E+00 0.  1.
<scales pt_clust_3="30.54546" pt_clust_4="14000.00000" pt_clust_5="112.19046" pt_clust_6="36.44049"></scales>
<clustering>
<clus scale="   30.545">  1  3  2 -1</clus>
<clus scale="   36.440">  2  6  1 -1</clus>
<clus scale="  112.190">  2  5  1 -1</clus>
<clus scale="   30.545">  1  3  2 -1</clus>
</clustering>
</event>
<event>
 6    0  0.7258365E+002  0.1219426E+03  0.7546771E-02  0.1239926E+00
         21   -1    0    0  504  502  0.00000000000E+00  0.00000000000E+00  0.68996138177E+02  0.68996138177E+02  0.00000000000E+00 0.  1.
          2   -1    0    0  505    0 -0.00000000000E+00 -0.00000000000E+00 -0.13847797389E+04  0.13847797389E+04  0.00000000000E+00 0. -1.
         21    1    1    2  503  501 -0.30055088980E+02  0.47187533304E+02  0.96564316727E+01  0.56773394699E+02  0.00000000000E+00 0.  1.
         21    1    1    2  504  503 -0.50905924138E+02 -0.18750110103E+01 -0.58808389664E+01  0.51278777731E+02  0.00000000000E+00 0. -1.
         21    1    1    2  505  502  0.62795974011E+02  0.94555444060E+02 -0.41536063999E+03  0.43059090516E+03  0.00000000000E+00 0. -1.
          2    1    1    2  501    0  0.18165039107E+02 -0.13986796635E+03 -0.90419855345E+03  0.91513279950E+03  0.00000000000E+00 0. -1.
<scales pt_clust_3="80.83282" pt_clust_4="50.94044" pt_clust_5="14000.00000" pt_clust_6="121.94256"></scales>
<clustering>
<clus scale="   50.940">  1  4  2 -1</clus>
<clus scale="   80.833">  1  3  2 -1</clus>
<clus scale="  121.943">  2  6  1 -1</clus>
<clus scale="   50.940">  1  3  2 -1</clus>
</clustering>
</event>
<event>
 6    0  0.7258365E+002  0.1785891E+03  0.7546771E-02  0.1169176E+00
          4   -1    0    0  505    0 -0.00000000000E+00  0.00000000000E+00  0.16622721173E+03  0.16622721173E+03  0.00000000000E+00 0. -1.
         21   -1    0    0  504  502  0.00000000000E+00 -0.00000000000E+00 -0.12838828572E+04  0.12838828572E+04  0.00000000000E+00 0. -1.
         21    1    1    2  503  502  0.12287395140E+03 -0.27527765132E+02 -0.73385648328E+03  0.74458117343E+03  0.00000000000E+00 0. -1.
         21    1    1    2  504  501 -0.49794774586E+02 -0.15285610726E+03  0.37920452250E+01  0.16080699211E+03  0.00000000000E+00 0. -1.
         21    1    1    2  505  503  0.38150777123E+02  0.16099828203E+03 -0.39830942069E+03  0.43130768973E+03  0.00000000000E+00 0. -1.
          4    1    1    2  501    0 -0.11122995393E+03  0.19385590360E+02  0.10718213270E+02  0.11341421366E+03  0.00000000000E+00 0. -1.
<scales pt_clust_3="120.11415" pt_clust_4="178.58914" pt_clust_5="14000.00000" pt_clust_6="112.90662"></scales>
<clustering>
<clus scale="  112.907">  1  6  2 -1</clus>
<clus scale="  120.114">  2  3  1 -1</clus>
<clus scale="  178.589">  1  4  2 -1</clus>
<clus scale="  120.114">  2  3  1 -1</clus>
</clustering>
</event>
<event>
 6    0  0.7258365E+002  0.7340820E+02  0.7546771E-02  0.1348872E+00
          2   -1    0    0  505    0 -0.00000000000E+00  0.00000000000E+00  0.17102690654E+04  0.17102690654E+04  0.00000000000E+00 0.  1.
         21   -1    0    0  503  502  0.00000000000E+00 -0.00000000000E+00 -0.11331970435E+03  0.11331970435E+03  0.00000000000E+00 0.  1.
         21    1    1    2  503  504 -0.58175838936E+02 -0.39912200863E+02 -0.32300904195E+02  0.77593559175E+02  0.00000000000E+00 0.  1.
         21    1    1    2  504  501  0.49513578732E+00  0.78853609546E+02  0.75848118843E+01  0.79219102931E+02  0.00000000000E+00 0.  1.
         21    1    1    2  505  502  0.96736833000E+02  0.77606689025E+01  0.85304920996E+02  0.12920979989E+03  0.00000000000E+00 0.  1.
          2    1    1    2  501    0 -0.39056129851E+02 -0.46702077586E+02  0.15363605323E+04  0.15375663077E+04  0.00000000000E+00 0.  1.
<scales pt_clust_3="14000.00000" pt_clust_4="67.79668" pt_clust_5="73.40820" pt_clust_6="60.88075"></scales>
<clustering>
<clus scale="   60.881">  1  6  2 -1</clus>
<clus scale="   67.797">  1  4  2 -1</clus>
<clus scale="   73.408">  1  5  2 -1</clus>
<clus scale="   73.408">  2  3  1 -1</clus>
</clustering>
</event>
<event>
 6    0  0.7258365E+002  0.1135774E+03  0.7546771E-02  0.1254085E+00
          2   -1    0    0  504    0 -0.00000000000E+00  0.00000000000E+00  0.48936664788E+03  0.48936664788E+03  0.00000000000E+00 0.  1.
         21   -1    0    0  505  502  0.00000000000E+00 -0.00000000000E+00 -0.46490553779E+03  0.46490553779E+03  0.00000000000E+00 0. -1.
         21    1    1    2  503  502  0.11173013589E+03 -0.48684132769E+02 -0.41139485244E+03  0.42906816785E+03  0.00000000000E+00 0. -1.
         21    1    1    2  504  503 -0.26914378931E+02 -0.31756594937E+02  0.47572451140E+02  0.63213948008E+02  0.00000000000E+00 0. -1.
         21    1    1    2  505  501 -0.53437110607E+02  0.57970769430E+02  0.74363689024E+01  0.79192389033E+02  0.00000000000E+00 0.  1.
          2    1    1    2  501    0 -0.31378646355E+02  0.22469958277E+02  0.38084714248E+03  0.38279768078E+03  0.00000000000E+00 0.  1.
<scales pt_clust_3="14000.00000" pt_clust_4="47.57049" pt_clust_5="113.57737" pt_clust_6="38.59428"></scales>
<clustering>
<clus scale="   38.594">  1  6  2 -1</clus>
<clus scale="   47.570">  1  4  2 -1</clus>
<clus scale="  113.577">  1  5  2 -1</clus>
<clus scale="  113.577">  2  3  1 -1</clus>
</clustering>
</event>
<event>
 6    0  0.7258365E+002  0.1301086E+03  0.7546771E-02  0.1227295E+00
          2   -1    0    0  504    0 -0.00000000000E+00  0.00000000000E+00  0.46374130550E+03  0.46374130550E+03  0.00000000000E+00 0.  1.
         21   -1    0    0  505  502  0.00000000000E+00 -0.00000000000E+00 -0.47751415720E+03  0.47751415720E+03  0.00000000000E+00 0. -1.
         21    1    1    2  503  501  0.11890181860E+03  0.69432298546E+02 -0.40742826156E+02  0.14359131043E+03  0.00000000000E+00 0.  1.
         21    1    1    2  504  502 -0.10213445991E+03 -0.30702213784E+02  0.15682500129E+03  0.18965272173E+03  0.00000000000E+00 0.  1.
         21    1    1    2  505  503  0.14714943347E+02 -0.33135280351E+02 -0.36696674734E+03  0.36875340000E+03  0.00000000000E+00 0. -1.
          2    1    1    2  501    0 -0.31482302036E+02 -0.55948044105E+01  0.23711172051E+03  0.23925803054E+03  0.00000000000E+00 0.  1.
<scales pt_clust_3="14000.00000" pt_clust_4="130.10856" pt_clust_5="36.22556" pt_clust_6="31.97557"></scales>
<clustering>
<clus scale="   31.976">  1  6  2 -1</clus>
<clus scale="   36.226">  2  5  1 -1</clus>
<clus scale="  130.109">  1  4  2 -1</clus>
<clus scale="   36.226">  2  3  1 -1</clus>
</clustering>
</event>
<event>
 6    0  0.7258365E+002  0.1064932E+03  0.7546771E-02  0.1267205E+00
         21   -1    0    0  505  502  0.00000000000E+00  0.00000000000E+00  0.75010591328E+03  0.75010591328E+03  0.00000000000E+00 0.  1.
          2   -1    0    0  503    0 -0.00000000000E+00 -0.00000000000E+00 -0.17288281593E+04  0.17288281593E+04  0.00000000000E+00 0.  1.
         21    1    1    2  503  504 -0.21542330482E+02 -0.29668235499E+02 -0.96295120625E+03  0.96364895154E+03  0.00000000000E+00 0.  1.
         21    1    1    2  504  502  0.93323470822E+02  0.10356802628E+02  0.23648666418E+03  0.25444542814E+03  0.00000000000E+00 0. -1.
         21    1    1    2  505  501 -0.11561796331E+03  0.30120355407E+02  0.49652480920E+03  0.51069720520E+03  0.00000000000E+00 0.  1.
          2    1    1    2  501    0  0.43836822967E+02 -0.10808922536E+02 -0.74878251313E+03  0.75014248768E+03  0.00000000000E+00 0.  1.
<scales pt_clust_3="36.66437" pt_clust_4="106.49317" pt_clust_5="14000.00000" pt_clust_6="45.88890"></scales>
<clustering>
<clus scale="   36.664">  2  3  1 -1</clus>
<clus scale="   45.889">  2  6  1 -1</clus>
<clus scale="  106.493">  2  4  1 -1</clus>
<clus scale="  106.493">  1  3  2 -1</clus>
</clustering>
</event>
<event>
 6    0  0.7258365E+002  0.1119486E+03  0.7546771E-02  0.1257003E+00
         21   -1    0    0  503  502  0.00000000000E+00  0.00000000000E+00  0.27556213730E+03  0.27556213730E+03  0.00000000000E+00 0.  1.
          1   -1    0    0  504    0 -0.00000000000E+00 -0.00000000000E+00 -0.25243877615E+03  0.25243877615E+03  0.00000000000E+00 0. -1.
         21    1    1    2  503  501  0.84746935602E+02  0.96005878139E+02  0.17997462133E+03  0.22088466686E+03  0.00000000000E+00 0.  1.
         21    1    1    2  504  505 -0.58280442459E+02 -0.43686903730E+02 -0.38715099919E+02  0.82486450357E+02  0.00000000000E+00 0. -1.
         21    1    1    2  505  502  0.50167062138E+02 -0.85719547823E+02 -0.31399123672E+02  0.10416563718E+03  0.00000000000E+00 0. -1.
          1    1    1    2  501    0 -0.76633555280E+02  0.33400573414E+02 -0.86737036585E+02  0.12046415905E+03  0.00000000000E+00 0. -1.
<scales pt_clust_3="111.94858" pt_clust_4="72.83650" pt_clust_5="105.39023" pt_clust_6="14000.00000"></scales>
<clustering>
<clus scale="   72.836">  2  4  1 -1</clus>
<clus scale="  105.390">  2  5  1 -1</clus>
<clus scale="  111.949">  1  3  2 -1</clus>
<clus scale="  111.949">  1  3  2 -1</clus>
</clustering>
</event>
<event>
 6    0  0.7258365E+002  0.9891380E+02  0.7546771E-02  0.1282597E+00
          1   -1    0    0  503    0 -0.00000000000E+00  0.00000000000E+00  0.39294174350E+04  0.39294174350E+04  0.00000000000E+00 0.  1.
         21   -1    0    0  504  502  0.00000000000E+00 -0.00000000000E+00 -0.20921354764E+03  0.20921354764E+03  0.00000000000E+00 0.  1.
         21    1    1    2  503  505  0.55313837577E+02 -0.43346631523E+02  0.11311717260E+02  0.71179393361E+02  0.00000000000E+00 0. -1.
         21    1    1    2  504  501 -0.61078130642E+02  0.15045015468E+03  0.39468758110E+03  0.42678340380E+03  0.00000000000E+00 0. -1.
         21    1    1    2  505  502  0.27517509126E+02 -0.18659443434E+02 -0.16093593788E+03  0.16433430634E+03  0.00000000000E+00 0.  1.
          1    1    1    2  501    0 -0.21753216061E+02 -0.88444079727E+02  0.34751405269E+04  0.34763338791E+04  0.00000000000E+00 0.  1.
<scales pt_clust_3="98.91380" pt_clust_4="14000.00000" pt_clust_5="33.24738" pt_clust_6="91.22875"></scales>
<clustering>
<clus scale="   33.247">  2  5  1 -1</clus>
<clus scale="   91.229">  1  6  2 -1</clus>
<clus scale="   98.914">  2  3  1 -1</clus>
<clus scale="   33.247">  2  3  1 -1</clus>
</clustering>
</event>
<event>
 6    0  0.7258365E+002  0.8860598E+02  0.7546771E-02  0.1306263E+00
          2   -1    0    0  503    0 -0.00000000000E+00  0.00000000000E+00  0.17275915962E+04  0.17275915962E+04  0.00000000000E+00 0. -1.
         21   -1    0    0  505  502  0.00000000000E+00 -0.00000000000E+00 -0.15653296120E+02  0.15653296120E+02  0.00000000000E+00 0. -1.
         21    1    1    2  503  504 -0.16740428609E+02  0.50761159954E+02  0.29371492189E+03  0.29853876239E+03  0.00000000000E+00 0.  1.
         21    1    1    2  504  502  0.81649612611E+01  0.31778552973E+02  0.81187364626E+02  0.87566724253E+02  0.00000000000E+00 0.  1.
         21    1    1    2  505  501  0.74180051851E+02 -0.26924935237E+02  0.17553156073E+03  0.19245508838E+03  0.00000000000E+00 0. -1.
          2    1    1    2  501    0 -0.65604584503E+02 -0.55614777690E+02  0.11615044528E+04  0.11646843173E+04  0.00000000000E+00 0. -1.
<scales pt_clust_3="31.72287" pt_clust_4="31.72287" pt_clust_5="78.91535" pt_clust_6="78.81396"></scales>
<clustering>
<clus scale="   31.723">  3  4 -1 -1</clus>
<clus scale="   78.915">  2  5  1 -1</clus>
<clus scale="   78.814">  1  6  2 -1</clus>
<clus scale="   78.915">  2  3  1 -1</clus>
</clustering>
</event>
<event>
 6    0  0.7258365E+002  0.9541232E+02  0.7546771E-02  0.1290250E+00
          2   -1    0    0  505    0 -0.00000000000E+00  0.00000000000E+00  0.36087315128E+04  0.36087315128E+04  0.00000000000E+00 0.  1.
         21   -1    0    0  504  502  0.00000000000E+00 -0.00000000000E+00 -0.49372527122E+02  0.49372527122E+02  0.00000000000E+00 0.  1.
         21    1    1    2  503  501 -0.37111417372E+02  0.17578897616E+02  0.13601198937E+03  0.14207581143E+03  0.00000000000E+00 0. -1.
         21    1    1    2  504  503  0.30781630562E+02  0.95553767046E+01  0.95408658067E+01  0.33613124288E+02  0.00000000000E+00 0. -1.
         21    1    1    2  505  502 -0.29906116175E+02 -0.11491548060E+03  0.71186260571E+02  0.13844647760E+03  0.00000000000E+00 0.  1.
          2    1    1    2  501    0  0.36235902985E+02  0.87781206281E+02  0.33426198700E+04  0.33439686266E+04  0.00000000000E+00 0.  1.
<scales pt_clust_3="39.17750" pt_clust_4="32.23064" pt_clust_5="95.41232" pt_clust_6="14000.00000"></scales>
<clustering>
<clus scale="   32.231">  2  4  1 -1</clus>
<clus scale="   39.177">  2  3  1 -1</clus>
<clus scale="   95.412">  2  5  1 -1</clus>
<clus scale="   32.231">  2  3  1 -1</clus>
</clustering>
</event>
<event>
 6    0  0.7258365E+002  0.1710147E+03  0.7546771E-02  0.1176794E+00
         21   -1    0    0  503  502  0.00000000000E+00  0.00000000000E+00  0.50727718602E+03  0.50727718602E+03  0.00000000000E+00 0. -1.
          1   -1    0    0  504    0 -0.00000000000E+00 -0.00000000000E+00 -0.88098795978E+03  0.88098795978E+03  0.00000000000E+00 0. -1.
         21    1    1    2  503  501  0.17062245250E+03 -0.49096581868E+02  0.28246389044E+03  0.33362905307E+03  0.00000000000E+00 0. -1.
         21    1    1    2  504  505 -0.72387649508E+02  0.29066925186E+02  0.15274246709E+03  0.17150836479E+03  0.00000000000E+00 0. -1.
         21    1    1    2  505  502 -0.48211042890E+02  0.19582176590E+02  0.17725823479E+02  0.54972457781E+02  0.00000000000E+00 0. -1.
          1    1    1    2  501    0 -0.50023760103E+02  0.44748009151E+00 -0.82664295478E+03  0.82815527016E+03  0.00000000000E+00 0. -1.
<scales pt_clust_3="154.66964" pt_clust_4="65.03262" pt_clust_5="65.03262" pt_clust_6="50.02576"></scales>
<clustering>
<clus scale="   50.026">  2  6  1 -1</clus>
<clus scale="   65.033">  4  5 -1 -1</clus>
<clus scale="  154.670">  2  3  1 -1</clus>
<clus scale="  171.015">  1  3  2 -1</clus>
</clustering>
</event>
<event>
 6    0  0.7258365E+002  0.1196154E+03  0.7546771E-02  0.1243733E+00
          2   -1    0    0  504    0 -0.00000000000E+00  0.00000000000E+00  0.11884448333E+04  0.11884448333E+04  0.00000000000E+00 0. -1.
         21   -1    0    0  503  502  0.00000000000E+00 -0.00000000000E+00 -0.24426435650E+03  0.24426435650E+03  0.00000000000E+00 0.  1.
         21    1    1    2  503  505  0.10848049780E+03  0.48319780307E+01 -0.20645953141E+03  0.23327431176E+03  0.00000000000E+00 0.  1.
         21    1    1    2  504  502  0.71117650645E+01  0.31607540320E+02  0.16326398904E+02  0.36278989906E+02  0.00000000000E+00 0.  1.
         21    1    1    2  505  501 -0.84677092704E+02 -0.10933858089E+03  0.37434214978E+03  0.39907039530E+03  0.00000000000E+00 0. -1.
          2    1    1    2  501    0 -0.30915170165E+02  0.72899062540E+02  0.75997145954E+03  0.76408549285E+03  0.00000000000E+00 0. -1.
<scales pt_clust_3="119.61540" pt_clust_4="32.39774" pt_clust_5="14000.00000" pt_clust_6="79.41474"></scales>
<clustering>
<clus scale="   32.398">  2  4  1 -1</clus>
<clus scale="   79.415">  1  6  2 -1</clus>
<clus scale="  119.615">  2  3  1 -1</clus>
<clus scale="   32.398">  2  3  1 -1</clus>
</clustering>
</event>
<event>
 6    0  0.7258365E+002  0.9014072E+02  0.7546771E-02  0.1302511E+00
         21   -1    0    0  505  502  0.00000000000E+00  0.00000000000E+00  0.24060289060E+03  0.24060289060E+03  0.00000000000E+00 0.  1.
          2   -1    0    0  504    0 -0.00000000000E+00 -0.00000000000E+00 -0.48727838248E+03  0.48727838248E+03  0.00000000000E+00 0.  1.
         21    1    1    2  503  502 -0.21377652152E+02 -0.33762563297E+02  0.19003607587E+03  0.19419223678E+03  0.00000000000E+00 0.  1.
         21    1    1    2  504  503 -0.65761352440E+02  0.10437777103E+03 -0.98016610098E+02  0.15756436912E+03  0.00000000000E+00 0.  1.
         21    1    1    2  505  501  0.50871604558E+02  0.50109581506E+01 -0.37306776634E+02  0.63283690116E+02  0.00000000000E+00 0. -1.
          2    1    1    2  501    0  0.36267400033E+02 -0.75626165885E+02 -0.30138818103E+03  0.31284097707E+03  0.00000000000E+00 0.  1.
<scales pt_clust_3="39.96142" pt_clust_4="90.14072" pt_clust_5="45.32504" pt_clust_6="14000.00000"></scales>
<clustering>
<clus scale="   39.961">  1  3  2 -1</clus>
<clus scale="   45.325">  1  5  2 -1</clus>
<clus scale="   90.141">  1  4  2 -1</clus>
<clus scale="   39.961">  1  3  2 -1</clus>
</clustering>
</event>
<event>
 6    0  0.7258365E+002  0.7550707E+02  0.7546771E-02  0.1342308E+00
          1   -1    0    0  502    0 -0.00000000000E+00  0.00000000000E+00  0.14724869627E+04  0.14724869627E+04  0.00000000000E+00 0. -1.
         21   -1    0    0  503  502  0.00000000000E+00 -0.00000000000E+00 -0.19599326996E+03  0.19599326996E+03  0.00000000000E+00 0.  1.
         21    1    1    2  503  504  0.63780391899E+02  0.42823918378E+02 -0.15662703849E+03  0.17445301821E+03  0.00000000000E+00 0.  1.
         21    1    1    2  504  505 -0.75061345893E+02  0.19682095944E+02  0.12461137506E+03  0.14679777022E+03  0.00000000000E+00 0.  1.
         21    1    1    2  505  501  0.82552822906E+02 -0.37573325318E+02  0.94900214669E+02  0.13127366106E+03  0.00000000000E+00 0.  1.
          1    1    1    2  501    0 -0.71271868911E+02 -0.24932689005E+02  0.12136091415E+04  0.12159557832E+04  0.00000000000E+00 0. -1.
<scales pt_clust_3="75.33853" pt_clust_4="14000.00000" pt_clust_5="70.59021" pt_clust_6="75.50707"></scales>
<clustering>
<clus scale="   75.507">  1  6  2 -1</clus>
<clus scale="   70.590">  1  5  2 -1</clus>
<clus scale="   75.339">  2  3  1 -1</clus>
<clus scale="   75.339">  2  3  1 -1</clus>
</clustering>
</event>
<event>
 6    0  0.7258365E+002  0.7528497E+02  0.7546771E-02  0.1342991E+00
         21   -1    0    0  505  502  0.00000000000E+00  0.00000000000E+00  0.12414821822E+02  0.12414821822E+02  0.00000000000E+00 0. -1.
          2   -1    0    0  503    0 -0.00000000000E+00 -0.00000000000E+00 -0.22487993015E+04  0.22487993015E+04  0.00000000000E+00 0. -1.
         21    1    1    2  503  504  0.44333956644E+02  0.22909661303E+02 -0.18278238838E+03  0.18947230351E+03  0.00000000000E+00 0. -1.
         21    1    1    2  504  502  0.26866551570E+00 -0.37371011829E+02 -0.14461867828E+03  0.14936943066E+03  0.00000000000E+00 0.  1.
         21    1    1    2  505  501 -0.60222716151E+02  0.84667363225E+02 -0.45927410812E+03  0.47088007425E+03  0.00000000000E+00 0. -1.
          2    1    1    2  501    0  0.15620093992E+02 -0.70206012699E+02 -0.14497093048E+04  0.14514923149E+04  0.00000000000E+00 0. -1.
<scales pt_clust_3="45.63794" pt_clust_4="37.37198" pt_clust_5="14000.00000" pt_clust_6="75.28497"></scales>
<clustering>
<clus scale="   37.372">  1  4  2 -1</clus>
<clus scale="   45.638">  1  3  2 -1</clus>
<clus scale="   75.285">  2  6  1 -1</clus>
<clus scale="   37.372">  1  3  2 -1</clus>
</clustering>
</event>
<event>
 6    0  0.7258365E+002  0.9649886E+02  0.7546771E-02  0.1287836E+00
         21   -1    0    0  503  502  0.00000000000E+00  0.00000000000E+00  0.37140738879E+02  0.37140738879E+02  0.00000000000E+00 0. -1.
          1   -1    0    0  505    0 -0.00000000000E+00 -0.00000000000E+00 -0.73483543358E+03  0.73483543358E+03  0.00000000000E+00 0.  1.
         21    1    1    2  503  504  0.11166109051E+03  0.18342182636E+02 -0.23745101821E+03  0.26303539847E+03  0.00000000000E+00 0. -1.
         21    1    1    2  504  501  0.81984338871E+01 -0.42674250880E+02 -0.65463575000E+02  0.78573441176E+02  0.00000000000E+00 0. -1.
         21    1    1    2  505  502 -0.89134901010E+02  0.32308732620E+01 -0.10314971639E+03  0.13636470625E+03  0.00000000000E+00 0.  1.
          1    1    1    2  501    0 -0.30724623389E+02  0.21101194982E+02 -0.29163038510E+03  0.29400262656E+03  0.00000000000E+00 0.  1.
<scales pt_clust_3="96.49886" pt_clust_4="39.36588" pt_clust_5="14000.00000" pt_clust_6="37.27282"></scales>
<clustering>
<clus scale="   37.273">  2  6  1 -1</clus>
<clus scale="   39.366">  2  4  1 -1</clus>
<clus scale="   96.499">  2  3  1 -1</clus>
<clus scale="   96.499">  1  3  2 -1</clus>
</clustering>
</event>
<event>
 6    0  0.7258365E+002  0.1041419E+03  0.7546771E-02  0.1271820E+00
         21   -1    0    0  504  502  0.00000000000E+00  0.00000000000E+00  0.13963398180E+04  0.13963398180E+04  0.00000000000E+00 0. -1.
         -1   -1    0    0    0  501 -0.00000000000E+00 -0.00000000000E+00 -0.38002881654E+03  0.38002881654E+03  0.00000000000E+00 0.  1.
         21    1    1    2  503  501 -0.34131261165E+02 -0.34287619584E+02  0.56857809270E+03  0.57063265885E+03  0.00000000000E+00 0. -1.
         21    1    1    2  504  503 -0.37003992644E+02 -0.28788026668E+02  0.14982227593E+03  0.15698649724E+03  0.00000000000E+00 0. -1.
         21    1    1    2  505  502  0.59402204648E+02 -0.41266382530E+02  0.66398577099E+03  0.66791364735E+03  0.00000000000E+00 0. -1.
         -1    1    1    2    0  505  0.11733049160E+02  0.10434202878E+03 -0.36607513819E+03  0.38083583106E+03  0.00000000000E+00 0.  1.
<scales pt_clust_3="14000.00000" pt_clust_4="46.88332" pt_clust_5="69.13815" pt_clust_6="104.14189"></scales>
<clustering>
<clus scale="   46.883">  1  4  2 -1</clus>
<clus scale="   69.138">  1  5  2 -1</clus>
<clus scale="  104.142">  2  6  1 -1</clus>
<clus scale="   46.883">  1  3  2 -1</clus>
</clustering>
</event>
<event>
 6    0  0.7258365E+002  0.6532592E+02  0.7546771E-02  0.1376750E+00
         -4   -1    0    0    0  501 -0.00000000000E+00  0.00000000000E+00  0.16327636320E+03  0.16327636320E+03  0.00000000000E+00 0. -1.
         21   -1    0    0  505  502  0.00000000000E+00 -0.00000000000E+00 -0.16349498798E+03  0.16349498798E+03  0.00000000000E+00 0. -1.
         21    1    1    2  503  502  0.96332801667E+02 -0.54479470021E+02 -0.10886802063E+02  0.11120496297E+03  0.00000000000E+00 0. -1.
         21    1    1    2  504  501 -0.13426486353E+01  0.47237820602E+02 -0.52480028130E+01  0.47547407228E+02  0.00000000000E+00 0. -1.
         21    1    1    2  505  504 -0.56452278294E+02  0.52067997564E+01 -0.60191562589E+02  0.82686121539E+02  0.00000000000E+00 0. -1.
         -4    1    1    2    0  503 -0.38537874738E+02  0.20348496623E+01  0.76107742685E+02  0.85332859433E+02  0.00000000000E+00 0. -1.
<scales pt_clust_3="14000.00000" pt_clust_4="49.05835" pt_clust_5="65.32592" pt_clust_6="38.59156"></scales>
<clustering>
<clus scale="   38.592">  1  6  2 -1</clus>
<clus scale="   49.058">  1  4  2 -1</clus>
<clus scale="   65.326">  2  5  1 -1</clus>
<clus scale="   65.326">  2  3  1 -1</clus>
</clustering>
</event>
<event>
 6    0  0.7258365E+002  0.1397659E+03  0.7546771E-02  0.1213644E+00
         21   -1    0    0  505  502  0.00000000000E+00  0.00000000000E+00  0.25255408197E+03  0.25255408197E+03  0.00000000000E+00 0.  1.
          2   -1    0    0  502    0 -0.00000000000E+00 -0.00000000000E+00 -0.93255903032E+03  0.93255903032E+03  0.00000000000E+00 0.  1.
         21    1    1    2  503  501  0.99564723972E+02  0.60205068503E+02 -0.33128089614E+03  0.35111937669E+03  0.00000000000E+00 0. -1.
         21    1    1    2  504  503 -0.71410936073E+02 -0.71575932549E+02  0.54701507363E+02  0.11495603864E+03  0.00000000000E+00 0.  1.
         21    1    1    2  505  504 -0.62169701833E+02 -0.32580844879E+01  0.15102446264E+03  0.16335261019E+03  0.00000000000E+00 0.  1.
          2    1    1    2  501    0  0.34015913935E+02  0.14628948534E+02 -0.55445002221E+03  0.55568508678E+03  0.00000000000E+00 0.  1.
<scales pt_clust_3="139.76593" pt_clust_4="14000.00000" pt_clust_5="61.68818" pt_clust_6="37.02821"></scales>
<clustering>
<clus scale="   37.028">  2  6  1 -1</clus>
<clus scale="   61.688">  1  5  2 -1</clus>
<clus scale="  139.766">  2  3  1 -1</clus>
<clus scale="   61.688">  1  3  2 -1</clus>
</clustering>
</event>
<event>
 6    0  0.7258365E+002  0.1314687E+03  0.7546771E-02  0.1225293E+00
         21   -1    0    0  505  502  0.00000000000E+00  0.00000000000E+00  0.27398643714E+04  0.27398643714E+04  0.00000000000E+00 0.  1.
          3   -1    0    0  503    0 -0.00000000000E+00 -0.00000000000E+00 -0.23194533770E+03  0.23194533770E+03  0.00000000000E+00 0.  1.
         21    1    1    2  503  504  0.99830005486E+01 -0.11821295044E+03  0.13719326434E+03  0.18137241723E+03  0.00000000000E+00 0. -1.
         21    1    1    2  504  502  0.39187015757E+02 -0.14708217295E+02  0.25154121056E+04  0.25157603254E+04  0.00000000000E+00 0.  1.
         21    1    1    2  505  501  0.54203847443E+01  0.13557011513E+03 -0.18207789555E+02  0.13689470511E+03  0.00000000000E+00 0.  1.
          3    1    1    2  501    0 -0.54590401050E+02 -0.26489473975E+01 -0.12647854662E+03  0.13778226143E+03  0.00000000000E+00 0.  1.
<scales pt_clust_3="131.46870" pt_clust_4="41.85635" pt_clust_5="14000.00000" pt_clust_6="53.68786"></scales>
<clustering>
<clus scale="   41.856">  1  4  2 -1</clus>
<clus scale="   53.688">  2  6  1 -1</clus>
<clus scale="  131.469">  1  3  2 -1</clus>
<clus scale="   41.856">  1  3  2 -1</clus>
</clustering>
</event>
<event>
 6    0  0.7258365E+002  0.1241691E+03  0.7546771E-02  0.1236374E+00
         -4   -1    0    0    0  501 -0.00000000000E+00  0.00000000000E+00  0.76800793961E+03  0.76800793961E+03  0.00000000000E+00 0. -1.
         21   -1    0    0  503  502  0.00000000000E+00 -0.00000000000E+00 -0.84928534428E+02  0.84928534428E+02  0.00000000000E+00 0. -1.
         21    1    1    2  503  501  0.89528370145E+02  0.10772577888E+03  0.17780970702E+03  0.22635473135E+03  0.00000000000E+00 0. -1.
         21    1    1    2  504  502 -0.23688795280E+02 -0.79537299362E+02  0.43126901853E+02  0.93526844676E+02  0.00000000000E+00 0. -1.
         21    1    1    2  505  504 -0.13563823739E+03  0.50656242698E+01  0.11650868308E+03  0.17887891219E+03  0.00000000000E+00 0. -1.
         -4    1    1    2    0  505  0.69798662522E+02 -0.33254103787E+02  0.34563411323E+03  0.35417598582E+03  0.00000000000E+00 0. -1.
<scales pt_clust_3="14000.00000" pt_clust_4="85.85480" pt_clust_5="124.16910" pt_clust_6="77.31551"></scales>
<clustering>
<clus scale="   77.316">  1  6  2 -1</clus>
<clus scale="   85.855">  2  4  1 -1</clus>
<clus scale="  124.169">  1  5  2 -1</clus>
<clus scale="   85.855">  2  3  1 -1</clus>
</clustering>
</event>
<event>
 6    0  0.7258365E+002  0.1427596E+03  0.7546771E-02  0.1209663E+00
          2   -1    0    0  504    0 -0.00000000000E+00  0.00000000000E+00  0.46339873784E+04  0.46339873784E+04  0.00000000000E+00 0.  1.
         21   -1    0    0  505  502  0.00000000000E+00 -0.00000000000E+00 -0.19001235231E+02  0.19001235231E+02  0.00000000000E+00 0. -1.
         21    1    1    2  503  502 -0.15925957279E+02  0.26903401136E+02  0.29280294611E+02  0.42834154135E+02  0.00000000000E+00 0. -1.
         21    1    1    2  504  503  0.38176379367E+02  0.48482504436E+02  0.68542329090E+03  0.68819552228E+03  0.00000000000E+00 0.  1.
         21    1    1    2  505  501 -0.18470342413E+02 -0.17069960986E+03  0.71786888152E+03  0.73811600810E+03  0.00000000000E+00 0. -1.
          2    1    1    2  501    0 -0.37800796750E+01  0.95313704287E+02  0.31824136762E+04  0.31838429292E+04  0.00000000000E+00 0.  1.
<scales pt_clust_3="31.26386" pt_clust_4="63.07515" pt_clust_5="142.75955" pt_clust_6="14000.00000"></scales>
<clustering>
<clus scale="   31.264">  2  3  1 -1</clus>
<clus scale="   63.075">  1  4  2 -1</clus>
<clus scale="  142.760">  2  5  1 -1</clus>
<clus scale="   31.264">  2  3  1 -1</clus>
</clustering>
</event>
<event>
 6    0  0.7258365E+002  0.9833045E+02  0.7546771E-02  0.1283846E+00
         21   -1    0    0  504  502  0.00000000000E+00  0.00000000000E+00  0.11010780813E+03  0.11010780813E+03  0.00000000000E+00 0.  1.
         -1   -1    0    0    0  501 -0.00000000000E+00 -0.00000000000E+00 -0.38303815384E+03  0.38303815384E+03  0.00000000000E+00 0. -1.
         21    1    1    2  503  501  0.37824601049E+02  0.14702116323E+02 -0.28588112630E+02  0.49640032762E+02  0.00000000000E+00 0.  1.
         21    1    1    2  504  503  0.49682678495E+02  0.22431564370E+02  0.15688073537E+02  0.56724415147E+02  0.00000000000E+00 0.  1.
         21    1    1    2  505  502 -0.85120458656E+02  0.45795033346E+02  0.16516446947E+02  0.98058505907E+02  0.00000000000E+00 0.  1.
         -1    1    1    2    0  505 -0.23868208884E+01 -0.82928714038E+02 -0.27654675357E+03  0.28872300815E+03  0.00000000000E+00 0. -1.
<scales pt_clust_3="39.63839" pt_clust_4="39.63839" pt_clust_5="86.93864" pt_clust_6="82.96306"></scales>
<clustering>
<clus scale="   39.638">  3  4 -1 -1</clus>
<clus scale="   82.963">  2  6  1 -1</clus>
<clus scale="   86.939">  1  5  2 -1</clus>
<clus scale="   86.939">  1  3  2 -1</clus>
</clustering>
</event>
<event>
 6    0  0.7258365E+002  0.8282338E+02  0.7546771E-02  0.1321225E+00
          2   -1    0    0  503    0 -0.00000000000E+00  0.00000000000E+00  0.41016096257E+03  0.41016096257E+03  0.00000000000E+00 0. -1.
         21   -1    0    0  504  502  0.00000000000E+00 -0.00000000000E+00 -0.10623655929E+03  0.10623655929E+03  0.00000000000E+00 0. -1.
         21    1    1    2  503  505  0.78782373325E+02 -0.29334845606E+02  0.24102990278E+03  0.25526968004E+03  0.00000000000E+00 0. -1.
         21    1    1    2  504  501 -0.27580170574E+02  0.36053469430E+02 -0.44069086892E+02  0.63266127480E+02  0.00000000000E+00 0. -1.
         21    1    1    2  505  502 -0.62152409563E+02 -0.52524358684E+02  0.42225004578E+00  0.81375110229E+02  0.00000000000E+00 0. -1.
          2    1    1    2  501    0  0.10950206812E+02  0.45805734860E+02  0.10654133734E+03  0.11648660411E+03  0.00000000000E+00 0. -1.
<scales pt_clust_3="82.82338" pt_clust_4="45.39293" pt_clust_5="14000.00000" pt_clust_6="49.91798"></scales>
<clustering>
<clus scale="   45.393">  2  4  1 -1</clus>
<clus scale="   49.918">  1  6  2 -1</clus>
<clus scale="   82.823">  1  3  2 -1</clus>
<clus scale="   45.393">  2  3  1 -1</clus>
</clustering>
</event>
<event>
 6    0  0.7258365E+002  0.8635865E+02  0.7546771E-02  0.1311917E+00
         21   -1    0    0  504  502  0.00000000000E+00  0.00000000000E+00  0.11146378936E+03  0.11146378936E+03  0.00000000000E+00 0. -1.
          2   -1    0    0  505    0 -0.00000000000E+00 -0.00000000000E+00 -0.14802369637E+04  0.14802369637E+04  0.00000000000E+00 0. -1.
         21    1    1    2  503  501 -0.63059712748E+02  0.29236115886E+01 -0.39238384727E+03  0.39742943836E+03  0.00000000000E+00 0.  1.
         21    1    1    2  504  503 -0.18867470000E+02 -0.58846288304E+02  0.89823494771E+02  0.10902810319E+03  0.00000000000E+00 0. -1.
         21    1    1    2  505  502  0.10749959583E+03  0.79366681542E+02 -0.48720364874E+03  0.50519563397E+03  0.00000000000E+00 0.  1.
          2    1    1    2  501    0 -0.25572413085E+02 -0.23444004826E+02 -0.57900917310E+03  0.58004757753E+03  0.00000000000E+00 0. -1.
<scales pt_clust_3="86.35865" pt_clust_4="62.11849" pt_clust_5="14000.00000" pt_clust_6="34.69250"></scales>
<clustering>
<clus scale="   34.693">  2  6  1 -1</clus>
<clus scale="   62.118">  1  4  2 -1</clus>
<clus scale="   86.359">  2  3  1 -1</clus>
<clus scale="   62.118">  1  3  2 -1</clus>
</clustering>
</event>
<event>
 6    0  0.7258365E+002  0.1031612E+03  0.7546771E-02  0.1273785E+00
         -2   -1    0    0    0  501 -0.00000000000E+00  0.00000000000E+00  0.31594254439E+03  0.31594254439E+03  0.00000000000E+00 0.  1.
         21   -1    0    0  504  502  0.00000000000E+00 -0.00000000000E+00 -0.49037406717E+03  0.49037406717E+03  0.00000000000E+00 0. -1.
         21    1    1    2  503  502 -0.36901792115E+02 -0.45328910467E+01 -0.20472459850E+03  0.20807318567E+03  0.00000000000E+00 0. -1.
         21    1    1    2  504  501  0.59021728302E+02 -0.10496454965E+03  0.90827663797E+02  0.15083363552E+03  0.00000000000E+00 0.  1.
         21    1    1    2  505  503  0.18238813994E+02  0.10507584802E+03 -0.24041335287E+03  0.26300602353E+03  0.00000000000E+00 0. -1.
         -2    1    1    2    0  505 -0.40358750181E+02  0.44215926688E+01  0.17987876479E+03  0.18440376683E+03  0.00000000000E+00 0.  1.
<scales pt_clust_3="37.17915" pt_clust_4="103.16118" pt_clust_5="14000.00000" pt_clust_6="40.88862"></scales>
<clustering>
<clus scale="   37.179">  2  3  1 -1</clus>
<clus scale="   40.889">  1  6  2 -1</clus>
<clus scale="  103.161">  1  4  2 -1</clus>
<clus scale="   37.179">  2  3  1 -1</clus>
</clustering>
</event>
<event>
 6    0  0.7258365E+002  0.1018242E+03  0.7546771E-02  0.1276506E+00
          3   -1    0    0  502    0 -0.00000000000E+00  0.00000000000E+00  0.16486555550E+03  0.16486555550E+03  0.00000000000E+00 0.  1.
         21   -1    0    0  503  502  0.00000000000E+00 -0.00000000000E+00 -0.84086488942E+03  0.84086488942E+03  0.00000000000E+00 0.  1.
         21    1    1    2  503  504 -0.86168224631E+02  0.56849884996E+02 -0.50490994883E+03  0.51535514821E+03  0.00000000000E+00 0.  1.
         21    1    1    2  504  505  0.65165939528E+02 -0.76584037178E+02 -0.14243841524E+03  0.17435715231E+03  0.00000000000E+00 0.  1.
         21    1    1    2  505  501  0.86856270842E+02 -0.72515953168E+00 -0.15179006140E+03  0.17488499187E+03  0.00000000000E+00 0.  1.
          3    1    1    2  501    0 -0.65853985740E+02  0.20459311714E+02  0.12313909155E+03  0.14113315252E+03  0.00000000000E+00 0.  1.
<scales pt_clust_3="14000.00000" pt_clust_4="101.82423" pt_clust_5="63.95242" pt_clust_6="68.95891"></scales>
<clustering>
<clus scale="   68.959">  1  6  2 -1</clus>
<clus scale="   63.952">  1  5  2 -1</clus>
<clus scale="  101.824">  1  4  2 -1</clus>
<clus scale="  101.824">  2  3  1 -1</clus>
</clustering>
</event>
<event>
 6    0  0.7258365E+002  0.1458536E+03  0.7546771E-02  0.1205663E+00
          2   -1    0    0  505    0 -0.00000000000E+00  0.00000000000E+00  0.25542306675E+04  0.25542306675E+04  0.00000000000E+00 0. -1.
         21   -1    0    0  503  502  0.00000000000E+00 -0.00000000000E+00 -0.35919649260E+03  0.35919649260E+03  0.00000000000E+00 0.  1.
         21    1    1    2  503  504  0.17990342318E+00  0.12927088198E+03  0.68585929895E+02  0.14633872718E+03  0.00000000000E+00 0. -1.
         21    1    1    2  504  501  0.22123306523E+02 -0.74545557973E+02  0.19224000432E+04  0.19239720391E+04  0.00000000000E+00 0. -1.
         21    1    1    2  505  502 -0.37132064211E+02 -0.27182282420E+01 -0.31704542957E+03  0.31922403319E+03  0.00000000000E+00 0.  1.
          2    1    1    2  501    0  0.14828854264E+02 -0.52007095765E+02  0.52109363134E+03  0.52389236066E+03  0.00000000000E+00 0. -1.
<scales pt_clust_3="131.43640" pt_clust_4="52.66070" pt_clust_5="37.23142" pt_clust_6="52.66070"></scales>
<clustering>
<clus scale="   37.231">  2  5  1 -1</clus>
<clus scale="   52.661">  4  6 -1 -1</clus>
<clus scale="  131.436">  2  3  1 -1</clus>
<clus scale="   37.231">  2  3  1 -1</clus>
</clustering>
</event>
<event>
 6    0  0.7258365E+002  0.1458709E+03  0.7546771E-02  0.1205641E+00
          1   -1    0    0  504    0 -0.00000000000E+00  0.00000000000E+00  0.58051979345E+03  0.58051979345E+03  0.00000000000E+00 0. -1.
         21   -1    0    0  505  502  0.00000000000E+00 -0.00000000000E+00 -0.11350478286E+04  0.11350478286E+04  0.00000000000E+00 0. -1.
         21    1    1    2  503  501 -0.11121519547E+03  0.37720425066E+02 -0.19984233165E+03  0.23179432196E+03  0.00000000000E+00 0. -1.
         21    1    1    2  504  502  0.13876092866E+03 -0.11290725171E+03 -0.17295101434E+03  0.24882663879E+03  0.00000000000E+00 0.  1.
         21    1    1    2  505  503 -0.76558294632E+02 -0.27944205424E+02 -0.69975801165E+03  0.70448798851E+03  0.00000000000E+00 0. -1.
          1    1    1    2  501    0  0.49012561441E+02  0.10313103207E+03  0.51802332246E+03  0.53045867282E+03  0.00000000000E+00 0. -1.
<scales pt_clust_3="14000.00000" pt_clust_4="145.87094" pt_clust_5="81.49878" pt_clust_6="113.35365"></scales>
<clustering>
<clus scale="   81.499">  2  5  1 -1</clus>
<clus scale="  113.354">  1  6  2 -1</clus>
<clus scale="  145.871">  1  4  2 -1</clus>
<clus scale="   81.499">  2  3  1 -1</clus>
</clustering>
</event>
<event>
 6    0  0.7258365E+002  0.1120407E+03  0.7546771E-02  0.1256837E+00
          1   -1    0    0  503    0 -0.00000000000E+00  0.00000000000E+00  0.24071281483E+04  0.24071281483E+04  0.00000000000E+00 0. -1.
         21   -1    0    0  504  502  0.00000000000E+00 -0.00000000000E+00 -0.94104158529E+03  0.94104158529E+03  0.00000000000E+00 0. -1.
         21    1    1    2  503  505  0.16999738754E+02 -0.39405916608E+02  0.19179544093E+03  0.19653831316E+03  0.00000000000E+00 0. -1.
         21    1    1    2  504  501  0.11723616829E+03  0.99885808212E+02 -0.35698221316E+03  0.38879016751E+03  0.00000000000E+00 0.  1.
         21    1    1    2  505  502 -0.10809499763E+03  0.68255624476E+01 -0.56000031160E+03  0.57037835321E+03  0.00000000000E+00 0. -1.
          1    1    1    2  501    0 -0.26140909410E+02 -0.67305454052E+02  0.21912736469E+04  0.21924628998E+04  0.00000000000E+00 0. -1.
<scales pt_clust_3="42.91640" pt_clust_4="14000.00000" pt_clust_5="112.04074" pt_clust_6="106.74196"></scales>
<clustering>
<clus scale="   42.916">  1  3  2 -1</clus>
<clus scale="  106.742">  1  6  2 -1</clus>
<clus scale="  112.041">  2  5  1 -1</clus>
<clus scale="  112.041">  2  3  1 -1</clus>
</clustering>
</event>
<event>
 6    0  0.7258365E+002  0.8745630E+02  0.7546771E-02  0.1309131E+00
          2   -1    0    0  505    0 -0.00000000000E+00  0.00000000000E+00  0.28963784240E+04  0.28963784240E+04  0.00000000000E+00 0. -1.
         21   -1    0    0  503  502  0.00000000000E+00 -0.00000000000E+00 -0.10230516481E+03  0.10230516481E+03  0.00000000000E+00 0. -1.
         21    1    1    2  503  504 -0.23192329165E+02  0.45238978700E+02 -0.75957027805E+02  0.91399777893E+02  0.00000000000E+00 0. -1.
         21    1    1    2  504  501 -0.63814186684E+02  0.58688324305E+02  0.40354970614E+03  0.41275771968E+03  0.00000000000E+00 0. -1.
         21    1    1    2  505  502  0.53703310338E+02 -0.21539065020E+02  0.50173923365E+02  0.76585895888E+02  0.00000000000E+00 0. -1.
          2    1    1    2  501    0  0.33303205510E+02 -0.82388237984E+02  0.24163066575E+04  0.24179401953E+04  0.00000000000E+00 0. -1.
<scales pt_clust_3="50.83748" pt_clust_4="14000.00000" pt_clust_5="38.72098" pt_clust_6="87.45630"></scales>
<clustering>
<clus scale="   50.837">  2  3  1 -1</clus>
<clus scale="   38.721">  2  5  1 -1</clus>
<clus scale="   87.456">  1  6  2 -1</clus>
<clus scale="   50.837">  2  3  1 -1</clus>
</clustering>
</event>
<event>
 6    0  0.7258365E+002  0.2419279E+03  0.7546771E-02  0.1118515E+00
         -3   -1    0    0    0  501 -0.00000000000E+00  0.00000000000E+00  0.12751023729E+04  0.12751023729E+04  0.00000000000E+00 0.  1.
         21   -1    0    0  504  502  0.00000000000E+00 -0.00000000000E+00 -0.11610217013E+03  0.11610217013E+03  0.00000000000E+00 0.  1.
         21    1    1    2  503  502  0.31722573829E+02 -0.52913815694E+02  0.19772393076E+02  0.64785346410E+02  0.00000000000E+00 0.  1.
         21    1    1    2  504  505  0.17532355497E+01  0.62697555029E+02 -0.20439534069E+02  0.65968415128E+02  0.00000000000E+00 0.  1.
         21    1    1    2  505  501 -0.88117689057E+02 -0.23413528325E+03  0.74426119139E+03  0.78518073015E+03  0.00000000000E+00 0.  1.
         -3    1    1    2    0  503  0.54641879678E+02  0.22435154391E+03  0.41540615238E+03  0.47527005135E+03  0.00000000000E+00 0.  1.
<scales pt_clust_3="61.69436" pt_clust_4="41.63678" pt_clust_5="14000.00000" pt_clust_6="241.92790"></scales>
<clustering>
<clus scale="   61.694">  2  3  1 -1</clus>
<clus scale="   41.637">  2  4  1 -1</clus>
<clus scale="  241.928">  2  6  1 -1</clus>
<clus scale="   61.694">  2  3  1 -1</clus>
</clustering>
</event>
<event>
 6    0  0.7258365E+002  0.1046634E+03  0.7546771E-02  0.1270784E+00
          2   -1    0    0  504    0 -0.00000000000E+00  0.00000000000E+00  0.20632429167E+03  0.20632429167E+03  0.00000000000E+00 0.  1.
         21   -1    0    0  503  502  0.00000000000E+00 -0.00000000000E+00 -0.44484980454E+04  0.44484980454E+04  0.00000000000E+00 0.  1.
         21    1    1    2  503  501 -0.36858482029E+01 -0.29777330078E+02 -0.12019518709E+03  0.12388364647E+03  0.00000000000E+00 0. -1.
         21    1    1    2  504  505  0.13034310055E+03 -0.15028099065E+02 -0.15751052567E+04  0.15805605770E+04  0.00000000000E+00 0.  1.
         21    1    1    2  505  502 -0.39689878553E+02 -0.13238528995E+02 -0.27349081160E+04  0.27352281345E+04  0.00000000000E+00 0.  1.
          2    1    1    2  501    0 -0.86967373799E+02  0.58043958138E+02  0.18803480611E+03  0.21514997906E+03  0.00000000000E+00 0.  1.
<scales pt_clust_3="30.00458" pt_clust_4="14000.00000" pt_clust_5="52.85556" pt_clust_6="104.66340"></scales>
<clustering>
<clus scale="   30.005">  2  3  1 -1</clus>
<clus scale="   52.856">  2  5  1 -1</clus>
<clus scale="  104.663">  1  6  2 -1</clus>
<clus scale="   30.005">  2  3  1 -1</clus>
</clustering>
</event>
<event>
 6    0  0.7258365E+002  0.2443389E+03  0.7546771E-02  0.1116936E+00
         -2   -1    0    0    0  501 -0.00000000000E+00  0.00000000000E+00  0.52826897123E+03  0.52826897123E+03  0.00000000000E+00 0.  1.
         21   -1    0    0  504  502  0.00000000000E+00 -0.00000000000E+00 -0.70315650986E+03  0.70315650986E+03  0.00000000000E+00 0.  1.
         21    1    1    2  503  501 -0.84388879409E+02  0.23948098908E+03  0.18052785629E+03  0.31154924811E+03  0.00000000000E+00 0.  1.
         21    1    1    2  504  503  0.12065522390E+03 -0.27608666883E+03 -0.53310704985E+03  0.61235990918E+03  0.00000000000E+00 0.  1.
         21    1    1    2  505  502 -0.20402479975E+02  0.63641746332E+02 -0.46324754997E+02  0.81317378161E+02  0.00000000000E+00 0.  1.
         -2    1    1    2    0  505 -0.15863864519E+02 -0.27036066582E+02  0.22401640993E+03  0.22619894565E+03  0.00000000000E+00 0.  1.
<scales pt_clust_3="244.33891" pt_clust_4="14000.00000" pt_clust_5="65.63963" pt_clust_6="31.34663"></scales>
<clustering>
<clus scale="   31.347">  1  6  2 -1</clus>
<clus scale="   65.640">  2  5  1 -1</clus>
<clus scale="  244.339">  1  3  2 -1</clus>
<clus scale="   65.640">  2  3  1 -1</clus>
</clustering>
</event>
<event>
 6    0  0.7258365E+002  0.9416802E+02  0.7546771E-02  0.1293061E+00
         21   -1    0    0  504  502  0.00000000000E+00  0.00000000000E+00  0.43226436635E+03  0.43226436635E+03  0.00000000000E+00 0.  1.
          3   -1    0    0  503    0 -0.00000000000E+00 -0.00000000000E+00 -0.15324192457E+04  0.15324192457E+04  0.00000000000E+00 0.  1.
         21    1    1    2  503  505  0.33870409625E+02 -0.46276061799E+02 -0.47028135445E+03  0.47376495321E+03  0.00000000000E+00 0.  1.
         21    1    1    2  504  501 -0.39496126944E+02  0.73568052387E+02  0.35561126891E+03  0.36528287252E+03  0.00000000000E+00 0.  1.
         21    1    1    2  505  502 -0.50191044899E+02 -0.10612195868E+03  0.16904586736E+02  0.11860344074E+03  0.00000000000E+00 0.  1.
          3    1    1    2  501    0  0.55816762218E+02  0.78829968093E+02 -0.10023893805E+04  0.10070323455E+04  0.00000000000E+00 0.  1.
<scales pt_clust_3="57.34700" pt_clust_4="83.24073" pt_clust_5="94.16802" pt_clust_6="14000.00000"></scales>
<clustering>
<clus scale="   57.347">  2  3  1 -1</clus>
<clus scale="   83.241">  1  4  2 -1</clus>
<clus scale="   94.168">  1  5  2 -1</clus>
<clus scale="   83.241">  1  3  2 -1</clus>
</clustering>
</event>
<event>
 6    0  0.7258365E+002  0.1795797E+03  0.7546771E-02  0.1168210E+00
         21   -1    0    0  505  502  0.00000000000E+00  0.00000000000E+00  0.70621950187E+03  0.70621950187E+03  0.00000000000E+00 0.  1.
         -1   -1    0    0    0  501 -0.00000000000E+00 -0.00000000000E+00 -0.22263010489E+04  0.22263010489E+04  0.00000000000E+00 0. -1.
         21    1    1    2  503  504  0.13426151959E+03  0.11146977979E+03 -0.76876530878E+03  0.78832212162E+03  0.00000000000E+00 0.  1.
         21    1    1    2  504  502 -0.13227629585E+03 -0.20458213318E+03  0.64404786791E+02  0.25198977007E+03  0.00000000000E+00 0.  1.
         21    1    1    2  505  501 -0.22238507770E+02  0.11707498288E+03  0.53146288850E+03  0.54465943919E+03  0.00000000000E+00 0.  1.
         -1    1    1    2    0  503  0.20253284021E+02 -0.23962629494E+02 -0.13471839135E+04  0.13475492199E+04  0.00000000000E+00 0. -1.
<scales pt_clust_3="179.57968" pt_clust_4="14000.00000" pt_clust_5="118.96333" pt_clust_6="31.37520"></scales>
<clustering>
<clus scale="   31.375">  2  6  1 -1</clus>
<clus scale="  118.963">  1  5  2 -1</clus>
<clus scale="  179.580">  2  3  1 -1</clus>
<clus scale="  118.963">  1  3  2 -1</clus>
</clustering>
</event>
<event>
 6    0  0.7258365E+002  0.7774064E+02  0.7546771E-02  0.1335588E+00
         21   -1    0    0  505  502  0.00000000000E+00  0.00000000000E+00  0.61352626279E+02  0.61352626279E+02  0.00000000000E+00 0. -1.
          1   -1    0    0  504    0 -0.00000000000E+00 -0.00000000000E+00 -0.16472569919E+04  0.16472569919E+04  0.00000000000E+00 0. -1.
         21    1    1    2  503  501  0.91428397140E+02  0.42448355266E+02 -0.24043260329E+03  0.26070836464E+03  0.00000000000E+00 0.  1.
         21    1    1    2  504  502 -0.84817501134E+02 -0.60562595566E+01 -0.67114388394E+03  0.67650927542E+03  0.00000000000E+00 0.  1.
         21    1    1    2  505  503 -0.25090518378E+02 -0.74165563919E+02  0.15892826773E+02  0.79891469674E+02  0.00000000000E+00 0. -1.
          1    1    1    2  501    0  0.18479622372E+02  0.37773468209E+02 -0.69022070512E+03  0.69150050840E+03  0.00000000000E+00 0. -1.
<scales pt_clust_3="77.74064" pt_clust_4="74.68268" pt_clust_5="14000.00000" pt_clust_6="42.05153"></scales>
<clustering>
<clus scale="   42.052">  2  6  1 -1</clus>
<clus scale="   74.683">  2  4  1 -1</clus>
<clus scale="   77.741">  2  3  1 -1</clus>
<clus scale="   77.741">  1  3  2 -1</clus>
</clustering>
</event>
<event>
 6    0  0.7258365E+002  0.1220414E+03  0.7546771E-02  0.1239767E+00
          2   -1    0    0  502    0 -0.00000000000E+00  0.00000000000E+00  0.38108256994E+04  0.38108256994E+04  0.00000000000E+00 0. -1.
         21   -1    0    0  504  502  0.00000000000E+00 -0.00000000000E+00 -0.51410068590E+02  0.51410068590E+02  0.00000000000E+00 0. -1.
         21    1    1    2  503  505 -0.58093742822E+02  0.86027277869E+01  0.67676606957E+02  0.89604759972E+02  0.00000000000E+00 0. -1.
         21    1    1    2  504  503  0.27404007008E+02  0.29192809833E+02 -0.19949829146E+02  0.44734722856E+02  0.00000000000E+00 0. -1.
         21    1    1    2  505  501 -0.64079770685E+02  0.26530231321E+02  0.16029079929E+03  0.17465168342E+03  0.00000000000E+00 0. -1.
          2    1    1    2  501    0  0.94769506498E+02 -0.64325768941E+02  0.35513980537E+04  0.35532446017E+04  0.00000000000E+00 0. -1.
<scales pt_clust_3="37.95906" pt_clust_4="40.03998" pt_clust_5="37.95906" pt_clust_6="114.85849"></scales>
<clustering>
<clus scale="   37.959">  3  5 -1 -1</clus>
<clus scale="   40.040">  2  4  1 -1</clus>
<clus scale="  114.858">  1  6  2 -1</clus>
<clus scale="   40.040">  2  3  1 -1</clus>
</clustering>
</event>
<event>
 6    0  0.7258365E+002  0.1547031E+03  0.7546771E-02  0.1194810E+00
         21   -1    0    0  503  502  0.00000000000E+00  0.00000000000E+00  0.46398337480E+03  0.46398337480E+03  0.00000000000E+00 0. -1.
          1   -1    0    0  505    0 -0.00000000000E+00 -0.00000000000E+00 -0.89030091841E+03  0.89030091841E+03  0.00000000000E+00 0. -1.
         21    1    1    2  503  501  0.12604466893E+03 -0.22090339186E+02  0.39395242312E+03  0.41421462231E+03  0.00000000000E+00 0. -1.
         21    1    1    2  504  502  0.38736299857E+02  0.10116837492E+02  0.90841364580E+01  0.41053292957E+02  0.00000000000E+00 0. -1.
         21    1    1    2  505  504 -0.12351998388E+03  0.45119626331E+02 -0.93722550188E+02  0.16148338463E+03  0.00000000000E+00 0. -1.
          1    1    1    2  501    0 -0.41260984902E+02 -0.33146124637E+02 -0.73563155300E+03  0.73753299331E+03  0.00000000000E+00 0. -1.
<scales pt_clust_3="14000.00000" pt_clust_4="40.03563" pt_clust_5="154.70306" pt_clust_6="52.84662"></scales>
<clustering>
<clus scale="   40.036">  1  4  2 -1</clus>
<clus scale="   52.847">  2  6  1 -1</clus>
<clus scale="  154.703">  2  5  1 -1</clus>
<clus scale="   40.036">  1  3  2 -1</clus>
</clustering>
</event>
<event>
 6    0  0.7258365E+002  0.1118195E+03  0.7546771E-02  0.1257237E+00
         21   -1    0    0  503  502  0.00000000000E+00  0.00000000000E+00  0.14700822187E+03  0.14700822187E+03  0.00000000000E+00 0. -1.
          2   -1    0    0  504    0 -0.00000000000E+00 -0.00000000000E+00 -0.46349449540E+03  0.46349449540E+03  0.00000000000E+00 0. -1.
         21    1    1    2  503  501  0.73834843953E+02 -0.34412229103E+02 -0.21620482642E+03  0.23104179851E+03  0.00000000000E+00 0.  1.
         21    1    1    2  504  505 -0.64929312044E+02  0.85215272935E+02  0.52974140725E+02  0.11951450912E+03  0.00000000000E+00 0. -1.
         21    1    1    2  505  502  0.12389271037E+02  0.28494315363E+02  0.39603157774E+02  0.50337164705E+02  0.00000000000E+00 0.  1.
          2    1    1    2  501    0 -0.21294802946E+02 -0.79297359195E+02 -0.19285874561E+03  0.20960924494E+03  0.00000000000E+00 0. -1.
<scales pt_clust_3="111.81951" pt_clust_4="14000.00000" pt_clust_5="31.07121" pt_clust_6="79.58525"></scales>
<clustering>
<clus scale="   31.071">  1  5  2 -1</clus>
<clus scale="   79.585">  2  6  1 -1</clus>
<clus scale="  111.820">  2  3  1 -1</clus>
<clus scale="   31.071">  1  3  2 -1</clus>
</clustering>
</event>
<event>
 6    0  0.2104208E+003  0.1419978E+03  0.7546771E-02  0.1210666E+00
         21   -1    0    0  504  502  0.00000000000E+00  0.00000000000E+00  0.61821329900E+03  0.61821329900E+03  0.00000000000E+00 0. -1.
          2   -1    0    0  503    0 -0.00000000000E+00 -0.00000000000E+00 -0.67000717117E+03  0.67000717117E+03  0.00000000000E+00 0. -1.
         21    1    1    2  503  502  0.10781715426E+03 -0.67473687270E+02  0.52042181979E+03  0.53573884285E+03  0.00000000000E+00 0. -1.
         21    1    1    2  504  505 -0.49601426979E+02 -0.31102923307E+02  0.10752437355E+02  0.59525694500E+02  0.00000000000E+00 0.  1.
         21    1    1    2  505  501 -0.12960808842E+02 -0.36717944835E+02  0.38836672961E+02  0.54995247117E+02  0.00000000000E+00 0. -1.
          2    1    1    2  501    0 -0.45254918442E+02  0.13529455541E+03 -0.62180480228E+03  0.63796068570E+03  0.00000000000E+00 0. -1.
<scales pt_clust_3="141.99781" pt_clust_4="103.22774" pt_clust_5="37.74629" pt_clust_6="14000.00000"></scales>
<clustering>
<clus scale="   37.746">  4  5 -1 -1</clus>
<clus scale="  103.228">  1  4  2 -1</clus>
<clus scale="  141.998">  1  3  2 -1</clus>
<clus scale="  103.228">  1  3  2 -1</clus>
</clustering>
</event>
<event>
 6    0  0.7258365E+002  0.1051664E+03  0.7546771E-02  0.1269792E+00
          2   -1    0    0  504    0 -0.00000000000E+00  0.00000000000E+00  0.24706321609E+04  0.24706321609E+04  0.00000000000E+00 0.  1.
         21   -1    0    0  503  502  0.00000000000E+00 -0.00000000000E+00 -0.40181047920E+03  0.40181047920E+03  0.00000000000E+00 0.  1.
         21    1    1    2  503  501 -0.11852032633E+02  0.85318260477E+02 -0.37292343354E+03  0.38274216325E+03  0.00000000000E+00 0.  1.
         21    1    1    2  504  505 -0.16829317071E+02 -0.70372862476E+02  0.82601147592E+02  0.10981127114E+03  0.00000000000E+00 0. -1.
         21    1    1    2  505  502 -0.71659000074E+01  0.36978948931E+02  0.25715657696E+02  0.45607979978E+02  0.00000000000E+00 0. -1.
          2    1    1    2  501    0  0.35847249711E+02 -0.51924346932E+02  0.23334283100E+04  0.23342812257E+04  0.00000000000E+00 0.  1.
<scales pt_clust_3="105.16639" pt_clust_4="14000.00000" pt_clust_5="37.66687" pt_clust_6="63.05891"></scales>
<clustering>
<clus scale="   37.667">  2  5  1 -1</clus>
<clus scale="   63.059">  1  6  2 -1</clus>
<clus scale="  105.166">  2  3  1 -1</clus>
<clus scale="   37.667">  2  3  1 -1</clus>
</clustering>
</event>
<event>
 6    0  0.7258365E+002  0.1098147E+03  0.7546771E-02  0.1260913E+00
         -4   -1    0    0    0  501 -0.00000000000E+00  0.00000000000E+00  0.15069831437E+03  0.15069831437E+03  0.00000000000E+00 0. -1.
         21   -1    0    0  504  502  0.00000000000E+00 -0.00000000000E+00 -0.21137969549E+03  0.21137969549E+03  0.00000000000E+00 0. -1.
         21    1    1    2  503  502 -0.69262226736E+02 -0.54500975086E+01  0.16750747763E+02  0.71467105482E+02  0.00000000000E+00 0. -1.
         21    1    1    2  504  505  0.86311716102E+02  0.59624970513E+02 -0.13042250292E+03  0.16737645806E+03  0.00000000000E+00 0. -1.
         21    1    1    2  505  501  0.17170150784E+02 -0.65934069388E+02  0.13105259728E+02  0.69382010756E+02  0.00000000000E+00 0. -1.
         -4    1    1    2    0  503 -0.34219640150E+02  0.11759196384E+02  0.39885114311E+02  0.53852435555E+02  0.00000000000E+00 0. -1.
<scales pt_clust_3="30.18153" pt_clust_4="101.53912" pt_clust_5="68.13307" pt_clust_6="30.18153"></scales>
<clustering>
<clus scale="   30.182">  3  6 -1 -1</clus>
<clus scale="   68.133">  1  5  2 -1</clus>
<clus scale="  101.539">  2  4  1 -1</clus>
<clus scale="  101.539">  2  3  1 -1</clus>
</clustering>
</event>
<event>
 6    0  0.7258365E+002  0.1200488E+03  0.7546771E-02  0.1243017E+00
         21   -1    0    0  503  502  0.00000000000E+00  0.00000000000E+00  0.15241307891E+03  0.15241307891E+03  0.00000000000E+00 0. -1.
          1   -1    0    0  505    0 -0.00000000000E+00 -0.00000000000E+00 -0.44147785813E+03  0.44147785813E+03  0.00000000000E+00 0. -1.
         21    1    1    2  503  501  0.10083337383E+03 -0.17682953349E+02 -0.41376955189E+02  0.11041788142E+03  0.00000000000E+00 0. -1.
         21    1    1    2  504  502 -0.76427267270E+02 -0.22592872294E+02  0.71870017829E+02  0.10731665539E+03  0.00000000000E+00 0. -1.
         21    1    1    2  505  504 -0.27232364483E+02 -0.33050011151E+02  0.52663857662E+01  0.43146723299E+02  0.00000000000E+00 0.  1.
          1    1    1    2  501    0  0.28262579233E+01  0.73325836793E+02 -0.32482422763E+03  0.33300967693E+03  0.00000000000E+00 0. -1.
<scales pt_clust_3="107.53583" pt_clust_4="39.11787" pt_clust_5="39.11787" pt_clust_6="73.38028"></scales>
<clustering>
<clus scale="   39.118">  4  5 -1 -1</clus>
<clus scale="   73.380">  2  6  1 -1</clus>
<clus scale="  107.536">  2  3  1 -1</clus>
<clus scale="  120.049">  1  3  2 -1</clus>
</clustering>
</event>
<event>
 6    0  0.7258365E+002  0.9956066E+02  0.7546771E-02  0.1281223E+00
          1   -1    0    0  503    0 -0.00000000000E+00  0.00000000000E+00  0.15636452821E+04  0.15636452821E+04  0.00000000000E+00 0.  1.
         21   -1    0    0  505  502  0.00000000000E+00 -0.00000000000E+00 -0.52762477323E+03  0.52762477323E+03  0.00000000000E+00 0.  1.
         21    1    1    2  503  502  0.14170686135E+03 -0.66479160908E+02 -0.37747442976E+03  0.40864074505E+03  0.00000000000E+00 0.  1.
         21    1    1    2  504  501 -0.53415592922E+00  0.75056645899E+02  0.56517326396E+03  0.57013560116E+03  0.00000000000E+00 0.  1.
         21    1    1    2  505  504 -0.87093710313E+02 -0.18437245077E+02 -0.11621387400E+03  0.14639300152E+03  0.00000000000E+00 0.  1.
          1    1    1    2  501    0 -0.54078995111E+02  0.98597600870E+01  0.96453554871E+03  0.96610070764E+03  0.00000000000E+00 0.  1.
<scales pt_clust_3="14000.00000" pt_clust_4="99.56066" pt_clust_5="90.30816" pt_clust_6="54.97047"></scales>
<clustering>
<clus scale="   54.970">  1  6  2 -1</clus>
<clus scale="   90.308">  2  5  1 -1</clus>
<clus scale="   99.561">  1  4  2 -1</clus>
<clus scale="   90.308">  2  3  1 -1</clus>
</clustering>
</event>
<event>
 6    0  0.7258365E+002  0.1008634E+03  0.7546771E-02  0.1278491E+00
          1   -1    0    0  504    0 -0.00000000000E+00  0.00000000000E+00  0.37638175647E+04  0.37638175647E+04  0.00000000000E+00 0. -1.
         21   -1    0    0  503  502  0.00000000000E+00 -0.00000000000E+00 -0.17974183689E+02  0.17974183689E+02  0.00000000000E+00 0.  1.
         21    1    1    2  503  501  0.58987515105E+02  0.35465174785E+02  0.12096887044E+03  0.13917892504E+03  0.00000000000E+00 0.  1.
         21    1    1    2  504  505 -0.64774533708E-01 -0.46601542795E+02  0.12853213868E+03  0.13671948896E+03  0.00000000000E+00 0. -1.
         21    1    1    2  505  502  0.29048882797E+02 -0.33160628409E+02  0.11566543238E+03  0.12378189332E+03  0.00000000000E+00 0. -1.
          1    1    1    2  501    0 -0.87971623368E+02  0.44296996419E+02  0.33806769395E+04  0.33821114411E+04  0.00000000000E+00 0. -1.
<scales pt_clust_3="68.82809" pt_clust_4="31.16085" pt_clust_5="31.16085" pt_clust_6="95.63994"></scales>
<clustering>
<clus scale="   31.161">  4  5 -1 -1</clus>
<clus scale="   68.828">  2  3  1 -1</clus>
<clus scale="   95.640">  1  6  2 -1</clus>
<clus scale="   68.828">  2  3  1 -1</clus>
</clustering>
</event>
<event>
 6    0  0.7258365E+002  0.1520585E+03  0.7546771E-02  0.1197966E+00
          1   -1    0    0  505    0 -0.00000000000E+00  0.00000000000E+00  0.62315266959E+03  0.62315266959E+03  0.00000000000E+00 0. -1.
         21   -1    0    0  504  502  0.00000000000E+00 -0.00000000000E+00 -0.19516644745E+03  0.19516644745E+03  0.00000000000E+00 0. -1.
         21    1    1    2  503  502  0.13798192941E+03 -0.10918297008E+03 -0.42192779736E+02  0.18094243411E+03  0.00000000000E+00 0. -1.
         21    1    1    2  504  501 -0.46764217261E+02  0.12596914117E+03  0.35535440377E+02  0.13898879116E+03  0.00000000000E+00 0. -1.
         21    1    1    2  505  503 -0.78480354621E+02 -0.11261788252E+03  0.18259873039E+03  0.22843872234E+03  0.00000000000E+00 0.  1.
          1    1    1    2  501    0 -0.12737357527E+02  0.95831711420E+02  0.25204483111E+03  0.26994916944E+03  0.00000000000E+00 0. -1.
<scales pt_clust_3="152.05853" pt_clust_4="14000.00000" pt_clust_5="103.62066" pt_clust_6="96.67449"></scales>
<clustering>
<clus scale="   96.674">  1  6  2 -1</clus>
<clus scale="  103.621">  1  5  2 -1</clus>
<clus scale="  152.059">  2  3  1 -1</clus>
<clus scale="  152.059">  2  3  1 -1</clus>
</clustering>
</event>
<event>
 6    0  0.7258365E+002  0.1226991E+03  0.7546771E-02  0.1238710E+00
         21   -1    0    0  505  502  0.00000000000E+00  0.00000000000E+00  0.19849420889E+03  0.19849420889E+03  0.00000000000E+00 0. -1.
          2   -1    0    0  503    0 -0.00000000000E+00 -0.00000000000E+00 -0.13540280076E+04  0.13540280076E+04  0.00000000000E+00 0. -1.
         21    1    1    2  503  504  0.13983947396E+03  0.47125198609E+02  0.55854992946E+02  0.15778353228E+03  0.00000000000E+00 0. -1.
         21    1    1    2  504  502 -0.18121655872E+02 -0.24985598197E+02  0.77365332986E+02  0.83295073545E+02  0.00000000000E+00 0. -1.
         21    1    1    2  505  501 -0.82266602218E+02  0.90172993218E+02 -0.73183196532E+03  0.74194136426E+03  0.00000000000E+00 0. -1.
          2    1    1    2  501    0 -0.39451215866E+02 -0.11231259363E+03 -0.55692215928E+03  0.56950224637E+03  0.00000000000E+00 0. -1.
<scales pt_clust_3="122.69911" pt_clust_4="30.86543" pt_clust_5="14000.00000" pt_clust_6="120.61544"></scales>
<clustering>
<clus scale="   30.865">  1  4  2 -1</clus>
<clus scale="  120.615">  2  6  1 -1</clus>
<clus scale="  122.699">  1  3  2 -1</clus>
<clus scale="   30.865">  1  3  2 -1</clus>
</clustering>
</event>
<event>
 6    0  0.7258365E+002  0.1898148E+03  0.7546771E-02  0.1158628E+00
         21   -1    0    0  504  502  0.00000000000E+00  0.00000000000E+00  0.20541340319E+03  0.20541340319E+03  0.00000000000E+00 0. -1.
          2   -1    0    0  502    0 -0.00000000000E+00 -0.00000000000E+00 -0.30406280480E+04  0.30406280480E+04  0.00000000000E+00 0. -1.
         21    1    1    2  503  505 -0.19920714042E+03 -0.48970767547E+02 -0.90153800836E+02  0.22407438201E+03  0.00000000000E+00 0. -1.
         21    1    1    2  504  503  0.94830484826E+01  0.52678232322E+02  0.11919731318E+03  0.13066339900E+03  0.00000000000E+00 0. -1.
         21    1    1    2  505  501  0.17594180262E+03  0.71280706952E+02 -0.68796079350E+03  0.71367115010E+03  0.00000000000E+00 0. -1.
          2    1    1    2  501    0  0.13782289317E+02 -0.74988171727E+02 -0.21762973637E+04  0.21776325201E+04  0.00000000000E+00 0. -1.
<scales pt_clust_3="189.81483" pt_clust_4="53.52499" pt_clust_5="14000.00000" pt_clust_6="75.82883"></scales>
<clustering>
<clus scale="   53.525">  1  4  2 -1</clus>
<clus scale="   75.829">  2  6  1 -1</clus>
<clus scale="  189.815">  1  3  2 -1</clus>
<clus scale="   53.525">  1  3  2 -1</clus>
</clustering>
</event>
<event>
 6    0  0.7258365E+002  0.3067564E+03  0.7546771E-02  0.1081911E+00
         -2   -1    0    0    0  501 -0.00000000000E+00  0.00000000000E+00  0.17739022823E+04  0.17739022823E+04  0.00000000000E+00 0.  1.
         21   -1    0    0  501  502  0.00000000000E+00 -0.00000000000E+00 -0.25420061390E+03  0.25420061390E+03  0.00000000000E+00 0.  1.
         21    1    1    2  503  504 -0.21867220568E+03 -0.26887450942E+02 -0.12302066233E+02  0.22066220652E+03  0.00000000000E+00 0.  1.
         21    1    1    2  504  502 -0.57788688651E+02 -0.39467122624E+02 -0.11296298671E+03  0.13288274030E+03  0.00000000000E+00 0.  1.
         21    1    1    2  505  503  0.11268329626E+03  0.83804462184E+02  0.95107169962E+03  0.96138342557E+03  0.00000000000E+00 0.  1.
         -2    1    1    2    0  505  0.16377759806E+03 -0.17449888618E+02  0.69389502169E+03  0.71317452378E+03  0.00000000000E+00 0.  1.
<scales pt_clust_3="276.95531" pt_clust_4="69.97990" pt_clust_5="122.03340" pt_clust_6="122.03340"></scales>
<clustering>
<clus scale="   69.980">  2  4  1 -1</clus>
<clus scale="  122.033">  5  6 -1 -1</clus>
<clus scale="  276.955">  2  3  1 -1</clus>
<clus scale="   69.980">  2  3  1 -1</clus>
</clustering>
</event>
<event>
 6    0  0.7258365E+002  0.1030739E+03  0.7546771E-02  0.1273962E+00
          2   -1    0    0  504    0 -0.00000000000E+00  0.00000000000E+00  0.18166707896E+04  0.18166707896E+04  0.00000000000E+00 0.  1.
         21   -1    0    0  505  502  0.00000000000E+00 -0.00000000000E+00 -0.60149122776E+02  0.60149122776E+02  0.00000000000E+00 0. -1.
         21    1    1    2  503  501  0.59084568291E+02  0.33878073331E+02  0.74396147314E+02  0.10086375364E+03  0.00000000000E+00 0.  1.
         21    1    1    2  504  502 -0.31225441117E+02 -0.76586109165E+02  0.83006630674E+01  0.83122567918E+02  0.00000000000E+00 0. -1.
         21    1    1    2  505  503  0.22748989361E+02 -0.49762309614E+02  0.88774761966E+02  0.10428212856E+03  0.00000000000E+00 0.  1.
          2    1    1    2  501    0 -0.50608116535E+02  0.92470345448E+02  0.15850500945E+04  0.15885514622E+04  0.00000000000E+00 0.  1.
<scales pt_clust_3="68.24272" pt_clust_4="14000.00000" pt_clust_5="54.71566" pt_clust_6="103.07391"></scales>
<clustering>
<clus scale="   54.716">  2  5  1 -1</clus>
<clus scale="   68.243">  2  3  1 -1</clus>
<clus scale="  103.074">  1  6  2 -1</clus>
<clus scale="   54.716">  2  3  1 -1</clus>
</clustering>
</event>
<event>
 6    0  0.7258365E+002  0.1301713E+03  0.7546771E-02  0.1227202E+00
         21   -1    0    0  503  502  0.00000000000E+00  0.00000000000E+00  0.23866053712E+04  0.23866053712E+04  0.00000000000E+00 0.  1.
          3   -1    0    0  505    0 -0.00000000000E+00 -0.00000000000E+00 -0.69576764869E+03  0.69576764869E+03  0.00000000000E+00 0. -1.
         21    1    1    2  503  504 -0.39468768473E+02 -0.10227276101E+03  0.20042343429E+03  0.22844486062E+03  0.00000000000E+00 0.  1.
         21    1    1    2  504  501 -0.11491706524E+02  0.17164983112E+03  0.15694167049E+03  0.23286565178E+03  0.00000000000E+00 0.  1.
         21    1    1    2  505  502  0.30014230129E+02 -0.21287595950E+02  0.19760275799E+04  0.19763701607E+04  0.00000000000E+00 0.  1.
          3    1    1    2  501    0  0.20946244868E+02 -0.48089474159E+02 -0.64255496211E+03  0.64469234681E+03  0.00000000000E+00 0. -1.
<scales pt_clust_3="130.17132" pt_clust_4="14000.00000" pt_clust_5="36.79695" pt_clust_6="52.53530"></scales>
<clustering>
<clus scale="   36.797">  1  5  2 -1</clus>
<clus scale="   52.535">  2  6  1 -1</clus>
<clus scale="  130.171">  1  3  2 -1</clus>
<clus scale="   36.797">  1  3  2 -1</clus>
</clustering>
</event>
<event>
 6    0  0.7258365E+002  0.9178207E+02  0.7546771E-02  0.1298593E+00
         21   -1    0    0  503  502  0.00000000000E+00  0.00000000000E+00  0.11498903969E+03  0.11498903969E+03  0.00000000000E+00 0. -1.
          2   -1    0    0  505    0 -0.00000000000E+00 -0.00000000000E+00 -0.11968558992E+04  0.11968558992E+04  0.00000000000E+00 0. -1.
         21    1    1    2  503  501 -0.84165272754E+01 -0.37728701284E+02  0.20423179101E+02  0.43719550278E+02  0.00000000000E+00 0. -1.
         21    1    1    2  504  502 -0.46848243243E+02  0.52988653188E+02  0.55170919580E+02  0.89701647861E+02  0.00000000000E+00 0. -1.
         21    1    1    2  505  504 -0.21501117686E+00  0.70070188108E+02 -0.14696159178E+03  0.16281150742E+03  0.00000000000E+00 0. -1.
          2    1    1    2  501    0  0.55479781695E+02 -0.85330140012E+02 -0.10104993664E+04  0.10156122333E+04  0.00000000000E+00 0. -1.
<scales pt_clust_3="38.65608" pt_clust_4="57.78321" pt_clust_5="91.78207" pt_clust_6="14000.00000"></scales>
<clustering>
<clus scale="   38.656">  1  3  2 -1</clus>
<clus scale="   57.783">  1  4  2 -1</clus>
<clus scale="   91.782">  1  5  2 -1</clus>
<clus scale="   38.656">  1  3  2 -1</clus>
</clustering>
</event>
<event>
 6    0  0.7258365E+002  0.1414575E+03  0.7546771E-02  0.1211381E+00
         21   -1    0    0  503  502  0.00000000000E+00  0.00000000000E+00  0.38602757644E+03  0.38602757644E+03  0.00000000000E+00 0. -1.
          2   -1    0    0  505    0 -0.00000000000E+00 -0.00000000000E+00 -0.76947804575E+03  0.76947804575E+03  0.00000000000E+00 0.  1.
         21    1    1    2  503  504 -0.20554592065E+01  0.82528932294E+02  0.17225606766E+03  0.19101675954E+03  0.00000000000E+00 0.  1.
         21    1    1    2  504  501  0.37426169830E+02  0.46285879260E+02  0.18882249352E+03  0.19798241049E+03  0.00000000000E+00 0. -1.
         21    1    1    2  505  502 -0.27828239201E+02 -0.79863530774E+02 -0.17028491391E+03  0.19013034043E+03  0.00000000000E+00 0.  1.
          2    1    1    2  501    0 -0.75424714216E+01 -0.48951280780E+02 -0.57424411657E+03  0.57637611174E+03  0.00000000000E+00 0.  1.
<scales pt_clust_3="47.26461" pt_clust_4="47.26461" pt_clust_5="130.04589" pt_clust_6="49.52895"></scales>
<clustering>
<clus scale="   47.265">  3  4 -1 -1</clus>
<clus scale="   49.529">  2  6  1 -1</clus>
<clus scale="  130.046">  2  5  1 -1</clus>
<clus scale="  141.457">  1  3  2 -1</clus>
</clustering>
</event>
<event>
 6    0  0.7258365E+002  0.1051001E+03  0.7546771E-02  0.1269923E+00
          1   -1    0    0  503    0 -0.00000000000E+00  0.00000000000E+00  0.10545897194E+04  0.10545897194E+04  0.00000000000E+00 0. -1.
         21   -1    0    0  505  502  0.00000000000E+00 -0.00000000000E+00 -0.15473762266E+03  0.15473762266E+03  0.00000000000E+00 0.  1.
         21    1    1    2  503  502  0.69989638832E+02  0.90186718143E+02 -0.10940260245E+03  0.15811743451E+03  0.00000000000E+00 0.  1.
         21    1    1    2  504  501 -0.88353689262E+01 -0.74473068763E+02  0.21216184827E+03  0.22502655749E+03  0.00000000000E+00 0. -1.
         21    1    1    2  505  504 -0.46358902742E+02 -0.54173271006E+02  0.77113118088E+02  0.10502534997E+03  0.00000000000E+00 0. -1.
          1    1    1    2  501    0 -0.14795367164E+02  0.38459621626E+02  0.71997973282E+03  0.72115800006E+03  0.00000000000E+00 0. -1.
<scales pt_clust_3="105.10011" pt_clust_4="52.66671" pt_clust_5="14000.00000" pt_clust_6="41.20735"></scales>
<clustering>
<clus scale="   41.207">  1  6  2 -1</clus>
<clus scale="   52.667">  1  4  2 -1</clus>
<clus scale="  105.100">  2  3  1 -1</clus>
<clus scale="  105.100">  2  3  1 -1</clus>
</clustering>
</event>
<event>
 6    0  0.7258365E+002  0.1196100E+03  0.7546771E-02  0.1243742E+00
          1   -1    0    0  505    0 -0.00000000000E+00  0.00000000000E+00  0.41291567179E+04  0.41291567179E+04  0.00000000000E+00 0. -1.
         21   -1    0    0  504  502  0.00000000000E+00 -0.00000000000E+00 -0.50082115673E+03  0.50082115673E+03  0.00000000000E+00 0. -1.
         21    1    1    2  503  501  0.10892372537E+03  0.14629879213E+03  0.92823152481E+03  0.94598175362E+03  0.00000000000E+00 0. -1.
         21    1    1    2  504  503 -0.12614348447E+03 -0.11913757762E+03 -0.42954701970E+03  0.46326729132E+03  0.00000000000E+00 0. -1.
         21    1    1    2  505  502  0.54434870235E+02  0.27356583969E+02 -0.24662263658E+02  0.65724919420E+02  0.00000000000E+00 0. -1.
          1    1    1    2  501    0 -0.37215111138E+02 -0.54517798482E+02  0.31543133197E+04  0.31550039103E+04  0.00000000000E+00 0. -1.
<scales pt_clust_3="14000.00000" pt_clust_4="119.61003" pt_clust_5="60.92239" pt_clust_6="65.96837"></scales>
<clustering>
<clus scale="   60.922">  2  5  1 -1</clus>
<clus scale="   65.968">  1  6  2 -1</clus>
<clus scale="  119.610">  2  4  1 -1</clus>
<clus scale="   60.922">  2  3  1 -1</clus>
</clustering>
</event>
<event>
 6    0  0.7258365E+002  0.1634352E+03  0.7546771E-02  0.1184872E+00
          1   -1    0    0  503    0 -0.00000000000E+00  0.00000000000E+00  0.21614617820E+04  0.21614617820E+04  0.00000000000E+00 0.  1.
         21   -1    0    0  504  502  0.00000000000E+00 -0.00000000000E+00 -0.19097517558E+02  0.19097517558E+02  0.00000000000E+00 0.  1.
         21    1    1    2  503  502  0.62265392194E+01  0.72062912346E+02  0.52138128015E+03  0.52637465024E+03  0.00000000000E+00 0.  1.
         21    1    1    2  504  505 -0.54928923131E+02  0.46224971021E+01  0.37963615358E+03  0.38361720919E+03  0.00000000000E+00 0.  1.
         21    1    1    2  505  501 -0.98134414246E+02  0.14387857329E+01  0.33480641556E+03  0.34889506913E+03  0.00000000000E+00 0.  1.
          1    1    1    2  501    0  0.14683679816E+03 -0.78124195181E+02  0.90654041516E+03  0.92167237101E+03  0.00000000000E+00 0.  1.
<scales pt_clust_3="72.33141" pt_clust_4="38.80390" pt_clust_5="38.80390" pt_clust_6="155.01654"></scales>
<clustering>
<clus scale="   38.804">  4  5 -1 -1</clus>
<clus scale="   72.331">  1  3  2 -1</clus>
<clus scale="  155.017">  1  6  2 -1</clus>
<clus scale="  163.435">  2  3  1 -1</clus>
</clustering>
</event>
<event>
 6    0  0.7258365E+002  0.6395390E+02  0.7546771E-02  0.1381950E+00
         21   -1    0    0  504  502  0.00000000000E+00  0.00000000000E+00  0.17448320045E+03  0.17448320045E+03  0.00000000000E+00 0. -1.
          2   -1    0    0  503    0 -0.00000000000E+00 -0.00000000000E+00 -0.24419489015E+04  0.24419489015E+04  0.00000000000E+00 0.  1.
         21    1    1    2  503  505 -0.62938443329E+02  0.22823471538E+01 -0.77358720988E+02  0.99753839375E+02  0.00000000000E+00 0. -1.
         21    1    1    2  504  501  0.99908159995E+02 -0.85791621269E+02 -0.11044563691E+03  0.17187228231E+03  0.00000000000E+00 0. -1.
         21    1    1    2  505  502  0.16956397552E+02  0.50958929833E+02  0.12666517414E+03  0.13758051565E+03  0.00000000000E+00 0. -1.
          2    1    1    2  501    0 -0.53926114219E+02  0.32550344282E+02 -0.22063265173E+04  0.22072254646E+04  0.00000000000E+00 0.  1.
<scales pt_clust_3="60.54154" pt_clust_4="63.95390" pt_clust_5="53.70598" pt_clust_6="14000.00000"></scales>
<clustering>
<clus scale="   53.706">  1  5  2 -1</clus>
<clus scale="   60.542">  1  3  2 -1</clus>
<clus scale="   63.954">  1  4  2 -1</clus>
<clus scale="   53.706">  1  3  2 -1</clus>
</clustering>
</event>
<event>
 6    0  0.7258365E+002  0.7338328E+02  0.7546771E-02  0.1348952E+00
         -1   -1    0    0    0  501 -0.00000000000E+00  0.00000000000E+00  0.16749420118E+04  0.16749420118E+04  0.00000000000E+00 0. -1.
         21   -1    0    0  504  502  0.00000000000E+00 -0.00000000000E+00 -0.20780509614E+03  0.20780509614E+03  0.00000000000E+00 0. -1.
         21    1    1    2  503  501 -0.53145858709E+02  0.15132536463E+02  0.58903067313E+03  0.59161694519E+03  0.00000000000E+00 0. -1.
         21    1    1    2  504  503 -0.91591573901E+01  0.30713010345E+02  0.88085457598E+00  0.32061738464E+02  0.00000000000E+00 0.  1.
         21    1    1    2  505  502 -0.55390026073E+02 -0.63342263589E+02 -0.17814178020E+03  0.19701469792E+03  0.00000000000E+00 0. -1.
         -1    1    1    2    0  505  0.11769504217E+03  0.17496716781E+02  0.10553671682E+04  0.10620537264E+04  0.00000000000E+00 0. -1.
<scales pt_clust_3="55.37441" pt_clust_4="32.04964" pt_clust_5="14000.00000" pt_clust_6="73.38328"></scales>
<clustering>
<clus scale="   32.050">  2  4  1 -1</clus>
<clus scale="   55.374">  1  3  2 -1</clus>
<clus scale="   73.383">  1  6  2 -1</clus>
<clus scale="   32.050">  2  3  1 -1</clus>
</clustering>
</event>
<event>
 6    0  0.7258365E+002  0.1483406E+03  0.7546771E-02  0.1202527E+00
          1   -1    0    0  504    0 -0.00000000000E+00  0.00000000000E+00  0.10567325434E+04  0.10567325434E+04  0.00000000000E+00 0.  1.
         21   -1    0    0  503  502  0.00000000000E+00 -0.00000000000E+00 -0.11052059665E+03  0.11052059665E+03  0.00000000000E+00 0. -1.
         21    1    1    2  503  501 -0.78244803478E+02  0.77220155598E+02  0.18331131865E+03  0.21374807893E+03  0.00000000000E+00 0.  1.
         21    1    1    2  504  505  0.51569344628E+02 -0.17032744248E+03  0.49090203626E+02  0.18460954216E+03  0.00000000000E+00 0. -1.
         21    1    1    2  505  502  0.43998147371E+02  0.19965132915E+02 -0.27588098022E+01  0.48394777982E+02  0.00000000000E+00 0. -1.
          1    1    1    2  501    0 -0.17322688522E+02  0.73142153962E+02  0.71656923430E+03  0.72050074099E+03  0.00000000000E+00 0.  1.
<scales pt_clust_3="14000.00000" pt_clust_4="148.34058" pt_clust_5="48.31608" pt_clust_6="75.38841"></scales>
<clustering>
<clus scale="   48.316">  2  5  1 -1</clus>
<clus scale="   75.388">  1  6  2 -1</clus>
<clus scale="  148.341">  2  4  1 -1</clus>
<clus scale="   48.316">  2  3  1 -1</clus>
</clustering>
</event>
<event>
 6    0  0.7258365E+002  0.9596583E+02  0.7546771E-02  0.1289016E+00
          2   -1    0    0  505    0 -0.00000000000E+00  0.00000000000E+00  0.25393073463E+04  0.25393073463E+04  0.00000000000E+00 0.  1.
         21   -1    0    0  504  502  0.00000000000E+00 -0.00000000000E+00 -0.47190616326E+02  0.47190616326E+02  0.00000000000E+00 0. -1.
         21    1    1    2  503  501  0.86782426090E+02 -0.90826963511E+01  0.32115919592E+03  0.33280161354E+03  0.00000000000E+00 0. -1.
         21    1    1    2  504  503  0.71659550031E+01  0.30528325924E+02 -0.23719058607E+02  0.39318231598E+02  0.00000000000E+00 0. -1.
         21    1    1    2  505  502 -0.93985730612E+02  0.56183689895E+02  0.32229595157E+03  0.34038890253E+03  0.00000000000E+00 0. -1.
          2    1    1    2  501    0  0.37349518209E-01 -0.77629319468E+02  0.18723806411E+04  0.18739892150E+04  0.00000000000E+00 0.  1.
<scales pt_clust_3="95.96583" pt_clust_4="31.35809" pt_clust_5="14000.00000" pt_clust_6="76.06368"></scales>
<clustering>
<clus scale="   31.358">  2  4  1 -1</clus>
<clus scale="   76.064">  1  6  2 -1</clus>
<clus scale="   95.966">  2  3  1 -1</clus>
<clus scale="   31.358">  2  3  1 -1</clus>
</clustering>
</event>
<event>
 6    0  0.7258365E+002  0.1203612E+03  0.7546771E-02  0.1242502E+00
          2   -1    0    0  502    0 -0.00000000000E+00  0.00000000000E+00  0.11954119330E+04  0.11954119330E+04  0.00000000000E+00 0.  1.
         21   -1    0    0  504  502  0.00000000000E+00 -0.00000000000E+00 -0.20205110744E+03  0.20205110744E+03  0.00000000000E+00 0. -1.
         21    1    1    2  503  501 -0.60350441398E+02 -0.11314532814E+03 -0.82144579333E+02  0.15228845317E+03  0.00000000000E+00 0. -1.
         21    1    1    2  504  505  0.40506280802E+02  0.24258848913E+02 -0.13713845483E+02  0.49166249531E+02  0.00000000000E+00 0.  1.
         21    1    1    2  505  503  0.59592145566E+02 -0.25677026168E+02 -0.29113419874E+02  0.71120494253E+02  0.00000000000E+00 0. -1.
          2    1    1    2  501    0 -0.39747984969E+02  0.11456350539E+03  0.11183326702E+04  0.11248878435E+04  0.00000000000E+00 0.  1.
<scales pt_clust_3="120.36122" pt_clust_4="43.60405" pt_clust_5="112.40430" pt_clust_6="14000.00000"></scales>
<clustering>
<clus scale="   43.604">  4  5 -1 -1</clus>
<clus scale="  112.404">  2  4  1 -1</clus>
<clus scale="  120.361">  2  3  1 -1</clus>
<clus scale="  112.404">  2  3  1 -1</clus>
</clustering>
</event>
<event>
 6    0  0.7258365E+002  0.1031744E+03  0.7546771E-02  0.1273759E+00
          1   -1    0    0  503    0 -0.00000000000E+00  0.00000000000E+00  0.21359323053E+04  0.21359323053E+04  0.00000000000E+00 0.  1.
         21   -1    0    0  505  502  0.00000000000E+00 -0.00000000000E+00 -0.12896807814E+04  0.12896807814E+04  0.00000000000E+00 0.  1.
         21    1    1    2  503  504  0.66833025327E+02 -0.41095883973E+02  0.47332062033E+03  0.47977904767E+03  0.00000000000E+00 0.  1.
         21    1    1    2  504  502 -0.10640108258E+03  0.11273398267E+03 -0.10826850345E+04  0.10937262113E+04  0.00000000000E+00 0.  1.
         21    1    1    2  505  501  0.41849017710E+02 -0.31943082181E+02 -0.19450695970E+03  0.20150597548E+03  0.00000000000E+00 0.  1.
          1    1    1    2  501    0 -0.22809604621E+01 -0.39695016516E+02  0.16501228978E+04  0.16506018524E+04  0.00000000000E+00 0.  1.
<scales pt_clust_3="14000.00000" pt_clust_4="103.17438" pt_clust_5="52.80799" pt_clust_6="39.76050"></scales>
<clustering>
<clus scale="   39.760">  1  6  2 -1</clus>
<clus scale="   52.808">  2  5  1 -1</clus>
<clus scale="  103.174">  2  4  1 -1</clus>
<clus scale="   52.808">  2  3  1 -1</clus>
</clustering>
</event>
<event>
 6    0  0.7258365E+002  0.1144734E+03  0.7546771E-02  0.1252503E+00
          2   -1    0    0  503    0 -0.00000000000E+00  0.00000000000E+00  0.93906729317E+03  0.93906729317E+03  0.00000000000E+00 0.  1.
         21   -1    0    0  504  502  0.00000000000E+00 -0.00000000000E+00 -0.53191237510E+03  0.53191237510E+03  0.00000000000E+00 0.  1.
         21    1    1    2  503  502 -0.60053542588E+02  0.13292228473E+03  0.21568723091E+02  0.14744480856E+03  0.00000000000E+00 0.  1.
         21    1    1    2  504  505  0.14156366903E+02  0.41973298970E+02 -0.24460407435E+03  0.24858260949E+03  0.00000000000E+00 0.  1.
         21    1    1    2  505  501 -0.94313120468E+01 -0.76786038532E+02 -0.21178696768E+03  0.22547453301E+03  0.00000000000E+00 0.  1.
          2    1    1    2  501    0  0.55328487732E+02 -0.98109545165E+02  0.84197723700E+03  0.84947771721E+03  0.00000000000E+00 0.  1.
<scales pt_clust_3="14000.00000" pt_clust_4="44.29628" pt_clust_5="44.64573" pt_clust_6="114.47345"></scales>
<clustering>
<clus scale="   44.296">  2  4  1 -1</clus>
<clus scale="   44.646">  2  5  1 -1</clus>
<clus scale="  114.473">  1  6  2 -1</clus>
<clus scale="   44.296">  2  3  1 -1</clus>
</clustering>
</event>
<event>
 6    0  0.7258365E+002  0.1388099E+03  0.7546771E-02  0.1214939E+00
          2   -1    0    0  504    0 -0.00000000000E+00  0.00000000000E+00  0.11704781950E+04  0.11704781950E+04  0.00000000000E+00 0. -1.
         21   -1    0    0  505  502  0.00000000000E+00 -0.00000000000E+00 -0.35970735937E+02  0.35970735937E+02  0.00000000000E+00 0. -1.
         21    1    1    2  503  501  0.19951898332E+02 -0.85882288376E+02  0.12387532683E+03  0.15204914437E+03  0.00000000000E+00 0. -1.
         21    1    1    2  504  502 -0.94946769393E+02  0.91407596082E+02  0.26989089697E+03  0.30035201665E+03  0.00000000000E+00 0. -1.
         21    1    1    2  505  503  0.43498783020E+02 -0.17052384244E+02  0.81412338671E+02  0.93866377476E+02  0.00000000000E+00 0. -1.
          2    1    1    2  501    0  0.31496088041E+02  0.11527076539E+02  0.65932889654E+03  0.66018139240E+03  0.00000000000E+00 0. -1.
<scales pt_clust_3="46.57357" pt_clust_4="124.73299" pt_clust_5="46.57357" pt_clust_6="33.53919"></scales>
<clustering>
<clus scale="   33.539">  1  6  2 -1</clus>
<clus scale="   46.574">  3  5 -1 -1</clus>
<clus scale="  124.733">  1  4  2 -1</clus>
<clus scale="  138.810">  2  3  1 -1</clus>
</clustering>
</event>
<event>
 6    0  0.7258365E+002  0.7793044E+02  0.7546771E-02  0.1335029E+00
          1   -1    0    0  504    0 -0.00000000000E+00  0.00000000000E+00  0.54575733530E+03  0.54575733530E+03  0.00000000000E+00 0.  1.
         21   -1    0    0  503  502  0.00000000000E+00 -0.00000000000E+00 -0.48009062885E+03  0.48009062885E+03  0.00000000000E+00 0. -1.
         21    1    1    2  503  505  0.43313713891E+02  0.21121054662E+02 -0.93859736747E+02  0.10550747340E+03  0.00000000000E+00 0. -1.
         21    1    1    2  504  502  0.12066221366E+02 -0.77963661400E+02 -0.35677281183E+03  0.36539124984E+03  0.00000000000E+00 0. -1.
         21    1    1    2  505  501 -0.86037218539E+02  0.16811930502E+02  0.89855809543E+02  0.12553529579E+03  0.00000000000E+00 0. -1.
          1    1    1    2  501    0  0.30657283282E+02  0.40030676236E+02  0.42644344548E+03  0.42941394511E+03  0.00000000000E+00 0.  1.
<scales pt_clust_3="48.18897" pt_clust_4="77.93044" pt_clust_5="14000.00000" pt_clust_6="50.58983"></scales>
<clustering>
<clus scale="   48.189">  2  3  1 -1</clus>
<clus scale="   50.590">  1  6  2 -1</clus>
<clus scale="   77.930">  2  4  1 -1</clus>
<clus scale="   48.189">  2  3  1 -1</clus>
</clustering>
</event>
<event>
 6    0  0.7258365E+002  0.5206700E+02  0.7546771E-02  0.1434501E+00
         21   -1    0    0  505  502  0.00000000000E+00  0.00000000000E+00  0.28665627701E+03  0.28665627701E+03  0.00000000000E+00 0. -1.
          2   -1    0    0  504    0 -0.00000000000E+00 -0.00000000000E+00 -0.38545192603E+03  0.38545192603E+03  0.00000000000E+00 0. -1.
         21    1    1    2  503  502 -0.23410768840E+02  0.36828831663E+02  0.21762857017E+03  0.22196085576E+03  0.00000000000E+00 0. -1.
         21    1    1    2  504  503 -0.32204571357E+02 -0.10923009833E+03 -0.10838062441E+02  0.11439323579E+03  0.00000000000E+00 0.  1.
         21    1    1    2  505  501  0.34254778000E+02  0.27708282837E+02 -0.24651912162E+02  0.50486191448E+02  0.00000000000E+00 0.  1.
          2    1    1    2  501    0  0.21360562197E+02  0.44692983827E+02 -0.28093424458E+03  0.28526792003E+03  0.00000000000E+00 0. -1.
<scales pt_clust_3="43.63974" pt_clust_4="14000.00000" pt_clust_5="45.78926" pt_clust_6="52.06700"></scales>
<clustering>
<clus scale="   43.640">  1  3  2 -1</clus>
<clus scale="   45.789">  1  5  2 -1</clus>
<clus scale="   52.067">  2  6  1 -1</clus>
<clus scale="   43.640">  1  3  2 -1</clus>
</clustering>
</event>
<event>
 6    0  0.7258365E+002  0.1488160E+03  0.7546771E-02  0.1201936E+00
         21   -1    0    0  505  502  0.00000000000E+00  0.00000000000E+00  0.11946976109E+04  0.11946976109E+04  0.00000000000E+00 0. -1.
         -3   -1    0    0    0  501 -0.00000000000E+00 -0.00000000000E+00 -0.10196710540E+04  0.10196710540E+04  0.00000000000E+00 0. -1.
         21    1    1    2  503  501  0.37662205626E+02 -0.15185693089E+03  0.12789288754E+03  0.20207810340E+03  0.00000000000E+00 0. -1.
         21    1    1    2  504  502 -0.54520045171E+02  0.14872921507E+03  0.83716607168E+03  0.85202103631E+03  0.00000000000E+00 0. -1.
         21    1    1    2  505  503  0.53825753688E+02 -0.25031197084E+01  0.18082987575E+03  0.18868736400E+03  0.00000000000E+00 0. -1.
         -3    1    1    2    0  504 -0.36967914143E+02  0.56308355271E+01 -0.97086227803E+03  0.97158216116E+03  0.00000000000E+00 0. -1.
<scales pt_clust_3="148.81598" pt_clust_4="14000.00000" pt_clust_5="50.86919" pt_clust_6="37.39429"></scales>
<clustering>
<clus scale="   37.394">  2  6  1 -1</clus>
<clus scale="   50.869">  1  5  2 -1</clus>
<clus scale="  148.816">  2  3  1 -1</clus>
<clus scale="   50.869">  1  3  2 -1</clus>
</clustering>
</event>
<event>
 6    0  0.7258365E+002  0.7610738E+02  0.7546771E-02  0.1340476E+00
         -2   -1    0    0    0  501 -0.00000000000E+00  0.00000000000E+00  0.13825108359E+04  0.13825108359E+04  0.00000000000E+00 0.  1.
         21   -1    0    0  505  502  0.00000000000E+00 -0.00000000000E+00 -0.39780955721E+02  0.39780955721E+02  0.00000000000E+00 0. -1.
         21    1    1    2  503  504 -0.95606119197E+01  0.90040594305E+02  0.49523151737E+03  0.50344112835E+03  0.00000000000E+00 0.  1.
         21    1    1    2  504  502  0.41769988334E+02 -0.23395798754E+02  0.61983828765E+02  0.78320433815E+02  0.00000000000E+00 0. -1.
         21    1    1    2  505  501 -0.80631476646E+02 -0.42703577165E+02  0.51979650280E+02  0.10500911661E+03  0.00000000000E+00 0. -1.
         -2    1    1    2    0  503  0.48422100232E+02 -0.23941218386E+02  0.73353488379E+03  0.73552111286E+03  0.00000000000E+00 0.  1.
<scales pt_clust_3="76.10738" pt_clust_4="47.87583" pt_clust_5="14000.00000" pt_clust_6="55.51951"></scales>
<clustering>
<clus scale="   47.876">  2  4  1 -1</clus>
<clus scale="   55.520">  1  6  2 -1</clus>
<clus scale="   76.107">  1  3  2 -1</clus>
<clus scale="   47.876">  2  3  1 -1</clus>
</clustering>
</event>
<event>
 6    0  0.7258365E+002  0.1306981E+03  0.7546771E-02  0.1226424E+00
          2   -1    0    0  503    0 -0.00000000000E+00  0.00000000000E+00  0.15053624552E+04  0.15053624552E+04  0.00000000000E+00 0.  1.
         21   -1    0    0  504  502  0.00000000000E+00 -0.00000000000E+00 -0.12962028418E+03  0.12962028418E+03  0.00000000000E+00 0. -1.
         21    1    1    2  503  502  0.46704683927E+02 -0.96386484614E+02  0.21923416103E+03  0.24399856409E+03  0.00000000000E+00 0. -1.
         21    1    1    2  504  505 -0.24271711879E+02  0.29091016836E+02 -0.93702900000E+02  0.10107243307E+03  0.00000000000E+00 0. -1.
         21    1    1    2  505  501  0.10674876757E+03  0.93054567391E+02  0.31371237871E+03  0.34419457934E+03  0.00000000000E+00 0. -1.
          2    1    1    2  501    0 -0.12918173962E+03 -0.25759099613E+02  0.93649853132E+03  0.94571716291E+03  0.00000000000E+00 0.  1.
<scales pt_clust_3="93.04973" pt_clust_4="37.88672" pt_clust_5="14000.00000" pt_clust_6="130.69806"></scales>
<clustering>
<clus scale="   37.887">  2  4  1 -1</clus>
<clus scale="   93.050">  2  3  1 -1</clus>
<clus scale="  130.698">  1  6  2 -1</clus>
<clus scale="   37.887">  2  3  1 -1</clus>
</clustering>
</event>
<event>
 6    0  0.7258365E+002  0.7472578E+02  0.7546771E-02  0.1344722E+00
         21   -1    0    0  503  502  0.00000000000E+00  0.00000000000E+00  0.37236534289E+02  0.37236534289E+02  0.00000000000E+00 0. -1.
          2   -1    0    0  504    0 -0.00000000000E+00 -0.00000000000E+00 -0.12986619724E+04  0.12986619724E+04  0.00000000000E+00 0.  1.
         21    1    1    2  503  505  0.49834237270E+02 -0.47660788523E+02 -0.76881460986E+02  0.10327517132E+03  0.00000000000E+00 0. -1.
         21    1    1    2  504  502  0.39712441252E+02  0.54975600609E+02 -0.47402426187E+02  0.82742882842E+02  0.00000000000E+00 0. -1.
         21    1    1    2  505  501 -0.66662436331E+02  0.45109944778E+02 -0.29455919749E+03  0.30535865529E+03  0.00000000000E+00 0. -1.
          2    1    1    2  501    0 -0.22884242191E+02 -0.52424756865E+02 -0.84258235349E+03  0.84452179728E+03  0.00000000000E+00 0.  1.
<scales pt_clust_3="14000.00000" pt_clust_4="59.85176" pt_clust_5="74.72578" pt_clust_6="57.20178"></scales>
<clustering>
<clus scale="   57.202">  2  6  1 -1</clus>
<clus scale="   59.852">  1  4  2 -1</clus>
<clus scale="   74.726">  2  5  1 -1</clus>
<clus scale="   59.852">  1  3  2 -1</clus>
</clustering>
</event>
<event>
 6    0  0.7258365E+002  0.1101426E+03  0.7546771E-02  0.1260306E+00
          1   -1    0    0  503    0 -0.00000000000E+00  0.00000000000E+00  0.61435612586E+03  0.61435612586E+03  0.00000000000E+00 0. -1.
         21   -1    0    0  505  502  0.00000000000E+00 -0.00000000000E+00 -0.11445865739E+03  0.11445865739E+03  0.00000000000E+00 0.  1.
         21    1    1    2  503  502 -0.37400486994E+02 -0.73450444132E+01  0.13826241904E+02  0.40545173203E+02  0.00000000000E+00 0. -1.
         21    1    1    2  504  501 -0.19100201918E+02  0.68166215537E+02  0.34887019630E+02  0.78921193558E+02  0.00000000000E+00 0. -1.
         21    1    1    2  505  504 -0.14851896195E+02  0.41202575656E+02 -0.64990902994E+02  0.78371222609E+02  0.00000000000E+00 0.  1.
          1    1    1    2  501    0  0.71352585107E+02 -0.10202374678E+03  0.51617510993E+03  0.53097719388E+03  0.00000000000E+00 0. -1.
<scales pt_clust_3="38.11491" pt_clust_4="14000.00000" pt_clust_5="54.83667" pt_clust_6="110.14255"></scales>
<clustering>
<clus scale="   38.115">  2  3  1 -1</clus>
<clus scale="   54.837">  2  5  1 -1</clus>
<clus scale="  110.143">  1  6  2 -1</clus>
<clus scale="   38.115">  2  3  1 -1</clus>
</clustering>
</event>
<event>
 6    0  0.7258365E+002  0.1264370E+03  0.7546771E-02  0.1232840E+00
          2   -1    0    0  503    0 -0.00000000000E+00  0.00000000000E+00  0.45642821775E+03  0.45642821775E+03  0.00000000000E+00 0. -1.
         21   -1    0    0  505  502  0.00000000000E+00 -0.00000000000E+00 -0.13584694588E+03  0.13584694588E+03  0.00000000000E+00 0. -1.
         21    1    1    2  503  504  0.95390857770E+02 -0.39048002886E+02  0.21399609698E+02  0.10527158007E+03  0.00000000000E+00 0. -1.
         21    1    1    2  504  502  0.29349717273E+02 -0.64157023480E+02 -0.46493486701E+02  0.84493632136E+02  0.00000000000E+00 0. -1.
         21    1    1    2  505  501 -0.32294405699E+02  0.33351190186E+01  0.16072948833E+01  0.32505923386E+02  0.00000000000E+00 0. -1.
          2    1    1    2  501    0 -0.92446169344E+02  0.99869907347E+02  0.34406785399E+03  0.37000402805E+03  0.00000000000E+00 0. -1.
<scales pt_clust_3="126.43701" pt_clust_4="63.44641" pt_clust_5="32.46616" pt_clust_6="14000.00000"></scales>
<clustering>
<clus scale="   32.466">  2  5  1 -1</clus>
<clus scale="   63.446">  2  4  1 -1</clus>
<clus scale="  126.437">  2  3  1 -1</clus>
<clus scale="   32.466">  2  3  1 -1</clus>
</clustering>
</event>
<event>
 6    0  0.7258365E+002  0.1160683E+03  0.7546771E-02  0.1249728E+00
          1   -1    0    0  503    0 -0.00000000000E+00  0.00000000000E+00  0.72598123594E+03  0.72598123594E+03  0.00000000000E+00 0.  1.
         21   -1    0    0  501  502  0.00000000000E+00 -0.00000000000E+00 -0.33293346685E+03  0.33293346685E+03  0.00000000000E+00 0. -1.
         21    1    1    2  503  505  0.45396679319E+02  0.23256625122E+02  0.14745303717E+03  0.15602604678E+03  0.00000000000E+00 0.  1.
         21    1    1    2  504  502  0.57991096253E+02 -0.97088573101E+02 -0.27485083427E+03  0.29720723304E+03  0.00000000000E+00 0. -1.
         21    1    1    2  505  504 -0.10397211373E+03  0.12039311550E+03  0.11189789751E+03  0.19448866847E+03  0.00000000000E+00 0. -1.
          1    1    1    2  501    0  0.58433816108E+00 -0.46561167522E+02  0.40854766868E+03  0.41119275450E+03  0.00000000000E+00 0.  1.
<scales pt_clust_3="45.68616" pt_clust_4="14000.00000" pt_clust_5="116.06835" pt_clust_6="46.56483"></scales>
<clustering>
<clus scale="   46.565">  1  6  2 -1</clus>
<clus scale="   45.686">  1  3  2 -1</clus>
<clus scale="  116.068">  1  5  2 -1</clus>
<clus scale="  116.068">  2  3  1 -1</clus>
</clustering>
</event>
<event>
 6    0  0.7258365E+002  0.1553857E+03  0.7546771E-02  0.1194007E+00
          1   -1    0    0  503    0 -0.00000000000E+00  0.00000000000E+00  0.13052994706E+04  0.13052994706E+04  0.00000000000E+00 0.  1.
         21   -1    0    0  505  502  0.00000000000E+00 -0.00000000000E+00 -0.78776545747E+02  0.78776545747E+02  0.00000000000E+00 0.  1.
         21    1    1    2  503  504 -0.15854633020E+03 -0.28537715900E+02  0.90366356788E+03  0.91791022652E+03  0.00000000000E+00 0.  1.
         21    1    1    2  504  502  0.34011177730E+02  0.10083920703E+03  0.54505236065E+02  0.11956641101E+03  0.00000000000E+00 0.  1.
         21    1    1    2  505  501 -0.20109770951E+02 -0.43067763669E+02  0.92564894503E+01  0.48424350818E+02  0.00000000000E+00 0. -1.
          1    1    1    2  501    0  0.14464492342E+03 -0.29233727458E+02  0.25909763151E+03  0.29817502804E+03  0.00000000000E+00 0.  1.
<scales pt_clust_3="14000.00000" pt_clust_4="80.51337" pt_clust_5="47.53141" pt_clust_6="155.38570"></scales>
<clustering>
<clus scale="   47.531">  2  5  1 -1</clus>
<clus scale="   80.513">  2  4  1 -1</clus>
<clus scale="  155.386">  2  6  1 -1</clus>
<clus scale="   47.531">  2  3  1 -1</clus>
</clustering>
</event>
<event>
 6    0  0.7258365E+002  0.8612072E+02  0.7546771E-02  0.1312527E+00
         21   -1    0    0  505  502  0.00000000000E+00  0.00000000000E+00  0.55245609847E+02  0.55245609847E+02  0.00000000000E+00 0.  1.
          4   -1    0    0  502    0 -0.00000000000E+00 -0.00000000000E+00 -0.11588016881E+04  0.11588016881E+04  0.00000000000E+00 0.  1.
         21    1    1    2  503  501 -0.40220760863E+02  0.84414271889E+02 -0.24310216195E+03  0.26046523769E+03  0.00000000000E+00 0.  1.
         21    1    1    2  504  503  0.27431343194E+02 -0.75636820389E+02 -0.18315812811E+03  0.20005076126E+03  0.00000000000E+00 0.  1.
         21    1    1    2  505  504 -0.35070370463E+02 -0.14404078160E+02  0.27659832832E+02  0.46930530621E+02  0.00000000000E+00 0.  1.
          4    1    1    2  501    0  0.47859788132E+02  0.56266266602E+01 -0.70495562099E+03  0.70660076834E+03  0.00000000000E+00 0.  1.
<scales pt_clust_3="86.12072" pt_clust_4="14000.00000" pt_clust_5="37.91317" pt_clust_6="46.51859"></scales>
<clustering>
<clus scale="   37.913">  1  5  2 -1</clus>
<clus scale="   46.519">  2  6  1 -1</clus>
<clus scale="   86.121">  2  3  1 -1</clus>
<clus scale="   37.913">  1  3  2 -1</clus>
</clustering>
</event>
<event>
 6    0  0.7258365E+002  0.9340443E+02  0.7546771E-02  0.1294811E+00
         21   -1    0    0  505  502  0.00000000000E+00  0.00000000000E+00  0.84693783770E+03  0.84693783770E+03  0.00000000000E+00 0.  1.
         -3   -1    0    0    0  501 -0.00000000000E+00 -0.00000000000E+00 -0.11410412299E+03  0.11410412299E+03  0.00000000000E+00 0.  1.
         21    1    1    2  503  501  0.25884992226E+02 -0.51765632823E+02 -0.20234801923E+02  0.61311995343E+02  0.00000000000E+00 0.  1.
         21    1    1    2  504  502  0.27377081575E+02  0.27559576623E+02  0.64212034569E+03  0.64329431306E+03  0.00000000000E+00 0.  1.
         21    1    1    2  505  503 -0.12117556730E+03 -0.58610128772E+01  0.13195700850E+03  0.17924988612E+03  0.00000000000E+00 0.  1.
         -3    1    1    2    0  504  0.67913493502E+02  0.30067069077E+02 -0.21008837557E+02  0.77185766162E+02  0.00000000000E+00 0.  1.
<scales pt_clust_3="56.75003" pt_clust_4="38.84630" pt_clust_5="93.40443" pt_clust_6="14000.00000"></scales>
<clustering>
<clus scale="   38.846">  1  4  2 -1</clus>
<clus scale="   56.750">  2  3  1 -1</clus>
<clus scale="   93.404">  1  5  2 -1</clus>
<clus scale="   38.846">  1  3  2 -1</clus>
</clustering>
</event>
<event>
 6    0  0.7258365E+002  0.3113147E+03  0.7546771E-02  0.1079717E+00
          2   -1    0    0  505    0 -0.00000000000E+00  0.00000000000E+00  0.16692004454E+04  0.16692004454E+04  0.00000000000E+00 0. -1.
         21   -1    0    0  503  502  0.00000000000E+00 -0.00000000000E+00 -0.99484181353E+03  0.99484181353E+03  0.00000000000E+00 0. -1.
         21    1    1    2  503  501  0.23659064448E+03 -0.21117588772E+03  0.52123008346E+03  0.61012391242E+03  0.00000000000E+00 0.  1.
         21    1    1    2  504  502 -0.10358928311E+03  0.13508742349E+03 -0.73802066290E+03  0.75739939954E+03  0.00000000000E+00 0. -1.
         21    1    1    2  505  504 -0.16637308189E+03  0.86657437624E+02 -0.15892644792E+03  0.24585997991E+03  0.00000000000E+00 0. -1.
          2    1    1    2  501    0  0.33371720519E+02 -0.10568973400E+02  0.10500756593E+04  0.10506589671E+04  0.00000000000E+00 0. -1.
<scales pt_clust_3="311.31465" pt_clust_4="169.78424" pt_clust_5="14000.00000" pt_clust_6="35.00536"></scales>
<clustering>
<clus scale="   35.005">  1  6  2 -1</clus>
<clus scale="  169.784">  2  4  1 -1</clus>
<clus scale="  311.315">  1  3  2 -1</clus>
<clus scale="  169.784">  2  3  1 -1</clus>
</clustering>
</event>
<event>
 6    0  0.7258365E+002  0.1000215E+03  0.7546771E-02  0.1280251E+00
          2   -1    0    0  505    0 -0.00000000000E+00  0.00000000000E+00  0.14649228677E+04  0.14649228677E+04  0.00000000000E+00 0. -1.
         21   -1    0    0  504  502  0.00000000000E+00 -0.00000000000E+00 -0.72634988551E+02  0.72634988551E+02  0.00000000000E+00 0. -1.
         21    1    1    2  503  502  0.51525827087E+02  0.11940687223E+02  0.12234551449E+03  0.13328884343E+03  0.00000000000E+00 0. -1.
         21    1    1    2  504  501 -0.12189289541E+03  0.25361773086E+02 -0.23181170499E+01  0.12452498204E+03  0.00000000000E+00 0. -1.
         21    1    1    2  505  503  0.25695350708E+02 -0.47256404588E+02  0.21970373264E+03  0.22619272525E+03  0.00000000000E+00 0.  1.
          2    1    1    2  501    0  0.44671717610E+02  0.99539442787E+01  0.10525567491E+04  0.10535513055E+04  0.00000000000E+00 0. -1.
<scales pt_clust_3="100.02155" pt_clust_4="14000.00000" pt_clust_5="65.12004" pt_clust_6="45.76727"></scales>
<clustering>
<clus scale="   45.767">  1  6  2 -1</clus>
<clus scale="   65.120">  1  5  2 -1</clus>
<clus scale="  100.022">  1  3  2 -1</clus>
<clus scale="  100.022">  2  3  1 -1</clus>
</clustering>
</event>
<event>
 6    0  0.7258365E+002  0.6950585E+02  0.7546771E-02  0.1361782E+00
          4   -1    0    0  504    0 -0.00000000000E+00  0.00000000000E+00  0.12028340357E+03  0.12028340357E+03  0.00000000000E+00 0. -1.
         21   -1    0    0  505  502  0.00000000000E+00 -0.00000000000E+00 -0.30442623510E+03  0.30442623510E+03  0.00000000000E+00 0. -1.
         21    1    1    2  503  501 -0.90903045914E+01 -0.35625033878E+02 -0.87324155973E+02  0.94748535043E+02  0.00000000000E+00 0. -1.
         21    1    1    2  504  502  0.59760357665E+02  0.10191354581E+03 -0.15199469200E+03  0.19250988952E+03  0.00000000000E+00 0. -1.
         21    1    1    2  505  503 -0.34827923310E+02 -0.20003753371E+01 -0.17590903309E+02  0.39069497345E+02  0.00000000000E+00 0. -1.
          4    1    1    2  501    0 -0.15842129763E+02 -0.64288136595E+02  0.72766919749E+02  0.98381716757E+02  0.00000000000E+00 0. -1.
<scales pt_clust_3="41.71167" pt_clust_4="14000.00000" pt_clust_5="34.88532" pt_clust_6="69.50585"></scales>
<clustering>
<clus scale="   34.885">  2  5  1 -1</clus>
<clus scale="   41.712">  2  3  1 -1</clus>
<clus scale="   69.506">  1  6  2 -1</clus>
<clus scale="   34.885">  2  3  1 -1</clus>
</clustering>
</event>
<event>
 6    0  0.7258365E+002  0.1349121E+03  0.7546771E-02  0.1220344E+00
          3   -1    0    0  503    0 -0.00000000000E+00  0.00000000000E+00  0.47940192365E+03  0.47940192365E+03  0.00000000000E+00 0. -1.
         21   -1    0    0  504  502  0.00000000000E+00 -0.00000000000E+00 -0.18724908085E+04  0.18724908085E+04  0.00000000000E+00 0. -1.
         21    1    1    2  503  505 -0.26570094419E+02 -0.16318269342E+02 -0.13457784599E+01  0.31210045681E+02  0.00000000000E+00 0.  1.
         21    1    1    2  504  501  0.13293491643E+03  0.63583681294E+01  0.17171212621E+02  0.13419005699E+03  0.00000000000E+00 0. -1.
         21    1    1    2  505  502 -0.12544439671E+03  0.50893495823E+02 -0.17938328489E+04  0.17989337771E+04  0.00000000000E+00 0. -1.
          3    1    1    2  501    0  0.19079574697E+02 -0.40933594611E+02  0.38491852993E+03  0.38755885233E+03  0.00000000000E+00 0. -1.
<scales pt_clust_3="31.18102" pt_clust_4="134.91208" pt_clust_5="14000.00000" pt_clust_6="54.58671"></scales>
<clustering>
<clus scale="   31.181">  1  3  2 -1</clus>
<clus scale="   54.587">  1  6  2 -1</clus>
<clus scale="  134.912">  1  4  2 -1</clus>
<clus scale="  134.912">  2  3  1 -1</clus>
</clustering>
</event>
<event>
 6    0  0.7258365E+002  0.9828640E+02  0.7546771E-02  0.1283941E+00
          2   -1    0    0  504    0 -0.00000000000E+00  0.00000000000E+00  0.16207185666E+04  0.16207185666E+04  0.00000000000E+00 0.  1.
         21   -1    0    0  505  502  0.00000000000E+00 -0.00000000000E+00 -0.17862189144E+02  0.17862189144E+02  0.00000000000E+00 0. -1.
         21    1    1    2  503  501 -0.69957625618E+02  0.32173043857E+02  0.33177743935E+03  0.34059571841E+03  0.00000000000E+00 0.  1.
         21    1    1    2  504  502  0.12723986548E+03 -0.23164957887E+02  0.45344043177E+03  0.47152393768E+03  0.00000000000E+00 0. -1.
         21    1    1    2  505  503 -0.37374141524E+01 -0.31647504627E+02  0.74208551672E+02  0.80761636653E+02  0.00000000000E+00 0. -1.
          2    1    1    2  501    0 -0.53544825710E+02  0.22639418658E+02  0.74342995462E+03  0.74569946296E+03  0.00000000000E+00 0.  1.
<scales pt_clust_3="14000.00000" pt_clust_4="98.28640" pt_clust_5="31.86743" pt_clust_6="57.49255"></scales>
<clustering>
<clus scale="   31.867">  2  5  1 -1</clus>
<clus scale="   57.493">  1  6  2 -1</clus>
<clus scale="   98.286">  1  4  2 -1</clus>
<clus scale="   31.867">  2  3  1 -1</clus>
</clustering>
</event>
<event>
 6    0  0.7258365E+002  0.1095793E+03  0.7546771E-02  0.1261351E+00
          2   -1    0    0  505    0 -0.00000000000E+00  0.00000000000E+00  0.75318659130E+03  0.75318659130E+03  0.00000000000E+00 0. -1.
         21   -1    0    0  503  502  0.00000000000E+00 -0.00000000000E+00 -0.11469251732E+03  0.11469251732E+03  0.00000000000E+00 0. -1.
         21    1    1    2  503  501  0.84640888284E+02  0.34718732457E+02  0.61316180614E+02  0.11013239468E+03  0.00000000000E+00 0. -1.
         21    1    1    2  504  502  0.26511674552E+02 -0.41214208740E+02  0.10076045109E+02  0.50030056713E+02  0.00000000000E+00 0.  1.
         21    1    1    2  505  504 -0.10791198361E+03 -0.10345594586E+03  0.21373920435E+02  0.15101315643E+03  0.00000000000E+00 0. -1.
          2    1    1    2  501    0 -0.32405792289E+01  0.10995142215E+03  0.54572792782E+03  0.55670350079E+03  0.00000000000E+00 0. -1.
<scales pt_clust_3="94.59388" pt_clust_4="49.00490" pt_clust_5="109.57931" pt_clust_6="14000.00000"></scales>
<clustering>
<clus scale="   49.005">  2  4  1 -1</clus>
<clus scale="   94.594">  2  3  1 -1</clus>
<clus scale="  109.579">  2  5  1 -1</clus>
<clus scale="   49.005">  2  3  1 -1</clus>
</clustering>
</event>
<event>
 6    0  0.7258365E+002  0.9167087E+02  0.7546771E-02  0.1298855E+00
          2   -1    0    0  504    0 -0.00000000000E+00  0.00000000000E+00  0.71573669201E+02  0.71573669201E+02  0.00000000000E+00 0.  1.
         21   -1    0    0  503  502  0.00000000000E+00 -0.00000000000E+00 -0.76681068310E+03  0.76681068310E+03  0.00000000000E+00 0. -1.
         21    1    1    2  503  501  0.87308752918E+01  0.52447327288E+02 -0.15044404245E+03  0.15956302903E+03  0.00000000000E+00 0.  1.
         21    1    1    2  504  505 -0.88890253356E+02 -0.68502955064E+02 -0.42463741140E+03  0.43921641950E+03  0.00000000000E+00 0. -1.
         21    1    1    2  505  502  0.11468892388E+02 -0.42054232857E+02 -0.14071575147E+03  0.14731264951E+03  0.00000000000E+00 0.  1.
          2    1    1    2  501    0  0.68690485677E+02  0.58109860633E+02  0.20560191430E+02  0.92292254262E+02  0.00000000000E+00 0.  1.
<scales pt_clust_3="43.54999" pt_clust_4="91.67087" pt_clust_5="43.59007" pt_clust_6="14000.00000"></scales>
<clustering>
<clus scale="   43.590">  2  5  1 -1</clus>
<clus scale="   43.550">  2  3  1 -1</clus>
<clus scale="   91.671">  2  4  1 -1</clus>
<clus scale="   43.590">  2  3  1 -1</clus>
</clustering>
</event>
<event>
 6    0  0.7258365E+002  0.2547291E+03  0.7546771E-02  0.1110352E+00
         21   -1    0    0  505  502  0.00000000000E+00  0.00000000000E+00  0.90119398254E+03  0.90119398254E+03  0.00000000000E+00 0. -1.
          1   -1    0    0  504    0 -0.00000000000E+00 -0.00000000000E+00 -0.13481718545E+04  0.13481718545E+04  0.00000000000E+00 0. -1.
         21    1    1    2  503  501  0.72486734615E+01 -0.69489846525E+02 -0.28049566384E+03  0.28906608150E+03  0.00000000000E+00 0. -1.
         21    1    1    2  504  502 -0.22132472604E+03  0.12515575463E+03  0.82920019749E+03  0.86730707641E+03  0.00000000000E+00 0. -1.
         21    1    1    2  505  503  0.25430862742E+03 -0.86159470642E+02 -0.33017089725E+03  0.42556921147E+03  0.00000000000E+00 0. -1.
          1    1    1    2  501    0 -0.40232574838E+02  0.30493562533E+02 -0.66551150835E+03  0.66742346766E+03  0.00000000000E+00 0. -1.
<scales pt_clust_3="57.55053" pt_clust_4="14000.00000" pt_clust_5="254.72907" pt_clust_6="50.48284"></scales>
<clustering>
<clus scale="   50.483">  2  6  1 -1</clus>
<clus scale="   57.551">  2  3  1 -1</clus>
<clus scale="  254.729">  2  5  1 -1</clus>
<clus scale="  254.729">  1  3  2 -1</clus>
</clustering>
</event>
<event>
 6    0  0.7258365E+002  0.1355165E+03  0.7546771E-02  0.1219492E+00
         21   -1    0    0  504  502  0.00000000000E+00  0.00000000000E+00  0.19314287793E+03  0.19314287793E+03  0.00000000000E+00 0. -1.
         -3   -1    0    0    0  501 -0.00000000000E+00 -0.00000000000E+00 -0.48824820071E+03  0.48824820071E+03  0.00000000000E+00 0.  1.
         21    1    1    2  503  502 -0.45621723024E+02  0.77284044538E+02 -0.87717687319E+01  0.90172662590E+02  0.00000000000E+00 0.  1.
         21    1    1    2  504  505  0.22153152615E+02  0.33566692842E+02  0.12196179235E+02  0.42026560971E+02  0.00000000000E+00 0. -1.
         21    1    1    2  505  501 -0.10139369115E+03 -0.19767174578E+02  0.86222887793E+02  0.13455782465E+03  0.00000000000E+00 0. -1.
         -3    1    1    2    0  503  0.12486226156E+03 -0.91083562802E+02 -0.38475262108E+03  0.41463403044E+03  0.00000000000E+00 0.  1.
<scales pt_clust_3="14000.00000" pt_clust_4="40.21797" pt_clust_5="86.70212" pt_clust_6="135.51650"></scales>
<clustering>
<clus scale="   40.218">  1  4  2 -1</clus>
<clus scale="   86.702">  1  5  2 -1</clus>
<clus scale="  135.517">  2  6  1 -1</clus>
<clus scale="   40.218">  1  3  2 -1</clus>
</clustering>
</event>
<event>
 6    0  0.7258365E+002  0.9148591E+02  0.7546771E-02  0.1299293E+00
         21   -1    0    0  503  502  0.00000000000E+00  0.00000000000E+00  0.52310035564E+03  0.52310035564E+03  0.00000000000E+00 0. -1.
          2   -1    0    0  505    0 -0.00000000000E+00 -0.00000000000E+00 -0.16035672960E+04  0.16035672960E+04  0.00000000000E+00 0.  1.
         21    1    1    2  503  501  0.92597165601E+01  0.16990802907E+03 -0.17326950625E+03  0.24285140002E+03  0.00000000000E+00 0. -1.
         21    1    1    2  504  502 -0.33901145410E+02 -0.83436888862E+02  0.47282548379E+03  0.48132623054E+03  0.00000000000E+00 0. -1.
         21    1    1    2  505  504  0.12525563347E+02 -0.48033978127E+02 -0.45436033981E+02  0.67294769304E+02  0.00000000000E+00 0. -1.
          2    1    1    2  501    0  0.12115865503E+02 -0.38437162086E+02 -0.13345868839E+04  0.13351952518E+04  0.00000000000E+00 0.  1.
<scales pt_clust_3="91.48591" pt_clust_4="14000.00000" pt_clust_5="58.08593" pt_clust_6="40.30148"></scales>
<clustering>
<clus scale="   40.301">  2  6  1 -1</clus>
<clus scale="   58.086">  2  5  1 -1</clus>
<clus scale="   91.486">  2  3  1 -1</clus>
<clus scale="   91.486">  1  3  2 -1</clus>
</clustering>
</event>
<event>
 6    0  0.7258365E+002  0.1680525E+03  0.7546771E-02  0.1179894E+00
         21   -1    0    0  505  502  0.00000000000E+00  0.00000000000E+00  0.23402010337E+03  0.23402010337E+03  0.00000000000E+00 0.  1.
          1   -1    0    0  503    0 -0.00000000000E+00 -0.00000000000E+00 -0.73545874942E+03  0.73545874942E+03  0.00000000000E+00 0. -1.
         21    1    1    2  503  502 -0.12835918249E+03 -0.14576532131E+03 -0.14038890298E+03  0.23965110620E+03  0.00000000000E+00 0.  1.
         21    1    1    2  504  501  0.72189063322E+02  0.73462321968E+02 -0.27139483784E+03  0.29028112515E+03  0.00000000000E+00 0.  1.
         21    1    1    2  505  504  0.28549638097E+02  0.30386033257E+02  0.17002330829E+03  0.17506089858E+03  0.00000000000E+00 0.  1.
          1    1    1    2  501    0  0.27620481068E+02  0.41916966085E+02 -0.25967821352E+03  0.26448572286E+03  0.00000000000E+00 0. -1.
<scales pt_clust_3="160.58731" pt_clust_4="34.57944" pt_clust_5="41.69404" pt_clust_6="34.57944"></scales>
<clustering>
<clus scale="   34.579">  4  6 -1 -1</clus>
<clus scale="   41.694">  1  5  2 -1</clus>
<clus scale="  160.587">  1  3  2 -1</clus>
<clus scale="   41.694">  1  3  2 -1</clus>
</clustering>
</event>
<event>
 6    0  0.7258365E+002  0.1292434E+03  0.7546771E-02  0.1228583E+00
         21   -1    0    0  505  502  0.00000000000E+00  0.00000000000E+00  0.67074972982E+03  0.67074972982E+03  0.00000000000E+00 0.  1.
          1   -1    0    0  503    0 -0.00000000000E+00 -0.00000000000E+00 -0.82118225452E+03  0.82118225452E+03  0.00000000000E+00 0. -1.
         21    1    1    2  503  504  0.15835695346E+03 -0.12709872106E+03  0.30410946705E+02  0.20531886247E+03  0.00000000000E+00 0.  1.
         21    1    1    2  504  502 -0.68775407301E+02  0.66146438093E+02  0.47978528333E+03  0.48918230346E+03  0.00000000000E+00 0.  1.
         21    1    1    2  505  501 -0.43058670791E+02 -0.11566993806E+02  0.58279440643E+02  0.73378046292E+02  0.00000000000E+00 0.  1.
          1    1    1    2  501    0 -0.46522875372E+02  0.72519276773E+02 -0.71890819538E+03  0.72405277212E+03  0.00000000000E+00 0. -1.
<scales pt_clust_3="129.24344" pt_clust_4="14000.00000" pt_clust_5="44.58525" pt_clust_6="86.21695"></scales>
<clustering>
<clus scale="   44.585">  1  5  2 -1</clus>
<clus scale="   86.217">  2  6  1 -1</clus>
<clus scale="  129.243">  2  3  1 -1</clus>
<clus scale="   44.585">  1  3  2 -1</clus>
</clustering>
</event>
<event>
 6    0  0.7258365E+002  0.1343618E+03  0.7546771E-02  0.1221123E+00
         21   -1    0    0  505  502  0.00000000000E+00  0.00000000000E+00  0.59861876505E+03  0.59861876505E+03  0.00000000000E+00 0.  1.
          1   -1    0    0  504    0 -0.00000000000E+00 -0.00000000000E+00 -0.33080717286E+03  0.33080717286E+03  0.00000000000E+00 0.  1.
         21    1    1    2  503  501  0.34345038954E+02 -0.82615427761E+02 -0.21389695708E+02  0.91991356590E+02  0.00000000000E+00 0.  1.
         21    1    1    2  504  502 -0.89500703149E+01  0.87119789284E+02  0.48946548940E+03  0.49723880254E+03  0.00000000000E+00 0.  1.
         21    1    1    2  505  503 -0.45873978188E+02 -0.97051519921E+02  0.11720295038E+02  0.10798511337E+03  0.00000000000E+00 0.  1.
          1    1    1    2  501    0  0.20479009549E+02  0.92547158397E+02 -0.21198449653E+03  0.23221066541E+03  0.00000000000E+00 0.  1.
<scales pt_clust_3="78.97858" pt_clust_4="87.57832" pt_clust_5="78.97858" pt_clust_6="102.80624"></scales>
<clustering>
<clus scale="   78.979">  3  5 -1 -1</clus>
<clus scale="   87.578">  1  4  2 -1</clus>
<clus scale="  102.806">  2  6  1 -1</clus>
<clus scale="   87.578">  1  3  2 -1</clus>
</clustering>
</event>
<event>
 6    0  0.7258365E+002  0.7666420E+02  0.7546771E-02  0.1338794E+00
          2   -1    0    0  504    0 -0.00000000000E+00  0.00000000000E+00  0.70106553095E+03  0.70106553095E+03  0.00000000000E+00 0.  1.
         21   -1    0    0  503  502  0.00000000000E+00 -0.00000000000E+00 -0.12153934306E+03  0.12153934306E+03  0.00000000000E+00 0.  1.
         21    1    1    2  503  501  0.41729294563E+02 -0.46427183103E+02  0.81849795959E+02  0.10293787667E+03  0.00000000000E+00 0.  1.
         21    1    1    2  504  505 -0.71561291257E+02  0.47213521902E+02  0.34390775546E+02  0.92373483746E+02  0.00000000000E+00 0.  1.
         21    1    1    2  505  502  0.33456631103E+02  0.53607563342E+02 -0.68225687118E+02  0.92993878266E+02  0.00000000000E+00 0.  1.
          2    1    1    2  501    0 -0.36246344089E+01 -0.54393902141E+02  0.53151130350E+03  0.53429963533E+03  0.00000000000E+00 0.  1.
<scales pt_clust_3="14000.00000" pt_clust_4="76.66420" pt_clust_5="59.68156" pt_clust_6="54.51454"></scales>
<clustering>
<clus scale="   54.515">  1  6  2 -1</clus>
<clus scale="   59.682">  2  5  1 -1</clus>
<clus scale="   76.664">  2  4  1 -1</clus>
<clus scale="   59.682">  2  3  1 -1</clus>
</clustering>
</event>
<event>
 6    0  0.7258365E+002  0.7516252E+02  0.7546771E-02  0.1343368E+00
          2   -1    0    0  505    0 -0.00000000000E+00  0.00000000000E+00  0.16594115336E+03  0.16594115336E+03  0.00000000000E+00 0.  1.
         21   -1    0    0  503  502  0.00000000000E+00 -0.00000000000E+00 -0.16346155122E+03  0.16346155122E+03  0.00000000000E+00 0.  1.
         21    1    1    2  503  504 -0.28829629143E+02 -0.69644360511E+02 -0.68685337741E+02  0.10197627218E+03  0.00000000000E+00 0.  1.
         21    1    1    2  504  501  0.80408802876E+02  0.41120793409E+02  0.87472214069E+01  0.90735930660E+02  0.00000000000E+00 0.  1.
         21    1    1    2  505  502 -0.74944252734E+02  0.85671129168E+01  0.10222115983E+02  0.76121797777E+02  0.00000000000E+00 0.  1.
          2    1    1    2  501    0  0.23365079001E+02  0.19956454185E+02  0.52195602493E+02  0.60568703965E+02  0.00000000000E+00 0.  1.
<scales pt_clust_3="75.16252" pt_clust_4="14000.00000" pt_clust_5="67.75955" pt_clust_6="30.72763"></scales>
<clustering>
<clus scale="   30.728">  1  6  2 -1</clus>
<clus scale="   67.760">  1  5  2 -1</clus>
<clus scale="   75.163">  2  3  1 -1</clus>
<clus scale="   75.163">  2  3  1 -1</clus>
</clustering>
</event>
<event>
 6    0  0.7258365E+002  0.2026169E+03  0.7546771E-02  0.1147550E+00
          1   -1    0    0  503    0 -0.00000000000E+00  0.00000000000E+00  0.49524679345E+03  0.49524679345E+03  0.00000000000E+00 0. -1.
         21   -1    0    0  504  502  0.00000000000E+00 -0.00000000000E+00 -0.41652562965E+03  0.41652562965E+03  0.00000000000E+00 0. -1.
         21    1    1    2  503  502 -0.20823078649E+02 -0.69298332016E+02 -0.22873789939E+03  0.23991016244E+03  0.00000000000E+00 0. -1.
         21    1    1    2  504  505  0.33609659160E+02  0.64636672983E+01 -0.58936902116E+02  0.68153845194E+02  0.00000000000E+00 0.  1.
         21    1    1    2  505  501 -0.17479164781E+03  0.16537462987E+03  0.69812714872E+02  0.25054880464E+03  0.00000000000E+00 0. -1.
          1    1    1    2  501    0  0.16200506730E+03 -0.10253996515E+03  0.29658325044E+03  0.35315961083E+03  0.00000000000E+00 0. -1.
<scales pt_clust_3="65.02450" pt_clust_4="34.22555" pt_clust_5="202.61688" pt_clust_6="14000.00000"></scales>
<clustering>
<clus scale="   34.226">  2  4  1 -1</clus>
<clus scale="   65.025">  2  3  1 -1</clus>
<clus scale="  202.617">  2  5  1 -1</clus>
<clus scale="   34.226">  2  3  1 -1</clus>
</clustering>
</event>
<event>
 6    0  0.7258365E+002  0.1680843E+03  0.7546771E-02  0.1179860E+00
         21   -1    0    0  504  502  0.00000000000E+00  0.00000000000E+00  0.79699329508E+03  0.79699329508E+03  0.00000000000E+00 0. -1.
         -4   -1    0    0    0  501 -0.00000000000E+00 -0.00000000000E+00 -0.13358260320E+04  0.13358260320E+04  0.00000000000E+00 0.  1.
         21    1    1    2  503  501  0.51853868996E+02  0.10568877309E+03 -0.54497731046E+03  0.55754749520E+03  0.00000000000E+00 0.  1.
         21    1    1    2  504  503 -0.96529606636E+01  0.31500347223E+02  0.95624047521E+02  0.10114054572E+03  0.00000000000E+00 0. -1.
         21    1    1    2  505  502 -0.45107032881E+02 -0.19143366516E+03  0.67737773273E+03  0.70535245471E+03  0.00000000000E+00 0. -1.
         -4    1    1    2    0  505  0.29061245487E+01  0.54244544855E+02 -0.76685720673E+03  0.76877883148E+03  0.00000000000E+00 0.  1.
<scales pt_clust_3="168.08432" pt_clust_4="32.94619" pt_clust_5="14000.00000" pt_clust_6="54.36489"></scales>
<clustering>
<clus scale="   32.946">  1  4  2 -1</clus>
<clus scale="   54.365">  2  6  1 -1</clus>
<clus scale="  168.084">  2  3  1 -1</clus>
<clus scale="   32.946">  1  3  2 -1</clus>
</clustering>
</event>
<event>
 6    0  0.7258365E+002  0.1047733E+03  0.7546771E-02  0.1270567E+00
         21   -1    0    0  505  502  0.00000000000E+00  0.00000000000E+00  0.84601359970E+03  0.84601359970E+03  0.00000000000E+00 0. -1.
          2   -1    0    0  504    0 -0.00000000000E+00 -0.00000000000E+00 -0.24942789753E+04  0.24942789753E+04  0.00000000000E+00 0.  1.
         21    1    1    2  503  502  0.13930862155E+03 -0.63998991279E+02  0.23727540706E+03  0.28249315340E+03  0.00000000000E+00 0. -1.
         21    1    1    2  504  503 -0.56934861802E+02  0.27611075406E+02 -0.39621810463E+03  0.40123900161E+03  0.00000000000E+00 0. -1.
         21    1    1    2  505  501 -0.98080254540E+02 -0.17976285304E+01  0.57928928911E+03  0.58753642294E+03  0.00000000000E+00 0. -1.
          2    1    1    2  501    0  0.15706494796E+02  0.38185544403E+02 -0.20686119671E+04  0.20690239971E+04  0.00000000000E+00 0.  1.
<scales pt_clust_3="14000.00000" pt_clust_4="76.16660" pt_clust_5="104.77326" pt_clust_6="41.28958"></scales>
<clustering>
<clus scale="   41.290">  2  6  1 -1</clus>
<clus scale="   76.167">  2  4  1 -1</clus>
<clus scale="  104.773">  1  5  2 -1</clus>
<clus scale="  104.773">  1  3  2 -1</clus>
</clustering>
</event>
<event>
 6    0  0.7258365E+002  0.1029368E+03  0.7546771E-02  0.1274239E+00
         21   -1    0    0  503  502  0.00000000000E+00  0.00000000000E+00  0.37392234368E+03  0.37392234368E+03  0.00000000000E+00 0.  1.
          2   -1    0    0  504    0 -0.00000000000E+00 -0.00000000000E+00 -0.91466048331E+03  0.91466048331E+03  0.00000000000E+00 0.  1.
         21    1    1    2  503  505  0.45840352926E+00 -0.42156630125E+02  0.21602311602E+02  0.47371420328E+02  0.00000000000E+00 0.  1.
         21    1    1    2  504  502  0.31866726656E+02  0.97404183015E+01  0.30023517658E+03  0.30207867397E+03  0.00000000000E+00 0.  1.
         21    1    1    2  505  501 -0.93412138815E+02 -0.51094534934E+02 -0.45927545227E+02  0.11595610630E+03  0.00000000000E+00 0.  1.
          2    1    1    2  501    0  0.61087008629E+02  0.83510746758E+02 -0.81664808258E+03  0.82317662639E+03  0.00000000000E+00 0.  1.
<scales pt_clust_3="40.63775" pt_clust_4="33.32213" pt_clust_5="102.93680" pt_clust_6="14000.00000"></scales>
<clustering>
<clus scale="   33.322">  1  4  2 -1</clus>
<clus scale="   40.638">  1  3  2 -1</clus>
<clus scale="  102.937">  1  5  2 -1</clus>
<clus scale="   33.322">  1  3  2 -1</clus>
</clustering>
</event>
<event>
 6    0  0.7258365E+002  0.6973003E+02  0.7546771E-02  0.1361014E+00
          2   -1    0    0  505    0 -0.00000000000E+00  0.00000000000E+00  0.16107575402E+03  0.16107575402E+03  0.00000000000E+00 0.  1.
         21   -1    0    0  504  502  0.00000000000E+00 -0.00000000000E+00 -0.67251957989E+03  0.67251957989E+03  0.00000000000E+00 0. -1.
         21    1    1    2  503  501 -0.55670598369E+02  0.14205786624E+01 -0.22196676567E+03  0.22884597141E+03  0.00000000000E+00 0. -1.
         21    1    1    2  504  503  0.40285959963E+02 -0.78027694213E+02 -0.36057512688E+03  0.37111413576E+03  0.00000000000E+00 0. -1.
         21    1    1    2  505  502 -0.38662901297E+02  0.30868931351E+02 -0.64127961219E+02  0.80994482957E+02  0.00000000000E+00 0.  1.
          2    1    1    2  501    0  0.54047539703E+02  0.45738184200E+02  0.13522602790E+03  0.15264074379E+03  0.00000000000E+00 0.  1.
<scales pt_clust_3="14000.00000" pt_clust_4="61.51728" pt_clust_5="49.47435" pt_clust_6="69.73003"></scales>
<clustering>
<clus scale="   49.474">  2  5  1 -1</clus>
<clus scale="   61.517">  2  4  1 -1</clus>
<clus scale="   69.730">  1  6  2 -1</clus>
<clus scale="   49.474">  2  3  1 -1</clus>
</clustering>
</event>
<event>
 6    0  0.7258365E+002  0.9925050E+02  0.7546771E-02  0.1281880E+00
          2   -1    0    0  505    0 -0.00000000000E+00  0.00000000000E+00  0.88500308867E+03  0.88500308867E+03  0.00000000000E+00 0. -1.
         21   -1    0    0  504  502  0.00000000000E+00 -0.00000000000E+00 -0.72579530449E+03  0.72579530449E+03  0.00000000000E+00 0.  1.
         21    1    1    2  503  501 -0.29352100945E+02 -0.80618314894E+02 -0.19898020570E+02  0.88072639048E+02  0.00000000000E+00 0.  1.
         21    1    1    2  504  503  0.18875568587E+02  0.26287370803E+02 -0.50610349178E+03  0.50713711888E+03  0.00000000000E+00 0.  1.
         21    1    1    2  505  502  0.10628818192E+03  0.78549444485E+02 -0.13530648243E+03  0.18914290109E+03  0.00000000000E+00 0.  1.
          2    1    1    2  501    0 -0.95811649558E+02 -0.24218500394E+02  0.82051577896E+03  0.82644573414E+03  0.00000000000E+00 0. -1.
<scales pt_clust_3="78.15036" pt_clust_4="32.36221" pt_clust_5="99.25050" pt_clust_6="14000.00000"></scales>
<clustering>
<clus scale="   32.362">  2  4  1 -1</clus>
<clus scale="   78.150">  2  3  1 -1</clus>
<clus scale="   99.251">  2  5  1 -1</clus>
<clus scale="   32.362">  2  3  1 -1</clus>
</clustering>
</event>
<event>
 6    0  0.7258365E+002  0.1101796E+03  0.7546771E-02  0.1260238E+00
          1   -1    0    0  504    0 -0.00000000000E+00  0.00000000000E+00  0.17085971716E+04  0.17085971716E+04  0.00000000000E+00 0.  1.
         21   -1    0    0  505  502  0.00000000000E+00 -0.00000000000E+00 -0.63336579456E+02  0.63336579456E+02  0.00000000000E+00 0.  1.
         21    1    1    2  503  502  0.48281714913E+02  0.96837716491E+02  0.25901995839E+03  0.28071338795E+03  0.00000000000E+00 0.  1.
         21    1    1    2  504  503  0.51434065521E+01 -0.32075408427E+02  0.14968163020E+03  0.15316617406E+03  0.00000000000E+00 0.  1.
         21    1    1    2  505  501 -0.11661619368E+03 -0.26232313632E+02  0.22362476747E+02  0.12160407589E+03  0.00000000000E+00 0.  1.
          1    1    1    2  501    0  0.63191072217E+02 -0.38529994431E+02  0.12141965268E+04  0.12164501131E+04  0.00000000000E+00 0.  1.
<scales pt_clust_3="110.17961" pt_clust_4="32.48517" pt_clust_5="14000.00000" pt_clust_6="92.50360"></scales>
<clustering>
<clus scale="   32.485">  1  4  2 -1</clus>
<clus scale="   92.504">  1  6  2 -1</clus>
<clus scale="  110.180">  1  3  2 -1</clus>
<clus scale="  110.180">  2  3  1 -1</clus>
</clustering>
</event>
<event>
 6    0  0.7258365E+002  0.1334009E+03  0.7546771E-02  0.1222495E+00
          1   -1    0    0  503    0 -0.00000000000E+00  0.00000000000E+00  0.23049067779E+04  0.23049067779E+04  0.00000000000E+00 0. -1.
         21   -1    0    0  504  502  0.00000000000E+00 -0.00000000000E+00 -0.17472773991E+03  0.17472773991E+03  0.00000000000E+00 0.  1.
         21    1    1    2  503  502 -0.31077844627E+02 -0.12288508795E+03 -0.63387879680E+02  0.14172014873E+03  0.00000000000E+00 0.  1.
         21    1    1    2  504  505  0.30088225992E+02 -0.41062661391E+01 -0.21211507684E+02  0.37041744332E+02  0.00000000000E+00 0.  1.
         21    1    1    2  505  501 -0.18461558214E+02  0.15839514974E+03  0.10535770285E+03  0.19112848596E+03  0.00000000000E+00 0. -1.
          1    1    1    2  501    0  0.19451176849E+02 -0.31403795657E+02  0.21094207225E+04  0.21097441388E+04  0.00000000000E+00 0. -1.
<scales pt_clust_3="14000.00000" pt_clust_4="30.36713" pt_clust_5="133.40093" pt_clust_6="36.96125"></scales>
<clustering>
<clus scale="   30.367">  2  4  1 -1</clus>
<clus scale="   36.961">  1  6  2 -1</clus>
<clus scale="  133.401">  1  5  2 -1</clus>
<clus scale="   30.367">  2  3  1 -1</clus>
</clustering>
</event>
<event>
 6    0  0.7258365E+002  0.1206761E+03  0.7546771E-02  0.1241986E+00
         21   -1    0    0  505  502  0.00000000000E+00  0.00000000000E+00  0.19794686673E+03  0.19794686673E+03  0.00000000000E+00 0. -1.
          2   -1    0    0  504    0 -0.00000000000E+00 -0.00000000000E+00 -0.35629979488E+03  0.35629979488E+03  0.00000000000E+00 0.  1.
         21    1    1    2  503  502 -0.59855238486E+02  0.32092132040E+02  0.22254642500E+02  0.71469039632E+02  0.00000000000E+00 0.  1.
         21    1    1    2  504  503  0.28586185320E+02 -0.40830611512E+02 -0.21444385266E+02  0.54260210900E+02  0.00000000000E+00 0.  1.
         21    1    1    2  505  501 -0.24189787992E+02  0.77191931730E+02  0.11496923967E+03  0.14057619371E+03  0.00000000000E+00 0. -1.
          2    1    1    2  501    0  0.55458841158E+02 -0.68453452258E+02 -0.27413242506E+03  0.28794121736E+03  0.00000000000E+00 0.  1.
<scales pt_clust_3="64.50156" pt_clust_4="49.84284" pt_clust_5="14000.00000" pt_clust_6="120.67610"></scales>
<clustering>
<clus scale="   49.843">  2  4  1 -1</clus>
<clus scale="   64.502">  1  3  2 -1</clus>
<clus scale="  120.676">  2  6  1 -1</clus>
<clus scale="   64.502">  1  3  2 -1</clus>
</clustering>
</event>
<event>
 6    0  0.7258365E+002  0.1159822E+03  0.7546771E-02  0.1249876E+00
         21   -1    0    0  503  502  0.00000000000E+00  0.00000000000E+00  0.21817466850E+03  0.21817466850E+03  0.00000000000E+00 0.  1.
          2   -1    0    0  502    0 -0.00000000000E+00 -0.00000000000E+00 -0.14279764650E+04  0.14279764650E+04  0.00000000000E+00 0.  1.
         21    1    1    2  503  504  0.19305586745E+02 -0.24670863028E+02  0.79711475994E+02  0.85646229148E+02  0.00000000000E+00 0.  1.
         21    1    1    2  504  505 -0.22565796710E+02 -0.37397825066E+02  0.88145581921E+02  0.98374062196E+02  0.00000000000E+00 0.  1.
         21    1    1    2  505  501 -0.15267980634E+02 -0.56221931866E+02  0.18285965089E+02  0.61060571359E+02  0.00000000000E+00 0.  1.
          2    1    1    2  501    0  0.18528190599E+02  0.11829061996E+03 -0.13959448195E+04  0.14010702708E+04  0.00000000000E+00 0.  1.
<scales pt_clust_3="31.32662" pt_clust_4="55.16426" pt_clust_5="115.98219" pt_clust_6="14000.00000"></scales>
<clustering>
<clus scale="   31.327">  1  3  2 -1</clus>
<clus scale="   55.164">  1  4  2 -1</clus>
<clus scale="  115.982">  1  5  2 -1</clus>
<clus scale="   31.327">  1  3  2 -1</clus>
</clustering>
</event>
<event>
 6    0  0.7258365E+002  0.1023470E+03  0.7546771E-02  0.1275436E+00
         21   -1    0    0  505  502  0.00000000000E+00  0.00000000000E+00  0.27208316476E+03  0.27208316476E+03  0.00000000000E+00 0. -1.
          1   -1    0    0  504    0 -0.00000000000E+00 -0.00000000000E+00 -0.53042705980E+03  0.53042705980E+03  0.00000000000E+00 0. -1.
         21    1    1    2  503  501 -0.10398780519E+02  0.94232417319E+02  0.23245106377E+02  0.97612591813E+02  0.00000000000E+00 0. -1.
         21    1    1    2  504  502  0.29996374664E+02  0.69397599574E+01  0.45356402205E+02  0.54819211799E+02  0.00000000000E+00 0. -1.
         21    1    1    2  505  503  0.39770690744E+02 -0.98293488663E+02  0.14208926663E+03  0.17729263224E+03  0.00000000000E+00 0. -1.
          1    1    1    2  501    0 -0.59368284890E+02 -0.28786886131E+01 -0.46903467025E+03  0.47278578870E+03  0.00000000000E+00 0. -1.
<scales pt_clust_3="102.34705" pt_clust_4="30.78868" pt_clust_5="14000.00000" pt_clust_6="59.18208"></scales>
<clustering>
<clus scale="   30.789">  1  4  2 -1</clus>
<clus scale="   59.182">  2  6  1 -1</clus>
<clus scale="  102.347">  2  3  1 -1</clus>
<clus scale="   30.789">  1  3  2 -1</clus>
</clustering>
</event>
<event>
 6    0  0.7258365E+002  0.9090467E+02  0.7546771E-02  0.1300676E+00
         21   -1    0    0  505  502  0.00000000000E+00  0.00000000000E+00  0.15799858634E+04  0.15799858634E+04  0.00000000000E+00 0.  1.
         -2   -1    0    0    0  501 -0.00000000000E+00 -0.00000000000E+00 -0.69216125797E+02  0.69216125797E+02  0.00000000000E+00 0. -1.
         21    1    1    2  503  504 -0.48774202476E+02 -0.21614107080E+02  0.50464315833E+03  0.50745522926E+03  0.00000000000E+00 0.  1.
         21    1    1    2  504  502  0.18567800289E+02  0.33796300402E+02  0.89348090483E+03  0.89431263014E+03  0.00000000000E+00 0.  1.
         21    1    1    2  505  501  0.21708672700E+02 -0.10033642859E+03  0.12076261727E+03  0.15850007919E+03  0.00000000000E+00 0.  1.
         -2    1    1    2    0  503  0.84977294861E+01  0.88154235268E+02 -0.81169428029E+01  0.88934050636E+02  0.00000000000E+00 0. -1.
<scales pt_clust_3="35.23502" pt_clust_4="38.56103" pt_clust_5="14000.00000" pt_clust_6="90.90467"></scales>
<clustering>
<clus scale="   38.561">  1  4  2 -1</clus>
<clus scale="   35.235">  1  3  2 -1</clus>
<clus scale="   90.905">  2  6  1 -1</clus>
<clus scale="   38.561">  1  3  2 -1</clus>
</clustering>
</event>
<event>
 6    0  0.7258365E+002  0.2283906E+03  0.7546771E-02  0.1127778E+00
          2   -1    0    0  505    0 -0.00000000000E+00  0.00000000000E+00  0.10640497389E+04  0.10640497389E+04  0.00000000000E+00 0.  1.
         21   -1    0    0  501  502  0.00000000000E+00 -0.00000000000E+00 -0.65749133923E+03  0.65749133923E+03  0.00000000000E+00 0.  1.
         21    1    1    2  503  502  0.33317873747E+02  0.36365426999E+02 -0.34508006784E+03  0.34858683024E+03  0.00000000000E+00 0.  1.
         21    1    1    2  504  503  0.64848981533E+02  0.18227625720E+03 -0.15487586193E+03  0.24782364083E+03  0.00000000000E+00 0.  1.
         21    1    1    2  505  504 -0.68802197109E+02 -0.24698845095E+03  0.42186702206E+02  0.25983986429E+03  0.00000000000E+00 0.  1.
          2    1    1    2  501    0 -0.29364658171E+02  0.28346766752E+02  0.86432762720E+03  0.86529074274E+03  0.00000000000E+00 0.  1.
<scales pt_clust_3="49.33130" pt_clust_4="14000.00000" pt_clust_5="228.39060" pt_clust_6="40.81449"></scales>
<clustering>
<clus scale="   40.814">  1  6  2 -1</clus>
<clus scale="   49.331">  2  3  1 -1</clus>
<clus scale="  228.391">  1  5  2 -1</clus>
<clus scale="   49.331">  2  3  1 -1</clus>
</clustering>
</event>
<event>
 6    0  0.7258365E+002  0.9889446E+02  0.7546771E-02  0.1282638E+00
          2   -1    0    0  503    0 -0.00000000000E+00  0.00000000000E+00  0.57603094140E+03  0.57603094140E+03  0.00000000000E+00 0. -1.
         21   -1    0    0  504  502  0.00000000000E+00 -0.00000000000E+00 -0.27248301601E+03  0.27248301601E+03  0.00000000000E+00 0. -1.
         21    1    1    2  503  505  0.23824900744E+02  0.75743091547E+02  0.25315616076E+02  0.83339799795E+02  0.00000000000E+00 0. -1.
         21    1    1    2  504  501 -0.10926757804E+03 -0.83183490537E+02  0.53642076987E+02  0.14743259182E+03  0.00000000000E+00 0. -1.
         21    1    1    2  505  502  0.39850279325E+02  0.27893408796E+02 -0.19205056941E+03  0.19811488643E+03  0.00000000000E+00 0. -1.
          2    1    1    2  501    0  0.45592397970E+02 -0.20453009806E+02  0.41664080174E+03  0.41962667936E+03  0.00000000000E+00 0. -1.
<scales pt_clust_3="98.89446" pt_clust_4="14000.00000" pt_clust_5="48.64244" pt_clust_6="50.45745"></scales>
<clustering>
<clus scale="   48.642">  2  5  1 -1</clus>
<clus scale="   50.457">  1  6  2 -1</clus>
<clus scale="   98.894">  1  3  2 -1</clus>
<clus scale="   48.642">  2  3  1 -1</clus>
</clustering>
</event>
<event>
 6    0  0.7258365E+002  0.1789300E+03  0.7546771E-02  0.1168843E+00
          2   -1    0    0  502    0 -0.00000000000E+00  0.00000000000E+00  0.25754233379E+04  0.25754233379E+04  0.00000000000E+00 0. -1.
         21   -1    0    0  504  502  0.00000000000E+00 -0.00000000000E+00 -0.29035923528E+03  0.29035923528E+03  0.00000000000E+00 0. -1.
         21    1    1    2  503  505  0.79869847070E+01  0.41507104324E+02 -0.11950197318E+03  0.12675706382E+03  0.00000000000E+00 0. -1.
         21    1    1    2  504  503  0.33460123314E+02  0.16397833343E+02 -0.78575699441E+02  0.86963264274E+02  0.00000000000E+00 0.  1.
         21    1    1    2  505  501  0.13083602081E+03 -0.19716196251E+01 -0.28482412049E+02  0.13391489619E+03  0.00000000000E+00 0.  1.
          2    1    1    2  501    0 -0.17228312883E+03 -0.55933318042E+02  0.25116241873E+04  0.25181473489E+04  0.00000000000E+00 0. -1.
<scales pt_clust_3="80.25967" pt_clust_4="34.76222" pt_clust_5="178.92997" pt_clust_6="14000.00000"></scales>
<clustering>
<clus scale="   34.762">  3  4 -1 -1</clus>
<clus scale="   80.260">  2  3  1 -1</clus>
<clus scale="  178.930">  2  5  1 -1</clus>
<clus scale="   80.260">  2  3  1 -1</clus>
</clustering>
</event>
<event>
 6    0  0.7258365E+002  0.2960285E+03  0.7546771E-02  0.1087243E+00
         21   -1    0    0  503  502  0.00000000000E+00  0.00000000000E+00  0.96305440840E+03  0.96305440840E+03  0.00000000000E+00 0.  1.
         -1   -1    0    0    0  501 -0.00000000000E+00 -0.00000000000E+00 -0.25090796683E+03  0.25090796683E+03  0.00000000000E+00 0. -1.
         21    1    1    2  503  501  0.38007749703E+02  0.48447867261E+02  0.12875018542E+03  0.14271788649E+03  0.00000000000E+00 0.  1.
         21    1    1    2  504  505 -0.29696323472E+03  0.15394081067E+03  0.38174510170E+03  0.50755714815E+03  0.00000000000E+00 0.  1.
         21    1    1    2  505  502  0.15097584271E+02 -0.52456317679E+02  0.26494596402E+03  0.27051056572E+03  0.00000000000E+00 0. -1.
         -1    1    1    2    0  504  0.24385790074E+03 -0.14993236025E+03 -0.63294809578E+02  0.29317677487E+03  0.00000000000E+00 0. -1.
<scales pt_clust_3="56.01028" pt_clust_4="14000.00000" pt_clust_5="54.58573" pt_clust_6="296.02854"></scales>
<clustering>
<clus scale="   54.586">  1  5  2 -1</clus>
<clus scale="   56.010">  1  3  2 -1</clus>
<clus scale="  296.029">  2  6  1 -1</clus>
<clus scale="   54.586">  1  3  2 -1</clus>
</clustering>
</event>
<event>
 6    0  0.7258365E+002  0.7800337E+02  0.7546771E-02  0.1334815E+00
         21   -1    0    0  504  502  0.00000000000E+00  0.00000000000E+00  0.10263676313E+03  0.10263676313E+03  0.00000000000E+00 0.  1.
          2   -1    0    0  503    0 -0.00000000000E+00 -0.00000000000E+00 -0.43546349327E+03  0.43546349327E+03  0.00000000000E+00 0.  1.
         21    1    1    2  503  505 -0.56519014223E+02  0.75593263505E+02 -0.53977203770E+02  0.10873030388E+03  0.00000000000E+00 0.  1.
         21    1    1    2  504  501 -0.63333998653E+01 -0.55635269487E+02 -0.82073613933E+01  0.56592896602E+02  0.00000000000E+00 0.  1.
         21    1    1    2  505  502  0.79782353013E+02  0.12138974066E+02  0.17319317823E+02  0.82538096135E+02  0.00000000000E+00 0.  1.
          2    1    1    2  501    0 -0.16929938926E+02 -0.32096968084E+02 -0.28796148281E+03  0.29023895978E+03  0.00000000000E+00 0.  1.
<scales pt_clust_3="14000.00000" pt_clust_4="63.54527" pt_clust_5="78.00337" pt_clust_6="36.28827"></scales>
<clustering>
<clus scale="   36.288">  2  6  1 -1</clus>
<clus scale="   63.545">  1  4  2 -1</clus>
<clus scale="   78.003">  1  5  2 -1</clus>
<clus scale="   63.545">  1  3  2 -1</clus>
</clustering>
</event>
<event>
 6    0  0.7258365E+002  0.2127325E+03  0.7546771E-02  0.1139420E+00
         21   -1    0    0  503  502  0.00000000000E+00  0.00000000000E+00  0.82140522749E+03  0.82140522749E+03  0.00000000000E+00 0. -1.
          2   -1    0    0  505    0 -0.00000000000E+00 -0.00000000000E+00 -0.16695724505E+04  0.16695724505E+04  0.00000000000E+00 0.  1.
         21    1    1    2  503  501  0.36331317516E+02 -0.74871234405E+01  0.29623696961E+02  0.47471939833E+02  0.00000000000E+00 0. -1.
         21    1    1    2  504  502 -0.22723514265E+03 -0.62520120178E+02  0.67205967373E+03  0.71218591711E+03  0.00000000000E+00 0. -1.
         21    1    1    2  505  504  0.23856807777E+03  0.82818184398E+02 -0.86205197166E+02  0.26684249177E+03  0.00000000000E+00 0. -1.
          2    1    1    2  501    0 -0.47664252637E+02 -0.12810940780E+02 -0.14636453966E+04  0.14644773293E+04  0.00000000000E+00 0.  1.
<scales pt_clust_3="37.09477" pt_clust_4="212.73247" pt_clust_5="14000.00000" pt_clust_6="49.33825"></scales>
<clustering>
<clus scale="   37.095">  1  3  2 -1</clus>
<clus scale="   49.338">  2  6  1 -1</clus>
<clus scale="  212.732">  1  4  2 -1</clus>
<clus scale="   37.095">  1  3  2 -1</clus>
</clustering>
</event>
<event>
 6    0  0.7258365E+002  0.2056241E+03  0.7546771E-02  0.1145079E+00
         21   -1    0    0  504  502  0.00000000000E+00  0.00000000000E+00  0.77961746641E+03  0.77961746641E+03  0.00000000000E+00 0.  1.
          2   -1    0    0  503    0 -0.00000000000E+00 -0.00000000000E+00 -0.10800808755E+04  0.10800808755E+04  0.00000000000E+00 0. -1.
         21    1    1    2  503  502 -0.87331026601E+02  0.31750971144E+02  0.91467528476E+02  0.13038842411E+03  0.00000000000E+00 0. -1.
         21    1    1    2  504  505  0.38448061445E+02  0.38594341234E+02  0.24053589454E+03  0.24662784345E+03  0.00000000000E+00 0.  1.
         21    1    1    2  505  501  0.14656512782E+03 -0.24894052727E+03  0.36452880470E+03  0.46511715972E+03  0.00000000000E+00 0. -1.
          2    1    1    2  501    0 -0.97682162661E+02  0.17859521489E+03 -0.99699563676E+03  0.10175649146E+04  0.00000000000E+00 0. -1.
<scales pt_clust_3="88.76601" pt_clust_4="54.47730" pt_clust_5="14000.00000" pt_clust_6="205.62413"></scales>
<clustering>
<clus scale="   54.477">  1  4  2 -1</clus>
<clus scale="   88.766">  1  3  2 -1</clus>
<clus scale="  205.624">  2  6  1 -1</clus>
<clus scale="   54.477">  1  3  2 -1</clus>
</clustering>
</event>
<event>
 6    0  0.7258365E+002  0.1016983E+03  0.7546771E-02  0.1276765E+00
         21   -1    0    0  504  502  0.00000000000E+00  0.00000000000E+00  0.65105292835E+02  0.65105292835E+02  0.00000000000E+00 0. -1.
          2   -1    0    0  505    0 -0.00000000000E+00 -0.00000000000E+00 -0.43595601261E+04  0.43595601261E+04  0.00000000000E+00 0.  1.
         21    1    1    2  503  502  0.82557171783E+02  0.16489564970E+03 -0.11015191586E+03  0.21480155137E+03  0.00000000000E+00 0. -1.
         21    1    1    2  504  501 -0.53659211656E+02 -0.75216489483E+02 -0.19147466154E+03  0.21260145177E+03  0.00000000000E+00 0. -1.
         21    1    1    2  505  503 -0.84062115769E+01  0.42930205016E+02 -0.16615009763E+04  0.16620767615E+04  0.00000000000E+00 0. -1.
          2    1    1    2  501    0 -0.20491748550E+02 -0.13260936523E+03 -0.23313272796E+04  0.23351856543E+04  0.00000000000E+00 0.  1.
<scales pt_clust_3="101.69827" pt_clust_4="90.17468" pt_clust_5="43.74548" pt_clust_6="14000.00000"></scales>
<clustering>
<clus scale="   43.745">  2  5  1 -1</clus>
<clus scale="   90.175">  1  4  2 -1</clus>
<clus scale="  101.698">  1  3  2 -1</clus>
<clus scale="   90.175">  1  3  2 -1</clus>
</clustering>
</event>
<event>
 6    0  0.7258365E+002  0.1666350E+03  0.7546771E-02  0.1181403E+00
         21   -1    0    0  505  502  0.00000000000E+00  0.00000000000E+00  0.89048311903E+02  0.89048311903E+02  0.00000000000E+00 0.  1.
          1   -1    0    0  504    0 -0.00000000000E+00 -0.00000000000E+00 -0.26301603260E+04  0.26301603260E+04  0.00000000000E+00 0.  1.
         21    1    1    2  503  501 -0.21956441580E+03  0.12923937077E+03 -0.54864862727E+03  0.60491872500E+03  0.00000000000E+00 0.  1.
         21    1    1    2  504  502  0.29801218802E+02 -0.14870624762E+02  0.22028297205E+02  0.39931115694E+02  0.00000000000E+00 0.  1.
         21    1    1    2  505  503  0.12077349953E+03  0.30528793751E+02 -0.11962719441E+03  0.17271048341E+03  0.00000000000E+00 0.  1.
          1    1    1    2  501    0  0.68989697471E+02 -0.14489753976E+03 -0.18948644897E+04  0.19016483138E+04  0.00000000000E+00 0.  1.
<scales pt_clust_3="14000.00000" pt_clust_4="33.30538" pt_clust_5="136.47409" pt_clust_6="166.63499"></scales>
<clustering>
<clus scale="   33.305">  1  4  2 -1</clus>
<clus scale="  136.474">  1  5  2 -1</clus>
<clus scale="  166.635">  2  6  1 -1</clus>
<clus scale="   33.305">  1  3  2 -1</clus>
</clustering>
</event>
<event>
 6    0  0.7258365E+002  0.1011462E+03  0.7546771E-02  0.1277904E+00
         21   -1    0    0  503  502  0.00000000000E+00  0.00000000000E+00  0.68587458043E+02  0.68587458043E+02  0.00000000000E+00 0. -1.
          1   -1    0    0  504    0 -0.00000000000E+00 -0.00000000000E+00 -0.13818216889E+04  0.13818216889E+04  0.00000000000E+00 0.  1.
         21    1    1    2  503  501  0.23395569215E+02  0.82804600150E+02 -0.85957460696E+02  0.12162499543E+03  0.00000000000E+00 0. -1.
         21    1    1    2  504  505 -0.56605028733E+02 -0.96434283006E+02 -0.66426099071E+03  0.67360698037E+03  0.00000000000E+00 0.  1.
         21    1    1    2  505  502  0.12366598141E+01 -0.74000845929E+02  0.99417525993E+01  0.74675919615E+02  0.00000000000E+00 0. -1.
          1    1    1    2  501    0  0.31972799703E+02  0.87630528784E+02 -0.57295753206E+03  0.58050125154E+03  0.00000000000E+00 0.  1.
<scales pt_clust_3="40.60885" pt_clust_4="14000.00000" pt_clust_5="74.01118" pt_clust_6="101.14618"></scales>
<clustering>
<clus scale="   74.011">  1  5  2 -1</clus>
<clus scale="   40.609">  1  3  2 -1</clus>
<clus scale="  101.146">  2  6  1 -1</clus>
<clus scale="   74.011">  1  3  2 -1</clus>
</clustering>
</event>
<event>
 6    0  0.7258365E+002  0.1052569E+03  0.7546771E-02  0.1269614E+00
         -2   -1    0    0    0  501 -0.00000000000E+00  0.00000000000E+00  0.13395381453E+04  0.13395381453E+04  0.00000000000E+00 0.  1.
         21   -1    0    0  503  502  0.00000000000E+00 -0.00000000000E+00 -0.20214497251E+03  0.20214497251E+03  0.00000000000E+00 0. -1.
         21    1    1    2  503  505 -0.29846715911E+02  0.12204125233E+02 -0.23936691235E+02  0.40158838512E+02  0.00000000000E+00 0. -1.
         21    1    1    2  504  502  0.14111189068E+03  0.25550566041E+02 -0.10538411966E+02  0.14379309873E+03  0.00000000000E+00 0. -1.
         21    1    1    2  505  501 -0.61261428490E+02 -0.60718870902E+02 -0.72177406813E+02  0.11246920449E+03  0.00000000000E+00 0. -1.
         -2    1    1    2    0  504 -0.50003746278E+02  0.22964179629E+02  0.12440456828E+04  0.12452619760E+04  0.00000000000E+00 0.  1.
<scales pt_clust_3="32.24542" pt_clust_4="105.25690" pt_clust_5="14000.00000" pt_clust_6="55.13998"></scales>
<clustering>
<clus scale="   32.245">  2  3  1 -1</clus>
<clus scale="   55.140">  1  6  2 -1</clus>
<clus scale="  105.257">  1  4  2 -1</clus>
<clus scale="   32.245">  2  3  1 -1</clus>
</clustering>
</event>
<event>
 6    0  0.7258365E+002  0.7313688E+02  0.7546771E-02  0.1349740E+00
         21   -1    0    0  503  502  0.00000000000E+00  0.00000000000E+00  0.61911599613E+02  0.61911599613E+02  0.00000000000E+00 0.  1.
          2   -1    0    0  504    0 -0.00000000000E+00 -0.00000000000E+00 -0.44782687173E+03  0.44782687173E+03  0.00000000000E+00 0.  1.
         21    1    1    2  503  501 -0.61650693605E+02 -0.10578878977E+00 -0.92149078040E+02  0.11087051816E+03  0.00000000000E+00 0.  1.
         21    1    1    2  504  505  0.26906715768E+02 -0.57624740126E+02 -0.53047869795E+02  0.82817018286E+02  0.00000000000E+00 0.  1.
         21    1    1    2  505  502  0.45957723225E+02 -0.19126530919E+02  0.12386410264E+02  0.51296780291E+02  0.00000000000E+00 0.  1.
          2    1    1    2  501    0 -0.11213745388E+02  0.76857059834E+02 -0.25310473454E+03  0.26475415460E+03  0.00000000000E+00 0.  1.
<scales pt_clust_3="47.73040" pt_clust_4="14000.00000" pt_clust_5="49.77888" pt_clust_6="73.13688"></scales>
<clustering>
<clus scale="   49.779">  1  5  2 -1</clus>
<clus scale="   47.730">  1  3  2 -1</clus>
<clus scale="   73.137">  2  6  1 -1</clus>
<clus scale="   49.779">  1  3  2 -1</clus>
</clustering>
</event>
<event>
 6    0  0.7258365E+002  0.8984668E+02  0.7546771E-02  0.1303223E+00
         21   -1    0    0  503  502  0.00000000000E+00  0.00000000000E+00  0.14077055810E+03  0.14077055810E+03  0.00000000000E+00 0.  1.
         -4   -1    0    0    0  501 -0.00000000000E+00 -0.00000000000E+00 -0.30878079530E+03  0.30878079530E+03  0.00000000000E+00 0. -1.
         21    1    1    2  503  501  0.10940191373E+03 -0.38697467790E+02 -0.68134509237E+02  0.13456813921E+03  0.00000000000E+00 0.  1.
         21    1    1    2  504  502  0.12382673230E+02  0.27766629511E+02  0.11519077015E+01  0.30424384991E+02  0.00000000000E+00 0.  1.
         21    1    1    2  505  504 -0.40601784559E+02  0.46716291159E+02  0.69051152192E+02  0.92730676629E+02  0.00000000000E+00 0.  1.
         -4    1    1    2    0  505 -0.81182802400E+02 -0.35785452879E+02 -0.17007878786E+03  0.19182815258E+03  0.00000000000E+00 0. -1.
<scales pt_clust_3="89.84668" pt_clust_4="30.40257" pt_clust_5="72.43203" pt_clust_6="14000.00000"></scales>
<clustering>
<clus scale="   30.403">  1  4  2 -1</clus>
<clus scale="   72.432">  1  5  2 -1</clus>
<clus scale="   89.847">  1  3  2 -1</clus>
<clus scale="   30.403">  1  3  2 -1</clus>
</clustering>
</event>
<event>
 6    0  0.7258365E+002  0.1047386E+03  0.7546771E-02  0.1270636E+00
         21   -1    0    0  504  502  0.00000000000E+00  0.00000000000E+00  0.27367542697E+02  0.27367542697E+02  0.00000000000E+00 0.  1.
          2   -1    0    0  505    0 -0.00000000000E+00 -0.00000000000E+00 -0.10761706045E+04  0.10761706045E+04  0.00000000000E+00 0.  1.
         21    1    1    2  503  502 -0.13088129149E+02 -0.42350878435E+02 -0.49002194770E+02  0.66076555003E+02  0.00000000000E+00 0.  1.
         21    1    1    2  504  501  0.10636294398E+03  0.56045550053E+02 -0.34572770907E+03  0.36603528293E+03  0.00000000000E+00 0.  1.
         21    1    1    2  505  503 -0.10223893127E+03  0.16916440621E+02 -0.33248778738E+03  0.34826296643E+03  0.00000000000E+00 0.  1.
          2    1    1    2  501    0  0.89641164315E+01 -0.30611112238E+02 -0.32158537059E+03  0.32316334284E+03  0.00000000000E+00 0.  1.
<scales pt_clust_3="46.37704" pt_clust_4="104.73855" pt_clust_5="14000.00000" pt_clust_6="31.89664"></scales>
<clustering>
<clus scale="   31.897">  2  6  1 -1</clus>
<clus scale="   46.377">  1  3  2 -1</clus>
<clus scale="  104.739">  1  4  2 -1</clus>
<clus scale="   46.377">  1  3  2 -1</clus>
</clustering>
</event>
<event>
 6    0  0.7258365E+002  0.8077862E+02  0.7546771E-02  0.1326856E+00
         21   -1    0    0  505  502  0.00000000000E+00  0.00000000000E+00  0.36373827308E+03  0.36373827308E+03  0.00000000000E+00 0. -1.
          2   -1    0    0  503    0 -0.00000000000E+00 -0.00000000000E+00 -0.29165956123E+03  0.29165956123E+03  0.00000000000E+00 0.  1.
         21    1    1    2  503  502  0.95025762133E+02  0.87843057325E+02  0.82995828299E+02  0.15373550567E+03  0.00000000000E+00 0. -1.
         21    1    1    2  504  501 -0.45225927966E+02 -0.56161060512E+02  0.11777604287E-01  0.72107207801E+02  0.00000000000E+00 0. -1.
         21    1    1    2  505  504 -0.25172551448E+02  0.43110104272E+02  0.19909345612E+03  0.20525677262E+03  0.00000000000E+00 0. -1.
          2    1    1    2  501    0 -0.24627282719E+02 -0.74792101086E+02 -0.21002235017E+03  0.22429834821E+03  0.00000000000E+00 0.  1.
<scales pt_clust_3="14000.00000" pt_clust_4="68.92777" pt_clust_5="49.92132" pt_clust_6="80.77862"></scales>
<clustering>
<clus scale="   49.921">  1  5  2 -1</clus>
<clus scale="   68.928">  1  4  2 -1</clus>
<clus scale="   80.779">  2  6  1 -1</clus>
<clus scale="   49.921">  1  3  2 -1</clus>
</clustering>
</event>
<event>
 6    0  0.7258365E+002  0.1451301E+03  0.7546771E-02  0.1206588E+00
          2   -1    0    0  504    0 -0.00000000000E+00  0.00000000000E+00  0.14199922308E+04  0.14199922308E+04  0.00000000000E+00 0.  1.
         21   -1    0    0  505  502  0.00000000000E+00 -0.00000000000E+00 -0.93030437139E+02  0.93030437139E+02  0.00000000000E+00 0.  1.
         21    1    1    2  503  502 -0.13639088096E+02 -0.50012251135E+02 -0.46335516023E+02  0.69528627434E+02  0.00000000000E+00 0.  1.
         21    1    1    2  504  503  0.37503602070E+02 -0.10461529463E+03  0.82883469808E+02  0.13863819678E+03  0.00000000000E+00 0.  1.
         21    1    1    2  505  501 -0.52072600488E+02  0.14042222738E+03  0.83324910257E+03  0.84660145559E+03  0.00000000000E+00 0. -1.
          2    1    1    2  501    0  0.28208086514E+02  0.14205318388E+02  0.45716473727E+03  0.45825438811E+03  0.00000000000E+00 0.  1.
<scales pt_clust_3="51.58487" pt_clust_4="145.13006" pt_clust_5="14000.00000" pt_clust_6="31.58302"></scales>
<clustering>
<clus scale="   31.583">  1  6  2 -1</clus>
<clus scale="   51.585">  2  3  1 -1</clus>
<clus scale="  145.130">  2  4  1 -1</clus>
<clus scale="   51.585">  2  3  1 -1</clus>
</clustering>
</event>
<event>
 6    0  0.7258365E+002  0.6618604E+02  0.7546771E-02  0.1373565E+00
         21   -1    0    0  505  502  0.00000000000E+00  0.00000000000E+00  0.44547701357E+03  0.44547701357E+03  0.00000000000E+00 0. -1.
          4   -1    0    0  504    0 -0.00000000000E+00 -0.00000000000E+00 -0.34084313357E+03  0.34084313357E+03  0.00000000000E+00 0. -1.
         21    1    1    2  503  502 -0.48357513965E+02 -0.14212399593E+02  0.34505873288E+03  0.34872047630E+03  0.00000000000E+00 0. -1.
         21    1    1    2  504  503 -0.56183431186E+01 -0.87489761263E+02  0.28416792457E+02  0.92160393873E+02  0.00000000000E+00 0. -1.
         21    1    1    2  505  501  0.99782144361E+01  0.52598000700E+02  0.13737369556E+02  0.55270514411E+02  0.00000000000E+00 0. -1.
          4    1    1    2  501    0  0.43997642647E+02  0.49104160156E+02 -0.28257901490E+03  0.29016876255E+03  0.00000000000E+00 0. -1.
<scales pt_clust_3="50.40279" pt_clust_4="14000.00000" pt_clust_5="48.12779" pt_clust_6="66.18604"></scales>
<clustering>
<clus scale="   50.403">  1  3  2 -1</clus>
<clus scale="   48.128">  1  5  2 -1</clus>
<clus scale="   66.186">  2  6  1 -1</clus>
<clus scale="   50.403">  1  3  2 -1</clus>
</clustering>
</event>
<event>
 6    0  0.7258365E+002  0.6067800E+02  0.7546771E-02  0.1395008E+00
         21   -1    0    0  503  502  0.00000000000E+00  0.00000000000E+00  0.72491180255E+02  0.72491180255E+02  0.00000000000E+00 0.  1.
          1   -1    0    0  502    0 -0.00000000000E+00 -0.00000000000E+00 -0.20805548403E+04  0.20805548403E+04  0.00000000000E+00 0. -1.
         21    1    1    2  503  504 -0.41559474679E+02 -0.39438097755E+02  0.10041518969E+02  0.58166877115E+02  0.00000000000E+00 0.  1.
         21    1    1    2  504  505  0.20438609950E+02  0.54956178998E+02 -0.57448173501E+02  0.82086606857E+02  0.00000000000E+00 0.  1.
         21    1    1    2  505  501  0.73881435054E+02 -0.44519634200E+02 -0.47082578184E+02  0.98271223883E+02  0.00000000000E+00 0.  1.
          1    1    1    2  501    0 -0.52760570325E+02  0.29001552957E+02 -0.19135744273E+04  0.19145213127E+04  0.00000000000E+00 0. -1.
<scales pt_clust_3="57.29357" pt_clust_4="42.89158" pt_clust_5="60.67800" pt_clust_6="14000.00000"></scales>
<clustering>
<clus scale="   57.294">  1  3  2 -1</clus>
<clus scale="   42.892">  1  4  2 -1</clus>
<clus scale="   60.678">  1  5  2 -1</clus>
<clus scale="   57.294">  1  3  2 -1</clus>
</clustering>
</event>
<event>
 6    0  0.7258365E+002  0.1521996E+03  0.7546771E-02  0.1197796E+00
         21   -1    0    0  504  502  0.00000000000E+00  0.00000000000E+00  0.65197455855E+03  0.65197455855E+03  0.00000000000E+00 0.  1.
          2   -1    0    0  503    0 -0.00000000000E+00 -0.00000000000E+00 -0.10656379133E+03  0.10656379133E+03  0.00000000000E+00 0. -1.
         21    1    1    2  503  505 -0.14091791718E+03 -0.13729227207E+03  0.98565961137E+02  0.22005062155E+03  0.00000000000E+00 0.  1.
         21    1    1    2  504  501  0.12061119479E+03  0.10188485093E+03  0.34462866163E+03  0.37907320873E+03  0.00000000000E+00 0. -1.
         21    1    1    2  505  502 -0.31492065006E+02 -0.80277998934E+01  0.83001098591E+02  0.89136850386E+02  0.00000000000E+00 0.  1.
          2    1    1    2  501    0  0.51798787394E+02  0.43435221034E+02  0.19215045858E+02  0.70277669207E+02  0.00000000000E+00 0. -1.
<scales pt_clust_3="152.19958" pt_clust_4="14000.00000" pt_clust_5="32.49917" pt_clust_6="65.29339"></scales>
<clustering>
<clus scale="   32.499">  1  5  2 -1</clus>
<clus scale="   65.293">  2  6  1 -1</clus>
<clus scale="  152.200">  2  3  1 -1</clus>
<clus scale="   32.499">  1  3  2 -1</clus>
</clustering>
</event>
<event>
 6    0  0.7258365E+002  0.1042312E+03  0.7546771E-02  0.1271642E+00
         21   -1    0    0  504  502  0.00000000000E+00  0.00000000000E+00  0.16497563780E+02  0.16497563780E+02  0.00000000000E+00 0. -1.
          1   -1    0    0  502    0 -0.00000000000E+00 -0.00000000000E+00 -0.30702526749E+04  0.30702526749E+04  0.00000000000E+00 0.  1.
         21    1    1    2  503  505  0.87454451127E+02 -0.36245191124E+02 -0.30454088221E+03  0.31891557478E+03  0.00000000000E+00 0. -1.
         21    1    1    2  504  503  0.17695950283E+02 -0.29950523783E+02 -0.36144908526E+02  0.50166073632E+02  0.00000000000E+00 0. -1.
         21    1    1    2  505  501 -0.83588692930E+02  0.33784885027E+02 -0.97404854319E+03  0.97821217154E+03  0.00000000000E+00 0.  1.
          1    1    1    2  501    0 -0.21561708480E+02  0.32410829880E+02 -0.17390207772E+04  0.17394564187E+04  0.00000000000E+00 0.  1.
<scales pt_clust_3="14000.00000" pt_clust_4="34.78765" pt_clust_5="104.23116" pt_clust_6="38.13018"></scales>
<clustering>
<clus scale="   34.788">  1  4  2 -1</clus>
<clus scale="   38.130">  2  6  1 -1</clus>
<clus scale="  104.231">  2  5  1 -1</clus>
<clus scale="   34.788">  1  3  2 -1</clus>
</clustering>
</event>
<event>
 6    0  0.7258365E+002  0.1840785E+03  0.7546771E-02  0.1163913E+00
          1   -1    0    0  504    0 -0.00000000000E+00  0.00000000000E+00  0.93446099509E+03  0.93446099509E+03  0.00000000000E+00 0.  1.
         21   -1    0    0  505  502  0.00000000000E+00 -0.00000000000E+00 -0.35111127666E+03  0.35111127666E+03  0.00000000000E+00 0.  1.
         21    1    1    2  503  501 -0.17240724342E+03 -0.34734525780E+02  0.32866603758E+03  0.37276280545E+03  0.00000000000E+00 0.  1.
         21    1    1    2  504  502  0.19428420397E+03  0.48675362377E+02  0.16744790809E+03  0.26106406252E+03  0.00000000000E+00 0.  1.
         21    1    1    2  505  503 -0.28812498793E+02  0.17722450774E+02 -0.28052591523E+03  0.28255801965E+03  0.00000000000E+00 0.  1.
          1    1    1    2  501    0  0.69355382437E+01 -0.31663287371E+02  0.36776168799E+03  0.36918738415E+03  0.00000000000E+00 0.  1.
<scales pt_clust_3="184.07851" pt_clust_4="14000.00000" pt_clust_5="33.78634" pt_clust_6="32.41397"></scales>
<clustering>
<clus scale="   32.414">  1  6  2 -1</clus>
<clus scale="   33.786">  2  5  1 -1</clus>
<clus scale="  184.079">  1  3  2 -1</clus>
<clus scale="   33.786">  2  3  1 -1</clus>
</clustering>
</event>
<event>
 6    0  0.7258365E+002  0.7903769E+02  0.7546771E-02  0.1331805E+00
          2   -1    0    0  504    0 -0.00000000000E+00  0.00000000000E+00  0.19168187522E+04  0.19168187522E+04  0.00000000000E+00 0.  1.
         21   -1    0    0  503  502  0.00000000000E+00 -0.00000000000E+00 -0.12976682288E+02  0.12976682288E+02  0.00000000000E+00 0.  1.
         21    1    1    2  503  505 -0.63679008396E+02 -0.47293382603E+02  0.20610097953E+03  0.22083770945E+03  0.00000000000E+00 0.  1.
         21    1    1    2  504  502  0.81257361174E+02  0.18859409549E+02  0.99654061811E+03  0.10000258195E+04  0.00000000000E+00 0.  1.
         21    1    1    2  505  501 -0.36084451652E+02  0.57930820637E+02  0.40772163540E+03  0.41339448425E+03  0.00000000000E+00 0.  1.
          2    1    1    2  501    0  0.18506098874E+02 -0.29496847583E+02  0.29347883684E+03  0.29553742129E+03  0.00000000000E+00 0.  1.
<scales pt_clust_3="14000.00000" pt_clust_4="79.03769" pt_clust_5="59.43781" pt_clust_6="34.82154"></scales>
<clustering>
<clus scale="   34.822">  1  6  2 -1</clus>
<clus scale="   59.438">  1  5  2 -1</clus>
<clus scale="   79.038">  1  4  2 -1</clus>
<clus scale="   79.038">  2  3  1 -1</clus>
</clustering>
</event>
<event>
 6    0  0.7258365E+002  0.6098043E+02  0.7546771E-02  0.1393763E+00
          2   -1    0    0  504    0 -0.00000000000E+00  0.00000000000E+00  0.30928820642E+04  0.30928820642E+04  0.00000000000E+00 0.  1.
         21   -1    0    0  505  502  0.00000000000E+00 -0.00000000000E+00 -0.44633795724E+02  0.44633795724E+02  0.00000000000E+00 0. -1.
         21    1    1    2  503  502 -0.86450199268E+02 -0.46423909656E+02  0.10131553585E+03  0.14104486572E+03  0.00000000000E+00 0. -1.
         21    1    1    2  504  503 -0.13741681361E+02 -0.36494194351E+02  0.21204800810E+04  0.21208386157E+04  0.00000000000E+00 0.  1.
         21    1    1    2  505  501  0.33811950867E+02  0.32140207667E+02  0.17261282628E+01  0.46682121729E+02  0.00000000000E+00 0. -1.
          2    1    1    2  501    0  0.66379929762E+02  0.50777896341E+02  0.82472652331E+03  0.82895025670E+03  0.00000000000E+00 0.  1.
<scales pt_clust_3="60.98043" pt_clust_4="38.99564" pt_clust_5="45.77824" pt_clust_6="14000.00000"></scales>
<clustering>
<clus scale="   38.996">  1  4  2 -1</clus>
<clus scale="   45.778">  2  5  1 -1</clus>
<clus scale="   60.980">  2  3  1 -1</clus>
<clus scale="   45.778">  2  3  1 -1</clus>
</clustering>
</event>
<event>
 6    0  0.7258365E+002  0.1363947E+03  0.7546771E-02  0.1218264E+00
          1   -1    0    0  505    0 -0.00000000000E+00  0.00000000000E+00  0.23245436509E+04  0.23245436509E+04  0.00000000000E+00 0.  1.
         21   -1    0    0  501  502  0.00000000000E+00 -0.00000000000E+00 -0.68866963521E+02  0.68866963521E+02  0.00000000000E+00 0.  1.
         21    1    1    2  503  502 -0.94819249180E+02  0.13203171210E+01  0.74818432026E+01  0.95123137197E+02  0.00000000000E+00 0.  1.
         21    1    1    2  504  503  0.39915743909E+02  0.13460280135E+03  0.20557371037E+03  0.24894122025E+03  0.00000000000E+00 0.  1.
         21    1    1    2  505  504  0.32182505955E+02 -0.17928527570E+02  0.82191734727E+03  0.82274253053E+03  0.00000000000E+00 0.  1.
          1    1    1    2  501    0  0.22720999316E+02 -0.11799459090E+03  0.12207037865E+04  0.12266037264E+04  0.00000000000E+00 0.  1.
<scales pt_clust_3="93.72285" pt_clust_4="14000.00000" pt_clust_5="36.83946" pt_clust_6="136.39470"></scales>
<clustering>
<clus scale="   36.839">  1  5  2 -1</clus>
<clus scale="   93.723">  2  3  1 -1</clus>
<clus scale="  136.395">  1  6  2 -1</clus>
<clus scale="   93.723">  2  3  1 -1</clus>
</clustering>
</event>
<event>
 6    0  0.7258365E+002  0.6915917E+02  0.7546771E-02  0.1362976E+00
         -1   -1    0    0    0  501 -0.00000000000E+00  0.00000000000E+00  0.21971333010E+04  0.21971333010E+04  0.00000000000E+00 0.  1.
         21   -1    0    0  504  502  0.00000000000E+00 -0.00000000000E+00 -0.12340518223E+03  0.12340518223E+03  0.00000000000E+00 0.  1.
         21    1    1    2  503  502 -0.16310131338E+02  0.74232151885E+02  0.58301175973E+03  0.58794484839E+03  0.00000000000E+00 0.  1.
         21    1    1    2  504  505 -0.34725616399E+02 -0.99049427245E+01 -0.70701109599E+02  0.79389062366E+02  0.00000000000E+00 0.  1.
         21    1    1    2  505  501  0.96354248618E+02 -0.20482609470E+02  0.83532432146E+01  0.98860786916E+02  0.00000000000E+00 0.  1.
         -1    1    1    2    0  503 -0.45318500881E+02 -0.43844599691E+02  0.15530642254E+04  0.15543437856E+04  0.00000000000E+00 0.  1.
<scales pt_clust_3="14000.00000" pt_clust_4="36.11061" pt_clust_5="69.15917" pt_clust_6="63.47813"></scales>
<clustering>
<clus scale="   36.111">  2  4  1 -1</clus>
<clus scale="   63.478">  1  6  2 -1</clus>
<clus scale="   69.159">  2  5  1 -1</clus>
<clus scale="   36.111">  2  3  1 -1</clus>
</clustering>
</event>
<event>
 6    0  0.7258365E+002  0.6577099E+02  0.7546771E-02  0.1375095E+00
          1   -1    0    0  505    0 -0.00000000000E+00  0.00000000000E+00  0.18655501372E+03  0.18655501372E+03  0.00000000000E+00 0. -1.
         21   -1    0    0  501  502  0.00000000000E+00 -0.00000000000E+00 -0.50854893182E+03  0.50854893182E+03  0.00000000000E+00 0.  1.
         21    1    1    2  503  502 -0.38880752754E+02  0.32897137769E+02 -0.37482595691E+03  0.37827031681E+03  0.00000000000E+00 0.  1.
         21    1    1    2  504  503 -0.11250366904E+01 -0.63078615267E+02 -0.41003225195E+02  0.75242553704E+02  0.00000000000E+00 0.  1.
         21    1    1    2  505  504  0.75227436168E+02  0.67390472110E+02 -0.31819606866E+02  0.10589206894E+03  0.00000000000E+00 0.  1.
          1    1    1    2  501    0 -0.35221646724E+02 -0.37208994612E+02  0.12565487087E+03  0.13569900608E+03  0.00000000000E+00 0. -1.
<scales pt_clust_3="50.93068" pt_clust_4="14000.00000" pt_clust_5="65.77099" pt_clust_6="51.37986"></scales>
<clustering>
<clus scale="   50.931">  2  3  1 -1</clus>
<clus scale="   51.380">  1  6  2 -1</clus>
<clus scale="   65.771">  1  5  2 -1</clus>
<clus scale="   50.931">  2  3  1 -1</clus>
</clustering>
</event>
<event>
 6    0  0.7258365E+002  0.1116921E+03  0.7546771E-02  0.1257468E+00
         21   -1    0    0  504  502  0.00000000000E+00  0.00000000000E+00  0.55213982016E+02  0.55213982016E+02  0.00000000000E+00 0.  1.
          2   -1    0    0  503    0 -0.00000000000E+00 -0.00000000000E+00 -0.15459837279E+04  0.15459837279E+04  0.00000000000E+00 0.  1.
         21    1    1    2  503  502 -0.16894879522E+03  0.59145908524E+01 -0.16503924093E+03  0.23625543134E+03  0.00000000000E+00 0.  1.
         21    1    1    2  504  505  0.11595407403E+02  0.32500448658E+02 -0.18574074952E+02  0.39188377054E+02  0.00000000000E+00 0.  1.
         21    1    1    2  505  501  0.49942082217E+02 -0.45994175737E+02 -0.16345782092E+03  0.17699755647E+03  0.00000000000E+00 0.  1.
          2    1    1    2  501    0  0.10741130560E+03  0.75791362272E+01 -0.11436986091E+04  0.11487563450E+04  0.00000000000E+00 0.  1.
<scales pt_clust_3="111.69206" pt_clust_4="34.50699" pt_clust_5="66.03512" pt_clust_6="14000.00000"></scales>
<clustering>
<clus scale="   34.507">  1  4  2 -1</clus>
<clus scale="   66.035">  1  5  2 -1</clus>
<clus scale="  111.692">  1  3  2 -1</clus>
<clus scale="   34.507">  1  3  2 -1</clus>
</clustering>
</event>
<event>
 6    0  0.7258365E+002  0.7457221E+02  0.7546771E-02  0.1345201E+00
          2   -1    0    0  503    0 -0.00000000000E+00  0.00000000000E+00  0.11242519983E+04  0.11242519983E+04  0.00000000000E+00 0.  1.
         21   -1    0    0  504  502  0.00000000000E+00 -0.00000000000E+00 -0.62536722341E+03  0.62536722341E+03  0.00000000000E+00 0. -1.
         21    1    1    2  503  505  0.48065347922E+02 -0.49172112696E+02  0.11542874746E+02  0.69723828748E+02  0.00000000000E+00 0. -1.
         21    1    1    2  504  501 -0.34160043646E+02 -0.54295985046E+02 -0.25086114256E+03  0.25893295546E+03  0.00000000000E+00 0. -1.
         21    1    1    2  505  502  0.37737187361E+02  0.82253824160E+02 -0.33464350785E+03  0.34666419521E+03  0.00000000000E+00 0. -1.
          2    1    1    2  501    0 -0.51642491636E+02  0.21214273583E+02  0.10728465505E+04  0.10742982423E+04  0.00000000000E+00 0.  1.
<scales pt_clust_3="32.84546" pt_clust_4="14000.00000" pt_clust_5="74.57221" pt_clust_6="55.83003"></scales>
<clustering>
<clus scale="   55.830">  1  6  2 -1</clus>
<clus scale="   32.845">  1  3  2 -1</clus>
<clus scale="   74.572">  1  5  2 -1</clus>
<clus scale="   74.572">  2  3  1 -1</clus>
</clustering>
</event>
<event>
 6    0  0.7258365E+002  0.7572280E+02  0.7546771E-02  0.1341647E+00
          1   -1    0    0  504    0 -0.00000000000E+00  0.00000000000E+00  0.73425765160E+03  0.73425765160E+03  0.00000000000E+00 0. -1.
         21   -1    0    0  503  502  0.00000000000E+00 -0.00000000000E+00 -0.16828864471E+03  0.16828864471E+03  0.00000000000E+00 0.  1.
         21    1    1    2  503  501  0.48748886848E+02 -0.11997376699E+02 -0.66112159559E+01  0.50636935067E+02  0.00000000000E+00 0. -1.
         21    1    1    2  504  505 -0.16817378678E+02 -0.41017299319E+02  0.25369546689E+03  0.25753957558E+03  0.00000000000E+00 0. -1.
         21    1    1    2  505  502 -0.94496654888E+02  0.13652380449E+02 -0.11770883753E+03  0.15156310801E+03  0.00000000000E+00 0.  1.
          1    1    1    2  501    0  0.62565146718E+02  0.39362295569E+02  0.43659359349E+03  0.44280667765E+03  0.00000000000E+00 0. -1.
<scales pt_clust_3="14000.00000" pt_clust_4="44.33106" pt_clust_5="75.72280" pt_clust_6="47.14597"></scales>
<clustering>
<clus scale="   44.331">  1  4  2 -1</clus>
<clus scale="   47.146">  1  6  2 -1</clus>
<clus scale="   75.723">  2  5  1 -1</clus>
<clus scale="   75.723">  2  3  1 -1</clus>
</clustering>
</event>
<event>
 6    0  0.7258365E+002  0.8581363E+02  0.7546771E-02  0.1313318E+00
         21   -1    0    0  501  502  0.00000000000E+00  0.00000000000E+00  0.20340078341E+03  0.20340078341E+03  0.00000000000E+00 0.  1.
          2   -1    0    0  503    0 -0.00000000000E+00 -0.00000000000E+00 -0.73175803661E+03  0.73175803661E+03  0.00000000000E+00 0. -1.
         21    1    1    2  503  505 -0.28982410582E+02 -0.34136846587E+02 -0.39395646909E+02  0.59643284730E+02  0.00000000000E+00 0.  1.
         21    1    1    2  504  502 -0.25267088798E+01  0.51363874702E+02  0.16031089736E+03  0.16835740464E+03  0.00000000000E+00 0.  1.
         21    1    1    2  505  504 -0.63288597467E+02  0.21584350941E+02 -0.20275005739E+02  0.69874220086E+02  0.00000000000E+00 0.  1.
          2    1    1    2  501    0  0.94797716928E+02 -0.38811379056E+02 -0.62899749792E+03  0.63728391057E+03  0.00000000000E+00 0. -1.
<scales pt_clust_3="44.78063" pt_clust_4="51.23363" pt_clust_5="14000.00000" pt_clust_6="85.81363"></scales>
<clustering>
<clus scale="   44.781">  2  3  1 -1</clus>
<clus scale="   51.234">  1  4  2 -1</clus>
<clus scale="   85.814">  2  6  1 -1</clus>
<clus scale="   51.234">  1  3  2 -1</clus>
</clustering>
</event>
<event>
 6    0  0.7258365E+002  0.1165643E+03  0.7546771E-02  0.1248875E+00
         21   -1    0    0  504  502  0.00000000000E+00  0.00000000000E+00  0.11531866894E+04  0.11531866894E+04  0.00000000000E+00 0.  1.
         -1   -1    0    0    0  501 -0.00000000000E+00 -0.00000000000E+00 -0.96392110115E+02  0.96392110115E+02  0.00000000000E+00 0.  1.
         21    1    1    2  503  502  0.38275889846E+02 -0.39133982264E+02  0.61148433436E+03  0.61392964050E+03  0.00000000000E+00 0.  1.
         21    1    1    2  504  501  0.12461973986E+00  0.83816994976E+02  0.12623198914E+03  0.15152497899E+03  0.00000000000E+00 0.  1.
         21    1    1    2  505  503  0.79721974865E+02 -0.12927475738E+02  0.34898185419E+03  0.35820531468E+03  0.00000000000E+00 0. -1.
         -1    1    1    2    0  505 -0.11812248445E+03 -0.31755536974E+02 -0.29903598382E+02  0.12591886538E+03  0.00000000000E+00 0.  1.
<scales pt_clust_3="54.74041" pt_clust_4="74.43074" pt_clust_5="14000.00000" pt_clust_6="116.56430"></scales>
<clustering>
<clus scale="   54.740">  1  3  2 -1</clus>
<clus scale="   74.431">  1  4  2 -1</clus>
<clus scale="  116.564">  2  6  1 -1</clus>
<clus scale="   54.740">  1  3  2 -1</clus>
</clustering>
</event>
<event>
 6    0  0.7258365E+002  0.1569234E+03  0.7546771E-02  0.1192215E+00
         21   -1    0    0  503  502  0.00000000000E+00  0.00000000000E+00  0.11786039388E+03  0.11786039388E+03  0.00000000000E+00 0. -1.
          2   -1    0    0  504    0 -0.00000000000E+00 -0.00000000000E+00 -0.24494900051E+04  0.24494900051E+04  0.00000000000E+00 0. -1.
         21    1    1    2  503  505 -0.13767250136E+01  0.96229454366E+02 -0.14974061849E+02  0.97397257598E+02  0.00000000000E+00 0. -1.
         21    1    1    2  504  502  0.89253793930E+02  0.81964885730E+02 -0.52331092375E+03  0.53715808207E+03  0.00000000000E+00 0. -1.
         21    1    1    2  505  501 -0.12254725718E+03 -0.19726168673E+03 -0.12452802490E+03  0.26350945387E+03  0.00000000000E+00 0. -1.
          2    1    1    2  501    0  0.34670188268E+02  0.19067346632E+02 -0.16688166007E+04  0.16692856055E+04  0.00000000000E+00 0. -1.
<scales pt_clust_3="97.60858" pt_clust_4="156.92336" pt_clust_5="14000.00000" pt_clust_6="39.56748"></scales>
<clustering>
<clus scale="   39.567">  2  6  1 -1</clus>
<clus scale="   97.609">  1  3  2 -1</clus>
<clus scale="  156.923">  2  4  1 -1</clus>
<clus scale="   97.609">  1  3  2 -1</clus>
</clustering>
</event>
<event>
 6    0  0.7258365E+002  0.7445859E+02  0.7546771E-02  0.1345556E+00
         -2   -1    0    0    0  501 -0.00000000000E+00  0.00000000000E+00  0.65434376119E+03  0.65434376119E+03  0.00000000000E+00 0.  1.
         21   -1    0    0  503  502  0.00000000000E+00 -0.00000000000E+00 -0.90515460847E+02  0.90515460847E+02  0.00000000000E+00 0.  1.
         21    1    1    2  503  505  0.25005801830E+02 -0.35340983091E+02 -0.21843686861E+02  0.48491461791E+02  0.00000000000E+00 0.  1.
         21    1    1    2  504  502  0.40498533741E+02  0.61025416352E+02  0.79983510927E+01  0.73676361856E+02  0.00000000000E+00 0.  1.
         21    1    1    2  505  501 -0.10563361306E+03  0.32877634052E+01  0.11050158457E+03  0.15290477360E+03  0.00000000000E+00 0.  1.
         -2    1    1    2    0  504  0.40129277494E+02 -0.28972196666E+02  0.46717205154E+03  0.46978662479E+03  0.00000000000E+00 0.  1.
<scales pt_clust_3="43.29290" pt_clust_4="14000.00000" pt_clust_5="74.45859" pt_clust_6="50.46349"></scales>
<clustering>
<clus scale="   43.293">  2  3  1 -1</clus>
<clus scale="   50.463">  1  6  2 -1</clus>
<clus scale="   74.459">  1  5  2 -1</clus>
<clus scale="   43.293">  2  3  1 -1</clus>
</clustering>
</event>
<event>
 6    0  0.7258365E+002  0.1029904E+03  0.7546771E-02  0.1274130E+00
         21   -1    0    0  504  502  0.00000000000E+00  0.00000000000E+00  0.67189427755E+02  0.67189427755E+02  0.00000000000E+00 0.  1.
         -1   -1    0    0    0  501 -0.00000000000E+00 -0.00000000000E+00 -0.76173562372E+03  0.76173562372E+03  0.00000000000E+00 0.  1.
         21    1    1    2  503  501 -0.61299231377E+02  0.60653610715E+02 -0.84668604133E+02  0.12085209467E+03  0.00000000000E+00 0.  1.
         21    1    1    2  504  503  0.27002774214E+02  0.76918222682E+02 -0.19607458012E+02  0.83845185941E+02  0.00000000000E+00 0.  1.
         21    1    1    2  505  502 -0.12519915896E+02 -0.39123462363E+02 -0.24031717406E+02  0.47591144583E+02  0.00000000000E+00 0.  1.
         -1    1    1    2    0  505  0.46816373059E+02 -0.98448371034E+02 -0.56623841642E+03  0.57663662628E+03  0.00000000000E+00 0.  1.
<scales pt_clust_3="14000.00000" pt_clust_4="57.72215" pt_clust_5="41.07790" pt_clust_6="102.99042"></scales>
<clustering>
<clus scale="   41.078">  1  5  2 -1</clus>
<clus scale="   57.722">  1  4  2 -1</clus>
<clus scale="  102.990">  2  6  1 -1</clus>
<clus scale="   41.078">  1  3  2 -1</clus>
</clustering>
</event>
<event>
 6    0  0.7258365E+002  0.1557380E+03  0.7546771E-02  0.1193594E+00
          1   -1    0    0  504    0 -0.00000000000E+00  0.00000000000E+00  0.87256363899E+03  0.87256363899E+03  0.00000000000E+00 0.  1.
         21   -1    0    0  503  502  0.00000000000E+00 -0.00000000000E+00 -0.29018906061E+03  0.29018906061E+03  0.00000000000E+00 0.  1.
         21    1    1    2  503  505  0.45140743697E+02  0.53783691603E+01 -0.18774017115E+02  0.49184116491E+02  0.00000000000E+00 0. -1.
         21    1    1    2  504  502 -0.15549438604E+03  0.10469692579E+01  0.59560229094E+03  0.61556615339E+03  0.00000000000E+00 0.  1.
         21    1    1    2  505  501  0.10880711646E+03 -0.40931997119E+02 -0.23118306917E+03  0.25876635881E+03  0.00000000000E+00 0.  1.
          1    1    1    2  501    0  0.15465258830E+01  0.34506658701E+02  0.23672937372E+03  0.23923607090E+03  0.00000000000E+00 0.  1.
<scales pt_clust_3="45.60195" pt_clust_4="155.73801" pt_clust_5="14000.00000" pt_clust_6="34.54130"></scales>
<clustering>
<clus scale="   34.541">  1  6  2 -1</clus>
<clus scale="   45.602">  2  3  1 -1</clus>
<clus scale="  155.738">  1  4  2 -1</clus>
<clus scale="   45.602">  2  3  1 -1</clus>
</clustering>
</event>
<event>
 6    0  0.7258365E+002  0.1267504E+03  0.7546771E-02  0.1232359E+00
         21   -1    0    0  504  502  0.00000000000E+00  0.00000000000E+00  0.36108884552E+03  0.36108884552E+03  0.00000000000E+00 0. -1.
          1   -1    0    0  503    0 -0.00000000000E+00 -0.00000000000E+00 -0.23437453148E+03  0.23437453148E+03  0.00000000000E+00 0. -1.
         21    1    1    2  503  502  0.37070808895E+02  0.11188435034E+03  0.70538227887E+02  0.13736081798E+03  0.00000000000E+00 0.  1.
         21    1    1    2  504  505 -0.57937576731E+02 -0.25491650506E+02  0.12785382864E+03  0.14266460157E+03  0.00000000000E+00 0. -1.
         21    1    1    2  505  501 -0.34180050502E+02 -0.59039537301E+02  0.10676815209E+03  0.12670193810E+03  0.00000000000E+00 0. -1.
          1    1    1    2  501    0  0.55046818338E+02 -0.27353162533E+02 -0.17844589458E+03  0.18873601936E+03  0.00000000000E+00 0. -1.
<scales pt_clust_3="119.10495" pt_clust_4="41.76191" pt_clust_5="41.76191" pt_clust_6="61.46827"></scales>
<clustering>
<clus scale="   41.762">  4  5 -1 -1</clus>
<clus scale="   61.468">  2  6  1 -1</clus>
<clus scale="  119.105">  2  3  1 -1</clus>
<clus scale="  126.750">  1  3  2 -1</clus>
</clustering>
</event>
<event>
 6    0  0.7258365E+002  0.1505254E+03  0.7546771E-02  0.1199829E+00
          2   -1    0    0  504    0 -0.00000000000E+00  0.00000000000E+00  0.76737556946E+03  0.76737556946E+03  0.00000000000E+00 0.  1.
         21   -1    0    0  503  502  0.00000000000E+00 -0.00000000000E+00 -0.58272282311E+03  0.58272282311E+03  0.00000000000E+00 0.  1.
         21    1    1    2  503  505  0.33163087468E+02  0.24050787683E+02 -0.20905680819E+03  0.21303281393E+03  0.00000000000E+00 0.  1.
         21    1    1    2  504  502 -0.61075083430E+01 -0.43046268496E+02 -0.23703505771E+03  0.24098942191E+03  0.00000000000E+00 0.  1.
         21    1    1    2  505  501  0.67272094280E+02  0.13644586136E+03 -0.78376573958E+02  0.17113122186E+03  0.00000000000E+00 0.  1.
          2    1    1    2  501    0 -0.94327673405E+02 -0.11745038054E+03  0.70912118621E+03  0.72494493487E+03  0.00000000000E+00 0.  1.
<scales pt_clust_3="40.96621" pt_clust_4="31.50021" pt_clust_5="150.52539" pt_clust_6="14000.00000"></scales>
<clustering>
<clus scale="   40.966">  2  3  1 -1</clus>
<clus scale="   31.500">  2  4  1 -1</clus>
<clus scale="  150.525">  2  5  1 -1</clus>
<clus scale="   40.966">  2  3  1 -1</clus>
</clustering>
</event>
<event>
 6    0  0.7258365E+002  0.1708671E+03  0.7546771E-02  0.1176947E+00
         21   -1    0    0  503  502  0.00000000000E+00  0.00000000000E+00  0.93768325357E+02  0.93768325357E+02  0.00000000000E+00 0.  1.
          2   -1    0    0  505    0 -0.00000000000E+00 -0.00000000000E+00 -0.86986016407E+03  0.86986016407E+03  0.00000000000E+00 0.  1.
         21    1    1    2  503  501  0.15950687408E+03 -0.30554423910E+02 -0.26809789424E+03  0.31345254281E+03  0.00000000000E+00 0.  1.
         21    1    1    2  504  502 -0.48552994148E+02 -0.11014503963E+01  0.10998855053E+02  0.49795393825E+02  0.00000000000E+00 0.  1.
         21    1    1    2  505  504 -0.86365885974E+02  0.76657508957E+02 -0.45501186915E+02  0.12412009487E+03  0.00000000000E+00 0.  1.
          2    1    1    2  501    0 -0.24587993955E+02 -0.45001634651E+02 -0.47349161261E+03  0.47626045792E+03  0.00000000000E+00 0.  1.
<scales pt_clust_3="155.08449" pt_clust_4="46.51338" pt_clust_5="46.51338" pt_clust_6="51.28076"></scales>
<clustering>
<clus scale="   46.513">  4  5 -1 -1</clus>
<clus scale="   51.281">  2  6  1 -1</clus>
<clus scale="  155.084">  2  3  1 -1</clus>
<clus scale="  170.867">  1  3  2 -1</clus>
</clustering>
</event>
<event>
 6    0  0.7258365E+002  0.1392561E+03  0.7546771E-02  0.1214333E+00
         21   -1    0    0  503  502  0.00000000000E+00  0.00000000000E+00  0.97561360756E+03  0.97561360756E+03  0.00000000000E+00 0. -1.
          1   -1    0    0  504    0 -0.00000000000E+00 -0.00000000000E+00 -0.20187611312E+04  0.20187611312E+04  0.00000000000E+00 0. -1.
         21    1    1    2  503  501 -0.94778935424E+02  0.13084550367E+03 -0.40043465797E+03  0.43180031002E+03  0.00000000000E+00 0. -1.
         21    1    1    2  504  505  0.10289257729E+03 -0.12674944713E+03  0.13228165580E+03  0.21012077782E+03  0.00000000000E+00 0. -1.
         21    1    1    2  505  502 -0.34903320861E+02  0.96715310021E+01  0.78816861694E+03  0.78900034793E+03  0.00000000000E+00 0. -1.
          1    1    1    2  501    0  0.26789679000E+02 -0.13767587539E+02 -0.15631631385E+04  0.15634533030E+04  0.00000000000E+00 0. -1.
<scales pt_clust_3="139.25611" pt_clust_4="14000.00000" pt_clust_5="36.19158" pt_clust_6="30.12031"></scales>
<clustering>
<clus scale="   30.120">  2  6  1 -1</clus>
<clus scale="   36.192">  1  5  2 -1</clus>
<clus scale="  139.256">  2  3  1 -1</clus>
<clus scale="   36.192">  1  3  2 -1</clus>
</clustering>
</event>
<event>
 6    0  0.7258365E+002  0.8915299E+02  0.7546771E-02  0.1304916E+00
          2   -1    0    0  503    0 -0.00000000000E+00  0.00000000000E+00  0.14461757586E+04  0.14461757586E+04  0.00000000000E+00 0.  1.
         21   -1    0    0  505  502  0.00000000000E+00 -0.00000000000E+00 -0.15270403402E+03  0.15270403402E+03  0.00000000000E+00 0.  1.
         21    1    1    2  503  504  0.45068442976E+02  0.99378933959E+02  0.33245987454E+03  0.34990985302E+03  0.00000000000E+00 0. -1.
         21    1    1    2  504  502 -0.32602145520E+01 -0.88546897288E+02 -0.11357553760E+03  0.14405063262E+03  0.00000000000E+00 0.  1.
         21    1    1    2  505  501 -0.76603457423E+02 -0.38920124955E+02  0.11136397297E+03  0.14065845261E+03  0.00000000000E+00 0.  1.
          2    1    1    2  501    0  0.34795228999E+02  0.28088088285E+02  0.96322341467E+03  0.96426085435E+03  0.00000000000E+00 0.  1.
<scales pt_clust_3="14000.00000" pt_clust_4="89.15299" pt_clust_5="74.53719" pt_clust_6="44.71743"></scales>
<clustering>
<clus scale="   44.717">  1  6  2 -1</clus>
<clus scale="   74.537">  1  5  2 -1</clus>
<clus scale="   89.153">  2  4  1 -1</clus>
<clus scale="   89.153">  2  3  1 -1</clus>
</clustering>
</event>
<event>
 6    0  0.7258365E+002  0.1058422E+03  0.7546771E-02  0.1268469E+00
         21   -1    0    0  504  502  0.00000000000E+00  0.00000000000E+00  0.73863137065E+02  0.73863137065E+02  0.00000000000E+00 0.  1.
          2   -1    0    0  505    0 -0.00000000000E+00 -0.00000000000E+00 -0.26162002841E+04  0.26162002841E+04  0.00000000000E+00 0. -1.
         21    1    1    2  503  502  0.87039100539E+02  0.94394466668E+02 -0.81608550984E+02  0.15213834479E+03  0.00000000000E+00 0.  1.
         21    1    1    2  504  501  0.31759649429E+02 -0.10180286464E+03 -0.70316392037E+02  0.12773759654E+03  0.00000000000E+00 0.  1.
         21    1    1    2  505  503 -0.73583750139E+02 -0.77191013466E+02 -0.31506044325E+03  0.33262005915E+03  0.00000000000E+00 0.  1.
          2    1    1    2  501    0 -0.45214999829E+02  0.84599411439E+02 -0.20753517608E+04  0.20775674207E+04  0.00000000000E+00 0. -1.
<scales pt_clust_3="14000.00000" pt_clust_4="89.41487" pt_clust_5="105.84220" pt_clust_6="95.92422"></scales>
<clustering>
<clus scale="   95.924">  2  6  1 -1</clus>
<clus scale="   89.415">  1  4  2 -1</clus>
<clus scale="  105.842">  2  5  1 -1</clus>
<clus scale="   89.415">  1  3  2 -1</clus>
</clustering>
</event>
<event>
 6    0  0.7258365E+002  0.2201685E+03  0.7546771E-02  0.1133757E+00
         21   -1    0    0  505  502  0.00000000000E+00  0.00000000000E+00  0.33455171422E+03  0.33455171422E+03  0.00000000000E+00 0.  1.
          1   -1    0    0  503    0 -0.00000000000E+00 -0.00000000000E+00 -0.14857579833E+04  0.14857579833E+04  0.00000000000E+00 0.  1.
         21    1    1    2  503  502 -0.90487996073E+02 -0.20479511531E+03  0.26129160602E+03  0.34409652725E+03  0.00000000000E+00 0.  1.
         21    1    1    2  504  501  0.89354513967E+02  0.11109467265E+03 -0.70827416119E+03  0.72248082526E+03  0.00000000000E+00 0.  1.
         21    1    1    2  505  504 -0.50829686328E+02  0.52811457101E+02 -0.34957902075E+02  0.81208139559E+02  0.00000000000E+00 0.  1.
          1    1    1    2  501    0  0.51963168433E+02  0.40888985558E+02 -0.66926581185E+03  0.67252420546E+03  0.00000000000E+00 0.  1.
<scales pt_clust_3="207.65654" pt_clust_4="49.82575" pt_clust_5="73.29875" pt_clust_6="49.82575"></scales>
<clustering>
<clus scale="   49.826">  4  6 -1 -1</clus>
<clus scale="   73.299">  1  5  2 -1</clus>
<clus scale="  207.657">  1  3  2 -1</clus>
<clus scale="   73.299">  1  3  2 -1</clus>
</clustering>
</event>
<event>
 6    0  0.7258365E+002  0.8285857E+02  0.7546771E-02  0.1321130E+00
         21   -1    0    0  505  502  0.00000000000E+00  0.00000000000E+00  0.47597569272E+03  0.47597569272E+03  0.00000000000E+00 0.  1.
          2   -1    0    0  503    0 -0.00000000000E+00 -0.00000000000E+00 -0.20586061054E+04  0.20586061054E+04  0.00000000000E+00 0.  1.
         21    1    1    2  503  504  0.94818522651E+01  0.29260893112E+02 -0.14864045189E+03  0.15178962193E+03  0.00000000000E+00 0.  1.
         21    1    1    2  504  502 -0.12276391514E+03 -0.25500498235E+02 -0.25931376580E+03  0.28803625363E+03  0.00000000000E+00 0.  1.
         21    1    1    2  505  501  0.82217512042E+02 -0.45141811786E+01  0.45620616126E+03  0.46357756491E+03  0.00000000000E+00 0.  1.
          2    1    1    2  501    0  0.31064550831E+02  0.75378630182E+00 -0.16308823562E+04  0.16311783576E+04  0.00000000000E+00 0.  1.
<scales pt_clust_3="30.75883" pt_clust_4="82.85857" pt_clust_5="14000.00000" pt_clust_6="46.88110"></scales>
<clustering>
<clus scale="   30.759">  2  3  1 -1</clus>
<clus scale="   46.881">  2  6  1 -1</clus>
<clus scale="   82.859">  2  4  1 -1</clus>
<clus scale="   82.859">  1  3  2 -1</clus>
</clustering>
</event>
<event>
 6    0  0.7258365E+002  0.8925876E+02  0.7546771E-02  0.1304657E+00
          1   -1    0    0  505    0 -0.00000000000E+00  0.00000000000E+00  0.22044648319E+04  0.22044648319E+04  0.00000000000E+00 0.  1.
         21   -1    0    0  503  502  0.00000000000E+00 -0.00000000000E+00 -0.13688996795E+03  0.13688996795E+03  0.00000000000E+00 0. -1.
         21    1    1    2  503  501  0.10271106495E+03  0.41242336089E+02  0.14195798471E+03  0.18000711812E+03  0.00000000000E+00 0. -1.
         21    1    1    2  504  502  0.23947752996E+02  0.20442374815E+02 -0.19493658670E+02  0.37032260125E+02  0.00000000000E+00 0.  1.
         21    1    1    2  505  504 -0.10150261576E+03 -0.39637172665E+02 -0.56281567298E+02  0.12264379838E+03  0.00000000000E+00 0. -1.
          1    1    1    2  501    0 -0.25156202191E+02 -0.22047538238E+02  0.20013921052E+04  0.20016716232E+04  0.00000000000E+00 0.  1.
<scales pt_clust_3="89.25876" pt_clust_4="31.48628" pt_clust_5="14000.00000" pt_clust_6="33.40988"></scales>
<clustering>
<clus scale="   31.486">  2  4  1 -1</clus>
<clus scale="   33.410">  1  6  2 -1</clus>
<clus scale="   89.259">  1  3  2 -1</clus>
<clus scale="   31.486">  2  3  1 -1</clus>
</clustering>
</event>
<event>
 6    0  0.7258365E+002  0.5488366E+02  0.7546771E-02  0.1420650E+00
         21   -1    0    0  501  502  0.00000000000E+00  0.00000000000E+00  0.36565262070E+02  0.36565262070E+02  0.00000000000E+00 0.  1.
          2   -1    0    0  505    0 -0.00000000000E+00 -0.00000000000E+00 -0.16028776485E+04  0.16028776485E+04  0.00000000000E+00 0.  1.
         21    1    1    2  503  504  0.37437137329E+02 -0.34314650681E+02 -0.78990888301E+02  0.93907374244E+02  0.00000000000E+00 0.  1.
         21    1    1    2  504  502 -0.32332436544E+02 -0.31220270695E+02 -0.18943072592E+02  0.48774293992E+02  0.00000000000E+00 0.  1.
         21    1    1    2  505  503 -0.16757065598E+01  0.11774989592E+03 -0.24065207590E+03  0.26792026355E+03  0.00000000000E+00 0.  1.
          2    1    1    2  501    0 -0.34289942245E+01 -0.52214974548E+02 -0.12277263496E+04  0.12288409788E+04  0.00000000000E+00 0.  1.
<scales pt_clust_3="52.18162" pt_clust_4="44.94543" pt_clust_5="54.88366" pt_clust_6="14000.00000"></scales>
<clustering>
<clus scale="   44.945">  1  4  2 -1</clus>
<clus scale="   52.182">  1  3  2 -1</clus>
<clus scale="   54.884">  1  5  2 -1</clus>
<clus scale="   44.945">  1  3  2 -1</clus>
</clustering>
</event>
<event>
 6    0  0.7258365E+002  0.1591939E+03  0.7546771E-02  0.1189610E+00
         21   -1    0    0  505  502  0.00000000000E+00  0.00000000000E+00  0.53532894558E+03  0.53532894558E+03  0.00000000000E+00 0.  1.
          2   -1    0    0  504    0 -0.00000000000E+00 -0.00000000000E+00 -0.19826748630E+04  0.19826748630E+04  0.00000000000E+00 0.  1.
         21    1    1    2  503  502 -0.16532105804E+03  0.42211359673E+02  0.46472245147E+03  0.49505535854E+03  0.00000000000E+00 0.  1.
         21    1    1    2  504  503 -0.87296850447E+02 -0.82411678252E+02 -0.13058219631E+03  0.17738132597E+03  0.00000000000E+00 0.  1.
         21    1    1    2  505  501  0.99871618486E+02 -0.27433621203E+02 -0.67869520952E+02  0.12382736218E+03  0.00000000000E+00 0.  1.
          2    1    1    2  501    0  0.15274629001E+03  0.67633939781E+02 -0.17136166517E+04  0.17217397619E+04  0.00000000000E+00 0.  1.
<scales pt_clust_3="72.69749" pt_clust_4="14000.00000" pt_clust_5="103.57096" pt_clust_6="159.19394"></scales>
<clustering>
<clus scale="  103.571">  1  5  2 -1</clus>
<clus scale="   72.697">  1  3  2 -1</clus>
<clus scale="  159.194">  2  6  1 -1</clus>
<clus scale="  103.571">  1  3  2 -1</clus>
</clustering>
</event>
<event>
 6    0  0.7258365E+002  0.1861442E+03  0.7546771E-02  0.1161986E+00
          3   -1    0    0  504    0 -0.00000000000E+00  0.00000000000E+00  0.24544314117E+03  0.24544314117E+03  0.00000000000E+00 0. -1.
         21   -1    0    0  503  502  0.00000000000E+00 -0.00000000000E+00 -0.39379305098E+03  0.39379305098E+03  0.00000000000E+00 0. -1.
         21    1    1    2  503  501  0.17083007868E+02  0.40591884442E+02 -0.12691712780E+03  0.13434093780E+03  0.00000000000E+00 0. -1.
         21    1    1    2  504  505  0.13713756583E+03 -0.14257341750E+03  0.13591540373E+03  0.24001435022E+03  0.00000000000E+00 0. -1.
         21    1    1    2  505  502 -0.15427090666E+03  0.59718991408E+02 -0.98839332330E+02  0.19270465534E+03  0.00000000000E+00 0. -1.
          3    1    1    2  501    0  0.50332956565E-01  0.42262541655E+02 -0.58508853418E+02  0.72176248786E+02  0.00000000000E+00 0. -1.
<scales pt_clust_3="32.61012" pt_clust_4="14000.00000" pt_clust_5="186.14420" pt_clust_6="90.92059"></scales>
<clustering>
<clus scale="   32.610">  3  6 -1 -1</clus>
<clus scale="   90.921">  2  3  1 -1</clus>
<clus scale="  186.144">  2  5  1 -1</clus>
<clus scale="   90.921">  2  3  1 -1</clus>
</clustering>
</event>
<event>
 6    0  0.7258365E+002  0.1692671E+03  0.7546771E-02  0.1178614E+00
          2   -1    0    0  503    0 -0.00000000000E+00  0.00000000000E+00  0.86515921814E+02  0.86515921814E+02  0.00000000000E+00 0.  1.
         21   -1    0    0  505  502  0.00000000000E+00 -0.00000000000E+00 -0.33949525443E+04  0.33949525443E+04  0.00000000000E+00 0.  1.
         21    1    1    2  503  502 -0.87117260695E+02  0.76868429018E+02 -0.60366213137E+03  0.61474071066E+03  0.00000000000E+00 0.  1.
         21    1    1    2  504  501  0.32889330173E+02  0.90157516520E+01 -0.41321726721E+03  0.41462211921E+03  0.00000000000E+00 0. -1.
         21    1    1    2  505  504  0.61990529011E+02  0.77097289468E+02 -0.22867290758E+04  0.22888679918E+04  0.00000000000E+00 0.  1.
          2    1    1    2  501    0 -0.77625984884E+01 -0.16298147014E+03 -0.48281480746E+01  0.16323764442E+03  0.00000000000E+00 0.  1.
<scales pt_clust_3="116.18164" pt_clust_4="30.68211" pt_clust_5="30.68211" pt_clust_6="160.99836"></scales>
<clustering>
<clus scale="   30.682">  4  5 -1 -1</clus>
<clus scale="  116.182">  2  3  1 -1</clus>
<clus scale="  160.998">  1  6  2 -1</clus>
<clus scale="  116.182">  2  3  1 -1</clus>
</clustering>
</event>
<event>
 6    0  0.7258365E+002  0.9778123E+02  0.7546771E-02  0.1285032E+00
          2   -1    0    0  504    0 -0.00000000000E+00  0.00000000000E+00  0.78044378857E+03  0.78044378857E+03  0.00000000000E+00 0.  1.
         21   -1    0    0  505  502  0.00000000000E+00 -0.00000000000E+00 -0.10934243007E+03  0.10934243007E+03  0.00000000000E+00 0.  1.
         21    1    1    2  503  501 -0.60221053259E+02  0.10104709968E+03  0.37998435160E+02  0.12361623148E+03  0.00000000000E+00 0.  1.
         21    1    1    2  504  502 -0.36308323884E+02 -0.95793575528E+02  0.24163462650E+02  0.10525481663E+03  0.00000000000E+00 0.  1.
         21    1    1    2  505  503  0.33106223078E+02  0.94133310735E+01 -0.12092353992E+02  0.36480924241E+02  0.00000000000E+00 0.  1.
          2    1    1    2  501    0  0.63423154066E+02 -0.14666855226E+02  0.62103181468E+03  0.62443424631E+03  0.00000000000E+00 0.  1.
<scales pt_clust_3="14000.00000" pt_clust_4="97.78123" pt_clust_5="34.41850" pt_clust_6="65.70051"></scales>
<clustering>
<clus scale="   34.418">  2  5  1 -1</clus>
<clus scale="   65.701">  1  6  2 -1</clus>
<clus scale="   97.781">  2  4  1 -1</clus>
<clus scale="   34.418">  2  3  1 -1</clus>
</clustering>
</event>
<event>
 6    0  0.7258365E+002  0.6947404E+02  0.7546771E-02  0.1361891E+00
          1   -1    0    0  504    0 -0.00000000000E+00  0.00000000000E+00  0.19738072871E+04  0.19738072871E+04  0.00000000000E+00 0.  1.
         21   -1    0    0  503  502  0.00000000000E+00 -0.00000000000E+00 -0.13191529299E+02  0.13191529299E+02  0.00000000000E+00 0.  1.
         21    1    1    2  503  501 -0.56294654811E+02 -0.32724253907E+00  0.19445384111E+03  0.20243885884E+03  0.00000000000E+00 0.  1.
         21    1    1    2  504  505  0.18573088159E+02 -0.32902839071E+02  0.64046515670E+03  0.64157865719E+03  0.00000000000E+00 0. -1.
         21    1    1    2  505  502  0.74095782956E+02  0.72223706978E+02  0.33804106666E+03  0.35352257587E+03  0.00000000000E+00 0.  1.
          1    1    1    2  501    0 -0.36374216305E+02 -0.38993625368E+02  0.78765569335E+03  0.78945872450E+03  0.00000000000E+00 0.  1.
<scales pt_clust_3="53.78373" pt_clust_4="37.78302" pt_clust_5="69.47404" pt_clust_6="14000.00000"></scales>
<clustering>
<clus scale="   37.783">  1  4  2 -1</clus>
<clus scale="   53.784">  2  3  1 -1</clus>
<clus scale="   69.474">  2  5  1 -1</clus>
<clus scale="   53.784">  2  3  1 -1</clus>
</clustering>
</event>
<event>
 6    0  0.7258365E+002  0.7254409E+02  0.7546771E-02  0.1351649E+00
         21   -1    0    0  501  502  0.00000000000E+00  0.00000000000E+00  0.17566424925E+02  0.17566424925E+02  0.00000000000E+00 0. -1.
          1   -1    0    0  503    0 -0.00000000000E+00 -0.00000000000E+00 -0.24901476215E+04  0.24901476215E+04  0.00000000000E+00 0. -1.
         21    1    1    2  503  505 -0.25185703346E+02 -0.10028854384E+03 -0.13970060592E+04  0.14008276272E+04  0.00000000000E+00 0. -1.
         21    1    1    2  504  502 -0.46370248313E+02  0.47213833479E+02 -0.16316242343E+03  0.17607192400E+03  0.00000000000E+00 0. -1.
         21    1    1    2  505  504  0.93193178198E+02  0.23498410785E+01 -0.26241906625E+03  0.27848564873E+03  0.00000000000E+00 0. -1.
          1    1    1    2  501    0 -0.21637226539E+02  0.50724869282E+02 -0.64999364773E+03  0.65232884654E+03  0.00000000000E+00 0. -1.
<scales pt_clust_3="72.54409" pt_clust_4="70.93719" pt_clust_5="14000.00000" pt_clust_6="55.14691"></scales>
<clustering>
<clus scale="   55.147">  2  6  1 -1</clus>
<clus scale="   70.937">  1  4  2 -1</clus>
<clus scale="   72.544">  2  3  1 -1</clus>
<clus scale="   70.937">  1  3  2 -1</clus>
</clustering>
</event>
<event>
 6    0  0.7258365E+002  0.1303857E+03  0.7546771E-02  0.1226885E+00
         21   -1    0    0  505  502  0.00000000000E+00  0.00000000000E+00  0.15045623016E+03  0.15045623016E+03  0.00000000000E+00 0. -1.
          2   -1    0    0  503    0 -0.00000000000E+00 -0.00000000000E+00 -0.11793927681E+04  0.11793927681E+04  0.00000000000E+00 0. -1.
         21    1    1    2  503  502 -0.82986357872E+01 -0.11000277985E+03 -0.29758540811E+03  0.31737446976E+03  0.00000000000E+00 0. -1.
         21    1    1    2  504  501 -0.61701655463E+02  0.19216486633E+03 -0.31309878636E+03  0.37251212082E+03  0.00000000000E+00 0. -1.
         21    1    1    2  505  504  0.33559864712E+02 -0.89736477461E+02  0.89345425158E+02  0.13100192710E+03  0.00000000000E+00 0. -1.
          2    1    1    2  501    0  0.36440426538E+02  0.75743909799E+01 -0.50759776858E+03  0.50896048054E+03  0.00000000000E+00 0. -1.
<scales pt_clust_3="14000.00000" pt_clust_4="130.38571" pt_clust_5="95.98934" pt_clust_6="37.21930"></scales>
<clustering>
<clus scale="   37.219">  2  6  1 -1</clus>
<clus scale="   95.989">  1  5  2 -1</clus>
<clus scale="  130.386">  1  4  2 -1</clus>
<clus scale="   95.989">  1  3  2 -1</clus>
</clustering>
</event>
<event>
 6    0  0.7258365E+002  0.1304821E+03  0.7546771E-02  0.1226742E+00
         21   -1    0    0  505  502  0.00000000000E+00  0.00000000000E+00  0.15016211787E+04  0.15016211787E+04  0.00000000000E+00 0.  1.
         -2   -1    0    0    0  501 -0.00000000000E+00 -0.00000000000E+00 -0.12395375575E+03  0.12395375575E+03  0.00000000000E+00 0. -1.
         21    1    1    2  503  501 -0.36455240880E+02  0.27539894829E+02  0.23024942286E+02  0.51162274794E+02  0.00000000000E+00 0. -1.
         21    1    1    2  504  502 -0.73209045361E+00 -0.58079304159E+02  0.26292671748E+03  0.26926603999E+03  0.00000000000E+00 0.  1.
         21    1    1    2  505  503 -0.63468613715E+02 -0.59638755054E+02  0.11533347881E+04  0.11566184243E+04  0.00000000000E+00 0.  1.
         -2    1    1    2    0  504  0.10065594505E+03  0.90178164385E+02 -0.61619024855E+02  0.14852819540E+03  0.00000000000E+00 0. -1.
<scales pt_clust_3="45.68841" pt_clust_4="57.31267" pt_clust_5="14000.00000" pt_clust_6="130.48214"></scales>
<clustering>
<clus scale="   45.688">  2  3  1 -1</clus>
<clus scale="   57.313">  1  4  2 -1</clus>
<clus scale="  130.482">  2  6  1 -1</clus>
<clus scale="   57.313">  1  3  2 -1</clus>
</clustering>
</event>
<event>
 6    0  0.7258365E+002  0.1245205E+03  0.7546771E-02  0.1235821E+00
         21   -1    0    0  503  502  0.00000000000E+00  0.00000000000E+00  0.21572909751E+02  0.21572909751E+02  0.00000000000E+00 0. -1.
          1   -1    0    0  502    0 -0.00000000000E+00 -0.00000000000E+00 -0.46487437409E+04  0.46487437409E+04  0.00000000000E+00 0. -1.
         21    1    1    2  503  505  0.24271055308E+02 -0.43821543003E+02 -0.46176000675E+02  0.68129544218E+02  0.00000000000E+00 0. -1.
         21    1    1    2  504  501 -0.10090992184E+03  0.21056374144E+02 -0.12681559827E+04  0.12723387048E+04  0.00000000000E+00 0. -1.
         21    1    1    2  505  504  0.12212568906E+03  0.47015288262E+02 -0.50955598364E+03  0.52609164764E+03  0.00000000000E+00 0. -1.
          1    1    1    2  501    0 -0.45486822530E+02 -0.24250119403E+02 -0.28032828642E+04  0.28037567541E+04  0.00000000000E+00 0. -1.
<scales pt_clust_3="50.09403" pt_clust_4="14000.00000" pt_clust_5="124.52045" pt_clust_6="51.54149"></scales>
<clustering>
<clus scale="   50.094">  1  3  2 -1</clus>
<clus scale="   51.541">  2  6  1 -1</clus>
<clus scale="  124.520">  1  5  2 -1</clus>
<clus scale="   50.094">  1  3  2 -1</clus>
</clustering>
</event>
<event>
 6    0  0.7258365E+002  0.9626256E+02  0.7546771E-02  0.1288358E+00
         21   -1    0    0  505  502  0.00000000000E+00  0.00000000000E+00  0.31106046739E+03  0.31106046739E+03  0.00000000000E+00 0.  1.
          2   -1    0    0  503    0 -0.00000000000E+00 -0.00000000000E+00 -0.10202756764E+04  0.10202756764E+04  0.00000000000E+00 0. -1.
         21    1    1    2  503  502 -0.56628850831E+02  0.10636127061E+03 -0.41444980496E+03  0.43161115308E+03  0.00000000000E+00 0. -1.
         21    1    1    2  504  501  0.26567667072E+02 -0.31424483236E+02 -0.18216403154E+02  0.45001960226E+02  0.00000000000E+00 0. -1.
         21    1    1    2  505  504 -0.19108205816E+01 -0.96067925186E+02  0.28042596085E+03  0.29643113366E+03  0.00000000000E+00 0.  1.
          2    1    1    2  501    0  0.31972004341E+02  0.21131137809E+02 -0.55697496178E+03  0.55829189685E+03  0.00000000000E+00 0. -1.
<scales pt_clust_3="96.26256" pt_clust_4="41.53947" pt_clust_5="14000.00000" pt_clust_6="38.32407"></scales>
<clustering>
<clus scale="   38.324">  2  6  1 -1</clus>
<clus scale="   41.539">  2  4  1 -1</clus>
<clus scale="   96.263">  2  3  1 -1</clus>
<clus scale="   96.263">  1  3  2 -1</clus>
</clustering>
</event>
<event>
 6    0  0.7258365E+002  0.1514634E+03  0.7546771E-02  0.1198686E+00
         21   -1    0    0  504  502  0.00000000000E+00  0.00000000000E+00  0.25557468784E+03  0.25557468784E+03  0.00000000000E+00 0. -1.
          1   -1    0    0  505    0 -0.00000000000E+00 -0.00000000000E+00 -0.89121610764E+03  0.89121610764E+03  0.00000000000E+00 0. -1.
         21    1    1    2  503  502 -0.56373958447E+01 -0.98467179491E+02  0.87944668219E+02  0.13214321904E+03  0.00000000000E+00 0. -1.
         21    1    1    2  504  501 -0.38236154902E+01  0.37638886986E+02  0.80671261519E+02  0.89101954434E+02  0.00000000000E+00 0. -1.
         21    1    1    2  505  503  0.26421696242E+02 -0.97306369266E+02  0.48588845967E+01  0.10094673988E+03  0.00000000000E+00 0. -1.
          1    1    1    2  501    0 -0.16960684907E+02  0.15813466177E+03 -0.80911623414E+03  0.82459888214E+03  0.00000000000E+00 0. -1.
<scales pt_clust_3="74.64217" pt_clust_4="37.83260" pt_clust_5="151.46345" pt_clust_6="14000.00000"></scales>
<clustering>
<clus scale="   37.833">  1  4  2 -1</clus>
<clus scale="   74.642">  1  3  2 -1</clus>
<clus scale="  151.463">  1  5  2 -1</clus>
<clus scale="   37.833">  1  3  2 -1</clus>
</clustering>
</event>
<event>
 6    0  0.7258365E+002  0.1170653E+03  0.7546771E-02  0.1248018E+00
         21   -1    0    0  503  502  0.00000000000E+00  0.00000000000E+00  0.44535417093E+02  0.44535417093E+02  0.00000000000E+00 0.  1.
          2   -1    0    0  505    0 -0.00000000000E+00 -0.00000000000E+00 -0.88983857646E+03  0.88983857646E+03  0.00000000000E+00 0.  1.
         21    1    1    2  503  504 -0.84639642438E+02  0.22035946903E+02 -0.13409422823E+03  0.16009595270E+03  0.00000000000E+00 0.  1.
         21    1    1    2  504  501 -0.56761685625E+02 -0.66290505054E+02 -0.11156769998E+03  0.14164629079E+03  0.00000000000E+00 0.  1.
         21    1    1    2  505  502  0.12687017366E+03  0.79932239868E+02 -0.36105027294E+03  0.39095076867E+03  0.00000000000E+00 0.  1.
          2    1    1    2  501    0  0.14531154402E+02 -0.35677681717E+02 -0.23859095822E+03  0.24168098139E+03  0.00000000000E+00 0.  1.
<scales pt_clust_3="82.53857" pt_clust_4="14000.00000" pt_clust_5="117.06528" pt_clust_6="38.52339"></scales>
<clustering>
<clus scale="   38.523">  2  6  1 -1</clus>
<clus scale="   82.539">  1  3  2 -1</clus>
<clus scale="  117.065">  2  5  1 -1</clus>
<clus scale="   82.539">  1  3  2 -1</clus>
</clustering>
</event>
<event>
 6    0  0.7258365E+002  0.1109736E+03  0.7546771E-02  0.1258777E+00
         21   -1    0    0  505  502  0.00000000000E+00  0.00000000000E+00  0.11561948309E+03  0.11561948309E+03  0.00000000000E+00 0. -1.
          1   -1    0    0  503    0 -0.00000000000E+00 -0.00000000000E+00 -0.17524566024E+04  0.17524566024E+04  0.00000000000E+00 0. -1.
         21    1    1    2  503  502 -0.99733065617E+02  0.56894157022E+02  0.36107698301E+01  0.11487674760E+03  0.00000000000E+00 0. -1.
         21    1    1    2  504  501 -0.84782107720E+01 -0.57992080177E+02 -0.34388457795E+03  0.34884318020E+03  0.00000000000E+00 0.  1.
         21    1    1    2  505  504  0.12572890498E+03  0.49763638905E+02 -0.32284336499E+02  0.13901962339E+03  0.00000000000E+00 0. -1.
          1    1    1    2  501    0 -0.17517628587E+02 -0.48665715750E+02 -0.12642789747E+04  0.12653365343E+04  0.00000000000E+00 0. -1.
<scales pt_clust_3="110.97361" pt_clust_4="94.89287" pt_clust_5="14000.00000" pt_clust_6="51.72252"></scales>
<clustering>
<clus scale="   51.723">  2  6  1 -1</clus>
<clus scale="   94.893">  2  4  1 -1</clus>
<clus scale="  110.974">  1  3  2 -1</clus>
<clus scale="  110.974">  1  3  2 -1</clus>
</clustering>
</event>
<event>
 6    0  0.7258365E+002  0.1006793E+03  0.7546771E-02  0.1278874E+00
         21   -1    0    0  504  502  0.00000000000E+00  0.00000000000E+00  0.31672197992E+03  0.31672197992E+03  0.00000000000E+00 0. -1.
         -2   -1    0    0    0  501 -0.00000000000E+00 -0.00000000000E+00 -0.50467751667E+03  0.50467751667E+03  0.00000000000E+00 0. -1.
         21    1    1    2  503  505  0.10281305774E+02 -0.10436389606E+03 -0.17707913153E+02  0.10635364703E+03  0.00000000000E+00 0. -1.
         21    1    1    2  504  501  0.73056653296E+02  0.80353781253E+02  0.46688856054E+02  0.11821105715E+03  0.00000000000E+00 0. -1.
         21    1    1    2  505  502  0.15129361140E+02  0.48197238603E+02  0.18010277157E+03  0.18705314674E+03  0.00000000000E+00 0. -1.
         -2    1    1    2    0  503 -0.98467320210E+02 -0.24187123797E+02 -0.39703925123E+03  0.40978164567E+03  0.00000000000E+00 0. -1.
<scales pt_clust_3="89.63781" pt_clust_4="14000.00000" pt_clust_5="50.51605" pt_clust_6="100.67929"></scales>
<clustering>
<clus scale="   50.516">  1  5  2 -1</clus>
<clus scale="   89.638">  1  3  2 -1</clus>
<clus scale="  100.679">  2  6  1 -1</clus>
<clus scale="   50.516">  1  3  2 -1</clus>
</clustering>
</event>
<event>
 6    0  0.7258365E+002  0.9001922E+02  0.7546771E-02  0.1302805E+00
         -2   -1    0    0    0  501 -0.00000000000E+00  0.00000000000E+00  0.15499444538E+04  0.15499444538E+04  0.00000000000E+00 0. -1.
         21   -1    0    0  503  502  0.00000000000E+00 -0.00000000000E+00 -0.87724008484E+03  0.87724008484E+03  0.00000000000E+00 0. -1.
         21    1    1    2  503  501 -0.48377560318E+02  0.46738730683E+02 -0.20941856012E+02  0.70451817729E+02  0.00000000000E+00 0.  1.
         21    1    1    2  504  505  0.43862986850E+02  0.41736203987E+02 -0.11848715922E+03  0.13306043454E+03  0.00000000000E+00 0. -1.
         21    1    1    2  505  502  0.56991928944E+02 -0.14932091197E+02 -0.70319212631E+03  0.70565587492E+03  0.00000000000E+00 0. -1.
         -2    1    1    2    0  504 -0.52477355476E+02 -0.73542843473E+02  0.15153255105E+04  0.15180164114E+04  0.00000000000E+00 0. -1.
<scales pt_clust_3="54.22546" pt_clust_4="90.01922" pt_clust_5="58.91559" pt_clust_6="14000.00000"></scales>
<clustering>
<clus scale="   58.916">  2  5  1 -1</clus>
<clus scale="   54.225">  2  3  1 -1</clus>
<clus scale="   90.019">  2  4  1 -1</clus>
<clus scale="   58.916">  2  3  1 -1</clus>
</clustering>
</event>
<event>
 6    0  0.7258365E+002  0.1501079E+03  0.7546771E-02  0.1200340E+00
          2   -1    0    0  505    0 -0.00000000000E+00  0.00000000000E+00  0.29377284378E+04  0.29377284378E+04  0.00000000000E+00 0. -1.
         21   -1    0    0  503  502  0.00000000000E+00 -0.00000000000E+00 -0.23067866345E+03  0.23067866345E+03  0.00000000000E+00 0. -1.
         21    1    1    2  503  501 -0.15169586711E+03 -0.15454510857E+02 -0.13393527136E+03  0.20295106533E+03  0.00000000000E+00 0. -1.
         21    1    1    2  504  502  0.64632806074E+01  0.40372741476E+02 -0.40356081296E+02  0.57448633996E+02  0.00000000000E+00 0.  1.
         21    1    1    2  505  504 -0.11018639859E+03  0.51164952601E+02  0.11286826338E+04  0.11352019127E+04  0.00000000000E+00 0.  1.
          2    1    1    2  501    0  0.25541898509E+03 -0.76083183220E+02  0.17526584933E+04  0.17728054892E+04  0.00000000000E+00 0. -1.
<scales pt_clust_3="14000.00000" pt_clust_4="40.88682" pt_clust_5="121.68802" pt_clust_6="150.10789"></scales>
<clustering>
<clus scale="   40.887">  2  4  1 -1</clus>
<clus scale="  121.688">  1  5  2 -1</clus>
<clus scale="  150.108">  1  6  2 -1</clus>
<clus scale="   40.887">  2  3  1 -1</clus>
</clustering>
</event>
<event>
 6    0  0.7258365E+002  0.1491392E+03  0.7546771E-02  0.1201535E+00
         -2   -1    0    0    0  501 -0.00000000000E+00  0.00000000000E+00  0.95572113850E+02  0.95572113850E+02  0.00000000000E+00 0.  1.
         21   -1    0    0  503  502  0.00000000000E+00 -0.00000000000E+00 -0.32133209909E+03  0.32133209909E+03  0.00000000000E+00 0.  1.
         21    1    1    2  503  504 -0.33277594564E+02 -0.40320043031E+02 -0.49799834070E+02  0.72201991963E+02  0.00000000000E+00 0.  1.
         21    1    1    2  504  505  0.37986307337E+02  0.30731163833E+02 -0.13098900440E+02  0.50586017518E+02  0.00000000000E+00 0.  1.
         21    1    1    2  505  501  0.11391016911E+03 -0.11855051120E+02 -0.38252509539E+02  0.12074486884E+03  0.00000000000E+00 0.  1.
         -2    1    1    2    0  502 -0.11861888189E+03  0.21443930318E+02 -0.12460874119E+03  0.17337133462E+03  0.00000000000E+00 0.  1.
<scales pt_clust_3="52.27910" pt_clust_4="37.45630" pt_clust_5="37.45630" pt_clust_6="137.67364"></scales>
<clustering>
<clus scale="   37.456">  4  5 -1 -1</clus>
<clus scale="   52.279">  2  3  1 -1</clus>
<clus scale="  137.674">  2  6  1 -1</clus>
<clus scale="   52.279">  2  3  1 -1</clus>
</clustering>
</event>
<event>
 6    0  0.7258365E+002  0.1472782E+03  0.7546771E-02  0.1203858E+00
         21   -1    0    0  503  502  0.00000000000E+00  0.00000000000E+00  0.16854708340E+03  0.16854708340E+03  0.00000000000E+00 0. -1.
          2   -1    0    0  505    0 -0.00000000000E+00 -0.00000000000E+00 -0.23054466003E+04  0.23054466003E+04  0.00000000000E+00 0. -1.
         21    1    1    2  503  501  0.24298950480E+02  0.22564838248E+02 -0.39105251334E+02  0.51272132797E+02  0.00000000000E+00 0. -1.
         21    1    1    2  504  502  0.40214750340E+02  0.41311450327E+01  0.76359911741E+02  0.86400975836E+02  0.00000000000E+00 0. -1.
         21    1    1    2  505  504 -0.19820697164E+03 -0.83159649364E+02 -0.68392657362E+02  0.22556392989E+03  0.00000000000E+00 0. -1.
          2    1    1    2  501    0  0.13369327082E+03  0.56463666082E+02 -0.21057615200E+04  0.21107566452E+04  0.00000000000E+00 0. -1.
<scales pt_clust_3="33.16038" pt_clust_4="54.61278" pt_clust_5="147.27820" pt_clust_6="14000.00000"></scales>
<clustering>
<clus scale="   33.160">  1  3  2 -1</clus>
<clus scale="   54.613">  1  4  2 -1</clus>
<clus scale="  147.278">  1  5  2 -1</clus>
<clus scale="   33.160">  1  3  2 -1</clus>
</clustering>
</event>
<event>
 6    0  0.7258365E+002  0.8649548E+02  0.7546771E-02  0.1311567E+00
         21   -1    0    0  503  502  0.00000000000E+00  0.00000000000E+00  0.38485754811E+03  0.38485754811E+03  0.00000000000E+00 0. -1.
         -2   -1    0    0    0  501 -0.00000000000E+00 -0.00000000000E+00 -0.22465036433E+03  0.22465036433E+03  0.00000000000E+00 0. -1.
         21    1    1    2  503  501  0.14758970378E+02  0.55579950616E+02  0.21698936990E+03  0.22448016564E+03  0.00000000000E+00 0. -1.
         21    1    1    2  504  502  0.11046904371E+02  0.34056513069E+02  0.22060605887E+02  0.42054137854E+02  0.00000000000E+00 0.  1.
         21    1    1    2  505  504 -0.72641753817E+02 -0.14459341029E+02  0.11102445001E+03  0.13346282419E+03  0.00000000000E+00 0. -1.
         -2    1    1    2    0  505  0.46835879068E+02 -0.75177122655E+02 -0.18986724202E+03  0.20951078476E+03  0.00000000000E+00 0. -1.
<scales pt_clust_3="14000.00000" pt_clust_4="35.80335" pt_clust_5="68.86540" pt_clust_6="86.49548"></scales>
<clustering>
<clus scale="   35.803">  1  4  2 -1</clus>
<clus scale="   68.865">  1  5  2 -1</clus>
<clus scale="   86.495">  2  6  1 -1</clus>
<clus scale="   35.803">  1  3  2 -1</clus>
</clustering>
</event>
<event>
 6    0  0.7258365E+002  0.8988021E+02  0.7546771E-02  0.1303142E+00
          1   -1    0    0  503    0 -0.00000000000E+00  0.00000000000E+00  0.16638058172E+04  0.16638058172E+04  0.00000000000E+00 0.  1.
         21   -1    0    0  504  502  0.00000000000E+00 -0.00000000000E+00 -0.10814319692E+03  0.10814319692E+03  0.00000000000E+00 0.  1.
         21    1    1    2  503  505 -0.13456237460E+00 -0.90276275923E+02  0.10044764840E+04  0.10085250770E+04  0.00000000000E+00 0.  1.
         21    1    1    2  504  501  0.41842529377E+02  0.30909538061E+02 -0.21644643593E+01  0.52066128277E+02  0.00000000000E+00 0.  1.
         21    1    1    2  505  502  0.36263753960E+02  0.32614616484E+02 -0.68487752919E+02  0.84079399139E+02  0.00000000000E+00 0.  1.
          1    1    1    2  501    0 -0.77971720963E+02  0.26752121379E+02  0.62183835361E+03  0.62727840971E+03  0.00000000000E+00 0.  1.
<scales pt_clust_3="14000.00000" pt_clust_4="89.88021" pt_clust_5="48.77267" pt_clust_6="80.49087"></scales>
<clustering>
<clus scale="   48.773">  2  5  1 -1</clus>
<clus scale="   80.491">  1  6  2 -1</clus>
<clus scale="   89.880">  2  4  1 -1</clus>
<clus scale="   48.773">  2  3  1 -1</clus>
</clustering>
</event>
<event>
 6    0  0.7258365E+002  0.1402411E+03  0.7546771E-02  0.1213005E+00
         21   -1    0    0  504  502  0.00000000000E+00  0.00000000000E+00  0.64488415558E+02  0.64488415558E+02  0.00000000000E+00 0. -1.
          1   -1    0    0  503    0 -0.00000000000E+00 -0.00000000000E+00 -0.95274426171E+03  0.95274426171E+03  0.00000000000E+00 0. -1.
         21    1    1    2  503  505 -0.32684165295E+02 -0.53793236554E+01 -0.58195917118E+02  0.66962351760E+02  0.00000000000E+00 0.  1.
         21    1    1    2  504  501  0.12818696583E+03  0.30557487434E+02 -0.12136046973E+03  0.17914804453E+03  0.00000000000E+00 0. -1.
         21    1    1    2  505  502 -0.97171100429E+02  0.31371888620E+02 -0.56941383308E+02  0.11691338370E+03  0.00000000000E+00 0. -1.
          1    1    1    2  501    0  0.16682998935E+01 -0.56550052399E+02 -0.65175807600E+03  0.65420889728E+03  0.00000000000E+00 0. -1.
<scales pt_clust_3="31.27734" pt_clust_4="129.04216" pt_clust_5="31.27734" pt_clust_6="56.57466"></scales>
<clustering>
<clus scale="   31.277">  3  5 -1 -1</clus>
<clus scale="   56.575">  2  6  1 -1</clus>
<clus scale="  129.042">  2  4  1 -1</clus>
<clus scale="  140.241">  1  3  2 -1</clus>
</clustering>
</event>
<event>
 6    0  0.7258365E+002  0.2365251E+03  0.7546771E-02  0.1122130E+00
          3   -1    0    0  505    0 -0.00000000000E+00  0.00000000000E+00  0.39697650029E+03  0.39697650029E+03  0.00000000000E+00 0.  1.
         21   -1    0    0  501  502  0.00000000000E+00 -0.00000000000E+00 -0.10117160747E+04  0.10117160747E+04  0.00000000000E+00 0. -1.
         21    1    1    2  503  504  0.14522566683E+03  0.59941367616E+02 -0.72251214476E+03  0.73939655205E+03  0.00000000000E+00 0. -1.
         21    1    1    2  504  502  0.67750772376E+02 -0.34898248568E+02 -0.20578711299E+03  0.21944564426E+03  0.00000000000E+00 0. -1.
         21    1    1    2  505  503 -0.83924327638E+02 -0.63242542827E+02 -0.37769834241E+01  0.10515311501E+03  0.00000000000E+00 0.  1.
          3    1    1    2  501    0 -0.12905211157E+03  0.38199423779E+02  0.31733666679E+03  0.34469726365E+03  0.00000000000E+00 0.  1.
<scales pt_clust_3="75.18304" pt_clust_4="75.18304" pt_clust_5="105.08526" pt_clust_6="210.45525"></scales>
<clustering>
<clus scale="   75.183">  3  4 -1 -1</clus>
<clus scale="  105.085">  1  5  2 -1</clus>
<clus scale="  210.455">  1  6  2 -1</clus>
<clus scale="  236.525">  2  3  1 -1</clus>
</clustering>
</event>
<event>
 6    0  0.7258365E+002  0.8860809E+02  0.7546771E-02  0.1306258E+00
         -2   -1    0    0    0  501 -0.00000000000E+00  0.00000000000E+00  0.40325897250E+03  0.40325897250E+03  0.00000000000E+00 0. -1.
         21   -1    0    0  503  502  0.00000000000E+00 -0.00000000000E+00 -0.13177652805E+03  0.13177652805E+03  0.00000000000E+00 0.  1.
         21    1    1    2  503  505 -0.11997589280E+03  0.39846293503E+01 -0.65765423983E+02  0.13687652507E+03  0.00000000000E+00 0.  1.
         21    1    1    2  504  502  0.31685048257E+02 -0.10848087802E+02  0.79306669202E+01  0.34416838463E+02  0.00000000000E+00 0. -1.
         21    1    1    2  505  501  0.30928008103E+02 -0.59154277886E+02  0.15293022545E+03  0.16686348952E+03  0.00000000000E+00 0. -1.
         -2    1    1    2    0  504  0.57362836441E+02  0.66017736337E+02  0.17638697606E+03  0.19687864750E+03  0.00000000000E+00 0. -1.
<scales pt_clust_3="88.60809" pt_clust_4="33.49064" pt_clust_5="68.19287" pt_clust_6="14000.00000"></scales>
<clustering>
<clus scale="   33.491">  2  4  1 -1</clus>
<clus scale="   68.193">  1  5  2 -1</clus>
<clus scale="   88.608">  2  3  1 -1</clus>
<clus scale="   33.491">  2  3  1 -1</clus>
</clustering>
</event>
<event>
 6    0  0.7258365E+002  0.6692070E+02  0.7546771E-02  0.1370889E+00
          1   -1    0    0  504    0 -0.00000000000E+00  0.00000000000E+00  0.14585182499E+04  0.14585182499E+04  0.00000000000E+00 0. -1.
         21   -1    0    0  503  502  0.00000000000E+00 -0.00000000000E+00 -0.27742462979E+02  0.27742462979E+02  0.00000000000E+00 0. -1.
         21    1    1    2  503  501 -0.63783094305E+02  0.53000104839E+02  0.42657867768E+03  0.43456491170E+03  0.00000000000E+00 0. -1.
         21    1    1    2  504  505  0.34213020335E+02 -0.54885461296E+02  0.29184338296E+03  0.29892391139E+03  0.00000000000E+00 0. -1.
         21    1    1    2  505  502  0.60637188183E+02 -0.24322864932E+02  0.34844662006E+02  0.74044721754E+02  0.00000000000E+00 0. -1.
          1    1    1    2  501    0 -0.31067114212E+02  0.26208221389E+02  0.67750906430E+03  0.67872716806E+03  0.00000000000E+00 0. -1.
<scales pt_clust_3="66.92070" pt_clust_4="50.26019" pt_clust_5="14000.00000" pt_clust_6="40.64525"></scales>
<clustering>
<clus scale="   40.645">  1  6  2 -1</clus>
<clus scale="   50.260">  1  4  2 -1</clus>
<clus scale="   66.921">  1  3  2 -1</clus>
<clus scale="   66.921">  2  3  1 -1</clus>
</clustering>
</event>
<event>
 6    0  0.7258365E+002  0.1057793E+03  0.7546771E-02  0.1268592E+00
         21   -1    0    0  504  502  0.00000000000E+00  0.00000000000E+00  0.30798429057E+03  0.30798429057E+03  0.00000000000E+00 0. -1.
          2   -1    0    0  503    0 -0.00000000000E+00 -0.00000000000E+00 -0.12243309627E+03  0.12243309627E+03  0.00000000000E+00 0. -1.
         21    1    1    2  503  502  0.11266042423E+03  0.56399245559E+00 -0.94576171367E+01  0.11305810806E+03  0.00000000000E+00 0. -1.
         21    1    1    2  504  505 -0.31901076806E+02 -0.57142622811E+01  0.14140926872E+03  0.14507554161E+03  0.00000000000E+00 0. -1.
         21    1    1    2  505  501 -0.81780956754E+02  0.52946457180E+02  0.71911317263E+02  0.12108959396E+03  0.00000000000E+00 0. -1.
          2    1    1    2  501    0  0.10216093269E+01 -0.47796187354E+02 -0.18311774546E+02  0.51194143203E+02  0.00000000000E+00 0. -1.
<scales pt_clust_3="105.77926" pt_clust_4="32.40882" pt_clust_5="14000.00000" pt_clust_6="48.41477"></scales>
<clustering>
<clus scale="   32.409">  1  4  2 -1</clus>
<clus scale="   48.415">  2  6  1 -1</clus>
<clus scale="  105.779">  2  3  1 -1</clus>
<clus scale="   32.409">  1  3  2 -1</clus>
</clustering>
</event>
<event>
 6    0  0.7258365E+002  0.1531525E+03  0.7546771E-02  0.1196652E+00
         21   -1    0    0  504  502  0.00000000000E+00  0.00000000000E+00  0.13782174631E+03  0.13782174631E+03  0.00000000000E+00 0.  1.
          2   -1    0    0  505    0 -0.00000000000E+00 -0.00000000000E+00 -0.29142541429E+04  0.29142541429E+04  0.00000000000E+00 0.  1.
         21    1    1    2  503  502  0.15249565050E+03 -0.82226308655E+02  0.61176111419E+02  0.18373515142E+03  0.00000000000E+00 0.  1.
         21    1    1    2  504  501 -0.58673246945E+02 -0.18438816403E+02 -0.10596506486E+04  0.10614339531E+04  0.00000000000E+00 0.  1.
         21    1    1    2  505  503 -0.70873974261E+02  0.69822460797E+02 -0.15945427044E+03  0.18794669622E+03  0.00000000000E+00 0.  1.
          2    1    1    2  501    0 -0.22948429298E+02  0.30842664261E+02 -0.16185035890E+04  0.16189600884E+04  0.00000000000E+00 0.  1.
<scales pt_clust_3="153.15251" pt_clust_4="77.75807" pt_clust_5="14000.00000" pt_clust_6="38.44347"></scales>
<clustering>
<clus scale="   38.443">  2  6  1 -1</clus>
<clus scale="   77.758">  2  4  1 -1</clus>
<clus scale="  153.153">  1  3  2 -1</clus>
<clus scale="  153.153">  1  3  2 -1</clus>
</clustering>
</event>
<event>
 6    0  0.7258365E+002  0.2201266E+03  0.7546771E-02  0.1133789E+00
         -1   -1    0    0    0  501 -0.00000000000E+00  0.00000000000E+00  0.70549261886E+03  0.70549261886E+03  0.00000000000E+00 0.  1.
         21   -1    0    0  503  502  0.00000000000E+00 -0.00000000000E+00 -0.87097592195E+03  0.87097592195E+03  0.00000000000E+00 0. -1.
         21    1    1    2  503  504  0.84971750778E+02  0.24572713840E+03 -0.58930185670E+03  0.64411078495E+03  0.00000000000E+00 0. -1.
         21    1    1    2  504  501  0.13928145535E+03 -0.25113062903E+03  0.11152241209E+03  0.30806357305E+03  0.00000000000E+00 0. -1.
         21    1    1    2  505  502 -0.61943985801E+02 -0.36598376944E+02 -0.13149440547E+03  0.14989088445E+03  0.00000000000E+00 0.  1.
         -1    1    1    2    0  505 -0.16230922033E+03  0.42001867577E+02  0.44379054700E+03  0.47440329835E+03  0.00000000000E+00 0.  1.
<scales pt_clust_3="14000.00000" pt_clust_4="220.12656" pt_clust_5="71.94789" pt_clust_6="168.72384"></scales>
<clustering>
<clus scale="   71.948">  2  5  1 -1</clus>
<clus scale="  168.724">  1  6  2 -1</clus>
<clus scale="  220.127">  1  4  2 -1</clus>
<clus scale="   71.948">  2  3  1 -1</clus>
</clustering>
</event>
<event>
 6    0  0.7258365E+002  0.1009188E+03  0.7546771E-02  0.1278376E+00
         21   -1    0    0  505  502  0.00000000000E+00  0.00000000000E+00  0.74993416681E+03  0.74993416681E+03  0.00000000000E+00 0. -1.
          1   -1    0    0  503    0 -0.00000000000E+00 -0.00000000000E+00 -0.18310331578E+04  0.18310331578E+04  0.00000000000E+00 0. -1.
         21    1    1    2  503  504 -0.65129262448E+02 -0.11674094114E+03  0.30293465621E+03  0.33111882172E+03  0.00000000000E+00 0. -1.
         21    1    1    2  504  502  0.42715858926E+02  0.63790729844E+02  0.38700876597E+03  0.39454998005E+03  0.00000000000E+00 0. -1.
         21    1    1    2  505  501  0.35670396025E+02 -0.88426663468E+01  0.33453557659E+02  0.49696181148E+02  0.00000000000E+00 0. -1.
          1    1    1    2  501    0 -0.13256992503E+02  0.61792877645E+02 -0.18044959708E+04  0.18056023417E+04  0.00000000000E+00 0. -1.
<scales pt_clust_3="14000.00000" pt_clust_4="100.91877" pt_clust_5="36.75010" pt_clust_6="63.18636"></scales>
<clustering>
<clus scale="   36.750">  1  5  2 -1</clus>
<clus scale="   63.186">  2  6  1 -1</clus>
<clus scale="  100.919">  1  4  2 -1</clus>
<clus scale="   36.750">  1  3  2 -1</clus>
</clustering>
</event>
<event>
 6    0  0.7258365E+002  0.7604573E+02  0.7546771E-02  0.1340663E+00
         -1   -1    0    0    0  501 -0.00000000000E+00  0.00000000000E+00  0.79117037262E+02  0.79117037262E+02  0.00000000000E+00 0.  1.
         21   -1    0    0  504  502  0.00000000000E+00 -0.00000000000E+00 -0.58375552995E+03  0.58375552995E+03  0.00000000000E+00 0. -1.
         21    1    1    2  503  502 -0.10710345036E+03 -0.82173402686E+02 -0.23089809655E+03  0.26746504104E+03  0.00000000000E+00 0. -1.
         21    1    1    2  504  505  0.26539425886E+02  0.15660439701E+02 -0.24711040443E+03  0.24902438128E+03  0.00000000000E+00 0. -1.
         21    1    1    2  505  501  0.13904878643E+02  0.42519758676E+02 -0.54274514597E+02  0.70334902166E+02  0.00000000000E+00 0.  1.
         -1    1    1    2    0  503  0.66659145831E+02  0.23993204310E+02  0.27644522883E+02  0.76048242724E+02  0.00000000000E+00 0.  1.
<scales pt_clust_3="76.04573" pt_clust_4="30.81543" pt_clust_5="49.17469" pt_clust_6="14000.00000"></scales>
<clustering>
<clus scale="   30.815">  2  4  1 -1</clus>
<clus scale="   49.175">  2  5  1 -1</clus>
<clus scale="   76.046">  2  3  1 -1</clus>
<clus scale="   30.815">  2  3  1 -1</clus>
</clustering>
</event>
<event>
 6    0  0.7258365E+002  0.1707366E+03  0.7546771E-02  0.1177082E+00
         21   -1    0    0  503  502  0.00000000000E+00  0.00000000000E+00  0.36544910754E+02  0.36544910754E+02  0.00000000000E+00 0. -1.
          2   -1    0    0  505    0 -0.00000000000E+00 -0.00000000000E+00 -0.93794848683E+03  0.93794848683E+03  0.00000000000E+00 0. -1.
         21    1    1    2  503  501 -0.52557217174E+02 -0.11140407720E+03 -0.25825124111E+03  0.28612380717E+03  0.00000000000E+00 0. -1.
         21    1    1    2  504  502  0.22806797233E+02  0.16192983985E+03 -0.35583462878E+03  0.39161167765E+03  0.00000000000E+00 0. -1.
         21    1    1    2  505  504  0.31942656062E+02 -0.10226736703E+02 -0.11606921023E+03  0.12081796631E+03  0.00000000000E+00 0. -1.
          2    1    1    2  501    0 -0.21922361208E+01 -0.40299025940E+02 -0.17124849595E+03  0.17593994644E+03  0.00000000000E+00 0. -1.
<scales pt_clust_3="31.46404" pt_clust_4="161.64597" pt_clust_5="33.53982" pt_clust_6="31.46404"></scales>
<clustering>
<clus scale="   31.464">  3  6 -1 -1</clus>
<clus scale="   33.540">  2  5  1 -1</clus>
<clus scale="  161.646">  1  4  2 -1</clus>
<clus scale="  161.646">  1  3  2 -1</clus>
</clustering>
</event>
<event>
 6    0  0.7258365E+002  0.1813415E+03  0.7546771E-02  0.1166511E+00
         21   -1    0    0  505  502  0.00000000000E+00  0.00000000000E+00  0.26876224925E+03  0.26876224925E+03  0.00000000000E+00 0. -1.
          1   -1    0    0  503    0 -0.00000000000E+00 -0.00000000000E+00 -0.69192058496E+03  0.69192058496E+03  0.00000000000E+00 0. -1.
         21    1    1    2  503  502 -0.13231060957E+03 -0.19702038908E+03 -0.46133206410E+03  0.51879707448E+03  0.00000000000E+00 0. -1.
         21    1    1    2  504  501  0.50672801813E+02  0.96461926566E+02  0.18479107210E+03  0.21452360347E+03  0.00000000000E+00 0. -1.
         21    1    1    2  505  504  0.28483936723E+02 -0.19901293975E+02 -0.69850403198E+01  0.35442727624E+02  0.00000000000E+00 0. -1.
          1    1    1    2  501    0  0.53153871032E+02  0.12045975649E+03 -0.13963230339E+03  0.19191942864E+03  0.00000000000E+00 0. -1.
<scales pt_clust_3="181.34155" pt_clust_4="108.94138" pt_clust_5="34.74761" pt_clust_6="14000.00000"></scales>
<clustering>
<clus scale="   34.748">  1  5  2 -1</clus>
<clus scale="  108.941">  1  4  2 -1</clus>
<clus scale="  181.342">  1  3  2 -1</clus>
<clus scale="   34.748">  1  3  2 -1</clus>
</clustering>
</event>
<event>
 6    0  0.7258365E+002  0.1553619E+03  0.7546771E-02  0.1194035E+00
          2   -1    0    0  502    0 -0.00000000000E+00  0.00000000000E+00  0.49755927435E+03  0.49755927435E+03  0.00000000000E+00 0.  1.
         21   -1    0    0  503  502  0.00000000000E+00 -0.00000000000E+00 -0.72683767529E+03  0.72683767529E+03  0.00000000000E+00 0. -1.
         21    1    1    2  503  504 -0.50258767659E+02 -0.29481835513E+02 -0.19839593976E+03  0.20677541262E+03  0.00000000000E+00 0. -1.
         21    1    1    2  504  505 -0.48807280281E+02 -0.91962941239E+02 -0.46525069934E+03  0.47675732444E+03  0.00000000000E+00 0. -1.
         21    1    1    2  505  501  0.23558928908E+02  0.10482361616E+03  0.82124656181E+01  0.10775183631E+03  0.00000000000E+00 0.  1.
          2    1    1    2  501    0  0.75507119031E+02  0.16621160588E+02  0.42615577254E+03  0.43311237626E+03  0.00000000000E+00 0.  1.
<scales pt_clust_3="35.30574" pt_clust_4="35.30574" pt_clust_5="148.02062" pt_clust_6="77.31486"></scales>
<clustering>
<clus scale="   35.306">  3  4 -1 -1</clus>
<clus scale="   77.315">  1  6  2 -1</clus>
<clus scale="  148.021">  1  5  2 -1</clus>
<clus scale="  155.362">  2  3  1 -1</clus>
</clustering>
</event>
<event>
 6    0  0.7258365E+002  0.1286403E+03  0.7546771E-02  0.1229487E+00
         -4   -1    0    0    0  501 -0.00000000000E+00  0.00000000000E+00  0.73658845191E+03  0.73658845191E+03  0.00000000000E+00 0. -1.
         21   -1    0    0  503  502  0.00000000000E+00 -0.00000000000E+00 -0.21476419518E+03  0.21476419518E+03  0.00000000000E+00 0. -1.
         21    1    1    2  503  501 -0.99389331653E+02  0.44349088556E+02  0.55977463255E+01  0.10897896892E+03  0.00000000000E+00 0. -1.
         21    1    1    2  504  505  0.40237184020E+01  0.48844279918E+02  0.10252331635E+03  0.11363531311E+03  0.00000000000E+00 0. -1.
         21    1    1    2  505  502  0.83617139928E+02 -0.12129876178E+03 -0.12254165170E+03  0.19162899598E+03  0.00000000000E+00 0. -1.
         -4    1    1    2    0  504  0.11748473323E+02  0.28105393308E+02  0.53624484575E+03  0.53710936908E+03  0.00000000000E+00 0. -1.
<scales pt_clust_3="128.64032" pt_clust_4="64.87412" pt_clust_5="14000.00000" pt_clust_6="30.46210"></scales>
<clustering>
<clus scale="   30.462">  1  6  2 -1</clus>
<clus scale="   64.874">  1  4  2 -1</clus>
<clus scale="  128.640">  1  3  2 -1</clus>
<clus scale="  128.640">  2  3  1 -1</clus>
</clustering>
</event>
<event>
 6    0  0.7258365E+002  0.1090999E+03  0.7546771E-02  0.1262246E+00
          2   -1    0    0  505    0 -0.00000000000E+00  0.00000000000E+00  0.11790832451E+03  0.11790832451E+03  0.00000000000E+00 0.  1.
         21   -1    0    0  501  502  0.00000000000E+00 -0.00000000000E+00 -0.61720517741E+03  0.61720517741E+03  0.00000000000E+00 0. -1.
         21    1    1    2  503  502  0.92454485402E+02 -0.44537949402E+02 -0.22202937001E+03  0.24459865485E+03  0.00000000000E+00 0. -1.
         21    1    1    2  504  503 -0.12602166571E+03 -0.28297446089E+02 -0.33478431886E+03  0.35883526282E+03  0.00000000000E+00 0. -1.
         21    1    1    2  505  504  0.76485862011E+01  0.30609887517E+02 -0.21665837814E+02  0.38273680420E+02  0.00000000000E+00 0. -1.
          2    1    1    2  501    0  0.25918594106E+02  0.42225507974E+02  0.79182673781E+02  0.93405903835E+02  0.00000000000E+00 0.  1.
<scales pt_clust_3="109.09986" pt_clust_4="14000.00000" pt_clust_5="31.55101" pt_clust_6="73.61563"></scales>
<clustering>
<clus scale="   31.551">  1  5  2 -1</clus>
<clus scale="   73.616">  1  6  2 -1</clus>
<clus scale="  109.100">  2  3  1 -1</clus>
<clus scale="  109.100">  2  3  1 -1</clus>
</clustering>
</event>
<event>
 6    0  0.7258365E+002  0.1362565E+03  0.7546771E-02  0.1218457E+00
          1   -1    0    0  504    0 -0.00000000000E+00  0.00000000000E+00  0.18316392532E+03  0.18316392532E+03  0.00000000000E+00 0. -1.
         21   -1    0    0  503  502  0.00000000000E+00 -0.00000000000E+00 -0.27278551662E+03  0.27278551662E+03  0.00000000000E+00 0. -1.
         21    1    1    2  503  505  0.18582551940E+02 -0.65849209880E+02 -0.12815729308E+03  0.14527808317E+03  0.00000000000E+00 0. -1.
         21    1    1    2  504  502 -0.86053252154E+02 -0.54397676358E+02 -0.73248903072E+02  0.12541798595E+03  0.00000000000E+00 0. -1.
         21    1    1    2  505  501  0.46064378586E+02  0.82411563558E+02  0.42675223461E+02  0.10360872299E+03  0.00000000000E+00 0. -1.
          1    1    1    2  501    0  0.21406321628E+02  0.37835322680E+02  0.69109381395E+02  0.81644649823E+02  0.00000000000E+00 0. -1.
<scales pt_clust_3="68.42097" pt_clust_4="125.51665" pt_clust_5="35.97901" pt_clust_6="35.97901"></scales>
<clustering>
<clus scale="   35.979">  5  6 -1 -1</clus>
<clus scale="   68.421">  2  3  1 -1</clus>
<clus scale="  125.517">  2  4  1 -1</clus>
<clus scale="   68.421">  2  3  1 -1</clus>
</clustering>
</event>
<event>
 6    0  0.7258365E+002  0.1873194E+03  0.7546771E-02  0.1160901E+00
         21   -1    0    0  503  502  0.00000000000E+00  0.00000000000E+00  0.40222906355E+03  0.40222906355E+03  0.00000000000E+00 0.  1.
          2   -1    0    0  505    0 -0.00000000000E+00 -0.00000000000E+00 -0.55144042371E+03  0.55144042371E+03  0.00000000000E+00 0.  1.
         21    1    1    2  503  501 -0.18344069742E+03 -0.58015784883E+02  0.26332605299E+03  0.32612410360E+03  0.00000000000E+00 0.  1.
         21    1    1    2  504  502 -0.12310421310E+02  0.40238323284E+02  0.59757324488E+02  0.73086298056E+02  0.00000000000E+00 0.  1.
         21    1    1    2  505  504  0.81440433712E+02  0.90193350068E+02 -0.96916451702E+02  0.15543546330E+03  0.00000000000E+00 0.  1.
          2    1    1    2  501    0  0.11431068501E+03 -0.72415888468E+02 -0.37537828593E+03  0.39902362231E+03  0.00000000000E+00 0.  1.
<scales pt_clust_3="14000.00000" pt_clust_4="42.07932" pt_clust_5="123.44456" pt_clust_6="187.31941"></scales>
<clustering>
<clus scale="   42.079">  1  4  2 -1</clus>
<clus scale="  123.445">  2  5  1 -1</clus>
<clus scale="  187.319">  2  6  1 -1</clus>
<clus scale="   42.079">  1  3  2 -1</clus>
</clustering>
</event>
<event>
 6    0  0.7258365E+002  0.2958066E+03  0.7546771E-02  0.1087356E+00
         21   -1    0    0  505  502  0.00000000000E+00  0.00000000000E+00  0.78385464654E+03  0.78385464654E+03  0.00000000000E+00 0. -1.
          1   -1    0    0  504    0 -0.00000000000E+00 -0.00000000000E+00 -0.17151473979E+04  0.17151473979E+04  0.00000000000E+00 0.  1.
         21    1    1    2  503  502 -0.79455619023E+00  0.13416660160E+03  0.24158106877E+03  0.27633805581E+03  0.00000000000E+00 0. -1.
         21    1    1    2  504  503  0.54739865805E+02  0.11688337853E+03  0.14627816018E+03  0.19507813109E+03  0.00000000000E+00 0. -1.
         21    1    1    2  505  501 -0.68651347719E+02 -0.33676775222E+03  0.26937564961E+03  0.43667924966E+03  0.00000000000E+00 0. -1.
          1    1    1    2  501    0  0.14706038104E+02  0.85717772102E+02 -0.15885276299E+04  0.15909066079E+04  0.00000000000E+00 0.  1.
<scales pt_clust_3="75.09535" pt_clust_4="75.09535" pt_clust_5="285.72587" pt_clust_6="86.97013"></scales>
<clustering>
<clus scale="   75.095">  3  4 -1 -1</clus>
<clus scale="   86.970">  2  6  1 -1</clus>
<clus scale="  285.726">  2  5  1 -1</clus>
<clus scale="  295.807">  1  3  2 -1</clus>
</clustering>
</event>
<event>
 6    0  0.7258365E+002  0.1011892E+03  0.7546771E-02  0.1277815E+00
         21   -1    0    0  503  502  0.00000000000E+00  0.00000000000E+00  0.43978956951E+02  0.43978956951E+02  0.00000000000E+00 0. -1.
          1   -1    0    0  504    0 -0.00000000000E+00 -0.00000000000E+00 -0.34441549606E+04  0.34441549606E+04  0.00000000000E+00 0. -1.
         21    1    1    2  503  501 -0.11561927915E+03  0.19962623697E+02 -0.30490476767E+03  0.32670053781E+03  0.00000000000E+00 0.  1.
         21    1    1    2  504  505  0.36682502362E+02  0.49754736755E+01 -0.21350152502E+03  0.21668701508E+03  0.00000000000E+00 0. -1.
         21    1    1    2  505  502 -0.21067954214E+02 -0.23391453071E+02  0.22538216717E+02  0.38716792020E+02  0.00000000000E+00 0. -1.
          1    1    1    2  501    0  0.10000473100E+03 -0.15466443006E+01 -0.29043079277E+04  0.29060295727E+04  0.00000000000E+00 0. -1.
<scales pt_clust_3="14000.00000" pt_clust_4="34.23902" pt_clust_5="31.48045" pt_clust_6="101.18925"></scales>
<clustering>
<clus scale="   31.480">  1  5  2 -1</clus>
<clus scale="   34.239">  1  4  2 -1</clus>
<clus scale="  101.189">  2  6  1 -1</clus>
<clus scale="   31.480">  1  3  2 -1</clus>
</clustering>
</event>
<event>
 6    0  0.7258365E+002  0.1047079E+03  0.7546771E-02  0.1270696E+00
          1   -1    0    0  503    0 -0.00000000000E+00  0.00000000000E+00  0.59730936278E+03  0.59730936278E+03  0.00000000000E+00 0.  1.
         21   -1    0    0  501  502  0.00000000000E+00 -0.00000000000E+00 -0.13729966791E+04  0.13729966791E+04  0.00000000000E+00 0.  1.
         21    1    1    2  503  505  0.11655557299E+03 -0.23660747060E+02  0.20534764549E+03  0.23730294574E+03  0.00000000000E+00 0.  1.
         21    1    1    2  504  502 -0.65035738736E+02 -0.76689358124E+02 -0.71744448410E+03  0.72445668796E+03  0.00000000000E+00 0.  1.
         21    1    1    2  505  504  0.47765820725E+02  0.11929411636E+03 -0.62252620386E+03  0.63565048125E+03  0.00000000000E+00 0.  1.
          1    1    1    2  501    0 -0.99285654981E+02 -0.18944011177E+02  0.35893572613E+03  0.37289592695E+03  0.00000000000E+00 0.  1.
<scales pt_clust_3="104.70792" pt_clust_4="100.55300" pt_clust_5="47.71726" pt_clust_6="14000.00000"></scales>
<clustering>
<clus scale="  100.553">  2  4  1 -1</clus>
<clus scale="   47.717">  2  5  1 -1</clus>
<clus scale="  104.708">  2  3  1 -1</clus>
<clus scale="  100.553">  2  3  1 -1</clus>
</clustering>
</event>
<event>
 6    0  0.7258365E+002  0.1843481E+03  0.7546771E-02  0.1163660E+00
         21   -1    0    0  505  502  0.00000000000E+00  0.00000000000E+00  0.69911840123E+03  0.69911840123E+03  0.00000000000E+00 0.  1.
          1   -1    0    0  504    0 -0.00000000000E+00 -0.00000000000E+00 -0.23228586757E+04  0.23228586757E+04  0.00000000000E+00 0.  1.
         21    1    1    2  503  501  0.12418778864E+03  0.21229132250E+03  0.81182785919E+02  0.25899972429E+03  0.00000000000E+00 0.  1.
         21    1    1    2  504  502  0.67664667274E+01 -0.14027792890E+03  0.31142019565E+03  0.34162292175E+03  0.00000000000E+00 0.  1.
         21    1    1    2  505  503  0.44706663166E+02 -0.16090092335E+02  0.19583080744E+03  0.20151248583E+03  0.00000000000E+00 0.  1.
          1    1    1    2  501    0 -0.17566091853E+03 -0.55923301267E+02 -0.22121740634E+04  0.22198419450E+04  0.00000000000E+00 0.  1.
<scales pt_clust_3="184.34815" pt_clust_4="154.99937" pt_clust_5="47.51396" pt_clust_6="14000.00000"></scales>
<clustering>
<clus scale="   47.514">  1  5  2 -1</clus>
<clus scale="  154.999">  1  4  2 -1</clus>
<clus scale="  184.348">  1  3  2 -1</clus>
<clus scale="   47.514">  1  3  2 -1</clus>
</clustering>
</event>
<event>
 6    0  0.7258365E+002  0.1071285E+03  0.7546771E-02  0.1265982E+00
          2   -1    0    0  503    0 -0.00000000000E+00  0.00000000000E+00  0.26928179441E+04  0.26928179441E+04  0.00000000000E+00 0. -1.
         21   -1    0    0  505  502  0.00000000000E+00 -0.00000000000E+00 -0.24571397358E+03  0.24571397358E+03  0.00000000000E+00 0. -1.
         21    1    1    2  503  504  0.14675354635E+03 -0.75845126569E+02  0.15082734829E+04  0.15172929796E+04  0.00000000000E+00 0. -1.
         21    1    1    2  504  502  0.34881095760E+02 -0.58014992863E+01 -0.67507067912E+02  0.76207299214E+02  0.00000000000E+00 0. -1.
         21    1    1    2  505  501 -0.99498833292E+02  0.54055792783E+02 -0.14861244485E+03  0.18683603861E+03  0.00000000000E+00 0. -1.
          2    1    1    2  501    0 -0.82135808815E+02  0.27590833072E+02  0.11549500004E+04  0.11581956003E+04  0.00000000000E+00 0. -1.
<scales pt_clust_3="14000.00000" pt_clust_4="35.36026" pt_clust_5="81.75722" pt_clust_6="107.12848"></scales>
<clustering>
<clus scale="   35.360">  2  4  1 -1</clus>
<clus scale="   81.757">  2  5  1 -1</clus>
<clus scale="  107.128">  1  6  2 -1</clus>
<clus scale="   35.360">  2  3  1 -1</clus>
</clustering>
</event>
<event>
 6    0  0.7258365E+002  0.1150705E+03  0.7546771E-02  0.1251458E+00
         21   -1    0    0  505  502  0.00000000000E+00  0.00000000000E+00  0.39619826434E+03  0.39619826434E+03  0.00000000000E+00 0.  1.
         -2   -1    0    0    0  501 -0.00000000000E+00 -0.00000000000E+00 -0.66931835874E+03  0.66931835874E+03  0.00000000000E+00 0.  1.
         21    1    1    2  503  501  0.93681134097E+02 -0.35278701444E+02 -0.43984667971E+01  0.10020024038E+03  0.00000000000E+00 0. -1.
         21    1    1    2  504  502 -0.10436105259E+03  0.87152789746E+02 -0.19871502954E+02  0.13741075172E+03  0.00000000000E+00 0.  1.
         21    1    1    2  505  503  0.42074698383E+02  0.10607726486E+02  0.28561164858E+03  0.28888893698E+03  0.00000000000E+00 0.  1.
         -2    1    1    2    0  504 -0.31394779892E+02 -0.62481814787E+02 -0.53446177322E+03  0.53901669401E+03  0.00000000000E+00 0.  1.
<scales pt_clust_3="14000.00000" pt_clust_4="115.07054" pt_clust_5="43.39129" pt_clust_6="69.33611"></scales>
<clustering>
<clus scale="   43.391">  1  5  2 -1</clus>
<clus scale="   69.336">  2  6  1 -1</clus>
<clus scale="  115.071">  1  4  2 -1</clus>
<clus scale="   43.391">  1  3  2 -1</clus>
</clustering>
</event>
<event>
 6    0  0.7258365E+002  0.1852893E+03  0.7546771E-02  0.1162780E+00
          2   -1    0    0  503    0 -0.00000000000E+00  0.00000000000E+00  0.21848544402E+04  0.21848544402E+04  0.00000000000E+00 0. -1.
         21   -1    0    0  505  502  0.00000000000E+00 -0.00000000000E+00 -0.38215262922E+03  0.38215262922E+03  0.00000000000E+00 0.  1.
         21    1    1    2  503  502 -0.67505910399E+02 -0.11519332900E+03  0.11769026837E+03  0.17798188182E+03  0.00000000000E+00 0.  1.
         21    1    1    2  504  501  0.37471837135E+01 -0.45597470411E+02 -0.80390898334E+02  0.92497930942E+02  0.00000000000E+00 0.  1.
         21    1    1    2  505  504  0.17670921943E+02 -0.27686671853E+02 -0.25989217704E+03  0.26195945673E+03  0.00000000000E+00 0.  1.
          2    1    1    2  501    0  0.46087804743E+02  0.18847747127E+03  0.20252946180E+04  0.20345678000E+04  0.00000000000E+00 0. -1.
<scales pt_clust_3="14000.00000" pt_clust_4="67.35435" pt_clust_5="32.84529" pt_clust_6="185.28932"></scales>
<clustering>
<clus scale="   32.845">  2  5  1 -1</clus>
<clus scale="   67.354">  2  4  1 -1</clus>
<clus scale="  185.289">  1  6  2 -1</clus>
<clus scale="   32.845">  2  3  1 -1</clus>
</clustering>
</event>
<event>
 6    0  0.7258365E+002  0.1003834E+03  0.7546771E-02  0.1279492E+00
         21   -1    0    0  505  502  0.00000000000E+00  0.00000000000E+00  0.39672962905E+03  0.39672962905E+03  0.00000000000E+00 0.  1.
          2   -1    0    0  504    0 -0.00000000000E+00 -0.00000000000E+00 -0.35506847101E+03  0.35506847101E+03  0.00000000000E+00 0. -1.
         21    1    1    2  503  501 -0.96576261799E+02 -0.26047879049E+02 -0.25717949443E+02  0.10328058515E+03  0.00000000000E+00 0.  1.
         21    1    1    2  504  502 -0.21333341770E+02  0.75199693393E+02  0.22683706163E+03  0.23992740128E+03  0.00000000000E+00 0.  1.
         21    1    1    2  505  503  0.10999461143E+03 -0.19325164764E+02  0.98428537381E+02  0.14886387577E+03  0.00000000000E+00 0.  1.
          2    1    1    2  501    0  0.79149921346E+01 -0.29826649580E+02 -0.25788649152E+03  0.25972623786E+03  0.00000000000E+00 0. -1.
<scales pt_clust_3="100.38335" pt_clust_4="76.06928" pt_clust_5="14000.00000" pt_clust_6="30.85897"></scales>
<clustering>
<clus scale="   30.859">  2  6  1 -1</clus>
<clus scale="   76.069">  1  4  2 -1</clus>
<clus scale="  100.383">  2  3  1 -1</clus>
<clus scale="   76.069">  1  3  2 -1</clus>
</clustering>
</event>
<event>
 6    0  0.7258365E+002  0.9082486E+02  0.7546771E-02  0.1300866E+00
         21   -1    0    0  503  502  0.00000000000E+00  0.00000000000E+00  0.98210870874E+03  0.98210870874E+03  0.00000000000E+00 0.  1.
         -3   -1    0    0    0  501 -0.00000000000E+00 -0.00000000000E+00 -0.34819577144E+02  0.34819577144E+02  0.00000000000E+00 0. -1.
         21    1    1    2  503  505  0.19700934793E+02 -0.31631297685E+02  0.43755675833E+03  0.43914073209E+03  0.00000000000E+00 0.  1.
         21    1    1    2  504  502 -0.46371644320E+02  0.21439718707E+02  0.95852009028E+02  0.10861675087E+03  0.00000000000E+00 0. -1.
         21    1    1    2  505  501  0.13008232775E+02  0.98436010955E+02  0.33705208199E+03  0.35137297612E+03  0.00000000000E+00 0. -1.
         -3    1    1    2    0  504  0.13662476751E+02 -0.88244431977E+02  0.76828282255E+02  0.11779782681E+03  0.00000000000E+00 0. -1.
<scales pt_clust_3="37.26481" pt_clust_4="45.39322" pt_clust_5="14000.00000" pt_clust_6="90.82486"></scales>
<clustering>
<clus scale="   37.265">  1  3  2 -1</clus>
<clus scale="   45.393">  1  4  2 -1</clus>
<clus scale="   90.825">  2  6  1 -1</clus>
<clus scale="   37.265">  1  3  2 -1</clus>
</clustering>
</event>
<event>
 6    0  0.7258365E+002  0.1143874E+03  0.7546771E-02  0.1252654E+00
         21   -1    0    0  503  502  0.00000000000E+00  0.00000000000E+00  0.12108142740E+03  0.12108142740E+03  0.00000000000E+00 0.  1.
          2   -1    0    0  505    0 -0.00000000000E+00 -0.00000000000E+00 -0.79439997656E+03  0.79439997656E+03  0.00000000000E+00 0. -1.
         21    1    1    2  503  504  0.28447470168E+02 -0.30424241521E+02 -0.79846372700E+01  0.42410464079E+02  0.00000000000E+00 0.  1.
         21    1    1    2  504  501  0.13121150178E+03 -0.70374450441E+00 -0.77803373933E+02  0.15254611909E+03  0.00000000000E+00 0.  1.
         21    1    1    2  505  502 -0.78526120765E+02 -0.90858610754E+01  0.38536591996E+02  0.87943012437E+02  0.00000000000E+00 0.  1.
          2    1    1    2  501    0 -0.81132851180E+02  0.40213847101E+02 -0.62606712996E+03  0.63258180835E+03  0.00000000000E+00 0. -1.
<scales pt_clust_3="36.46371" pt_clust_4="36.46371" pt_clust_5="79.05001" pt_clust_6="94.31822"></scales>
<clustering>
<clus scale="   36.464">  3  4 -1 -1</clus>
<clus scale="   79.050">  1  5  2 -1</clus>
<clus scale="   94.318">  2  6  1 -1</clus>
<clus scale="   79.050">  1  3  2 -1</clus>
</clustering>
</event>
<event>
 6    0  0.7258365E+002  0.7644426E+02  0.7546771E-02  0.1339456E+00
         21   -1    0    0  503  502  0.00000000000E+00  0.00000000000E+00  0.38127637657E+03  0.38127637657E+03  0.00000000000E+00 0.  1.
          2   -1    0    0  505    0 -0.00000000000E+00 -0.00000000000E+00 -0.70065958847E+03  0.70065958847E+03  0.00000000000E+00 0.  1.
         21    1    1    2  503  501  0.23485050087E+02 -0.99020973745E+02 -0.10372890133E+02  0.10229514978E+03  0.00000000000E+00 0.  1.
         21    1    1    2  504  502  0.25539494669E+02  0.41157122643E+02  0.26779623544E+03  0.27214150409E+03  0.00000000000E+00 0.  1.
         21    1    1    2  505  504  0.22084490389E+02  0.48566320911E+02  0.52068231897E+02  0.74548729134E+02  0.00000000000E+00 0.  1.
          2    1    1    2  501    0 -0.71109035145E+02  0.92975301911E+01 -0.62887478910E+03  0.63295058205E+03  0.00000000000E+00 0.  1.
<scales pt_clust_3="14000.00000" pt_clust_4="48.43733" pt_clust_5="76.44426" pt_clust_6="71.35290"></scales>
<clustering>
<clus scale="   48.437">  1  4  2 -1</clus>
<clus scale="   71.353">  2  6  1 -1</clus>
<clus scale="   76.444">  1  5  2 -1</clus>
<clus scale="   48.437">  1  3  2 -1</clus>
</clustering>
</event>
<event>
 6    0  0.7258365E+002  0.1364855E+03  0.7546771E-02  0.1218138E+00
          2   -1    0    0  505    0 -0.00000000000E+00  0.00000000000E+00  0.20681444876E+04  0.20681444876E+04  0.00000000000E+00 0.  1.
         21   -1    0    0  504  502  0.00000000000E+00 -0.00000000000E+00 -0.22801115336E+02  0.22801115336E+02  0.00000000000E+00 0.  1.
         21    1    1    2  503  501 -0.29895967048E+02  0.18006829723E+02  0.11724732251E+03  0.12233130997E+03  0.00000000000E+00 0.  1.
         21    1    1    2  504  503  0.79805425427E-01  0.82051384406E+02  0.24389131587E+03  0.25732355121E+03  0.00000000000E+00 0.  1.
         21    1    1    2  505  502  0.68119144701E+02 -0.13658223053E+03  0.43560409908E+03  0.46156890570E+03  0.00000000000E+00 0.  1.
          2    1    1    2  501    0 -0.38302983078E+02  0.36524016405E+02  0.12486006348E+04  0.12497218361E+04  0.00000000000E+00 0.  1.
<scales pt_clust_3="34.60908" pt_clust_4="34.60908" pt_clust_5="125.74672" pt_clust_6="52.92563"></scales>
<clustering>
<clus scale="   34.609">  3  4 -1 -1</clus>
<clus scale="   52.926">  1  6  2 -1</clus>
<clus scale="  125.747">  1  5  2 -1</clus>
<clus scale="  136.485">  2  3  1 -1</clus>
</clustering>
</event>
<event>
 6    0  0.7258365E+002  0.8972102E+02  0.7546771E-02  0.1303529E+00
         21   -1    0    0  503  502  0.00000000000E+00  0.00000000000E+00  0.25879826791E+03  0.25879826791E+03  0.00000000000E+00 0.  1.
          1   -1    0    0  505    0 -0.00000000000E+00 -0.00000000000E+00 -0.18524125879E+04  0.18524125879E+04  0.00000000000E+00 0. -1.
         21    1    1    2  503  504  0.78153553301E+02 -0.24695122908E+02  0.15760387448E+03  0.17764236049E+03  0.00000000000E+00 0.  1.
         21    1    1    2  504  501  0.48524162295E+02 -0.75649282061E+01 -0.41404441266E+03  0.41694675693E+03  0.00000000000E+00 0. -1.
         21    1    1    2  505  502 -0.10856968204E+03  0.72172603098E+02  0.41834275590E+02  0.13691737330E+03  0.00000000000E+00 0.  1.
          1    1    1    2  501    0 -0.18108033554E+02 -0.39912551984E+02 -0.13790080574E+04  0.13797043651E+04  0.00000000000E+00 0. -1.
<scales pt_clust_3="14000.00000" pt_clust_4="53.67103" pt_clust_5="89.72102" pt_clust_6="43.82822"></scales>
<clustering>
<clus scale="   43.828">  2  6  1 -1</clus>
<clus scale="   53.671">  2  4  1 -1</clus>
<clus scale="   89.721">  2  5  1 -1</clus>
<clus scale="   89.721">  1  3  2 -1</clus>
</clustering>
</event>
<event>
 6    0  0.7258365E+002  0.1015442E+03  0.7546771E-02  0.1277082E+00
         -1   -1    0    0    0  501 -0.00000000000E+00  0.00000000000E+00  0.11151062645E+04  0.11151062645E+04  0.00000000000E+00 0. -1.
         21   -1    0    0  505  502  0.00000000000E+00 -0.00000000000E+00 -0.89457024899E+02  0.89457024899E+02  0.00000000000E+00 0. -1.
         21    1    1    2  503  501 -0.24314119065E+02  0.58389368868E+02  0.10229856749E+03  0.12027257249E+03  0.00000000000E+00 0.  1.
         21    1    1    2  504  502 -0.11076738540E+03 -0.70861887274E+02  0.15642709388E+02  0.13242173195E+03  0.00000000000E+00 0. -1.
         21    1    1    2  505  503  0.16397779214E+02  0.54931768328E+02  0.29146166929E+02  0.64310849640E+02  0.00000000000E+00 0. -1.
         -1    1    1    2    0  504  0.11868372525E+03 -0.42459249922E+02  0.87856179581E+03  0.88755813534E+03  0.00000000000E+00 0. -1.
<scales pt_clust_3="68.95119" pt_clust_4="101.54417" pt_clust_5="57.32701" pt_clust_6="14000.00000"></scales>
<clustering>
<clus scale="   57.327">  2  5  1 -1</clus>
<clus scale="   68.951">  1  3  2 -1</clus>
<clus scale="  101.544">  2  4  1 -1</clus>
<clus scale="   57.327">  2  3  1 -1</clus>
</clustering>
</event>
<event>
 6    0  0.7258365E+002  0.1004023E+03  0.7546771E-02  0.1279452E+00
          2   -1    0    0  505    0 -0.00000000000E+00  0.00000000000E+00  0.25429941994E+04  0.25429941994E+04  0.00000000000E+00 0.  1.
         21   -1    0    0  504  502  0.00000000000E+00 -0.00000000000E+00 -0.36423182060E+03  0.36423182060E+03  0.00000000000E+00 0.  1.
         21    1    1    2  503  501 -0.49544632262E+02 -0.30050819627E+02  0.80936621390E+02  0.99541242851E+02  0.00000000000E+00 0. -1.
         21    1    1    2  504  503  0.94177227005E+01  0.28756947545E+02 -0.34788583801E+03  0.34919938691E+03  0.00000000000E+00 0.  1.
         21    1    1    2  505  502  0.66805868104E+02  0.95107618209E+02  0.66319103217E+03  0.67329846889E+03  0.00000000000E+00 0. -1.
          2    1    1    2  501    0 -0.26678958543E+02 -0.93813746127E+02  0.17825205632E+04  0.17851869213E+04  0.00000000000E+00 0.  1.
<scales pt_clust_3="45.84279" pt_clust_4="30.25980" pt_clust_5="14000.00000" pt_clust_6="100.40226"></scales>
<clustering>
<clus scale="   30.260">  2  4  1 -1</clus>
<clus scale="   45.843">  2  3  1 -1</clus>
<clus scale="  100.402">  1  6  2 -1</clus>
<clus scale="   30.260">  2  3  1 -1</clus>
</clustering>
</event>
<event>
 6    0  0.7258365E+002  0.9848819E+02  0.7546771E-02  0.1283508E+00
         21   -1    0    0  501  502  0.00000000000E+00  0.00000000000E+00  0.67008763136E+03  0.67008763136E+03  0.00000000000E+00 0. -1.
          1   -1    0    0  504    0 -0.00000000000E+00 -0.00000000000E+00 -0.41537854950E+03  0.41537854950E+03  0.00000000000E+00 0. -1.
         21    1    1    2  503  505  0.20393286910E+02  0.68828381831E+02  0.60755583311E+02  0.94045059412E+02  0.00000000000E+00 0.  1.
         21    1    1    2  504  503  0.19693508444E+02 -0.32232248352E+02 -0.39522892721E+02  0.54670020648E+02  0.00000000000E+00 0.  1.
         21    1    1    2  505  502  0.51320172814E+02  0.92092261651E+01  0.57648032397E+03  0.57883342501E+03  0.00000000000E+00 0. -1.
          1    1    1    2  501    0 -0.91406968168E+02 -0.45805359644E+02 -0.34300393270E+03  0.35791767580E+03  0.00000000000E+00 0. -1.
<scales pt_clust_3="14000.00000" pt_clust_4="37.77237" pt_clust_5="52.18377" pt_clust_6="98.48819"></scales>
<clustering>
<clus scale="   37.772">  2  4  1 -1</clus>
<clus scale="   52.184">  1  5  2 -1</clus>
<clus scale="   98.488">  2  6  1 -1</clus>
<clus scale="   52.184">  1  3  2 -1</clus>
</clustering>
</event>
<event>
 6    0  0.7258365E+002  0.1483879E+03  0.7546771E-02  0.1202468E+00
          2   -1    0    0  504    0 -0.00000000000E+00  0.00000000000E+00  0.84081162756E+03  0.84081162756E+03  0.00000000000E+00 0.  1.
         21   -1    0    0  505  502  0.00000000000E+00 -0.00000000000E+00 -0.13856228322E+03  0.13856228322E+03  0.00000000000E+00 0. -1.
         21    1    1    2  503  501 -0.13712862401E+03  0.53721871036E+01  0.12176773929E+03  0.18346798698E+03  0.00000000000E+00 0. -1.
         21    1    1    2  504  502  0.14852030297E+03 -0.11444277918E+02  0.26739636657E+02  0.15134153449E+03  0.00000000000E+00 0. -1.
         21    1    1    2  505  503  0.21173724162E+02  0.27568819508E+02 -0.38020816860E+02  0.51516491715E+02  0.00000000000E+00 0. -1.
          2    1    1    2  501    0 -0.32565403128E+02 -0.21496728693E+02  0.59176278526E+03  0.59304789759E+03  0.00000000000E+00 0.  1.
<scales pt_clust_3="14000.00000" pt_clust_4="148.38788" pt_clust_5="34.76157" pt_clust_6="38.79567"></scales>
<clustering>
<clus scale="   34.762">  2  5  1 -1</clus>
<clus scale="   38.796">  1  6  2 -1</clus>
<clus scale="  148.388">  2  4  1 -1</clus>
<clus scale="   34.762">  2  3  1 -1</clus>
</clustering>
</event>
<event>
 6    0  0.7258365E+002  0.1054697E+03  0.7546771E-02  0.1269197E+00
         21   -1    0    0  504  502  0.00000000000E+00  0.00000000000E+00  0.10884431195E+04  0.10884431195E+04  0.00000000000E+00 0.  1.
         -1   -1    0    0    0  501 -0.00000000000E+00 -0.00000000000E+00 -0.43242467263E+03  0.43242467263E+03  0.00000000000E+00 0. -1.
         21    1    1    2  503  502  0.12900971978E+03 -0.17375822912E+02  0.23287285816E+03  0.26678679706E+03  0.00000000000E+00 0. -1.
         21    1    1    2  504  505 -0.73493186024E+02  0.75034085447E+02  0.82215058034E+03  0.82883227442E+03  0.00000000000E+00 0.  1.
         21    1    1    2  505  501  0.25625210510E+02 -0.54063026305E+02 -0.23127393067E+03  0.23888719772E+03  0.00000000000E+00 0. -1.
         -1    1    1    2    0  503 -0.81141744263E+02 -0.35952362294E+01 -0.16773106100E+03  0.18636152288E+03  0.00000000000E+00 0. -1.
<scales pt_clust_3="105.46970" pt_clust_4="14000.00000" pt_clust_5="59.82861" pt_clust_6="78.07587"></scales>
<clustering>
<clus scale="   59.829">  2  5  1 -1</clus>
<clus scale="   78.076">  2  6  1 -1</clus>
<clus scale="  105.470">  2  3  1 -1</clus>
<clus scale="  105.470">  1  3  2 -1</clus>
</clustering>
</event>
<event>
 6    0  0.7258365E+002  0.7879191E+02  0.7546771E-02  0.1332515E+00
         -1   -1    0    0    0  501 -0.00000000000E+00  0.00000000000E+00  0.71797063972E+02  0.71797063972E+02  0.00000000000E+00 0. -1.
         21   -1    0    0  504  502  0.00000000000E+00 -0.00000000000E+00 -0.65796034897E+03  0.65796034897E+03  0.00000000000E+00 0.  1.
         21    1    1    2  503  502 -0.10453582534E+02  0.40584352962E+02 -0.89231879153E+02  0.98583443592E+02  0.00000000000E+00 0. -1.
         21    1    1    2  504  505 -0.17369514352E+02  0.39013493867E+02 -0.41478336899E+03  0.41697601361E+03  0.00000000000E+00 0.  1.
         21    1    1    2  505  501 -0.62618693222E+02  0.11359375485E+02 -0.52612401083E+02  0.82572397930E+02  0.00000000000E+00 0. -1.
         -1    1    1    2    0  503  0.90441790107E+02 -0.90957222315E+02 -0.29535635772E+02  0.13162555781E+03  0.00000000000E+00 0. -1.
<scales pt_clust_3="41.90903" pt_clust_4="78.79191" pt_clust_5="65.89940" pt_clust_6="14000.00000"></scales>
<clustering>
<clus scale="   41.909">  2  3  1 -1</clus>
<clus scale="   65.899">  1  5  2 -1</clus>
<clus scale="   78.792">  2  4  1 -1</clus>
<clus scale="   41.909">  2  3  1 -1</clus>
</clustering>
</event>
<event>
 6    0  0.7258365E+002  0.7404229E+02  0.7546771E-02  0.1346863E+00
          1   -1    0    0  505    0 -0.00000000000E+00  0.00000000000E+00  0.20620511363E+04  0.20620511363E+04  0.00000000000E+00 0.  1.
         21   -1    0    0  504  502  0.00000000000E+00 -0.00000000000E+00 -0.47550992961E+03  0.47550992961E+03  0.00000000000E+00 0. -1.
         21    1    1    2  503  501 -0.79994485851E+01  0.74668683663E+02 -0.32248298649E+02  0.81727328742E+02  0.00000000000E+00 0. -1.
         21    1    1    2  504  503 -0.10237772144E+02  0.57843838158E+02 -0.10344567104E+03  0.11896103752E+03  0.00000000000E+00 0. -1.
         21    1    1    2  505  502 -0.58512183119E+00 -0.86576232324E+02 -0.30091050214E+03  0.31311805548E+03  0.00000000000E+00 0. -1.
          1    1    1    2  501    0  0.18822342560E+02 -0.45936289497E+02  0.20231456785E+04  0.20237546442E+04  0.00000000000E+00 0.  1.
<scales pt_clust_3="45.41015" pt_clust_4="14000.00000" pt_clust_5="74.04229" pt_clust_6="49.64296"></scales>
<clustering>
<clus scale="   49.643">  1  6  2 -1</clus>
<clus scale="   45.410">  1  3  2 -1</clus>
<clus scale="   74.042">  2  5  1 -1</clus>
<clus scale="   74.042">  2  3  1 -1</clus>
</clustering>
</event>
<event>
 6    0  0.7258365E+002  0.1390869E+03  0.7546771E-02  0.1214563E+00
         21   -1    0    0  503  502  0.00000000000E+00  0.00000000000E+00  0.23199721634E+04  0.23199721634E+04  0.00000000000E+00 0. -1.
          2   -1    0    0  502    0 -0.00000000000E+00 -0.00000000000E+00 -0.17778075446E+04  0.17778075446E+04  0.00000000000E+00 0.  1.
         21    1    1    2  503  505 -0.54380417201E+02  0.13277084031E+02  0.21558538644E+04  0.21565804866E+04  0.00000000000E+00 0. -1.
         21    1    1    2  504  501  0.12917663757E+02  0.17104175439E+03 -0.17566725629E+03  0.24552216339E+03  0.00000000000E+00 0. -1.
         21    1    1    2  505  504  0.86948740207E+02 -0.55364054667E+02  0.10468853347E+03  0.14691817795E+03  0.00000000000E+00 0. -1.
          2    1    1    2  501    0 -0.45485986762E+02 -0.12895478376E+03 -0.15427105228E+04  0.15487588800E+04  0.00000000000E+00 0.  1.
<scales pt_clust_3="55.97777" pt_clust_4="14000.00000" pt_clust_5="63.87685" pt_clust_6="139.08686"></scales>
<clustering>
<clus scale="   55.978">  1  3  2 -1</clus>
<clus scale="   63.877">  1  5  2 -1</clus>
<clus scale="  139.087">  2  6  1 -1</clus>
<clus scale="   55.978">  1  3  2 -1</clus>
</clustering>
</event>
<event>
 6    0  0.7258365E+002  0.1133106E+03  0.7546771E-02  0.1254559E+00
         21   -1    0    0  501  502  0.00000000000E+00  0.00000000000E+00  0.39207794960E+02  0.39207794960E+02  0.00000000000E+00 0. -1.
          2   -1    0    0  504    0 -0.00000000000E+00 -0.00000000000E+00 -0.10001918919E+04  0.10001918919E+04  0.00000000000E+00 0.  1.
         21    1    1    2  503  502 -0.92248644927E+01  0.67816601409E+02 -0.55607115946E+02  0.88183563635E+02  0.00000000000E+00 0. -1.
         21    1    1    2  504  505  0.26231329070E+02 -0.10292025766E+03 -0.44129050538E+03  0.45389202703E+03  0.00000000000E+00 0.  1.
         21    1    1    2  505  503  0.30344181824E+02  0.31033601582E+02 -0.15289251139E+02  0.46017550980E+02  0.00000000000E+00 0. -1.
          2    1    1    2  501    0 -0.47350646402E+02  0.40700546645E+01 -0.44879722445E+03  0.45130654519E+03  0.00000000000E+00 0.  1.
<scales pt_clust_3="41.88412" pt_clust_4="100.36456" pt_clust_5="41.88412" pt_clust_6="47.52525"></scales>
<clustering>
<clus scale="   41.884">  3  5 -1 -1</clus>
<clus scale="   47.525">  2  6  1 -1</clus>
<clus scale="  100.365">  2  4  1 -1</clus>
<clus scale="  113.311">  1  3  2 -1</clus>
</clustering>
</event>
<event>
 6    0  0.7258365E+002  0.1287043E+03  0.7546771E-02  0.1229391E+00
          2   -1    0    0  504    0 -0.00000000000E+00  0.00000000000E+00  0.21058549214E+04  0.21058549214E+04  0.00000000000E+00 0.  1.
         21   -1    0    0  503  502  0.00000000000E+00 -0.00000000000E+00 -0.21982788641E+03  0.21982788641E+03  0.00000000000E+00 0.  1.
         21    1    1    2  503  501  0.59083291626E+02  0.15427484044E+03  0.12008973425E+02  0.16563748726E+03  0.00000000000E+00 0.  1.
         21    1    1    2  504  505 -0.88915128899E+02 -0.63253161624E+02 -0.69753400279E+01  0.10934129124E+03  0.00000000000E+00 0.  1.
         21    1    1    2  505  502 -0.48931603801E+02 -0.21695503880E+02 -0.74865968311E+02  0.92032113691E+02  0.00000000000E+00 0.  1.
          2    1    1    2  501    0  0.78763441074E+02 -0.69326174936E+02  0.19558593699E+04  0.19586719156E+04  0.00000000000E+00 0.  1.
<scales pt_clust_3="14000.00000" pt_clust_4="128.70428" pt_clust_5="53.52566" pt_clust_6="104.69785"></scales>
<clustering>
<clus scale="   53.526">  2  5  1 -1</clus>
<clus scale="  104.698">  1  6  2 -1</clus>
<clus scale="  128.704">  1  4  2 -1</clus>
<clus scale="   53.526">  2  3  1 -1</clus>
</clustering>
</event>
<event>
 6    0  0.7258365E+002  0.2033942E+03  0.7546771E-02  0.1146906E+00
          2   -1    0    0  505    0 -0.00000000000E+00  0.00000000000E+00  0.13784185474E+04  0.13784185474E+04  0.00000000000E+00 0. -1.
         21   -1    0    0  503  502  0.00000000000E+00 -0.00000000000E+00 -0.18703529538E+03  0.18703529538E+03  0.00000000000E+00 0. -1.
         21    1    1    2  503  501  0.16008382172E+03  0.15635713863E+02  0.49903015684E+03  0.52431136070E+03  0.00000000000E+00 0.  1.
         21    1    1    2  504  502 -0.30249916164E+02 -0.10065775884E+02 -0.71657815394E+02  0.78429712349E+02  0.00000000000E+00 0. -1.
         21    1    1    2  505  504 -0.18582992236E+03 -0.24167019185E+02 -0.88492364160E+01  0.18760360830E+03  0.00000000000E+00 0. -1.
          2    1    1    2  501    0  0.55996016809E+02  0.18597081206E+02  0.77286014701E+03  0.77510916145E+03  0.00000000000E+00 0. -1.
<scales pt_clust_3="203.39423" pt_clust_4="31.88067" pt_clust_5="14000.00000" pt_clust_6="58.68332"></scales>
<clustering>
<clus scale="   31.881">  2  4  1 -1</clus>
<clus scale="   58.683">  1  6  2 -1</clus>
<clus scale="  203.394">  1  3  2 -1</clus>
<clus scale="   31.881">  2  3  1 -1</clus>
</clustering>
</event>
<event>
 6    0  0.7258365E+002  0.8453861E+02  0.7546771E-02  0.1316644E+00
          1   -1    0    0  504    0 -0.00000000000E+00  0.00000000000E+00  0.11877471923E+04  0.11877471923E+04  0.00000000000E+00 0. -1.
         21   -1    0    0  503  502  0.00000000000E+00 -0.00000000000E+00 -0.12863077562E+03  0.12863077562E+03  0.00000000000E+00 0.  1.
         21    1    1    2  503  501  0.16632984681E+02  0.76830779643E+02 -0.39945932900E+02  0.88177675379E+02  0.00000000000E+00 0.  1.
         21    1    1    2  504  505 -0.51176021678E+02 -0.77360876822E+02 -0.15554333895E+02  0.94051197549E+02  0.00000000000E+00 0.  1.
         21    1    1    2  505  502  0.15395031546E+02  0.47362311451E+02  0.58526165263E+02  0.76847300295E+02  0.00000000000E+00 0.  1.
          1    1    1    2  501    0  0.19148005452E+02 -0.46832214272E+02  0.10560905182E+04  0.10573017946E+04  0.00000000000E+00 0. -1.
<scales pt_clust_3="14000.00000" pt_clust_4="84.53861" pt_clust_5="49.80156" pt_clust_6="50.40304"></scales>
<clustering>
<clus scale="   49.802">  2  5  1 -1</clus>
<clus scale="   50.403">  1  6  2 -1</clus>
<clus scale="   84.539">  2  4  1 -1</clus>
<clus scale="   49.802">  2  3  1 -1</clus>
</clustering>
</event>
<event>
 6    0  0.7258365E+002  0.1372965E+03  0.7546771E-02  0.1217014E+00
          1   -1    0    0  505    0 -0.00000000000E+00  0.00000000000E+00  0.17031517488E+04  0.17031517488E+04  0.00000000000E+00 0. -1.
         21   -1    0    0  503  502  0.00000000000E+00 -0.00000000000E+00 -0.68590617524E+02  0.68590617524E+02  0.00000000000E+00 0. -1.
         21    1    1    2  503  501 -0.82391518512E+02  0.72588974289E+02  0.62491094017E+03  0.63448499167E+03  0.00000000000E+00 0. -1.
         21    1    1    2  504  502  0.37768338563E+02 -0.17418598866E+02 -0.21657219259E+02  0.46892324855E+02  0.00000000000E+00 0. -1.
         21    1    1    2  505  504  0.72016514128E+02 -0.92850706797E+02  0.90273454634E+02  0.14817870519E+03  0.00000000000E+00 0. -1.
          1    1    1    2  501    0 -0.27393334179E+02  0.37680331374E+02  0.94103395571E+03  0.94218634459E+03  0.00000000000E+00 0. -1.
<scales pt_clust_3="14000.00000" pt_clust_4="41.59153" pt_clust_5="137.29647" pt_clust_6="45.97722"></scales>
<clustering>
<clus scale="   41.592">  2  4  1 -1</clus>
<clus scale="   45.977">  1  6  2 -1</clus>
<clus scale="  137.296">  2  5  1 -1</clus>
<clus scale="   41.592">  2  3  1 -1</clus>
</clustering>
</event>
<event>
 6    0  0.8034917E+002  0.1287804E+03  0.7546771E-02  0.1229277E+00
          3   -1    0    0  503    0 -0.00000000000E+00  0.00000000000E+00  0.10191216588E+04  0.10191216588E+04  0.00000000000E+00 0.  1.
         21   -1    0    0  504  502  0.00000000000E+00 -0.00000000000E+00 -0.24073643269E+03  0.24073643269E+03  0.00000000000E+00 0. -1.
         21    1    1    2  503  502 -0.69284398572E+02 -0.36551987266E+02  0.14129450250E+03  0.16155652910E+03  0.00000000000E+00 0. -1.
         21    1    1    2  504  505  0.34684954831E+02  0.47021341797E+02 -0.11860854011E+03  0.13221965990E+03  0.00000000000E+00 0. -1.
         21    1    1    2  505  501  0.61430355876E+02  0.40406966571E+02 -0.91246647881E+02  0.11718516254E+03  0.00000000000E+00 0. -1.
          3    1    1    2  501    0 -0.26830912135E+02 -0.50876321102E+02  0.84694591156E+03  0.84889673990E+03  0.00000000000E+00 0.  1.
<scales pt_clust_3="123.70405" pt_clust_4="31.91421" pt_clust_5="31.91421" pt_clust_6="57.51781"></scales>
<clustering>
<clus scale="   31.914">  4  5 -1 -1</clus>
<clus scale="   57.518">  1  6  2 -1</clus>
<clus scale="  123.704">  1  3  2 -1</clus>
<clus scale="  128.780">  2  3  1 -1</clus>
</clustering>
</event>
<event>
 6    0  0.7258365E+002  0.1071199E+03  0.7546771E-02  0.1265998E+00
          2   -1    0    0  504    0 -0.00000000000E+00  0.00000000000E+00  0.72752563940E+03  0.72752563940E+03  0.00000000000E+00 0. -1.
         21   -1    0    0  503  502  0.00000000000E+00 -0.00000000000E+00 -0.12436738344E+03  0.12436738344E+03  0.00000000000E+00 0. -1.
         21    1    1    2  503  501 -0.62337965929E+02  0.62332464621E+02  0.14223597008E+02  0.89295402198E+02  0.00000000000E+00 0.  1.
         21    1    1    2  504  505  0.44326376737E+02  0.27008668404E+02  0.59865716743E+02  0.79235092508E+02  0.00000000000E+00 0. -1.
         21    1    1    2  505  502 -0.54117257253E+02 -0.92259423916E+02 -0.36643489053E+02  0.11306292108E+03  0.00000000000E+00 0. -1.
          2    1    1    2  501    0  0.72128846445E+02  0.29182908913E+01  0.56571243127E+03  0.57029960705E+03  0.00000000000E+00 0. -1.
<scales pt_clust_3="87.28208" pt_clust_4="51.90661" pt_clust_5="107.11986" pt_clust_6="14000.00000"></scales>
<clustering>
<clus scale="   51.907">  1  4  2 -1</clus>
<clus scale="   87.282">  2  3  1 -1</clus>
<clus scale="  107.120">  2  5  1 -1</clus>
<clus scale="   87.282">  2  3  1 -1</clus>
</clustering>
</event>
<event>
 6    0  0.7258365E+002  0.1186542E+03  0.7546771E-02  0.1245334E+00
          1   -1    0    0  504    0 -0.00000000000E+00  0.00000000000E+00  0.12207363147E+04  0.12207363147E+04  0.00000000000E+00 0.  1.
         21   -1    0    0  505  502  0.00000000000E+00 -0.00000000000E+00 -0.17574673585E+03  0.17574673585E+03  0.00000000000E+00 0. -1.
         21    1    1    2  503  501 -0.43620893190E+02  0.39875730032E+02  0.54573099516E+02  0.80443019331E+02  0.00000000000E+00 0.  1.
         21    1    1    2  504  502 -0.80852391275E+02 -0.11425735948E+03  0.79375869030E+03  0.80600540432E+03  0.00000000000E+00 0.  1.
         21    1    1    2  505  503  0.10846305655E+03  0.47964207987E+02 -0.13342281539E+03  0.17851175746E+03  0.00000000000E+00 0. -1.
          1    1    1    2  501    0  0.16010227913E+02  0.26417421458E+02  0.33008060447E+03  0.33152286950E+03  0.00000000000E+00 0.  1.
<scales pt_clust_3="59.60043" pt_clust_4="118.65418" pt_clust_5="14000.00000" pt_clust_6="30.89025"></scales>
<clustering>
<clus scale="   30.890">  1  6  2 -1</clus>
<clus scale="   59.600">  1  3  2 -1</clus>
<clus scale="  118.654">  1  4  2 -1</clus>
<clus scale="  118.654">  2  3  1 -1</clus>
</clustering>
</event>
<event>
 6    0  0.7258365E+002  0.8238620E+02  0.7546771E-02  0.1322413E+00
          2   -1    0    0  504    0 -0.00000000000E+00  0.00000000000E+00  0.13063324248E+04  0.13063324248E+04  0.00000000000E+00 0. -1.
         21   -1    0    0  503  502  0.00000000000E+00 -0.00000000000E+00 -0.45212586961E+02  0.45212586961E+02  0.00000000000E+00 0. -1.
         21    1    1    2  503  501 -0.20753589764E+02  0.45492451734E+02  0.78327704223E+02  0.92927412004E+02  0.00000000000E+00 0. -1.
         21    1    1    2  504  505  0.42285785007E+02 -0.12500620188E+03  0.58291200521E+03  0.59766298525E+03  0.00000000000E+00 0. -1.
         21    1    1    2  505  502 -0.24150486438E+02  0.34635079271E+02 -0.14717471137E+02  0.44715083227E+02  0.00000000000E+00 0. -1.
          2    1    1    2  501    0  0.26182911955E+01  0.44878670872E+02  0.61459759953E+03  0.61623953127E+03  0.00000000000E+00 0. -1.
<scales pt_clust_3="82.38620" pt_clust_4="14000.00000" pt_clust_5="42.22363" pt_clust_6="46.73276"></scales>
<clustering>
<clus scale="   42.224">  2  5  1 -1</clus>
<clus scale="   46.733">  1  6  2 -1</clus>
<clus scale="   82.386">  2  3  1 -1</clus>
<clus scale="   42.224">  2  3  1 -1</clus>
</clustering>
</event>
<event>
 6    0  0.7258365E+002  0.1136236E+03  0.7546771E-02  0.1254003E+00
         -4   -1    0    0    0  501 -0.00000000000E+00  0.00000000000E+00  0.42419267796E+03  0.42419267796E+03  0.00000000000E+00 0.  1.
         21   -1    0    0  505  502  0.00000000000E+00 -0.00000000000E+00 -0.30338555817E+03  0.30338555817E+03  0.00000000000E+00 0.  1.
         21    1    1    2  503  501  0.75853393975E+02 -0.12927693671E+03 -0.50071538210E+02  0.15802981580E+03  0.00000000000E+00 0.  1.
         21    1    1    2  504  502 -0.16560704007E+01  0.92800874404E+02 -0.10702589543E+03  0.14166611152E+03  0.00000000000E+00 0.  1.
         21    1    1    2  505  503 -0.25163810638E+02  0.18232645291E+02 -0.69725912702E+02  0.76337078948E+02  0.00000000000E+00 0.  1.
         -4    1    1    2    0  504 -0.49033512936E+02  0.18243417012E+02  0.34763046614E+03  0.35154522987E+03  0.00000000000E+00 0.  1.
<scales pt_clust_3="14000.00000" pt_clust_4="113.62356" pt_clust_5="31.07486" pt_clust_6="52.57185"></scales>
<clustering>
<clus scale="   31.075">  2  5  1 -1</clus>
<clus scale="   52.572">  1  6  2 -1</clus>
<clus scale="  113.624">  2  4  1 -1</clus>
<clus scale="   31.075">  2  3  1 -1</clus>
</clustering>
</event>
<event>
 6    0  0.7258365E+002  0.1782847E+03  0.7546771E-02  0.1169474E+00
          2   -1    0    0  505    0 -0.00000000000E+00  0.00000000000E+00  0.90573012064E+03  0.90573012064E+03  0.00000000000E+00 0.  1.
         21   -1    0    0  503  502  0.00000000000E+00 -0.00000000000E+00 -0.34478276774E+03  0.34478276774E+03  0.00000000000E+00 0.  1.
         21    1    1    2  503  504 -0.26572210979E+02 -0.27683404299E+02 -0.13634124958E+03  0.14163823498E+03  0.00000000000E+00 0.  1.
         21    1    1    2  504  501 -0.11397719419E+03 -0.59970992232E+02 -0.16711145897E+03  0.21098236994E+03  0.00000000000E+00 0.  1.
         21    1    1    2  505  502  0.53399998300E+02  0.77343039702E+01  0.45737142782E+02  0.70733764966E+02  0.00000000000E+00 0. -1.
          2    1    1    2  501    0  0.87149406872E+02  0.79920092561E+02  0.81866291867E+03  0.82715851849E+03  0.00000000000E+00 0.  1.
<scales pt_clust_3="37.89693" pt_clust_4="37.89693" pt_clust_5="53.95720" pt_clust_6="164.21060"></scales>
<clustering>
<clus scale="   37.897">  3  4 -1 -1</clus>
<clus scale="   53.957">  1  5  2 -1</clus>
<clus scale="  164.211">  1  6  2 -1</clus>
<clus scale="  178.285">  2  3  1 -1</clus>
</clustering>
</event>
<event>
 6    0  0.7258365E+002  0.1819336E+03  0.7546771E-02  0.1165945E+00
         21   -1    0    0  505  502  0.00000000000E+00  0.00000000000E+00  0.19442230518E+03  0.19442230518E+03  0.00000000000E+00 0. -1.
          2   -1    0    0  504    0 -0.00000000000E+00 -0.00000000000E+00 -0.23427860753E+04  0.23427860753E+04  0.00000000000E+00 0.  1.
         21    1    1    2  503  501 -0.12741188121E+03  0.68617504889E+01 -0.71772022377E+03  0.72897406723E+03  0.00000000000E+00 0.  1.
         21    1    1    2  504  502 -0.23187943518E+01 -0.46753266945E+02  0.14754607710E+03  0.15479370028E+03  0.00000000000E+00 0. -1.
         21    1    1    2  505  503  0.20584079419E+03  0.34879875111E+02 -0.26184417354E+03  0.33488715929E+03  0.00000000000E+00 0. -1.
          2    1    1    2  501    0 -0.76110118623E+02  0.50116413457E+01 -0.13163454499E+04  0.13185534537E+04  0.00000000000E+00 0.  1.
<scales pt_clust_3="181.93360" pt_clust_4="46.81073" pt_clust_5="14000.00000" pt_clust_6="76.26495"></scales>
<clustering>
<clus scale="   46.811">  1  4  2 -1</clus>
<clus scale="   76.265">  2  6  1 -1</clus>
<clus scale="  181.934">  2  3  1 -1</clus>
<clus scale="   46.811">  1  3  2 -1</clus>
</clustering>
</event>
<event>
 6    0  0.7258365E+002  0.1292335E+03  0.7546771E-02  0.1228598E+00
          2   -1    0    0  505    0 -0.00000000000E+00  0.00000000000E+00  0.14429449717E+04  0.14429449717E+04  0.00000000000E+00 0.  1.
         21   -1    0    0  504  502  0.00000000000E+00 -0.00000000000E+00 -0.35283482716E+03  0.35283482716E+03  0.00000000000E+00 0.  1.
         21    1    1    2  503  502  0.41584963680E+02 -0.31421732554E+02 -0.27273405417E+03  0.27766976570E+03  0.00000000000E+00 0.  1.
         21    1    1    2  504  501 -0.65833355874E+02  0.15670818306E+03  0.29718320546E+02  0.17255336555E+03  0.00000000000E+00 0.  1.
         21    1    1    2  505  503  0.57999079406E+02 -0.10191201471E+03  0.60407452024E+03  0.61535028883E+03  0.00000000000E+00 0.  1.
          2    1    1    2  501    0 -0.33750687212E+02 -0.23374435801E+02  0.72905135793E+03  0.73020637880E+03  0.00000000000E+00 0.  1.
<scales pt_clust_3="52.07711" pt_clust_4="129.23346" pt_clust_5="14000.00000" pt_clust_6="41.05451"></scales>
<clustering>
<clus scale="   41.055">  1  6  2 -1</clus>
<clus scale="   52.077">  2  3  1 -1</clus>
<clus scale="  129.233">  2  4  1 -1</clus>
<clus scale="   52.077">  2  3  1 -1</clus>
</clustering>
</event>
<event>
 6    0  0.7258365E+002  0.8228677E+02  0.7546771E-02  0.1322684E+00
          2   -1    0    0  503    0 -0.00000000000E+00  0.00000000000E+00  0.83503045901E+03  0.83503045901E+03  0.00000000000E+00 0. -1.
         21   -1    0    0  504  502  0.00000000000E+00 -0.00000000000E+00 -0.19259496451E+03  0.19259496451E+03  0.00000000000E+00 0. -1.
         21    1    1    2  503  505 -0.78690795682E+02  0.77678192686E+02  0.25016598157E+03  0.27351263459E+03  0.00000000000E+00 0. -1.
         21    1    1    2  504  501 -0.37129164993E+02 -0.64136260178E+01 -0.59777130376E+02  0.70661268088E+02  0.00000000000E+00 0. -1.
         21    1    1    2  505  502  0.10094008151E+03 -0.37329845471E+02 -0.89905941936E+02  0.14023371853E+03  0.00000000000E+00 0. -1.
          2    1    1    2  501    0  0.14879879170E+02 -0.33934721198E+02  0.54195258524E+03  0.54321780232E+03  0.00000000000E+00 0. -1.
<scales pt_clust_3="82.28677" pt_clust_4="37.51964" pt_clust_5="14000.00000" pt_clust_6="37.05369"></scales>
<clustering>
<clus scale="   37.054">  1  6  2 -1</clus>
<clus scale="   37.520">  2  4  1 -1</clus>
<clus scale="   82.287">  1  3  2 -1</clus>
<clus scale="   37.520">  2  3  1 -1</clus>
</clustering>
</event>
<event>
 6    0  0.7258365E+002  0.9562010E+02  0.7546771E-02  0.1289786E+00
         21   -1    0    0  504  502  0.00000000000E+00  0.00000000000E+00  0.31695248898E+03  0.31695248898E+03  0.00000000000E+00 0.  1.
          2   -1    0    0  505    0 -0.00000000000E+00 -0.00000000000E+00 -0.36025171525E+03  0.36025171525E+03  0.00000000000E+00 0. -1.
         21    1    1    2  503  501 -0.64594703575E+02  0.84289452903E+01  0.50253076766E+02  0.82273291979E+02  0.00000000000E+00 0. -1.
         21    1    1    2  504  503 -0.39818772560E+02  0.26230995806E+02  0.19444092774E+03  0.20020208333E+03  0.00000000000E+00 0.  1.
         21    1    1    2  505  502  0.12544821533E+03 -0.91363553562E+01 -0.23229832118E+02  0.12790759484E+03  0.00000000000E+00 0. -1.
          2    1    1    2  501    0 -0.21034739193E+02 -0.25523585740E+02 -0.26476339866E+03  0.26682123407E+03  0.00000000000E+00 0. -1.
<scales pt_clust_3="14000.00000" pt_clust_4="47.80029" pt_clust_5="95.62010" pt_clust_6="33.07437"></scales>
<clustering>
<clus scale="   33.074">  2  6  1 -1</clus>
<clus scale="   47.800">  1  4  2 -1</clus>
<clus scale="   95.620">  2  5  1 -1</clus>
<clus scale="   47.800">  1  3  2 -1</clus>
</clustering>
</event>
<event>
 6    0  0.7258365E+002  0.1143180E+03  0.7546771E-02  0.1252776E+00
         21   -1    0    0  505  502  0.00000000000E+00  0.00000000000E+00  0.12791539473E+03  0.12791539473E+03  0.00000000000E+00 0.  1.
          3   -1    0    0  504    0 -0.00000000000E+00 -0.00000000000E+00 -0.10483958886E+04  0.10483958886E+04  0.00000000000E+00 0. -1.
         21    1    1    2  503  502  0.48199206212E+02 -0.13248128208E+02 -0.14249543304E+03  0.15100869120E+03  0.00000000000E+00 0. -1.
         21    1    1    2  504  503  0.45224530561E+00 -0.45485684049E+02 -0.80358256771E+02  0.92339598280E+02  0.00000000000E+00 0. -1.
         21    1    1    2  505  501 -0.21362611868E+02  0.11472880324E+03  0.87192038171E+02  0.14567604813E+03  0.00000000000E+00 0.  1.
          3    1    1    2  501    0 -0.27288839650E+02 -0.55994990982E+02 -0.78481884224E+03  0.78728694573E+03  0.00000000000E+00 0. -1.
<scales pt_clust_3="52.31937" pt_clust_4="45.48793" pt_clust_5="114.31804" pt_clust_6="14000.00000"></scales>
<clustering>
<clus scale="   45.488">  2  4  1 -1</clus>
<clus scale="   52.319">  2  3  1 -1</clus>
<clus scale="  114.318">  1  5  2 -1</clus>
<clus scale="  114.318">  1  3  2 -1</clus>
</clustering>
</event>
<event>
 6    0  0.7258365E+002  0.1147104E+03  0.7546771E-02  0.1252087E+00
          2   -1    0    0  504    0 -0.00000000000E+00  0.00000000000E+00  0.40827676674E+03  0.40827676674E+03  0.00000000000E+00 0.  1.
         21   -1    0    0  503  502  0.00000000000E+00 -0.00000000000E+00 -0.20721669125E+03  0.20721669125E+03  0.00000000000E+00 0.  1.
         21    1    1    2  503  505  0.43325016122E+02 -0.58683783719E+01 -0.30421421570E+02  0.53263099581E+02  0.00000000000E+00 0.  1.
         21    1    1    2  504  502  0.12129197605E+02 -0.36373084090E+02 -0.49863850445E+00  0.38345368966E+02  0.00000000000E+00 0.  1.
         21    1    1    2  505  501  0.55545363131E+02  0.79829372888E+02 -0.11909986809E+03  0.15376213682E+03  0.00000000000E+00 0.  1.
          2    1    1    2  501    0 -0.11099957686E+03 -0.37587910426E+02  0.35108000365E+03  0.37012285263E+03  0.00000000000E+00 0.  1.
<scales pt_clust_3="48.10161" pt_clust_4="38.34213" pt_clust_5="14000.00000" pt_clust_6="114.71045"></scales>
<clustering>
<clus scale="   38.342">  2  4  1 -1</clus>
<clus scale="   48.102">  2  3  1 -1</clus>
<clus scale="  114.710">  1  6  2 -1</clus>
<clus scale="   38.342">  2  3  1 -1</clus>
</clustering>
</event>
<event>
 6    0  0.7258365E+002  0.1443286E+03  0.7546771E-02  0.1207620E+00
         21   -1    0    0  504  502  0.00000000000E+00  0.00000000000E+00  0.27684541990E+03  0.27684541990E+03  0.00000000000E+00 0. -1.
         -1   -1    0    0    0  501 -0.00000000000E+00 -0.00000000000E+00 -0.19641416230E+04  0.19641416230E+04  0.00000000000E+00 0. -1.
         21    1    1    2  503  505 -0.21898843082E+02 -0.48017838242E+02 -0.71982084091E+03  0.72175294605E+03  0.00000000000E+00 0. -1.
         21    1    1    2  504  501  0.12696816601E+03 -0.74846766006E+02  0.66700906859E+02  0.16177751555E+03  0.00000000000E+00 0. -1.
         21    1    1    2  505  502 -0.71396596316E+02  0.13367450440E+03  0.12579054689E+03  0.19695077755E+03  0.00000000000E+00 0. -1.
         -1    1    1    2    0  503 -0.33672726616E+02 -0.10809900155E+02 -0.11599668159E+04  0.11605058037E+04  0.00000000000E+00 0. -1.
<scales pt_clust_3="77.74203" pt_clust_4="144.32864" pt_clust_5="14000.00000" pt_clust_6="35.36533"></scales>
<clustering>
<clus scale="   35.365">  2  6  1 -1</clus>
<clus scale="   77.742">  2  3  1 -1</clus>
<clus scale="  144.329">  2  4  1 -1</clus>
<clus scale="  144.329">  1  3  2 -1</clus>
</clustering>
</event>
<event>
 6    0  0.7258365E+002  0.1112894E+03  0.7546771E-02  0.1258201E+00
         21   -1    0    0  504  502  0.00000000000E+00  0.00000000000E+00  0.36108431415E+02  0.36108431415E+02  0.00000000000E+00 0.  1.
          2   -1    0    0  502    0 -0.00000000000E+00 -0.00000000000E+00 -0.18439368464E+04  0.18439368464E+04  0.00000000000E+00 0.  1.
         21    1    1    2  503  501  0.10421171073E+02 -0.51700681627E+02 -0.60828901138E+02  0.80509108186E+02  0.00000000000E+00 0.  1.
         21    1    1    2  504  505  0.26875341324E+02  0.42965120631E+02 -0.22287133994E+02  0.55362459336E+02  0.00000000000E+00 0.  1.
         21    1    1    2  505  503  0.54722674271E+02 -0.24893419360E+02 -0.10121636031E+03  0.11772427533E+03  0.00000000000E+00 0.  1.
          2    1    1    2  501    0 -0.92019186668E+02  0.33628980356E+02 -0.16234960195E+04  0.16264494349E+04  0.00000000000E+00 0.  1.
<scales pt_clust_3="50.67699" pt_clust_4="50.67826" pt_clust_5="50.67699" pt_clust_6="97.25174"></scales>
<clustering>
<clus scale="   50.677">  3  5 -1 -1</clus>
<clus scale="   50.678">  1  4  2 -1</clus>
<clus scale="   97.252">  2  6  1 -1</clus>
<clus scale="   50.678">  1  3  2 -1</clus>
</clustering>
</event>
<event>
 6    0  0.7258365E+002  0.8456093E+02  0.7546771E-02  0.1316585E+00
         21   -1    0    0  504  502  0.00000000000E+00  0.00000000000E+00  0.45986246398E+03  0.45986246398E+03  0.00000000000E+00 0. -1.
          1   -1    0    0  505    0 -0.00000000000E+00 -0.00000000000E+00 -0.10431011677E+04  0.10431011677E+04  0.00000000000E+00 0.  1.
         21    1    1    2  503  502 -0.11892930161E+03  0.16254356900E+02  0.41337471566E+03  0.43044980944E+03  0.00000000000E+00 0. -1.
         21    1    1    2  504  501  0.32313660299E+02 -0.19232642159E+02  0.22215409234E+02  0.43675983947E+02  0.00000000000E+00 0. -1.
         21    1    1    2  505  503  0.54262005280E+02 -0.22036783273E+02 -0.18593388307E+03  0.19493946216E+03  0.00000000000E+00 0. -1.
          1    1    1    2  501    0  0.32353636035E+02  0.25015068532E+02 -0.83289494550E+03  0.83389837609E+03  0.00000000000E+00 0.  1.
<scales pt_clust_3="84.56093" pt_clust_4="37.60408" pt_clust_5="14000.00000" pt_clust_6="40.91259"></scales>
<clustering>
<clus scale="   37.604">  1  4  2 -1</clus>
<clus scale="   40.913">  2  6  1 -1</clus>
<clus scale="   84.561">  1  3  2 -1</clus>
<clus scale="   37.604">  1  3  2 -1</clus>
</clustering>
</event>
<event>
 6    0  0.7258365E+002  0.2260806E+03  0.7546771E-02  0.1129429E+00
         21   -1    0    0  504  502  0.00000000000E+00  0.00000000000E+00  0.75552648520E+03  0.75552648520E+03  0.00000000000E+00 0. -1.
          2   -1    0    0  505    0 -0.00000000000E+00 -0.00000000000E+00 -0.80147077751E+03  0.80147077751E+03  0.00000000000E+00 0.  1.
         21    1    1    2  503  501  0.11523541080E+03  0.10903659392E+03  0.12782025804E+03  0.20373069744E+03  0.00000000000E+00 0. -1.
         21    1    1    2  504  503  0.79197509477E+02  0.24969510945E+02  0.54542831413E+03  0.55171348347E+03  0.00000000000E+00 0. -1.
         21    1    1    2  505  502 -0.22811975172E+03 -0.14352446657E+03 -0.41168640742E+03  0.49206055693E+03  0.00000000000E+00 0.  1.
          2    1    1    2  501    0  0.33686831445E+02  0.95183617087E+01 -0.30750645706E+03  0.30949252488E+03  0.00000000000E+00 0.  1.
<scales pt_clust_3="226.08063" pt_clust_4="83.26354" pt_clust_5="14000.00000" pt_clust_6="35.00574"></scales>
<clustering>
<clus scale="   35.006">  2  6  1 -1</clus>
<clus scale="   83.264">  1  4  2 -1</clus>
<clus scale="  226.081">  1  3  2 -1</clus>
<clus scale="   83.264">  1  3  2 -1</clus>
</clustering>
</event>
<event>
 6    0  0.7258365E+002  0.2948791E+03  0.7546771E-02  0.1087829E+00
          1   -1    0    0  505    0 -0.00000000000E+00  0.00000000000E+00  0.44474733555E+04  0.44474733555E+04  0.00000000000E+00 0. -1.
         21   -1    0    0  504  502  0.00000000000E+00 -0.00000000000E+00 -0.87793105632E+03  0.87793105632E+03  0.00000000000E+00 0.  1.
         21    1    1    2  503  502 -0.64523671810E+02  0.10134957666E+03 -0.68118311702E+03  0.69169753493E+03  0.00000000000E+00 0.  1.
         21    1    1    2  504  501  0.36072911009E+03 -0.69954317261E+01  0.69110841353E+01  0.36086311811E+03  0.00000000000E+00 0.  1.
         21    1    1    2  505  503 -0.11939951784E+03 -0.18658188307E+03  0.10656598941E+04  0.10884392743E+04  0.00000000000E+00 0.  1.
          1    1    1    2  501    0 -0.17680592044E+03  0.92227738132E+02  0.31781544380E+04  0.31844044845E+04  0.00000000000E+00 0. -1.
<scales pt_clust_3="120.14592" pt_clust_4="14000.00000" pt_clust_5="294.87914" pt_clust_6="201.11581"></scales>
<clustering>
<clus scale="  120.146">  2  3  1 -1</clus>
<clus scale="  201.116">  1  6  2 -1</clus>
<clus scale="  294.879">  1  5  2 -1</clus>
<clus scale="  120.146">  2  3  1 -1</clus>
</clustering>
</event>
<event>
 6    0  0.7258365E+002  0.9848126E+02  0.7546771E-02  0.1283522E+00
         21   -1    0    0  504  502  0.00000000000E+00  0.00000000000E+00  0.72206543853E+03  0.72206543853E+03  0.00000000000E+00 0.  1.
         -1   -1    0    0    0  501 -0.00000000000E+00 -0.00000000000E+00 -0.29013701271E+03  0.29013701271E+03  0.00000000000E+00 0.  1.
         21    1    1    2  503  505  0.66515069448E+02  0.10611368724E+03  0.25600208963E+03  0.28499375253E+03  0.00000000000E+00 0.  1.
         21    1    1    2  504  501 -0.46223442723E+02 -0.55711831891E+02  0.38495937020E+02  0.81989950829E+02  0.00000000000E+00 0. -1.
         21    1    1    2  505  502 -0.14121509865E+01  0.45581188477E+02  0.38048981254E+03  0.38321291257E+03  0.00000000000E+00 0.  1.
         -1    1    1    2    0  503 -0.18879475738E+02 -0.95983043829E+02 -0.24305941337E+03  0.26200583531E+03  0.00000000000E+00 0.  1.
<scales pt_clust_3="98.48126" pt_clust_4="66.55384" pt_clust_5="45.60306" pt_clust_6="14000.00000"></scales>
<clustering>
<clus scale="   45.603">  1  5  2 -1</clus>
<clus scale="   66.554">  1  4  2 -1</clus>
<clus scale="   98.481">  1  3  2 -1</clus>
<clus scale="   45.603">  1  3  2 -1</clus>
</clustering>
</event>
<event>
 6    0  0.7258365E+002  0.1032367E+03  0.7546771E-02  0.1273633E+00
          1   -1    0    0  504    0 -0.00000000000E+00  0.00000000000E+00  0.19919906876E+04  0.19919906876E+04  0.00000000000E+00 0.  1.
         21   -1    0    0  503  502  0.00000000000E+00 -0.00000000000E+00 -0.54937585217E+03  0.54937585217E+03  0.00000000000E+00 0.  1.
         21    1    1    2  503  505 -0.45081464673E+02  0.19692122645E+02 -0.40625339017E+03  0.40922113237E+03  0.00000000000E+00 0.  1.
         21    1    1    2  504  502  0.93427261214E+02  0.63029033885E+02  0.25690377717E+02  0.11559112318E+03  0.00000000000E+00 0.  1.
         21    1    1    2  505  501  0.55101823539E+02 -0.80150361289E+02 -0.70452088543E+02  0.12009907640E+03  0.00000000000E+00 0.  1.
          1    1    1    2  501    0 -0.10344762008E+03 -0.25707952406E+01  0.18936299364E+04  0.18964552078E+04  0.00000000000E+00 0.  1.
<scales pt_clust_3="49.19470" pt_clust_4="103.23667" pt_clust_5="71.34467" pt_clust_6="14000.00000"></scales>
<clustering>
<clus scale="   49.195">  2  3  1 -1</clus>
<clus scale="   71.345">  2  5  1 -1</clus>
<clus scale="  103.237">  2  4  1 -1</clus>
<clus scale="   49.195">  2  3  1 -1</clus>
</clustering>
</event>
<event>
 6    0  0.7258365E+002  0.7810373E+02  0.7546771E-02  0.1334521E+00
         21   -1    0    0  503  502  0.00000000000E+00  0.00000000000E+00  0.35377675207E+02  0.35377675207E+02  0.00000000000E+00 0. -1.
         -4   -1    0    0    0  501 -0.00000000000E+00 -0.00000000000E+00 -0.14626597047E+04  0.14626597047E+04  0.00000000000E+00 0.  1.
         21    1    1    2  503  505 -0.27415035756E+02 -0.78608325078E+02 -0.94224544945E+02  0.12573431444E+03  0.00000000000E+00 0. -1.
         21    1    1    2  504  502 -0.42463366200E+02  0.77102938058E+02 -0.18678427108E+03  0.20648574878E+03  0.00000000000E+00 0. -1.
         21    1    1    2  505  501  0.61845322138E+02 -0.47624905938E+02 -0.15740355976E+03  0.17569535043E+03  0.00000000000E+00 0. -1.
         -4    1    1    2    0  504  0.80330798177E+01  0.49130292958E+02 -0.98886965370E+03  0.99012196626E+03  0.00000000000E+00 0.  1.
<scales pt_clust_3="78.10373" pt_clust_4="14000.00000" pt_clust_5="71.43236" pt_clust_6="49.78269"></scales>
<clustering>
<clus scale="   49.783">  2  6  1 -1</clus>
<clus scale="   71.432">  2  5  1 -1</clus>
<clus scale="   78.104">  1  3  2 -1</clus>
<clus scale="   78.104">  1  3  2 -1</clus>
</clustering>
</event>
<event>
 6    0  0.7258365E+002  0.9103970E+02  0.7546771E-02  0.1300353E+00
          1   -1    0    0  505    0 -0.00000000000E+00  0.00000000000E+00  0.25547334406E+03  0.25547334406E+03  0.00000000000E+00 0.  1.
         21   -1    0    0  503  502  0.00000000000E+00 -0.00000000000E+00 -0.12480860904E+03  0.12480860904E+03  0.00000000000E+00 0.  1.
         21    1    1    2  503  504  0.57650465645E+02  0.67652673330E+02 -0.11090527379E+02  0.89573769572E+02  0.00000000000E+00 0.  1.
         21    1    1    2  504  501 -0.10372272857E+03 -0.19042891173E+02 -0.46764597489E+01  0.10555996117E+03  0.00000000000E+00 0.  1.
         21    1    1    2  505  502  0.19741653099E+02 -0.30039941559E+02  0.75842536849E+00  0.35954223187E+02  0.00000000000E+00 0.  1.
          1    1    1    2  501    0  0.26330609828E+02 -0.18569840598E+02  0.14567329678E+03  0.14919399917E+03  0.00000000000E+00 0.  1.
<scales pt_clust_3="14000.00000" pt_clust_4="91.03970" pt_clust_5="41.08882" pt_clust_6="32.22018"></scales>
<clustering>
<clus scale="   32.220">  1  6  2 -1</clus>
<clus scale="   41.089">  2  5  1 -1</clus>
<clus scale="   91.040">  1  4  2 -1</clus>
<clus scale="   41.089">  2  3  1 -1</clus>
</clustering>
</event>
<event>
 6    0  0.7258365E+002  0.8515048E+02  0.7546771E-02  0.1315039E+00
          1   -1    0    0  504    0 -0.00000000000E+00  0.00000000000E+00  0.17928183488E+04  0.17928183488E+04  0.00000000000E+00 0.  1.
         21   -1    0    0  503  502  0.00000000000E+00 -0.00000000000E+00 -0.51753926564E+02  0.51753926564E+02  0.00000000000E+00 0. -1.
         21    1    1    2  503  501 -0.45512162925E+01  0.57994878826E+02  0.52235759255E+02  0.78183720075E+02  0.00000000000E+00 0. -1.
         21    1    1    2  504  505  0.13177060961E+02 -0.57649916752E+02  0.34072872059E+03  0.34582251065E+03  0.00000000000E+00 0. -1.
         21    1    1    2  505  502  0.63586161128E+02  0.11898882140E+02 -0.55578579346E+01  0.64928214730E+02  0.00000000000E+00 0. -1.
          1    1    1    2  501    0 -0.72212005797E+02 -0.12243844214E+02  0.13536578003E+04  0.13556378299E+04  0.00000000000E+00 0.  1.
<scales pt_clust_3="58.17319" pt_clust_4="55.35980" pt_clust_5="14000.00000" pt_clust_6="85.15048"></scales>
<clustering>
<clus scale="   58.173">  2  3  1 -1</clus>
<clus scale="   55.360">  1  4  2 -1</clus>
<clus scale="   85.150">  1  6  2 -1</clus>
<clus scale="   58.173">  2  3  1 -1</clus>
</clustering>
</event>
<event>
 6    0  0.7258365E+002  0.9198393E+02  0.7546771E-02  0.1298117E+00
         21   -1    0    0  505  502  0.00000000000E+00  0.00000000000E+00  0.21935661558E+03  0.21935661558E+03  0.00000000000E+00 0.  1.
          2   -1    0    0  504    0 -0.00000000000E+00 -0.00000000000E+00 -0.18138872879E+04  0.18138872879E+04  0.00000000000E+00 0. -1.
         21    1    1    2  503  501 -0.37973950784E+02  0.51553021376E+02 -0.19931801743E+03  0.20934996303E+03  0.00000000000E+00 0. -1.
         21    1    1    2  504  502  0.11811129257E+03 -0.16568368747E+02 -0.15653715091E+03  0.19679600577E+03  0.00000000000E+00 0. -1.
         21    1    1    2  505  503 -0.90299843653E+02 -0.59006511172E+01  0.18349411907E+03  0.20459465091E+03  0.00000000000E+00 0.  1.
          2    1    1    2  501    0  0.10162501872E+02 -0.29084001511E+02 -0.14221696230E+04  0.14225032837E+04  0.00000000000E+00 0. -1.
<scales pt_clust_3="48.89303" pt_clust_4="91.98393" pt_clust_5="14000.00000" pt_clust_6="30.80837"></scales>
<clustering>
<clus scale="   30.808">  2  6  1 -1</clus>
<clus scale="   48.893">  2  3  1 -1</clus>
<clus scale="   91.984">  2  4  1 -1</clus>
<clus scale="   91.984">  1  3  2 -1</clus>
</clustering>
</event>
<event>
 6    0  0.7258365E+002  0.1061925E+03  0.7546771E-02  0.1267788E+00
          1   -1    0    0  503    0 -0.00000000000E+00  0.00000000000E+00  0.11419388007E+04  0.11419388007E+04  0.00000000000E+00 0.  1.
         21   -1    0    0  501  502  0.00000000000E+00 -0.00000000000E+00 -0.37594692202E+03  0.37594692202E+03  0.00000000000E+00 0. -1.
         21    1    1    2  503  505  0.12834192641E+03 -0.22719054782E+02  0.10748531937E+03  0.16894052032E+03  0.00000000000E+00 0.  1.
         21    1    1    2  504  502 -0.70123717772E+01 -0.32207706160E+02 -0.33048370799E+03  0.33212345738E+03  0.00000000000E+00 0. -1.
         21    1    1    2  505  504 -0.18697807727E+02  0.38199715548E+02  0.29610186204E+02  0.51822672730E+02  0.00000000000E+00 0.  1.
          1    1    1    2  501    0 -0.10263174691E+03  0.16727045393E+02  0.95938008115E+03  0.96499907234E+03  0.00000000000E+00 0.  1.
<scales pt_clust_3="14000.00000" pt_clust_4="32.96225" pt_clust_5="36.45757" pt_clust_6="106.19253"></scales>
<clustering>
<clus scale="   32.962">  2  4  1 -1</clus>
<clus scale="   36.458">  2  5  1 -1</clus>
<clus scale="  106.193">  1  6  2 -1</clus>
<clus scale="   32.962">  2  3  1 -1</clus>
</clustering>
</event>
<event>
 6    0  0.7258365E+002  0.9046112E+02  0.7546771E-02  0.1301739E+00
          2   -1    0    0  505    0 -0.00000000000E+00  0.00000000000E+00  0.80156048293E+03  0.80156048293E+03  0.00000000000E+00 0. -1.
         21   -1    0    0  503  502  0.00000000000E+00 -0.00000000000E+00 -0.41591689983E+02  0.41591689983E+02  0.00000000000E+00 0.  1.
         21    1    1    2  503  501 -0.62078745020E+02  0.50252919712E+02  0.38261657816E+02  0.88561170846E+02  0.00000000000E+00 0.  1.
         21    1    1    2  504  502  0.26828203016E+02  0.42134323135E+02  0.68001842335E+02  0.84375969470E+02  0.00000000000E+00 0.  1.
         21    1    1    2  505  504  0.20272252527E+01 -0.10072489491E+03  0.33906032474E+03  0.35371106558E+03  0.00000000000E+00 0.  1.
          2    1    1    2  501    0  0.33223316752E+02  0.83376520624E+01  0.31464496805E+03  0.31650396702E+03  0.00000000000E+00 0. -1.
<scales pt_clust_3="14000.00000" pt_clust_4="53.97691" pt_clust_5="90.46112" pt_clust_6="34.25354"></scales>
<clustering>
<clus scale="   34.254">  1  6  2 -1</clus>
<clus scale="   53.977">  2  4  1 -1</clus>
<clus scale="   90.461">  1  5  2 -1</clus>
<clus scale="   53.977">  2  3  1 -1</clus>
</clustering>
</event>
<event>
 6    0  0.7258365E+002  0.1063612E+03  0.7546771E-02  0.1267461E+00
          2   -1    0    0  503    0 -0.00000000000E+00  0.00000000000E+00  0.79419472921E+03  0.79419472921E+03  0.00000000000E+00 0.  1.
         21   -1    0    0  505  502  0.00000000000E+00 -0.00000000000E+00 -0.35254263354E+03  0.35254263354E+03  0.00000000000E+00 0.  1.
         21    1    1    2  503  504 -0.74142962801E+01 -0.44581108154E+02 -0.27548804302E+02  0.52928098512E+02  0.00000000000E+00 0.  1.
         21    1    1    2  504  502 -0.19397938708E+02 -0.40178273457E+02 -0.90915875744E+02  0.10127324497E+03  0.00000000000E+00 0. -1.
         21    1    1    2  505  501 -0.27487217689E+02  0.10722920511E+03 -0.20083342090E+03  0.22932010927E+03  0.00000000000E+00 0.  1.
          2    1    1    2  501    0  0.54299452678E+02 -0.22469823494E+02  0.76095019662E+03  0.76321590999E+03  0.00000000000E+00 0.  1.
<scales pt_clust_3="42.63326" pt_clust_4="42.63326" pt_clust_5="97.32206" pt_clust_6="58.76499"></scales>
<clustering>
<clus scale="   42.633">  3  4 -1 -1</clus>
<clus scale="   58.765">  1  6  2 -1</clus>
<clus scale="   97.322">  2  5  1 -1</clus>
<clus scale="   97.322">  2  3  1 -1</clus>
</clustering>
</event>
<event>
 6    0  0.7258365E+002  0.2206658E+03  0.7546771E-02  0.1133388E+00
         -3   -1    0    0    0  501 -0.00000000000E+00  0.00000000000E+00  0.13668828706E+04  0.13668828706E+04  0.00000000000E+00 0. -1.
         21   -1    0    0  503  502  0.00000000000E+00 -0.00000000000E+00 -0.14141375941E+03  0.14141375941E+03  0.00000000000E+00 0. -1.
         21    1    1    2  503  501 -0.93629029256E+02 -0.16582794838E+03  0.22911292704E+03  0.29792287076E+03  0.00000000000E+00 0. -1.
         21    1    1    2  504  502  0.25887694381E+02 -0.36064660481E+02 -0.13133065406E+02  0.46295894666E+02  0.00000000000E+00 0. -1.
         21    1    1    2  505  504  0.27456612569E+02  0.26084180758E+03  0.15103865485E+03  0.30266316165E+03  0.00000000000E+00 0. -1.
         -3    1    1    2    0  505  0.40284722306E+02 -0.58949198723E+02  0.85845059467E+03  0.86141470290E+03  0.00000000000E+00 0. -1.
<scales pt_clust_3="220.66579" pt_clust_4="44.39406" pt_clust_5="14000.00000" pt_clust_6="71.98822"></scales>
<clustering>
<clus scale="   44.394">  2  4  1 -1</clus>
<clus scale="   71.988">  1  6  2 -1</clus>
<clus scale="  220.666">  1  3  2 -1</clus>
<clus scale="   44.394">  2  3  1 -1</clus>
</clustering>
</event>
<event>
 6    0  0.7258365E+002  0.8319845E+02  0.7546771E-02  0.1320212E+00
          1   -1    0    0  503    0 -0.00000000000E+00  0.00000000000E+00  0.41368058637E+03  0.41368058637E+03  0.00000000000E+00 0. -1.
         21   -1    0    0  504  502  0.00000000000E+00 -0.00000000000E+00 -0.99183652305E+02  0.99183652305E+02  0.00000000000E+00 0.  1.
         21    1    1    2  503  505  0.40650933034E+02 -0.42990227061E+02  0.99666282897E+02  0.11590524546E+03  0.00000000000E+00 0. -1.
         21    1    1    2  504  501 -0.11214741295E+03 -0.11324032863E+02 -0.30738454418E+02  0.11683376452E+03  0.00000000000E+00 0.  1.
         21    1    1    2  505  502  0.49956379728E+02  0.16572167267E+02  0.30756122134E+02  0.60960771421E+02  0.00000000000E+00 0.  1.
          1    1    1    2  501    0  0.21540100184E+02  0.37742092658E+02  0.21481298345E+03  0.21916445728E+03  0.00000000000E+00 0. -1.
<scales pt_clust_3="57.00123" pt_clust_4="14000.00000" pt_clust_5="83.19845" pt_clust_6="43.45620"></scales>
<clustering>
<clus scale="   43.456">  1  6  2 -1</clus>
<clus scale="   57.001">  1  3  2 -1</clus>
<clus scale="   83.198">  1  5  2 -1</clus>
<clus scale="   83.198">  2  3  1 -1</clus>
</clustering>
</event>
<event>
 6    0  0.7258365E+002  0.8052089E+02  0.7546771E-02  0.1327580E+00
          2   -1    0    0  505    0 -0.00000000000E+00  0.00000000000E+00  0.25049681387E+04  0.25049681387E+04  0.00000000000E+00 0.  1.
         21   -1    0    0  504  502  0.00000000000E+00 -0.00000000000E+00 -0.20066437412E+03  0.20066437412E+03  0.00000000000E+00 0.  1.
         21    1    1    2  503  502  0.60144563854E+02  0.29165197654E+02 -0.18749845854E+03  0.19905689958E+03  0.00000000000E+00 0.  1.
         21    1    1    2  504  501 -0.40954689685E+01 -0.10283628017E+03  0.56554412864E+03  0.57483235367E+03  0.00000000000E+00 0. -1.
         21    1    1    2  505  503 -0.21152811222E+02  0.37706295298E+02  0.19394426936E+03  0.19870477031E+03  0.00000000000E+00 0. -1.
          2    1    1    2  501    0 -0.34896283663E+02  0.35964787214E+02  0.17323138251E+04  0.17330384892E+04  0.00000000000E+00 0.  1.
<scales pt_clust_3="66.83656" pt_clust_4="14000.00000" pt_clust_5="43.23432" pt_clust_6="80.52089"></scales>
<clustering>
<clus scale="   43.234">  1  5  2 -1</clus>
<clus scale="   66.837">  2  3  1 -1</clus>
<clus scale="   80.521">  1  6  2 -1</clus>
<clus scale="   66.837">  2  3  1 -1</clus>
</clustering>
</event>
<event>
 6    0  0.7258365E+002  0.6628900E+02  0.7546771E-02  0.1373187E+00
         21   -1    0    0  505  502  0.00000000000E+00  0.00000000000E+00  0.20379851206E+03  0.20379851206E+03  0.00000000000E+00 0. -1.
          2   -1    0    0  503    0 -0.00000000000E+00 -0.00000000000E+00 -0.61383235314E+03  0.61383235314E+03  0.00000000000E+00 0.  1.
         21    1    1    2  503  504 -0.39734850383E+02  0.45108292050E+02  0.77972887570E+02  0.98455002629E+02  0.00000000000E+00 0. -1.
         21    1    1    2  504  502 -0.23038330095E+02 -0.44487226154E+02  0.78221035835E+02  0.92889226456E+02  0.00000000000E+00 0. -1.
         21    1    1    2  505  501  0.11434706312E+03  0.36692429918E+01 -0.85610502902E+02  0.14289112077E+03  0.00000000000E+00 0. -1.
          2    1    1    2  501    0 -0.51573882644E+02 -0.42903088871E+01 -0.48061726158E+03  0.48339551534E+03  0.00000000000E+00 0.  1.
<scales pt_clust_3="14000.00000" pt_clust_4="50.09868" pt_clust_5="66.28900" pt_clust_6="52.06746"></scales>
<clustering>
<clus scale="   50.099">  1  4  2 -1</clus>
<clus scale="   52.067">  2  6  1 -1</clus>
<clus scale="   66.289">  2  5  1 -1</clus>
<clus scale="   50.099">  1  3  2 -1</clus>
</clustering>
</event>
<event>
 6    0  0.7258365E+002  0.1428766E+03  0.7546771E-02  0.1209510E+00
          2   -1    0    0  503    0 -0.00000000000E+00  0.00000000000E+00  0.27061911088E+04  0.27061911088E+04  0.00000000000E+00 0. -1.
         21   -1    0    0  504  502  0.00000000000E+00 -0.00000000000E+00 -0.65139700748E+02  0.65139700748E+02  0.00000000000E+00 0. -1.
         21    1    1    2  503  505  0.13177514215E+03 -0.76448164941E+02  0.59195342993E+03  0.61124289216E+03  0.00000000000E+00 0. -1.
         21    1    1    2  504  501 -0.13897661383E+03 -0.36052704557E+02  0.25874646019E+03  0.29591219536E+03  0.00000000000E+00 0. -1.
         21    1    1    2  505  502 -0.27055195998E+02 -0.25664838961E+02 -0.23935925568E+02  0.44312482690E+02  0.00000000000E+00 0.  1.
          2    1    1    2  501    0  0.34256667677E+02  0.13816570846E+03  0.18142874435E+04  0.18198632393E+04  0.00000000000E+00 0. -1.
<scales pt_clust_3="14000.00000" pt_clust_4="142.87663" pt_clust_5="37.29166" pt_clust_6="139.53644"></scales>
<clustering>
<clus scale="   37.292">  2  5  1 -1</clus>
<clus scale="  139.536">  1  6  2 -1</clus>
<clus scale="  142.877">  2  4  1 -1</clus>
<clus scale="   37.292">  2  3  1 -1</clus>
</clustering>
</event>
<event>
 6    0  0.7258365E+002  0.1095032E+03  0.7546771E-02  0.1261493E+00
         21   -1    0    0  503  502  0.00000000000E+00  0.00000000000E+00  0.97172325421E+03  0.97172325421E+03  0.00000000000E+00 0.  1.
          2   -1    0    0  504    0 -0.00000000000E+00 -0.00000000000E+00 -0.15010648870E+04  0.15010648870E+04  0.00000000000E+00 0. -1.
         21    1    1    2  503  505 -0.78775963077E+01 -0.88220553996E+02  0.79138831883E+03  0.79632932500E+03  0.00000000000E+00 0.  1.
         21    1    1    2  504  502  0.31524213285E+02 -0.10388139217E+02  0.12111476951E+03  0.12558055921E+03  0.00000000000E+00 0.  1.
         21    1    1    2  505  501  0.83910917700E+02  0.11966110921E+03 -0.49616099080E+02  0.15434241301E+03  0.00000000000E+00 0. -1.
          2    1    1    2  501    0 -0.10755753468E+03 -0.21052415994E+02 -0.13922286220E+04  0.13965358440E+04  0.00000000000E+00 0. -1.
<scales pt_clust_3="100.29921" pt_clust_4="33.19171" pt_clust_5="14000.00000" pt_clust_6="109.50317"></scales>
<clustering>
<clus scale="   33.192">  1  4  2 -1</clus>
<clus scale="  100.299">  1  3  2 -1</clus>
<clus scale="  109.503">  2  6  1 -1</clus>
<clus scale="   33.192">  1  3  2 -1</clus>
</clustering>
</event>
<event>
 6    0  0.7258365E+002  0.6370466E+02  0.7546771E-02  0.1382911E+00
          1   -1    0    0  504    0 -0.00000000000E+00  0.00000000000E+00  0.45563161599E+03  0.45563161599E+03  0.00000000000E+00 0. -1.
         21   -1    0    0  505  502  0.00000000000E+00 -0.00000000000E+00 -0.27884415160E+03  0.27884415160E+03  0.00000000000E+00 0.  1.
         21    1    1    2  503  502  0.32526103331E+02  0.11026141939E+02 -0.38992409700E+00  0.34346400754E+02  0.00000000000E+00 0. -1.
         21    1    1    2  504  503  0.34047858815E+02 -0.48619883383E+02  0.40261732098E+02  0.71722777565E+02  0.00000000000E+00 0.  1.
         21    1    1    2  505  501 -0.82685390793E+02 -0.46040597266E+02 -0.23159270523E+03  0.25018351577E+03  0.00000000000E+00 0.  1.
          1    1    1    2  501    0  0.16111428647E+02  0.83634338710E+02  0.36850836162E+03  0.37822307350E+03  0.00000000000E+00 0. -1.
<scales pt_clust_3="34.34419" pt_clust_4="59.96803" pt_clust_5="63.70466" pt_clust_6="14000.00000"></scales>
<clustering>
<clus scale="   34.344">  2  3  1 -1</clus>
<clus scale="   59.968">  1  4  2 -1</clus>
<clus scale="   63.705">  2  5  1 -1</clus>
<clus scale="   34.344">  2  3  1 -1</clus>
</clustering>
</event>
<event>
 6    0  0.7258365E+002  0.1446710E+03  0.7546771E-02  0.1207178E+00
         -3   -1    0    0    0  501 -0.00000000000E+00  0.00000000000E+00  0.14120739406E+03  0.14120739406E+03  0.00000000000E+00 0. -1.
         21   -1    0    0  504  502  0.00000000000E+00 -0.00000000000E+00 -0.10340628195E+04  0.10340628195E+04  0.00000000000E+00 0. -1.
         21    1    1    2  503  502  0.24410742901E+02 -0.66757615467E+02 -0.24889489205E+03  0.25884576658E+03  0.00000000000E+00 0. -1.
         21    1    1    2  504  501 -0.13854918589E+03  0.25496166943E+02 -0.37566382062E+03  0.40120971768E+03  0.00000000000E+00 0.  1.
         21    1    1    2  505  503  0.16038878927E+03  0.19707360274E+02 -0.36871751579E+03  0.40257365814E+03  0.00000000000E+00 0. -1.
         -3    1    1    2    0  505 -0.46250346278E+02  0.21554088250E+02  0.10042080297E+03  0.11264107120E+03  0.00000000000E+00 0. -1.
<scales pt_clust_3="66.09970" pt_clust_4="144.67097" pt_clust_5="14000.00000" pt_clust_6="51.02620"></scales>
<clustering>
<clus scale="   51.026">  1  6  2 -1</clus>
<clus scale="   66.100">  2  3  1 -1</clus>
<clus scale="  144.671">  2  4  1 -1</clus>
<clus scale="   66.100">  2  3  1 -1</clus>
</clustering>
</event>
<event>
 6    0  0.7258365E+002  0.1669074E+03  0.7546771E-02  0.1181112E+00
         21   -1    0    0  505  502  0.00000000000E+00  0.00000000000E+00  0.43707817502E+03  0.43707817502E+03  0.00000000000E+00 0. -1.
          1   -1    0    0  503    0 -0.00000000000E+00 -0.00000000000E+00 -0.29971646545E+03  0.29971646545E+03  0.00000000000E+00 0.  1.
         21    1    1    2  503  504 -0.13090069982E+03  0.14910198392E+03  0.16624305692E+03  0.25884966447E+03  0.00000000000E+00 0. -1.
         21    1    1    2  504  502 -0.51432092934E+02 -0.40014517020E+02  0.14707427429E+03  0.16086411630E+03  0.00000000000E+00 0. -1.
         21    1    1    2  505  501  0.29440899975E+02 -0.46989803014E+02  0.21742059092E+02  0.59561105700E+02  0.00000000000E+00 0. -1.
          1    1    1    2  501    0  0.15289189278E+03 -0.62097663889E+02 -0.19769768073E+03  0.25751975401E+03  0.00000000000E+00 0.  1.
<scales pt_clust_3="14000.00000" pt_clust_4="70.67255" pt_clust_5="55.45095" pt_clust_6="166.90737"></scales>
<clustering>
<clus scale="   55.451">  1  5  2 -1</clus>
<clus scale="   70.673">  1  4  2 -1</clus>
<clus scale="  166.907">  2  6  1 -1</clus>
<clus scale="   55.451">  1  3  2 -1</clus>
</clustering>
</event>
<event>
 6    0  0.7258365E+002  0.1228140E+03  0.7546771E-02  0.1238526E+00
         21   -1    0    0  504  502  0.00000000000E+00  0.00000000000E+00  0.14292160444E+03  0.14292160444E+03  0.00000000000E+00 0.  1.
          2   -1    0    0  502    0 -0.00000000000E+00 -0.00000000000E+00 -0.18403972243E+04  0.18403972243E+04  0.00000000000E+00 0.  1.
         21    1    1    2  503  501 -0.10287870227E+03  0.40166963286E+02 -0.11264859594E+03  0.15775651647E+03  0.00000000000E+00 0.  1.
         21    1    1    2  504  505  0.28751749961E+02  0.16075903207E+02  0.83420361647E+02  0.89688653279E+02  0.00000000000E+00 0.  1.
         21    1    1    2  505  503 -0.49836855667E+02 -0.44747405055E+02 -0.41291874421E+01  0.67105086476E+02  0.00000000000E+00 0.  1.
          2    1    1    2  501    0  0.12396380798E+03 -0.11495461438E+02 -0.16641181981E+04  0.16687685725E+04  0.00000000000E+00 0.  1.
<scales pt_clust_3="14000.00000" pt_clust_4="32.94082" pt_clust_5="49.19414" pt_clust_6="122.81399"></scales>
<clustering>
<clus scale="   32.941">  1  4  2 -1</clus>
<clus scale="   49.194">  1  5  2 -1</clus>
<clus scale="  122.814">  2  6  1 -1</clus>
<clus scale="   32.941">  1  3  2 -1</clus>
</clustering>
</event>
<event>
 6    0  0.7258365E+002  0.1208026E+03  0.7546771E-02  0.1241779E+00
          2   -1    0    0  505    0 -0.00000000000E+00  0.00000000000E+00  0.24385427745E+04  0.24385427745E+04  0.00000000000E+00 0. -1.
         21   -1    0    0  503  502  0.00000000000E+00 -0.00000000000E+00 -0.36854273767E+02  0.36854273767E+02  0.00000000000E+00 0. -1.
         21    1    1    2  503  501 -0.70366229123E+02 -0.32194431682E+02  0.26187564978E+03  0.27306911869E+03  0.00000000000E+00 0. -1.
         21    1    1    2  504  502  0.44641546525E+02  0.15926295412E+02  0.64057914151E+01  0.47828325555E+02  0.00000000000E+00 0. -1.
         21    1    1    2  505  504 -0.16027494226E+02  0.12809573194E+03  0.48859119165E+03  0.50535804106E+03  0.00000000000E+00 0. -1.
          2    1    1    2  501    0  0.41752176823E+02 -0.11182759568E+03  0.16448158679E+04  0.16491415630E+04  0.00000000000E+00 0. -1.
<scales pt_clust_3="61.02669" pt_clust_4="47.39741" pt_clust_5="120.80256" pt_clust_6="14000.00000"></scales>
<clustering>
<clus scale="   47.397">  2  4  1 -1</clus>
<clus scale="   61.027">  2  3  1 -1</clus>
<clus scale="  120.803">  2  5  1 -1</clus>
<clus scale="   47.397">  2  3  1 -1</clus>
</clustering>
</event>
<event>
 6    0  0.7258365E+002  0.9163979E+02  0.7546771E-02  0.1298929E+00
          1   -1    0    0  504    0 -0.00000000000E+00  0.00000000000E+00  0.29349867744E+03  0.29349867744E+03  0.00000000000E+00 0.  1.
         21   -1    0    0  503  502  0.00000000000E+00 -0.00000000000E+00 -0.63030729843E+03  0.63030729843E+03  0.00000000000E+00 0. -1.
         21    1    1    2  503  505  0.77827234215E+02  0.19057672086E+02 -0.13611086601E+03  0.15794442408E+03  0.00000000000E+00 0. -1.
         21    1    1    2  504  502 -0.32829412609E-01 -0.62981903110E+02 -0.15322528857E+03  0.16566445079E+03  0.00000000000E+00 0. -1.
         21    1    1    2  505  501 -0.44179602136E+02  0.12882565377E+03 -0.30118876431E+03  0.33054887394E+03  0.00000000000E+00 0. -1.
          1    1    1    2  501    0 -0.33614802666E+02 -0.84901422750E+02  0.25371629790E+03  0.26964822707E+03  0.00000000000E+00 0.  1.
<scales pt_clust_3="77.81936" pt_clust_4="62.98191" pt_clust_5="14000.00000" pt_clust_6="91.63979"></scales>
<clustering>
<clus scale="   62.982">  2  4  1 -1</clus>
<clus scale="   77.819">  2  3  1 -1</clus>
<clus scale="   91.640">  1  6  2 -1</clus>
<clus scale="   62.982">  2  3  1 -1</clus>
</clustering>
</event>
<event>
 6    0  0.7258365E+002  0.1527261E+03  0.7546771E-02  0.1197163E+00
         -1   -1    0    0    0  501 -0.00000000000E+00  0.00000000000E+00  0.43446589184E+02  0.43446589184E+02  0.00000000000E+00 0. -1.
         21   -1    0    0  504  502  0.00000000000E+00 -0.00000000000E+00 -0.12902043161E+04  0.12902043161E+04  0.00000000000E+00 0. -1.
         21    1    1    2  503  505 -0.72265805920E+02  0.48668363740E+01 -0.17364588531E+03  0.18814602384E+03  0.00000000000E+00 0.  1.
         21    1    1    2  504  501  0.11451914517E+03  0.20147417862E+02 -0.15111516806E+03  0.19067340421E+03  0.00000000000E+00 0. -1.
         21    1    1    2  505  502  0.45116606152E+02 -0.11361677013E+03 -0.51045275517E+03  0.52488693437E+03  0.00000000000E+00 0. -1.
         -1    1    1    2    0  503 -0.87369945405E+02  0.88602515898E+02 -0.41154391836E+03  0.42994454284E+03  0.00000000000E+00 0. -1.
<scales pt_clust_3="55.90159" pt_clust_4="116.27791" pt_clust_5="134.00187" pt_clust_6="55.90159"></scales>
<clustering>
<clus scale="   55.902">  3  6 -1 -1</clus>
<clus scale="  116.278">  1  4  2 -1</clus>
<clus scale="  134.002">  2  5  1 -1</clus>
<clus scale="  134.002">  2  3  1 -1</clus>
</clustering>
</event>
<event>
 6    0  0.7258365E+002  0.2219476E+03  0.7546771E-02  0.1132439E+00
         21   -1    0    0  504  502  0.00000000000E+00  0.00000000000E+00  0.38129055692E+03  0.38129055692E+03  0.00000000000E+00 0. -1.
          2   -1    0    0  503    0 -0.00000000000E+00 -0.00000000000E+00 -0.21984297981E+04  0.21984297981E+04  0.00000000000E+00 0. -1.
         21    1    1    2  503  505 -0.18962473928E+03  0.12601669199E+03 -0.22810755716E+03  0.32228994095E+03  0.00000000000E+00 0. -1.
         21    1    1    2  504  501 -0.15940635504E+02 -0.25877739331E+03  0.23964908703E+03  0.35306023291E+03  0.00000000000E+00 0. -1.
         21    1    1    2  505  502  0.33233792512E+02 -0.86646450326E+01  0.21688584179E+02  0.40619646994E+02  0.00000000000E+00 0. -1.
          2    1    1    2  501    0  0.17233158227E+03  0.14142534635E+03 -0.18503693552E+04  0.18637505341E+04  0.00000000000E+00 0. -1.
<scales pt_clust_3="223.31644" pt_clust_4="221.94757" pt_clust_5="34.34474" pt_clust_6="14000.00000"></scales>
<clustering>
<clus scale="   34.345">  1  5  2 -1</clus>
<clus scale="  223.316">  1  3  2 -1</clus>
<clus scale="  221.948">  1  4  2 -1</clus>
<clus scale="   34.345">  1  3  2 -1</clus>
</clustering>
</event>
<event>
 6    0  0.7258365E+002  0.1189413E+03  0.7546771E-02  0.1244854E+00
          4   -1    0    0  505    0 -0.00000000000E+00  0.00000000000E+00  0.37366764089E+03  0.37366764089E+03  0.00000000000E+00 0. -1.
         21   -1    0    0  504  502  0.00000000000E+00 -0.00000000000E+00 -0.41640152555E+03  0.41640152555E+03  0.00000000000E+00 0. -1.
         21    1    1    2  503  501  0.37726706548E+02  0.41731786260E+02 -0.64097705502E+02  0.85284009181E+02  0.00000000000E+00 0. -1.
         21    1    1    2  504  503 -0.26727980525E+02  0.20944086417E+02 -0.10854634025E+03  0.11373366995E+03  0.00000000000E+00 0. -1.
         21    1    1    2  505  502  0.27902563018E+02 -0.17241876657E+03 -0.18552909986E+03  0.25480940129E+03  0.00000000000E+00 0. -1.
          4    1    1    2  501    0 -0.38901289041E+02  0.10974289389E+03  0.31543926096E+03  0.33624208601E+03  0.00000000000E+00 0. -1.
<scales pt_clust_3="56.28626" pt_clust_4="33.95644" pt_clust_5="118.94127" pt_clust_6="14000.00000"></scales>
<clustering>
<clus scale="   33.956">  2  4  1 -1</clus>
<clus scale="   56.286">  2  3  1 -1</clus>
<clus scale="  118.941">  2  5  1 -1</clus>
<clus scale="   33.956">  2  3  1 -1</clus>
</clustering>
</event>
<event>
 6    0  0.7258365E+002  0.1533043E+03  0.7546771E-02  0.1196471E+00
         21   -1    0    0  505  502  0.00000000000E+00  0.00000000000E+00  0.43112952586E+03  0.43112952586E+03  0.00000000000E+00 0. -1.
          1   -1    0    0  503    0 -0.00000000000E+00 -0.00000000000E+00 -0.16471554343E+04  0.16471554343E+04  0.00000000000E+00 0. -1.
         21    1    1    2  503  502 -0.17928696404E+02  0.75635523488E+02  0.79276262007E+02  0.11102655667E+03  0.00000000000E+00 0. -1.
         21    1    1    2  504  501  0.58544348705E+02 -0.35437456589E+02 -0.69498885105E+03  0.69835002483E+03  0.00000000000E+00 0.  1.
         21    1    1    2  505  504 -0.12427866504E+03 -0.55683647100E+02  0.31838042491E+03  0.34628304912E+03  0.00000000000E+00 0. -1.
          1    1    1    2  501    0  0.83663012738E+02  0.15485580201E+02 -0.91869374428E+03  0.92262532952E+03  0.00000000000E+00 0. -1.
<scales pt_clust_3="77.73140" pt_clust_4="48.86370" pt_clust_5="143.29559" pt_clust_6="48.86370"></scales>
<clustering>
<clus scale="   48.864">  4  6 -1 -1</clus>
<clus scale="   77.731">  1  3  2 -1</clus>
<clus scale="  143.296">  1  5  2 -1</clus>
<clus scale="   77.731">  1  3  2 -1</clus>
</clustering>
</event>
<event>
 6    0  0.7258365E+002  0.2000482E+03  0.7546771E-02  0.1149698E+00
          1   -1    0    0  503    0 -0.00000000000E+00  0.00000000000E+00  0.92662327989E+03  0.92662327989E+03  0.00000000000E+00 0.  1.
         21   -1    0    0  504  502  0.00000000000E+00 -0.00000000000E+00 -0.19624207051E+04  0.19624207051E+04  0.00000000000E+00 0.  1.
         21    1    1    2  503  502 -0.37207498636E+02  0.26471326872E+02  0.32203753637E+03  0.32525882606E+03  0.00000000000E+00 0.  1.
         21    1    1    2  504  505 -0.59377520049E+02 -0.16906884541E+03 -0.76519252454E+03  0.78589411754E+03  0.00000000000E+00 0.  1.
         21    1    1    2  505  501  0.14651252269E+03  0.17596417223E+03 -0.11726435078E+04  0.11947895654E+04  0.00000000000E+00 0.  1.
          1    1    1    2  501    0 -0.49927504009E+02 -0.33366653696E+02  0.58000107075E+03  0.58310147599E+03  0.00000000000E+00 0.  1.
<scales pt_clust_3="45.66321" pt_clust_4="14000.00000" pt_clust_5="200.04823" pt_clust_6="86.17003"></scales>
<clustering>
<clus scale="   45.663">  1  3  2 -1</clus>
<clus scale="   86.170">  1  6  2 -1</clus>
<clus scale="  200.048">  1  5  2 -1</clus>
<clus scale="  200.048">  2  3  1 -1</clus>
</clustering>
</event>
<event>
 6    0  0.7258365E+002  0.9592846E+02  0.7546771E-02  0.1289099E+00
         21   -1    0    0  503  502  0.00000000000E+00  0.00000000000E+00  0.95995615833E+01  0.95995615833E+01  0.00000000000E+00 0.  1.
          2   -1    0    0  504    0 -0.00000000000E+00 -0.00000000000E+00 -0.28000424744E+04  0.28000424744E+04  0.00000000000E+00 0. -1.
         21    1    1    2  503  505 -0.82498102628E+01 -0.29467018619E+02 -0.89498316773E+02  0.94584952614E+02  0.00000000000E+00 0.  1.
         21    1    1    2  504  502  0.20059317309E+02  0.45494292976E+02 -0.39802400730E+03  0.40111746072E+03  0.00000000000E+00 0.  1.
         21    1    1    2  505  501  0.77121329145E+02 -0.54483579695E+02 -0.52802750105E+03  0.53640395387E+03  0.00000000000E+00 0.  1.
          2    1    1    2  501    0 -0.88930836191E+02  0.38456305338E+02 -0.17748930877E+04  0.17775356687E+04  0.00000000000E+00 0. -1.
<scales pt_clust_3="30.60007" pt_clust_4="43.09105" pt_clust_5="95.92846" pt_clust_6="14000.00000"></scales>
<clustering>
<clus scale="   30.600">  1  3  2 -1</clus>
<clus scale="   43.091">  1  4  2 -1</clus>
<clus scale="   95.928">  1  5  2 -1</clus>
<clus scale="   30.600">  1  3  2 -1</clus>
</clustering>
</event>
<event>
 6    0  0.7258365E+002  0.2201761E+03  0.7546771E-02  0.1133752E+00
         -4   -1    0    0    0  501 -0.00000000000E+00  0.00000000000E+00  0.12224359964E+04  0.12224359964E+04  0.00000000000E+00 0. -1.
         21   -1    0    0  503  502  0.00000000000E+00 -0.00000000000E+00 -0.26495168076E+03  0.26495168076E+03  0.00000000000E+00 0. -1.
         21    1    1    2  503  505 -0.10871385608E+02  0.41513081516E+02 -0.22321003583E+02  0.48370964048E+02  0.00000000000E+00 0.  1.
         21    1    1    2  504  502  0.29070165703E+02 -0.19258997111E+03 -0.87814418335E+02  0.21365238958E+03  0.00000000000E+00 0. -1.
         21    1    1    2  505  501 -0.12965925934E+02  0.19617505760E+03  0.44935621108E+02  0.20167294936E+03  0.00000000000E+00 0. -1.
         -4    1    1    2    0  504 -0.52328541609E+01 -0.45098168010E+02  0.10226841164E+04  0.10236913741E+04  0.00000000000E+00 0. -1.
<scales pt_clust_3="32.85909" pt_clust_4="208.64050" pt_clust_5="32.85909" pt_clust_6="45.40074"></scales>
<clustering>
<clus scale="   32.859">  3  5 -1 -1</clus>
<clus scale="   45.401">  1  6  2 -1</clus>
<clus scale="  208.641">  2  4  1 -1</clus>
<clus scale="  208.641">  2  3  1 -1</clus>
</clustering>
</event>
<event>
 6    0  0.7258365E+002  0.8792274E+02  0.7546771E-02  0.1307961E+00
          2   -1    0    0  505    0 -0.00000000000E+00  0.00000000000E+00  0.34154411635E+03  0.34154411635E+03  0.00000000000E+00 0.  1.
         21   -1    0    0  503  502  0.00000000000E+00 -0.00000000000E+00 -0.29811486057E+03  0.29811486057E+03  0.00000000000E+00 0.  1.
         21    1    1    2  503  501  0.17692194402E+02 -0.80213491766E+02 -0.88325227147E+02  0.12061742724E+03  0.00000000000E+00 0.  1.
         21    1    1    2  504  502  0.74912392113E+02  0.56245287454E+02 -0.17012213190E+03  0.19420849265E+03  0.00000000000E+00 0.  1.
         21    1    1    2  505  504 -0.40970170584E+02  0.30267751921E+02  0.66445443682E+02  0.83723883511E+02  0.00000000000E+00 0.  1.
          2    1    1    2  501    0 -0.51634415930E+02 -0.62995476093E+01  0.23543117115E+03  0.24110917352E+03  0.00000000000E+00 0.  1.
<scales pt_clust_3="79.84150" pt_clust_4="87.92274" pt_clust_5="50.93812" pt_clust_6="14000.00000"></scales>
<clustering>
<clus scale="   50.938">  1  5  2 -1</clus>
<clus scale="   79.842">  2  3  1 -1</clus>
<clus scale="   87.923">  2  4  1 -1</clus>
<clus scale="   79.842">  2  3  1 -1</clus>
</clustering>
</event>
<event>
 6    0  0.7258365E+002  0.1947471E+03  0.7546771E-02  0.1154248E+00
          2   -1    0    0  502    0 -0.00000000000E+00  0.00000000000E+00  0.14751996825E+04  0.14751996825E+04  0.00000000000E+00 0. -1.
         21   -1    0    0  503  502  0.00000000000E+00 -0.00000000000E+00 -0.95029772331E+03  0.95029772331E+03  0.00000000000E+00 0.  1.
         21    1    1    2  503  505  0.62632084846E+02 -0.24054807357E+02 -0.78040342739E+02  0.10291601870E+03  0.00000000000E+00 0.  1.
         21    1    1    2  504  501 -0.19721054745E+03  0.23028930675E+03  0.44596229297E+03  0.53926573373E+03  0.00000000000E+00 0. -1.
         21    1    1    2  505  504  0.71218086812E+02 -0.11494990732E+03 -0.80432346574E+03  0.81561126440E+03  0.00000000000E+00 0.  1.
          2    1    1    2  501    0  0.63360375790E+02 -0.91284592068E+02  0.96130347472E+03  0.96770438899E+03  0.00000000000E+00 0. -1.
<scales pt_clust_3="67.09256" pt_clust_4="14000.00000" pt_clust_5="194.74714" pt_clust_6="111.32549"></scales>
<clustering>
<clus scale="   67.093">  2  3  1 -1</clus>
<clus scale="  111.325">  1  6  2 -1</clus>
<clus scale="  194.747">  2  5  1 -1</clus>
<clus scale="   67.093">  2  3  1 -1</clus>
</clustering>
</event>
<event>
 6    0  0.7258365E+002  0.8371010E+02  0.7546771E-02  0.1318841E+00
          2   -1    0    0  503    0 -0.00000000000E+00  0.00000000000E+00  0.61502028920E+03  0.61502028920E+03  0.00000000000E+00 0. -1.
         21   -1    0    0  504  502  0.00000000000E+00 -0.00000000000E+00 -0.39996077976E+03  0.39996077976E+03  0.00000000000E+00 0. -1.
         21    1    1    2  503  502  0.92195169578E+02  0.22753693215E+02  0.72630752491E+02  0.11955294248E+03  0.00000000000E+00 0. -1.
         21    1    1    2  504  505  0.66933487773E+01 -0.43936487253E+02 -0.35762786761E+03  0.36037883889E+03  0.00000000000E+00 0. -1.
         21    1    1    2  505  501 -0.68107549735E+02 -0.28447808532E+02  0.72288002293E+02  0.10331249400E+03  0.00000000000E+00 0. -1.
          2    1    1    2  501    0 -0.30780968620E+02  0.49630602570E+02  0.42776862226E+03  0.43173679358E+03  0.00000000000E+00 0. -1.
<scales pt_clust_3="14000.00000" pt_clust_4="44.44340" pt_clust_5="83.71010" pt_clust_6="56.42758"></scales>
<clustering>
<clus scale="   44.443">  2  4  1 -1</clus>
<clus scale="   56.428">  1  6  2 -1</clus>
<clus scale="   83.710">  1  5  2 -1</clus>
<clus scale="   44.443">  2  3  1 -1</clus>
</clustering>
</event>
<event>
 6    0  0.7258365E+002  0.1257691E+03  0.7546771E-02  0.1233872E+00
         -2   -1    0    0    0  501 -0.00000000000E+00  0.00000000000E+00  0.12706696241E+04  0.12706696241E+04  0.00000000000E+00 0.  1.
         21   -1    0    0  505  502  0.00000000000E+00 -0.00000000000E+00 -0.23044167727E+03  0.23044167727E+03  0.00000000000E+00 0. -1.
         21    1    1    2  503  502 -0.14392859596E+03 -0.10648047913E+03  0.65063666836E+02  0.19049098119E+03  0.00000000000E+00 0. -1.
         21    1    1    2  504  501  0.90892453979E+02  0.10895894716E+02 -0.11458143682E+02  0.92257507926E+02  0.00000000000E+00 0. -1.
         21    1    1    2  505  504  0.45738264428E+02  0.25380689645E+02 -0.10877241157E+03  0.12069633697E+03  0.00000000000E+00 0. -1.
         -2    1    1    2    0  503  0.72978775546E+01  0.70203894767E+02  0.10953948352E+04  0.10976664753E+04  0.00000000000E+00 0.  1.
<scales pt_clust_3="125.76909" pt_clust_4="14000.00000" pt_clust_5="52.30840" pt_clust_6="70.87767"></scales>
<clustering>
<clus scale="   52.308">  2  5  1 -1</clus>
<clus scale="   70.878">  1  6  2 -1</clus>
<clus scale="  125.769">  1  3  2 -1</clus>
<clus scale="   52.308">  2  3  1 -1</clus>
</clustering>
</event>
<event>
 6    0  0.7258365E+002  0.8083593E+02  0.7546771E-02  0.1326696E+00
         21   -1    0    0  503  502  0.00000000000E+00  0.00000000000E+00  0.68982813201E+03  0.68982813201E+03  0.00000000000E+00 0.  1.
          1   -1    0    0  504    0 -0.00000000000E+00 -0.00000000000E+00 -0.65639599916E+02  0.65639599916E+02  0.00000000000E+00 0.  1.
         21    1    1    2  503  501  0.36082941525E+02 -0.85878055429E+02  0.10132471820E+03  0.13763617836E+03  0.00000000000E+00 0.  1.
         21    1    1    2  504  505 -0.46839550771E+01  0.10009860252E+03  0.26824583198E+03  0.28635204913E+03  0.00000000000E+00 0.  1.
         21    1    1    2  505  502 -0.29007085357E+01 -0.37134104934E+02  0.28284367327E+03  0.28528564522E+03  0.00000000000E+00 0.  1.
          1    1    1    2  501    0 -0.28498277912E+02  0.22913557840E+02 -0.28225691365E+02  0.46193859223E+02  0.00000000000E+00 0.  1.
<scales pt_clust_3="80.83593" pt_clust_4="14000.00000" pt_clust_5="36.38457" pt_clust_6="36.56751"></scales>
<clustering>
<clus scale="   36.568">  2  6  1 -1</clus>
<clus scale="   36.385">  1  5  2 -1</clus>
<clus scale="   80.836">  2  3  1 -1</clus>
<clus scale="   36.385">  1  3  2 -1</clus>
</clustering>
</event>
<event>
 6    0  0.7258365E+002  0.7637420E+02  0.7546771E-02  0.1339668E+00
          2   -1    0    0  503    0 -0.00000000000E+00  0.00000000000E+00  0.12431628928E+03  0.12431628928E+03  0.00000000000E+00 0. -1.
         21   -1    0    0  504  502  0.00000000000E+00 -0.00000000000E+00 -0.27491085052E+04  0.27491085052E+04  0.00000000000E+00 0. -1.
         21    1    1    2  503  505  0.11963408016E+02  0.49763287093E+02 -0.93313380564E+02  0.10642788575E+03  0.00000000000E+00 0. -1.
         21    1    1    2  504  501  0.44517620187E+02  0.63859581740E+02  0.70090490020E+02  0.10474989966E+03  0.00000000000E+00 0. -1.
         21    1    1    2  505  502 -0.43590042101E+02 -0.62701604294E+02 -0.26081865122E+04  0.26093042110E+04  0.00000000000E+00 0. -1.
          2    1    1    2  501    0 -0.12890986101E+02 -0.50921264539E+02  0.66171868541E+01  0.52942798064E+02  0.00000000000E+00 0. -1.
<scales pt_clust_3="51.18113" pt_clust_4="76.37420" pt_clust_5="14000.00000" pt_clust_6="39.58572"></scales>
<clustering>
<clus scale="   51.181">  1  3  2 -1</clus>
<clus scale="   39.586">  1  6  2 -1</clus>
<clus scale="   76.374">  1  4  2 -1</clus>
<clus scale="   76.374">  2  3  1 -1</clus>
</clustering>
</event>
<event>
 6    0  0.7258365E+002  0.7317124E+02  0.7546771E-02  0.1349629E+00
          2   -1    0    0  503    0 -0.00000000000E+00  0.00000000000E+00  0.85620396853E+03  0.85620396853E+03  0.00000000000E+00 0. -1.
         21   -1    0    0  504  502  0.00000000000E+00 -0.00000000000E+00 -0.10700156826E+04  0.10700156826E+04  0.00000000000E+00 0. -1.
         21    1    1    2  503  505  0.54632753405E+02  0.67401521825E+02 -0.48986647315E+02  0.99636311173E+02  0.00000000000E+00 0. -1.
         21    1    1    2  504  501  0.55507086688E+01 -0.70126429502E+02 -0.86269241930E+03  0.86555573870E+03  0.00000000000E+00 0. -1.
         21    1    1    2  505  502 -0.82741360742E+02  0.34829372737E+02 -0.11573973870E+03  0.14647492992E+03  0.00000000000E+00 0.  1.
          2    1    1    2  501    0  0.22557898668E+02 -0.32104465059E+02  0.81360709124E+03  0.81455267134E+03  0.00000000000E+00 0. -1.
<scales pt_clust_3="14000.00000" pt_clust_4="71.49720" pt_clust_5="73.17124" pt_clust_6="39.23717"></scales>
<clustering>
<clus scale="   39.237">  1  6  2 -1</clus>
<clus scale="   71.497">  2  4  1 -1</clus>
<clus scale="   73.171">  2  5  1 -1</clus>
<clus scale="   71.497">  2  3  1 -1</clus>
</clustering>
</event>
<event>
 6    0  0.7258365E+002  0.8367881E+02  0.7546771E-02  0.1318924E+00
         21   -1    0    0  503  502  0.00000000000E+00  0.00000000000E+00  0.14744081829E+03  0.14744081829E+03  0.00000000000E+00 0.  1.
          2   -1    0    0  504    0 -0.00000000000E+00 -0.00000000000E+00 -0.39568714518E+03  0.39568714518E+03  0.00000000000E+00 0.  1.
         21    1    1    2  503  501  0.68814426665E+02 -0.28932215451E+02  0.80077515848E+02  0.10947559980E+03  0.00000000000E+00 0.  1.
         21    1    1    2  504  505 -0.23487538232E+02  0.90251430852E+02 -0.52938479315E+02  0.10723557160E+03  0.00000000000E+00 0.  1.
         21    1    1    2  505  502 -0.12337561849E+02 -0.43329863688E+02  0.33346323008E+01  0.45175350493E+02  0.00000000000E+00 0.  1.
          2    1    1    2  501    0 -0.32989326585E+02 -0.17989351714E+02 -0.27871999573E+03  0.28124144158E+03  0.00000000000E+00 0.  1.
<scales pt_clust_3="83.67881" pt_clust_4="14000.00000" pt_clust_5="50.04892" pt_clust_6="37.57542"></scales>
<clustering>
<clus scale="   37.575">  2  6  1 -1</clus>
<clus scale="   50.049">  1  5  2 -1</clus>
<clus scale="   83.679">  1  3  2 -1</clus>
<clus scale="   50.049">  1  3  2 -1</clus>
</clustering>
</event>
<event>
 6    0  0.7258365E+002  0.6723029E+02  0.7546771E-02  0.1369773E+00
          2   -1    0    0  503    0 -0.00000000000E+00  0.00000000000E+00  0.11093217618E+04  0.11093217618E+04  0.00000000000E+00 0.  1.
         21   -1    0    0  504  502  0.00000000000E+00 -0.00000000000E+00 -0.10044472313E+03  0.10044472313E+03  0.00000000000E+00 0. -1.
         21    1    1    2  503  505 -0.71901689152E+02 -0.43073674466E+02  0.33947446792E+03  0.34966856980E+03  0.00000000000E+00 0.  1.
         21    1    1    2  504  501 -0.25114368389E+02  0.73238552918E+02 -0.19007530280E+02  0.79723919500E+02  0.00000000000E+00 0.  1.
         21    1    1    2  505  502  0.53089624487E+02 -0.37985062522E+02 -0.21754917999E+02  0.68808790572E+02  0.00000000000E+00 0. -1.
          2    1    1    2  501    0  0.43926433054E+02  0.78201840691E+01  0.71016501905E+03  0.71156520508E+03  0.00000000000E+00 0.  1.
<scales pt_clust_3="49.68664" pt_clust_4="67.23029" pt_clust_5="14000.00000" pt_clust_6="44.61711"></scales>
<clustering>
<clus scale="   44.617">  1  6  2 -1</clus>
<clus scale="   49.687">  1  3  2 -1</clus>
<clus scale="   67.230">  1  4  2 -1</clus>
<clus scale="   67.230">  2  3  1 -1</clus>
</clustering>
</event>
<event>
 6    0  0.7258365E+002  0.9398942E+02  0.7546771E-02  0.1293469E+00
         21   -1    0    0  503  502  0.00000000000E+00  0.00000000000E+00  0.36230717906E+02  0.36230717906E+02  0.00000000000E+00 0. -1.
          1   -1    0    0  502    0 -0.00000000000E+00 -0.00000000000E+00 -0.18092076982E+04  0.18092076982E+04  0.00000000000E+00 0. -1.
         21    1    1    2  503  505 -0.35359542544E+02 -0.59561394458E+01 -0.88639102909E+01  0.36936997058E+02  0.00000000000E+00 0. -1.
         21    1    1    2  504  501  0.55607008317E+01 -0.70042092829E+02 -0.31409229590E+03  0.32185522600E+03  0.00000000000E+00 0. -1.
         21    1    1    2  505  504 -0.25007243824E+01  0.10821974309E+03 -0.14561509686E+03  0.18144289143E+03  0.00000000000E+00 0. -1.
          1    1    1    2  501    0  0.32299566095E+02 -0.32221510813E+02 -0.13044056773E+04  0.13052033016E+04  0.00000000000E+00 0. -1.
<scales pt_clust_3="35.85767" pt_clust_4="93.98942" pt_clust_5="14000.00000" pt_clust_6="45.25213"></scales>
<clustering>
<clus scale="   35.858">  1  3  2 -1</clus>
<clus scale="   45.252">  2  6  1 -1</clus>
<clus scale="   93.989">  2  4  1 -1</clus>
<clus scale="   35.858">  1  3  2 -1</clus>
</clustering>
</event>
<event>
 6    0  0.7258365E+002  0.7734081E+02  0.7546771E-02  0.1336772E+00
         21   -1    0    0  505  502  0.00000000000E+00  0.00000000000E+00  0.16209820064E+04  0.16209820064E+04  0.00000000000E+00 0. -1.
          1   -1    0    0  503    0 -0.00000000000E+00 -0.00000000000E+00 -0.75154327138E+03  0.75154327138E+03  0.00000000000E+00 0. -1.
         21    1    1    2  503  504 -0.81247829830E+02 -0.62622304710E+02  0.27493297987E+03  0.29344659875E+03  0.00000000000E+00 0. -1.
         21    1    1    2  504  502  0.42972130241E+02 -0.41716104185E+02  0.72025998165E+03  0.72274565270E+03  0.00000000000E+00 0. -1.
         21    1    1    2  505  501  0.17527337824E+02  0.29869230570E+02  0.61278301552E+03  0.61376086762E+03  0.00000000000E+00 0. -1.
          1    1    1    2  501    0  0.20748361766E+02  0.74469178324E+02 -0.73853724203E+03  0.74257215871E+03  0.00000000000E+00 0. -1.
<scales pt_clust_3="14000.00000" pt_clust_4="59.12652" pt_clust_5="34.63204" pt_clust_6="77.34081"></scales>
<clustering>
<clus scale="   34.632">  1  5  2 -1</clus>
<clus scale="   59.127">  1  4  2 -1</clus>
<clus scale="   77.341">  2  6  1 -1</clus>
<clus scale="   34.632">  1  3  2 -1</clus>
</clustering>
</event>
<event>
 6    0  0.7258365E+002  0.1364348E+03  0.7546771E-02  0.1218208E+00
          2   -1    0    0  504    0 -0.00000000000E+00  0.00000000000E+00  0.87874341158E+03  0.87874341158E+03  0.00000000000E+00 0. -1.
         21   -1    0    0  503  502  0.00000000000E+00 -0.00000000000E+00 -0.41318794735E+03  0.41318794735E+03  0.00000000000E+00 0. -1.
         21    1    1    2  503  501  0.26412064148E+02 -0.95464378061E+02  0.41701056839E+02  0.10747103216E+03  0.00000000000E+00 0. -1.
         21    1    1    2  504  505  0.65214016299E+02 -0.57948944997E+02  0.30661952645E+03  0.31878908725E+03  0.00000000000E+00 0.  1.
         21    1    1    2  505  502 -0.12607439665E+02  0.14312588489E+03 -0.35697894759E+03  0.38480895972E+03  0.00000000000E+00 0. -1.
          2    1    1    2  501    0 -0.79018640782E+02  0.10287438168E+02  0.47421382853E+03  0.48086227981E+03  0.00000000000E+00 0. -1.
<scales pt_clust_3="136.43477" pt_clust_4="50.06227" pt_clust_5="14000.00000" pt_clust_6="79.68549"></scales>
<clustering>
<clus scale="   79.685">  1  6  2 -1</clus>
<clus scale="   50.062">  1  4  2 -1</clus>
<clus scale="  136.435">  1  3  2 -1</clus>
<clus scale="  136.435">  2  3  1 -1</clus>
</clustering>
</event>
<event>
 6    0  0.7258365E+002  0.2494789E+03  0.7546771E-02  0.1113635E+00
         21   -1    0    0  504  502  0.00000000000E+00  0.00000000000E+00  0.10778279024E+04  0.10778279024E+04  0.00000000000E+00 0. -1.
          1   -1    0    0  505    0 -0.00000000000E+00 -0.00000000000E+00 -0.49344352512E+03  0.49344352512E+03  0.00000000000E+00 0. -1.
         21    1    1    2  503  502  0.84993624808E+02  0.10997233237E+03  0.68708674049E+03  0.70100357995E+03  0.00000000000E+00 0. -1.
         21    1    1    2  504  501 -0.23291076686E+03 -0.66164223098E+02 -0.68813992664E+01  0.24222403554E+03  0.00000000000E+00 0. -1.
         21    1    1    2  505  503  0.18990073725E+03  0.11399052799E+03  0.19462296518E+03  0.29484611080E+03  0.00000000000E+00 0. -1.
          1    1    1    2  501    0 -0.41983595200E+02 -0.15779863725E+03 -0.29044392910E+03  0.33319770127E+03  0.00000000000E+00 0. -1.
<scales pt_clust_3="138.98860" pt_clust_4="249.47894" pt_clust_5="14000.00000" pt_clust_6="156.18020"></scales>
<clustering>
<clus scale="  138.989">  1  3  2 -1</clus>
<clus scale="  156.180">  2  6  1 -1</clus>
<clus scale="  249.479">  2  4  1 -1</clus>
<clus scale="  138.989">  1  3  2 -1</clus>
</clustering>
</event>
<event>
 6    0  0.7258365E+002  0.9481784E+02  0.7546771E-02  0.1291587E+00
         21   -1    0    0  505  502  0.00000000000E+00  0.00000000000E+00  0.13075834618E+03  0.13075834618E+03  0.00000000000E+00 0. -1.
         -1   -1    0    0    0  501 -0.00000000000E+00 -0.00000000000E+00 -0.94281139943E+03  0.94281139943E+03  0.00000000000E+00 0. -1.
         21    1    1    2  503  502 -0.10147828286E+03 -0.93157419881E+01 -0.90656144979E+02  0.13639340733E+03  0.00000000000E+00 0. -1.
         21    1    1    2  504  501  0.94290976240E+02  0.43450704488E+01 -0.30454807690E+03  0.31884039735E+03  0.00000000000E+00 0. -1.
         21    1    1    2  505  504  0.15968829659E+02 -0.32067323374E+02  0.96832321247E+02  0.10324638099E+03  0.00000000000E+00 0. -1.
         -1    1    1    2    0  503 -0.87815230384E+01  0.37037994913E+02 -0.51368115261E+03  0.51508955994E+03  0.00000000000E+00 0. -1.
<scales pt_clust_3="94.81784" pt_clust_4="14000.00000" pt_clust_5="35.82341" pt_clust_6="37.26552"></scales>
<clustering>
<clus scale="   35.823">  1  5  2 -1</clus>
<clus scale="   37.266">  2  6  1 -1</clus>
<clus scale="   94.818">  1  3  2 -1</clus>
<clus scale="   35.823">  1  3  2 -1</clus>
</clustering>
</event>
<event>
 6    0  0.7258365E+002  0.1036287E+03  0.7546771E-02  0.1272845E+00
         21   -1    0    0  503  502  0.00000000000E+00  0.00000000000E+00  0.51508168275E+02  0.51508168275E+02  0.00000000000E+00 0. -1.
          2   -1    0    0  504    0 -0.00000000000E+00 -0.00000000000E+00 -0.19930829192E+04  0.19930829192E+04  0.00000000000E+00 0. -1.
         21    1    1    2  503  505  0.18261893650E+02  0.51523234181E+02  0.14021382615E+02  0.56433497061E+02  0.00000000000E+00 0. -1.
         21    1    1    2  504  502 -0.43676748041E+02  0.98222662263E+02 -0.23314578147E+03  0.25673391891E+03  0.00000000000E+00 0. -1.
         21    1    1    2  505  501  0.10293160256E+02 -0.81365680959E+02 -0.47648850778E+03  0.48349521325E+03  0.00000000000E+00 0.  1.
          2    1    1    2  501    0  0.15121694135E+02 -0.68380215485E+02 -0.12459618443E+04  0.12479284583E+04  0.00000000000E+00 0. -1.
<scales pt_clust_3="54.66389" pt_clust_4="14000.00000" pt_clust_5="103.62874" pt_clust_6="67.25473"></scales>
<clustering>
<clus scale="   54.664">  1  3  2 -1</clus>
<clus scale="   67.255">  2  6  1 -1</clus>
<clus scale="  103.629">  1  5  2 -1</clus>
<clus scale="   54.664">  1  3  2 -1</clus>
</clustering>
</event>
<event>
 6    0  0.7258365E+002  0.8676987E+02  0.7546771E-02  0.1310868E+00
          1   -1    0    0  503    0 -0.00000000000E+00  0.00000000000E+00  0.98808241994E+03  0.98808241994E+03  0.00000000000E+00 0.  1.
         21   -1    0    0  504  502  0.00000000000E+00 -0.00000000000E+00 -0.40512676541E+03  0.40512676541E+03  0.00000000000E+00 0. -1.
         21    1    1    2  503  505  0.12197704595E+03 -0.91428783765E+00  0.11345453273E+02  0.12250695886E+03  0.00000000000E+00 0. -1.
         21    1    1    2  504  501  0.52156042061E+01  0.32132684514E+02 -0.12476909351E+03  0.12894587484E+03  0.00000000000E+00 0.  1.
         21    1    1    2  505  502 -0.42233973465E+02 -0.21284239134E+02 -0.21815902911E+03  0.22322654263E+03  0.00000000000E+00 0. -1.
          1    1    1    2  501    0 -0.84958676688E+02 -0.99341575423E+01  0.91453832387E+03  0.91852980902E+03  0.00000000000E+00 0.  1.
<scales pt_clust_3="86.76987" pt_clust_4="32.55322" pt_clust_5="38.32833" pt_clust_6="14000.00000"></scales>
<clustering>
<clus scale="   32.553">  2  4  1 -1</clus>
<clus scale="   38.328">  2  5  1 -1</clus>
<clus scale="   86.770">  2  3  1 -1</clus>
<clus scale="   32.553">  2  3  1 -1</clus>
</clustering>
</event>
<event>
 6    0  0.7258365E+002  0.7875744E+02  0.7546771E-02  0.1332615E+00
         21   -1    0    0  505  502  0.00000000000E+00  0.00000000000E+00  0.62011505784E+03  0.62011505784E+03  0.00000000000E+00 0. -1.
         -3   -1    0    0    0  501 -0.00000000000E+00 -0.00000000000E+00 -0.99581766776E+03  0.99581766776E+03  0.00000000000E+00 0.  1.
         21    1    1    2  503  502  0.59961870427E+02 -0.53387337329E+02  0.55181578178E+03  0.55762558291E+03  0.00000000000E+00 0. -1.
         21    1    1    2  504  501  0.91675066871E+01  0.46173211888E+02 -0.36814476146E+02  0.59760474636E+02  0.00000000000E+00 0. -1.
         21    1    1    2  505  504 -0.29706756040E+02  0.65019584365E+02  0.28300366002E+02  0.76882692599E+02  0.00000000000E+00 0.  1.
         -3    1    1    2    0  503 -0.39422621074E+02 -0.57805458924E+02 -0.91900428155E+03  0.92166397545E+03  0.00000000000E+00 0.  1.
<scales pt_clust_3="78.75744" pt_clust_4="47.07450" pt_clust_5="14000.00000" pt_clust_6="33.15509"></scales>
<clustering>
<clus scale="   47.075">  2  4  1 -1</clus>
<clus scale="   33.155">  2  6  1 -1</clus>
<clus scale="   78.757">  1  3  2 -1</clus>
<clus scale="   78.757">  1  3  2 -1</clus>
</clustering>
</event>
<event>
 6    0  0.7258365E+002  0.6710100E+02  0.7546771E-02  0.1370238E+00
          3   -1    0    0  505    0 -0.00000000000E+00  0.00000000000E+00  0.11406307169E+04  0.11406307169E+04  0.00000000000E+00 0. -1.
         21   -1    0    0  503  502  0.00000000000E+00 -0.00000000000E+00 -0.50243042595E+02  0.50243042595E+02  0.00000000000E+00 0. -1.
         21    1    1    2  503  501  0.52338597225E+02 -0.14344232048E+02  0.85367657960E+02  0.10115692155E+03  0.00000000000E+00 0. -1.
         21    1    1    2  504  502 -0.11917181997E+03  0.19127044863E+02  0.50611643846E+02  0.13087897086E+03  0.00000000000E+00 0. -1.
         21    1    1    2  505  504  0.53906004758E+02  0.24834342821E+02  0.57455022493E+03  0.57760762019E+03  0.00000000000E+00 0. -1.
          3    1    1    2  501    0  0.12927217987E+02 -0.29617155636E+02  0.37985814753E+03  0.38123024686E+03  0.00000000000E+00 0. -1.
<scales pt_clust_3="56.84274" pt_clust_4="67.10100" pt_clust_5="14000.00000" pt_clust_6="32.31546"></scales>
<clustering>
<clus scale="   32.315">  1  6  2 -1</clus>
<clus scale="   56.843">  2  3  1 -1</clus>
<clus scale="   67.101">  2  4  1 -1</clus>
<clus scale="   56.843">  2  3  1 -1</clus>
</clustering>
</event>
<event>
 6    0  0.7258365E+002  0.9007328E+02  0.7546771E-02  0.1302674E+00
         21   -1    0    0  504  502  0.00000000000E+00  0.00000000000E+00  0.14899694284E+03  0.14899694284E+03  0.00000000000E+00 0.  1.
          2   -1    0    0  505    0 -0.00000000000E+00 -0.00000000000E+00 -0.38713309466E+03  0.38713309466E+03  0.00000000000E+00 0.  1.
         21    1    1    2  503  502  0.32099814746E+02  0.35756085865E+02  0.59186518971E+02  0.76236079457E+02  0.00000000000E+00 0.  1.
         21    1    1    2  504  501 -0.57532472050E+02 -0.14531046841E+02  0.43036420122E+02  0.73302592856E+02  0.00000000000E+00 0.  1.
         21    1    1    2  505  503  0.37027328218E+02 -0.96739956687E+02 -0.23129100533E+03  0.25342685612E+03  0.00000000000E+00 0.  1.
          2    1    1    2  501    0 -0.11594670914E+02  0.75514917663E+02 -0.10906808558E+03  0.13316450907E+03  0.00000000000E+00 0.  1.
<scales pt_clust_3="48.05097" pt_clust_4="36.28678" pt_clust_5="90.07328" pt_clust_6="14000.00000"></scales>
<clustering>
<clus scale="   48.051">  1  3  2 -1</clus>
<clus scale="   36.287">  1  4  2 -1</clus>
<clus scale="   90.073">  2  5  1 -1</clus>
<clus scale="   48.051">  1  3  2 -1</clus>
</clustering>
</event>
<event>
 6    0  0.7258365E+002  0.7204714E+02  0.7546771E-02  0.1353267E+00
         21   -1    0    0  503  502  0.00000000000E+00  0.00000000000E+00  0.48953452035E+03  0.48953452035E+03  0.00000000000E+00 0. -1.
          2   -1    0    0  505    0 -0.00000000000E+00 -0.00000000000E+00 -0.85195689848E+03  0.85195689848E+03  0.00000000000E+00 0. -1.
         21    1    1    2  503  501  0.41881882936E+02 -0.48277762723E+02  0.92374383563E+02  0.11232925367E+03  0.00000000000E+00 0. -1.
         21    1    1    2  504  502 -0.15949811922E+02  0.76081299003E+02  0.37631482598E+03  0.38425981941E+03  0.00000000000E+00 0. -1.
         21    1    1    2  505  504  0.36917827749E+02  0.43331086172E+02 -0.29173208051E+03  0.29723410947E+03  0.00000000000E+00 0. -1.
          2    1    1    2  501    0 -0.62849898764E+02 -0.71134622453E+02 -0.53937950716E+03  0.54766823628E+03  0.00000000000E+00 0. -1.
<scales pt_clust_3="72.04714" pt_clust_4="14000.00000" pt_clust_5="56.92547" pt_clust_6="39.44294"></scales>
<clustering>
<clus scale="   56.925">  2  5  1 -1</clus>
<clus scale="   39.443">  2  6  1 -1</clus>
<clus scale="   72.047">  2  3  1 -1</clus>
<clus scale="   72.047">  1  3  2 -1</clus>
</clustering>
</event>
<event>
 6    0  0.7258365E+002  0.8479322E+02  0.7546771E-02  0.1315974E+00
         21   -1    0    0  503  502  0.00000000000E+00  0.00000000000E+00  0.37776077547E+03  0.37776077547E+03  0.00000000000E+00 0. -1.
          2   -1    0    0  505    0 -0.00000000000E+00 -0.00000000000E+00 -0.48315756769E+03  0.48315756769E+03  0.00000000000E+00 0.  1.
         21    1    1    2  503  504  0.48515455827E+02 -0.54839556157E+02  0.16821686758E+03  0.18346127905E+03  0.00000000000E+00 0. -1.
         21    1    1    2  504  501  0.41500096626E+02 -0.82054014688E+01 -0.60792032109E+02  0.74062526295E+02  0.00000000000E+00 0.  1.
         21    1    1    2  505  502 -0.59271538060E+02  0.90810890748E+02  0.17905557245E+03  0.20933377923E+03  0.00000000000E+00 0. -1.
          2    1    1    2  501    0 -0.30744014392E+02 -0.27765933122E+02 -0.39187720014E+03  0.39406075858E+03  0.00000000000E+00 0.  1.
<scales pt_clust_3="84.79322" pt_clust_4="34.37611" pt_clust_5="14000.00000" pt_clust_6="41.42634"></scales>
<clustering>
<clus scale="   41.426">  2  6  1 -1</clus>
<clus scale="   34.376">  2  4  1 -1</clus>
<clus scale="   84.793">  1  3  2 -1</clus>
<clus scale="   84.793">  1  3  2 -1</clus>
</clustering>
</event>
<event>
 6    0  0.7258365E+002  0.1014225E+03  0.7546771E-02  0.1277333E+00
          2   -1    0    0  504    0 -0.00000000000E+00  0.00000000000E+00  0.24008828976E+04  0.24008828976E+04  0.00000000000E+00 0.  1.
         21   -1    0    0  503  502  0.00000000000E+00 -0.00000000000E+00 -0.54656211392E+02  0.54656211392E+02  0.00000000000E+00 0.  1.
         21    1    1    2  503  505  0.19852209709E+02 -0.44569994438E+02  0.11331788343E+03  0.12337559459E+03  0.00000000000E+00 0.  1.
         21    1    1    2  504  502 -0.32653723531E+02 -0.57426810287E+02 -0.15291060639E+02  0.67807969559E+02  0.00000000000E+00 0.  1.
         21    1    1    2  505  501 -0.33929254422E+02  0.12885092350E+03  0.57296521480E+03  0.58825410509E+03  0.00000000000E+00 0.  1.
          2    1    1    2  501    0  0.46730768245E+02 -0.26854118779E+02  0.16752346486E+04  0.16761014397E+04  0.00000000000E+00 0.  1.
<scales pt_clust_3="48.79134" pt_clust_4="101.42253" pt_clust_5="14000.00000" pt_clust_6="54.24203"></scales>
<clustering>
<clus scale="   48.791">  2  3  1 -1</clus>
<clus scale="   54.242">  1  6  2 -1</clus>
<clus scale="  101.423">  2  4  1 -1</clus>
<clus scale="   48.791">  2  3  1 -1</clus>
</clustering>
</event>
<event>
 6    0  0.7258365E+002  0.8799779E+02  0.7546771E-02  0.1307774E+00
          2   -1    0    0  504    0 -0.00000000000E+00  0.00000000000E+00  0.24671609957E+04  0.24671609957E+04  0.00000000000E+00 0.  1.
         21   -1    0    0  505  502  0.00000000000E+00 -0.00000000000E+00 -0.41531175120E+02  0.41531175120E+02  0.00000000000E+00 0.  1.
         21    1    1    2  503  502  0.78228363893E+02  0.91372547404E+02  0.89910009362E+02  0.15017466204E+03  0.00000000000E+00 0.  1.
         21    1    1    2  504  503 -0.67919188838E+02 -0.22114192944E+02  0.17114867439E+03  0.18545598531E+03  0.00000000000E+00 0.  1.
         21    1    1    2  505  501 -0.58617179786E+01 -0.32889396226E+02  0.64210736630E+02  0.72381564091E+02  0.00000000000E+00 0.  1.
          2    1    1    2  501    0 -0.44474570769E+01 -0.36368958234E+02  0.21003604002E+04  0.21006799594E+04  0.00000000000E+00 0.  1.
<scales pt_clust_3="87.99779" pt_clust_4="14000.00000" pt_clust_5="33.40767" pt_clust_6="36.78222"></scales>
<clustering>
<clus scale="   33.408">  2  5  1 -1</clus>
<clus scale="   36.782">  1  6  2 -1</clus>
<clus scale="   87.998">  2  3  1 -1</clus>
<clus scale="   33.408">  2  3  1 -1</clus>
</clustering>
</event>
<event>
 6    0  0.7258365E+002  0.7244531E+02  0.7546771E-02  0.1351970E+00
         21   -1    0    0  504  502  0.00000000000E+00  0.00000000000E+00  0.17595225987E+03  0.17595225987E+03  0.00000000000E+00 0. -1.
          2   -1    0    0  503    0 -0.00000000000E+00 -0.00000000000E+00 -0.19665758339E+04  0.19665758339E+04  0.00000000000E+00 0. -1.
         21    1    1    2  503  502  0.11851622618E+02  0.66866111085E+02 -0.13565153621E+02  0.69249918145E+02  0.00000000000E+00 0. -1.
         21    1    1    2  504  505 -0.53296294015E+02  0.43098697523E+01  0.13322951718E+03  0.14355895716E+03  0.00000000000E+00 0. -1.
         21    1    1    2  505  501  0.76635916604E+02 -0.76014379194E+01 -0.15645687442E+03  0.17438348295E+03  0.00000000000E+00 0. -1.
          2    1    1    2  501    0 -0.35191245207E+02 -0.63574542918E+02 -0.17538310632E+04  0.17553357356E+04  0.00000000000E+00 0. -1.
<scales pt_clust_3="72.44531" pt_clust_4="53.47027" pt_clust_5="64.25371" pt_clust_6="14000.00000"></scales>
<clustering>
<clus scale="   53.470">  1  4  2 -1</clus>
<clus scale="   64.254">  1  5  2 -1</clus>
<clus scale="   72.445">  1  3  2 -1</clus>
<clus scale="   53.470">  1  3  2 -1</clus>
</clustering>
</event>
<event>
 6    0  0.7258365E+002  0.8884653E+02  0.7546771E-02  0.1305669E+00
         21   -1    0    0  504  502  0.00000000000E+00  0.00000000000E+00  0.40295742792E+03  0.40295742792E+03  0.00000000000E+00 0.  1.
         -1   -1    0    0    0  501 -0.00000000000E+00 -0.00000000000E+00 -0.24251046519E+03  0.24251046519E+03  0.00000000000E+00 0. -1.
         21    1    1    2  503  502 -0.11076633164E+02 -0.91428003042E+02  0.93069922275E+02  0.13093426585E+03  0.00000000000E+00 0.  1.
         21    1    1    2  504  501  0.43871506858E+01  0.34623790060E+02  0.17965293191E+03  0.18301155666E+03  0.00000000000E+00 0.  1.
         21    1    1    2  505  503 -0.14749966867E+02  0.11794324012E+03  0.70090645142E+02  0.13798865152E+03  0.00000000000E+00 0.  1.
         -1    1    1    2    0  505  0.21439449345E+02 -0.61139027135E+02 -0.18236653660E+03  0.19353341907E+03  0.00000000000E+00 0. -1.
<scales pt_clust_3="14000.00000" pt_clust_4="34.90063" pt_clust_5="88.84653" pt_clust_6="64.00376"></scales>
<clustering>
<clus scale="   34.901">  1  4  2 -1</clus>
<clus scale="   64.004">  2  6  1 -1</clus>
<clus scale="   88.847">  2  5  1 -1</clus>
<clus scale="   34.901">  1  3  2 -1</clus>
</clustering>
</event>
<event>
 6    0  0.7258365E+002  0.1464653E+03  0.7546771E-02  0.1204885E+00
          1   -1    0    0  504    0 -0.00000000000E+00  0.00000000000E+00  0.89216097205E+03  0.89216097205E+03  0.00000000000E+00 0.  1.
         21   -1    0    0  505  502  0.00000000000E+00 -0.00000000000E+00 -0.86661351958E+03  0.86661351958E+03  0.00000000000E+00 0. -1.
         21    1    1    2  503  501  0.82036282149E+02 -0.75098084406E+02  0.37552330401E+02  0.11738761173E+03  0.00000000000E+00 0. -1.
         21    1    1    2  504  502  0.12692975168E+02  0.28409048021E+02 -0.14965515488E+03  0.15285565416E+03  0.00000000000E+00 0. -1.
         21    1    1    2  505  503 -0.12450124878E+03  0.74208020673E+02 -0.66714889550E+03  0.68271153502E+03  0.00000000000E+00 0. -1.
          1    1    1    2  501    0  0.29771991465E+02 -0.27518984288E+02  0.80479917245E+03  0.80581969072E+03  0.00000000000E+00 0.  1.
<scales pt_clust_3="14000.00000" pt_clust_4="31.11568" pt_clust_5="146.46532" pt_clust_6="40.53505"></scales>
<clustering>
<clus scale="   31.116">  2  4  1 -1</clus>
<clus scale="   40.535">  1  6  2 -1</clus>
<clus scale="  146.465">  2  5  1 -1</clus>
<clus scale="   31.116">  2  3  1 -1</clus>
</clustering>
</event>
<event>
 6    0  0.7258365E+002  0.7994531E+02  0.7546771E-02  0.1329207E+00
         21   -1    0    0  503  502  0.00000000000E+00  0.00000000000E+00  0.13216145677E+03  0.13216145677E+03  0.00000000000E+00 0. -1.
          2   -1    0    0  505    0 -0.00000000000E+00 -0.00000000000E+00 -0.10816115547E+04  0.10816115547E+04  0.00000000000E+00 0.  1.
         21    1    1    2  503  504  0.18087632175E+01  0.38020796785E+02  0.91509511530E+02  0.99110258364E+02  0.00000000000E+00 0. -1.
         21    1    1    2  504  501 -0.51337865647E+02 -0.88732883306E+02 -0.26744248608E+03  0.28641680187E+03  0.00000000000E+00 0.  1.
         21    1    1    2  505  502 -0.25621525734E+02  0.53669863592E+02 -0.91310745051E+01  0.60168873686E+02  0.00000000000E+00 0. -1.
          2    1    1    2  501    0  0.75150628163E+02 -0.29577770711E+01 -0.76438604887E+03  0.76807707755E+03  0.00000000000E+00 0.  1.
<scales pt_clust_3="38.06380" pt_clust_4="14000.00000" pt_clust_5="79.94531" pt_clust_6="75.24859"></scales>
<clustering>
<clus scale="   38.064">  1  3  2 -1</clus>
<clus scale="   75.249">  2  6  1 -1</clus>
<clus scale="   79.945">  1  5  2 -1</clus>
<clus scale="   38.064">  1  3  2 -1</clus>
</clustering>
</event>
<event>
 6    0  0.7258365E+002  0.8044001E+02  0.7546771E-02  0.1327807E+00
          2   -1    0    0  503    0 -0.00000000000E+00  0.00000000000E+00  0.97717009855E+03  0.97717009855E+03  0.00000000000E+00 0.  1.
         21   -1    0    0  504  502  0.00000000000E+00 -0.00000000000E+00 -0.25930105593E+02  0.25930105593E+02  0.00000000000E+00 0.  1.
         21    1    1    2  503  505  0.55366152727E+02 -0.58776098617E+02  0.30976985001E+03  0.32012091561E+03  0.00000000000E+00 0.  1.
         21    1    1    2  504  501  0.10595793262E+02  0.10362192042E+03  0.24903189559E+03  0.26993824896E+03  0.00000000000E+00 0.  1.
         21    1    1    2  505  502  0.53088231851E+01 -0.31919734232E+02  0.32407652419E+02  0.45796386018E+02  0.00000000000E+00 0.  1.
          2    1    1    2  501    0 -0.71270769175E+02 -0.12926087570E+02  0.36003059493E+03  0.36724465355E+03  0.00000000000E+00 0.  1.
<scales pt_clust_3="80.44001" pt_clust_4="14000.00000" pt_clust_5="32.35820" pt_clust_6="72.77542"></scales>
<clustering>
<clus scale="   32.358">  2  5  1 -1</clus>
<clus scale="   72.775">  1  6  2 -1</clus>
<clus scale="   80.440">  1  3  2 -1</clus>
<clus scale="   32.358">  2  3  1 -1</clus>
</clustering>
</event>
<event>
 6    0  0.7258365E+002  0.8758179E+02  0.7546771E-02  0.1308816E+00
          2   -1    0    0  503    0 -0.00000000000E+00  0.00000000000E+00  0.63813319108E+03  0.63813319108E+03  0.00000000000E+00 0. -1.
         21   -1    0    0  504  502  0.00000000000E+00 -0.00000000000E+00 -0.54403149433E+03  0.54403149433E+03  0.00000000000E+00 0.  1.
         21    1    1    2  503  502  0.96170507735E+02 -0.28222786790E+02 -0.14204779182E+03  0.17384725311E+03  0.00000000000E+00 0.  1.
         21    1    1    2  504  505 -0.36373297833E+02  0.26962078838E+02 -0.20670524493E+03  0.21160583350E+03  0.00000000000E+00 0.  1.
         21    1    1    2  505  501 -0.91847630728E+02 -0.79838248205E+02 -0.15244259681E+03  0.19506121723E+03  0.00000000000E+00 0.  1.
          2    1    1    2  501    0  0.32050420826E+02  0.81098956157E+02  0.59529733031E+03  0.60165038157E+03  0.00000000000E+00 0. -1.
<scales pt_clust_3="80.52175" pt_clust_4="45.27660" pt_clust_5="14000.00000" pt_clust_6="87.58179"></scales>
<clustering>
<clus scale="   45.277">  2  4  1 -1</clus>
<clus scale="   80.522">  2  3  1 -1</clus>
<clus scale="   87.582">  1  6  2 -1</clus>
<clus scale="   45.277">  2  3  1 -1</clus>
</clustering>
</event>
<event>
 6    0  0.7258365E+002  0.7308994E+02  0.7546771E-02  0.1349890E+00
          2   -1    0    0  503    0 -0.00000000000E+00  0.00000000000E+00  0.23115163747E+04  0.23115163747E+04  0.00000000000E+00 0.  1.
         21   -1    0    0  504  502  0.00000000000E+00 -0.00000000000E+00 -0.17920885745E+03  0.17920885745E+03  0.00000000000E+00 0.  1.
         21    1    1    2  503  505 -0.89967373388E+02 -0.85171608998E+02  0.49248067066E+03  0.50782432221E+03  0.00000000000E+00 0. -1.
         21    1    1    2  504  501  0.38498147603E+02  0.35557070625E+02 -0.60190967817E+00  0.52409683605E+02  0.00000000000E+00 0.  1.
         21    1    1    2  505  502 -0.65803824360E+01  0.31766431286E+02 -0.14269367611E+03  0.14633486526E+03  0.00000000000E+00 0.  1.
          2    1    1    2  501    0  0.58049608221E+02  0.17848107087E+02  0.17831224323E+04  0.17841563611E+04  0.00000000000E+00 0.  1.
<scales pt_clust_3="73.08994" pt_clust_4="14000.00000" pt_clust_5="32.44083" pt_clust_6="60.77876"></scales>
<clustering>
<clus scale="   32.441">  2  5  1 -1</clus>
<clus scale="   60.779">  1  6  2 -1</clus>
<clus scale="   73.090">  1  3  2 -1</clus>
<clus scale="   32.441">  2  3  1 -1</clus>
</clustering>
</event>
<event>
 6    0  0.7258365E+002  0.1018383E+03  0.7546771E-02  0.1276477E+00
          1   -1    0    0  504    0 -0.00000000000E+00  0.00000000000E+00  0.37165232853E+03  0.37165232853E+03  0.00000000000E+00 0. -1.
         21   -1    0    0  505  502  0.00000000000E+00 -0.00000000000E+00 -0.45737204819E+03  0.45737204819E+03  0.00000000000E+00 0. -1.
         21    1    1    2  503  502  0.41069997805E+02 -0.45842169830E+02 -0.12509594429E+03  0.13941751874E+03  0.00000000000E+00 0. -1.
         21    1    1    2  504  503 -0.90534658620E+02  0.33339812131E+01 -0.26551615522E+03  0.28054673145E+03  0.00000000000E+00 0. -1.
         21    1    1    2  505  501 -0.43595380353E+02 -0.25131252357E+00 -0.33837288265E+02  0.55186795733E+02  0.00000000000E+00 0.  1.
          1    1    1    2  501    0  0.93060041169E+02  0.42759501140E+02  0.33872966811E+03  0.35387333081E+03  0.00000000000E+00 0. -1.
<scales pt_clust_3="53.32493" pt_clust_4="101.83834" pt_clust_5="43.59610" pt_clust_6="14000.00000"></scales>
<clustering>
<clus scale="   43.596">  2  5  1 -1</clus>
<clus scale="   53.325">  2  3  1 -1</clus>
<clus scale="  101.838">  2  4  1 -1</clus>
<clus scale="   43.596">  2  3  1 -1</clus>
</clustering>
</event>
<event>
 6    0  0.7258365E+002  0.2280422E+03  0.7546771E-02  0.1128025E+00
          2   -1    0    0  505    0 -0.00000000000E+00  0.00000000000E+00  0.21377870886E+04  0.21377870886E+04  0.00000000000E+00 0. -1.
         21   -1    0    0  504  502  0.00000000000E+00 -0.00000000000E+00 -0.34120995329E+03  0.34120995329E+03  0.00000000000E+00 0. -1.
         21    1    1    2  503  501  0.13300323938E+02 -0.16599105791E+03 -0.17916043584E+03  0.24459842945E+03  0.00000000000E+00 0. -1.
         21    1    1    2  504  503 -0.36808150123E+02 -0.47427150791E+02 -0.10286021965E+03  0.11909827595E+03  0.00000000000E+00 0. -1.
         21    1    1    2  505  502  0.10377885096E+02  0.84771945955E+02  0.96005652555E+02  0.12849540320E+03  0.00000000000E+00 0. -1.
          2    1    1    2  501    0  0.13129941089E+02  0.12864626274E+03  0.19825921382E+04  0.19868049333E+04  0.00000000000E+00 0. -1.
<scales pt_clust_3="48.92584" pt_clust_4="48.92584" pt_clust_5="85.40482" pt_clust_6="212.98722"></scales>
<clustering>
<clus scale="   48.926">  3  4 -1 -1</clus>
<clus scale="   85.405">  1  5  2 -1</clus>
<clus scale="  212.987">  1  6  2 -1</clus>
<clus scale="  228.042">  2  3  1 -1</clus>
</clustering>
</event>
<event>
 6    0  0.7258365E+002  0.9373949E+02  0.7546771E-02  0.1294041E+00
          3   -1    0    0  504    0 -0.00000000000E+00  0.00000000000E+00  0.96692940390E+02  0.96692940390E+02  0.00000000000E+00 0.  1.
         21   -1    0    0  505  502  0.00000000000E+00 -0.00000000000E+00 -0.46377139182E+03  0.46377139182E+03  0.00000000000E+00 0.  1.
         21    1    1    2  503  502 -0.73484404401E+02 -0.51739479636E+02 -0.14504784545E+03  0.17063355154E+03  0.00000000000E+00 0.  1.
         21    1    1    2  504  503  0.57296917294E+02  0.83818472820E+02 -0.97348642655E+02  0.14065998487E+03  0.00000000000E+00 0.  1.
         21    1    1    2  505  501 -0.22041073843E+02  0.65218013225E+02 -0.12716526558E+03  0.14460360630E+03  0.00000000000E+00 0.  1.
          3    1    1    2  501    0  0.38228560950E+02 -0.97297006410E+02  0.24833022537E+01  0.10456718949E+03  0.00000000000E+00 0.  1.
<scales pt_clust_3="86.52058" pt_clust_4="14000.00000" pt_clust_5="68.84183" pt_clust_6="93.73949"></scales>
<clustering>
<clus scale="   68.842">  2  5  1 -1</clus>
<clus scale="   86.521">  2  3  1 -1</clus>
<clus scale="   93.739">  1  6  2 -1</clus>
<clus scale="   68.842">  2  3  1 -1</clus>
</clustering>
</event>
<event>
 6    0  0.7258365E+002  0.1535266E+03  0.7546771E-02  0.1196205E+00
          2   -1    0    0  503    0 -0.00000000000E+00  0.00000000000E+00  0.27709668771E+04  0.27709668771E+04  0.00000000000E+00 0. -1.
         21   -1    0    0  504  502  0.00000000000E+00 -0.00000000000E+00 -0.82983633424E+03  0.82983633424E+03  0.00000000000E+00 0. -1.
         21    1    1    2  503  502 -0.18563862982E+03  0.50005334617E+02  0.56166748394E+03  0.59366033798E+03  0.00000000000E+00 0. -1.
         21    1    1    2  504  505  0.52976821002E+02 -0.27347896934E+02 -0.80757572829E+03  0.80977343001E+03  0.00000000000E+00 0. -1.
         21    1    1    2  505  501  0.15499153662E+03 -0.49683394413E+02  0.13792257153E+04  0.13887960217E+04  0.00000000000E+00 0. -1.
          2    1    1    2  501    0 -0.22329727793E+02  0.27025956729E+02  0.80781307191E+03  0.80857342167E+03  0.00000000000E+00 0. -1.
<scales pt_clust_3="153.52655" pt_clust_4="59.60117" pt_clust_5="14000.00000" pt_clust_6="35.05737"></scales>
<clustering>
<clus scale="   35.057">  1  6  2 -1</clus>
<clus scale="   59.601">  2  4  1 -1</clus>
<clus scale="  153.527">  2  3  1 -1</clus>
<clus scale="   59.601">  2  3  1 -1</clus>
</clustering>
</event>
<event>
 6    0  0.7258365E+002  0.9826121E+02  0.7546771E-02  0.1283995E+00
         21   -1    0    0  505  502  0.00000000000E+00  0.00000000000E+00  0.15220418676E+03  0.15220418676E+03  0.00000000000E+00 0.  1.
          1   -1    0    0  503    0 -0.00000000000E+00 -0.00000000000E+00 -0.15434170097E+04  0.15434170097E+04  0.00000000000E+00 0.  1.
         21    1    1    2  503  502  0.23575406682E+02  0.27137901115E+02 -0.17435343370E+02  0.39953181045E+02  0.00000000000E+00 0.  1.
         21    1    1    2  504  501  0.11341281945E+02 -0.12212678201E+03 -0.92289412924E+02  0.15349563934E+03  0.00000000000E+00 0.  1.
         21    1    1    2  505  504 -0.53427498112E+02  0.63759965511E+02  0.94390518063E+02  0.12581494608E+03  0.00000000000E+00 0.  1.
          1    1    1    2  501    0  0.18510809485E+02  0.31228915380E+02 -0.13758785848E+04  0.13763574300E+04  0.00000000000E+00 0.  1.
<scales pt_clust_3="35.94809" pt_clust_4="98.26121" pt_clust_5="14000.00000" pt_clust_6="36.36290"></scales>
<clustering>
<clus scale="   35.948">  1  3  2 -1</clus>
<clus scale="   36.363">  2  6  1 -1</clus>
<clus scale="   98.261">  2  4  1 -1</clus>
<clus scale="   35.948">  1  3  2 -1</clus>
</clustering>
</event>
<event>
 6    0  0.7258365E+002  0.1764154E+03  0.7546771E-02  0.1171318E+00
         -3   -1    0    0    0  501 -0.00000000000E+00  0.00000000000E+00  0.19937860287E+03  0.19937860287E+03  0.00000000000E+00 0.  1.
         21   -1    0    0  504  502  0.00000000000E+00 -0.00000000000E+00 -0.10533223209E+04  0.10533223209E+04  0.00000000000E+00 0. -1.
         21    1    1    2  503  501  0.93535368406E+02 -0.71408235444E+02 -0.16932608583E+03  0.20620214493E+03  0.00000000000E+00 0.  1.
         21    1    1    2  504  505 -0.18040846649E+03 -0.32215130145E+02 -0.79087570543E+03  0.81183090039E+03  0.00000000000E+00 0. -1.
         21    1    1    2  505  503  0.11172968476E+03  0.81175396903E+02  0.16772307829E+02  0.13911965292E+03  0.00000000000E+00 0.  1.
         -3    1    1    2    0  502 -0.24856586671E+02  0.22447968685E+02  0.89485765381E+02  0.95548225545E+02  0.00000000000E+00 0.  1.
<scales pt_clust_3="111.91932" pt_clust_4="14000.00000" pt_clust_5="176.41537" pt_clust_6="33.49270"></scales>
<clustering>
<clus scale="   33.493">  1  6  2 -1</clus>
<clus scale="  111.919">  1  3  2 -1</clus>
<clus scale="  176.415">  1  5  2 -1</clus>
<clus scale="  176.415">  2  3  1 -1</clus>
</clustering>
</event>
<event>
 6    0  0.7258365E+002  0.7553599E+02  0.7546771E-02  0.1342219E+00
         21   -1    0    0  504  502  0.00000000000E+00  0.00000000000E+00  0.75163263043E+03  0.75163263043E+03  0.00000000000E+00 0.  1.
          2   -1    0    0  503    0 -0.00000000000E+00 -0.00000000000E+00 -0.36985015125E+03  0.36985015125E+03  0.00000000000E+00 0.  1.
         21    1    1    2  503  502  0.86968010861E+00 -0.43163223104E+02  0.23362346665E+02  0.49087874409E+02  0.00000000000E+00 0. -1.
         21    1    1    2  504  505 -0.51187961839E+02  0.68948218378E+02  0.62187921055E+03  0.62778007038E+03  0.00000000000E+00 0.  1.
         21    1    1    2  505  501  0.89936461519E+02  0.38213812008E+02  0.58556207069E+02  0.11391967313E+03  0.00000000000E+00 0.  1.
          2    1    1    2  501    0 -0.39618179788E+02 -0.63998807281E+02 -0.32201528510E+03  0.33069516377E+03  0.00000000000E+00 0.  1.
<scales pt_clust_3="43.17198" pt_clust_4="59.32604" pt_clust_5="14000.00000" pt_clust_6="75.53599"></scales>
<clustering>
<clus scale="   43.172">  1  3  2 -1</clus>
<clus scale="   59.326">  1  4  2 -1</clus>
<clus scale="   75.536">  2  6  1 -1</clus>
<clus scale="   43.172">  1  3  2 -1</clus>
</clustering>
</event>
<event>
 6    0  0.7258365E+002  0.1532711E+03  0.7546771E-02  0.1196510E+00
         -1   -1    0    0    0  501 -0.00000000000E+00  0.00000000000E+00  0.10828979913E+04  0.10828979913E+04  0.00000000000E+00 0. -1.
         21   -1    0    0  501  502  0.00000000000E+00 -0.00000000000E+00 -0.47153890652E+03  0.47153890652E+03  0.00000000000E+00 0. -1.
         21    1    1    2  503  504 -0.65535979000E+02  0.10147333707E+03  0.82504448796E+02  0.14628324152E+03  0.00000000000E+00 0. -1.
         21    1    1    2  504  505  0.75570679284E+02 -0.16552721019E+03 -0.60960708641E+02  0.19190203980E+03  0.00000000000E+00 0. -1.
         21    1    1    2  505  502  0.16966804088E+02  0.30695877502E+02 -0.31172424334E+03  0.31369111117E+03  0.00000000000E+00 0. -1.
         -1    1    1    2    0  503 -0.27001504372E+02  0.33357995615E+02  0.90153958793E+03  0.90256050529E+03  0.00000000000E+00 0. -1.
<scales pt_clust_3="14000.00000" pt_clust_4="153.27114" pt_clust_5="35.07291" pt_clust_6="42.95913"></scales>
<clustering>
<clus scale="   35.073">  2  5  1 -1</clus>
<clus scale="   42.959">  1  6  2 -1</clus>
<clus scale="  153.271">  2  4  1 -1</clus>
<clus scale="   35.073">  2  3  1 -1</clus>
</clustering>
</event>
<event>
 6    0  0.2232982E+003  0.1302445E+03  0.7546771E-02  0.1227093E+00
          1   -1    0    0  503    0 -0.00000000000E+00  0.00000000000E+00  0.30262110690E+04  0.30262110690E+04  0.00000000000E+00 0.  1.
         21   -1    0    0  505  502  0.00000000000E+00 -0.00000000000E+00 -0.52124265717E+03  0.52124265717E+03  0.00000000000E+00 0. -1.
         21    1    1    2  503  502  0.48573529819E+02  0.19854354989E+02  0.44444787615E+03  0.44753491241E+03  0.00000000000E+00 0. -1.
         21    1    1    2  504  501 -0.94438484691E+02 -0.42856474770E+02 -0.87316592110E+02  0.13557098538E+03  0.00000000000E+00 0. -1.
         21    1    1    2  505  504 -0.34298292968E+02  0.15238852608E+02 -0.40675681545E+03  0.40848464162E+03  0.00000000000E+00 0. -1.
          1    1    1    2  501    0  0.80163247840E+02  0.77632671733E+01  0.25545939433E+04  0.25558631868E+04  0.00000000000E+00 0.  1.
<scales pt_clust_3="52.12293" pt_clust_4="14000.00000" pt_clust_5="37.53126" pt_clust_6="130.24455"></scales>
<clustering>
<clus scale="   37.531">  2  5  1 -1</clus>
<clus scale="   52.123">  1  3  2 -1</clus>
<clus scale="  130.245">  1  6  2 -1</clus>
<clus scale="   37.531">  2  3  1 -1</clus>
</clustering>
</event>
<event>
 6    0  0.7258365E+002  0.8736461E+02  0.7546771E-02  0.1309362E+00
          2   -1    0    0  504    0 -0.00000000000E+00  0.00000000000E+00  0.22339476588E+04  0.22339476588E+04  0.00000000000E+00 0.  1.
         21   -1    0    0  503  502  0.00000000000E+00 -0.00000000000E+00 -0.29987065003E+03  0.29987065003E+03  0.00000000000E+00 0.  1.
         21    1    1    2  503  501 -0.55299222691E+02  0.43660819678E+01  0.38794384192E+02  0.67690996054E+02  0.00000000000E+00 0. -1.
         21    1    1    2  504  505  0.13465666157E+02 -0.70668213975E+02  0.16370849617E+03  0.17881776296E+03  0.00000000000E+00 0.  1.
         21    1    1    2  505  502  0.12733706928E+02  0.87226670951E+02 -0.27071197755E+03  0.28470267685E+03  0.00000000000E+00 0.  1.
          2    1    1    2  501    0  0.29099849606E+02 -0.20924538943E+02  0.20022861059E+04  0.20026068729E+04  0.00000000000E+00 0.  1.
<scales pt_clust_3="48.60863" pt_clust_4="14000.00000" pt_clust_5="87.36461" pt_clust_6="35.84184"></scales>
<clustering>
<clus scale="   35.842">  1  6  2 -1</clus>
<clus scale="   48.609">  1  3  2 -1</clus>
<clus scale="   87.365">  2  5  1 -1</clus>
<clus scale="   87.365">  2  3  1 -1</clus>
</clustering>
</event>
<event>
 6    0  0.7258365E+002  0.1462698E+03  0.7546771E-02  0.1205133E+00
         21   -1    0    0  505  502  0.00000000000E+00  0.00000000000E+00  0.19466328820E+04  0.19466328820E+04  0.00000000000E+00 0.  1.
          1   -1    0    0  503    0 -0.00000000000E+00 -0.00000000000E+00 -0.92569003901E+02  0.92569003901E+02  0.00000000000E+00 0. -1.
         21    1    1    2  503  504  0.11998736880E+03  0.13362782999E+03  0.52700432238E+03  0.55676469126E+03  0.00000000000E+00 0.  1.
         21    1    1    2  504  502 -0.32669720103E+02 -0.13717030060E+02  0.12792233550E+04  0.12797139756E+04  0.00000000000E+00 0.  1.
         21    1    1    2  505  501 -0.33514825356E+02  0.12665656863E+02  0.47685454265E+02  0.59645326144E+02  0.00000000000E+00 0. -1.
          1    1    1    2  501    0 -0.53802823342E+02 -0.13257645680E+03  0.15074645806E+00  0.14307789285E+03  0.00000000000E+00 0. -1.
<scales pt_clust_3="146.26976" pt_clust_4="35.43258" pt_clust_5="37.94710" pt_clust_6="14000.00000"></scales>
<clustering>
<clus scale="   35.433">  1  4  2 -1</clus>
<clus scale="   37.947">  1  5  2 -1</clus>
<clus scale="  146.270">  1  3  2 -1</clus>
<clus scale="   35.433">  1  3  2 -1</clus>
</clustering>
</event>
<event>
 6    0  0.7258365E+002  0.1782875E+03  0.7546771E-02  0.1169471E+00
         -3   -1    0    0    0  501 -0.00000000000E+00  0.00000000000E+00  0.78145515272E+03  0.78145515272E+03  0.00000000000E+00 0. -1.
         21   -1    0    0  505  502  0.00000000000E+00 -0.00000000000E+00 -0.54424562250E+03  0.54424562250E+03  0.00000000000E+00 0. -1.
         21    1    1    2  503  504 -0.95158424138E+02 -0.95712768085E+01 -0.47712088732E+02  0.10687927037E+03  0.00000000000E+00 0.  1.
         21    1    1    2  504  502 -0.35814307943E+02  0.11451116953E+02 -0.67984036422E+02  0.77689265288E+02  0.00000000000E+00 0. -1.
         21    1    1    2  505  501  0.18696863923E+03  0.73565737580E+02 -0.36524532398E+03  0.41686129166E+03  0.00000000000E+00 0. -1.
         -3    1    1    2    0  503 -0.55995907145E+02 -0.75445577725E+02  0.71815097936E+03  0.72427094790E+03  0.00000000000E+00 0. -1.
<scales pt_clust_3="37.21424" pt_clust_4="37.21424" pt_clust_5="168.11862" pt_clust_6="93.95519"></scales>
<clustering>
<clus scale="   37.214">  3  4 -1 -1</clus>
<clus scale="   93.955">  1  6  2 -1</clus>
<clus scale="  168.119">  2  5  1 -1</clus>
<clus scale="  168.119">  2  3  1 -1</clus>
</clustering>
</event>
<event>
 6    0  0.7258365E+002  0.1090497E+03  0.7546771E-02  0.1262340E+00
          2   -1    0    0  503    0 -0.00000000000E+00  0.00000000000E+00  0.29883201263E+03  0.29883201263E+03  0.00000000000E+00 0. -1.
         21   -1    0    0  505  502  0.00000000000E+00 -0.00000000000E+00 -0.14935186186E+03  0.14935186186E+03  0.00000000000E+00 0. -1.
         21    1    1    2  503  504 -0.12684490483E+03  0.32817731084E+01  0.49055566238E+02  0.13603987833E+03  0.00000000000E+00 0. -1.
         21    1    1    2  504  502  0.85436206013E+02  0.62262541926E+02 -0.17960293076E+02  0.10723125269E+03  0.00000000000E+00 0. -1.
         21    1    1    2  505  501  0.16058918615E+02 -0.26068740865E+02 -0.33832310671E+02  0.45629961240E+02  0.00000000000E+00 0.  1.
          2    1    1    2  501    0  0.25349780202E+02 -0.39475574169E+02  0.15221718828E+03  0.15928278224E+03  0.00000000000E+00 0. -1.
<scales pt_clust_3="14000.00000" pt_clust_4="109.04969" pt_clust_5="30.61810" pt_clust_6="47.90067"></scales>
<clustering>
<clus scale="   30.618">  2  5  1 -1</clus>
<clus scale="   47.901">  1  6  2 -1</clus>
<clus scale="  109.050">  2  4  1 -1</clus>
<clus scale="   30.618">  2  3  1 -1</clus>
</clustering>
</event>
<event>
 6    0  0.7258365E+002  0.1094070E+03  0.7546771E-02  0.1261672E+00
         21   -1    0    0  503  502  0.00000000000E+00  0.00000000000E+00  0.50176933504E+02  0.50176933504E+02  0.00000000000E+00 0. -1.
          2   -1    0    0  505    0 -0.00000000000E+00 -0.00000000000E+00 -0.24564594661E+04  0.24564594661E+04  0.00000000000E+00 0. -1.
         21    1    1    2  503  504 -0.20953701214E+02 -0.26782819302E+02 -0.80278972981E+01  0.34940293922E+02  0.00000000000E+00 0. -1.
         21    1    1    2  504  501 -0.66463215902E+02 -0.24857533042E+01 -0.42294367418E+02  0.78818472155E+02  0.00000000000E+00 0. -1.
         21    1    1    2  505  502  0.10912690309E+03  0.50487847183E+02 -0.17858771467E+03  0.21529346373E+03  0.00000000000E+00 0. -1.
          2    1    1    2  501    0 -0.21709985975E+02 -0.21219274577E+02 -0.21773725532E+04  0.21775841698E+04  0.00000000000E+00 0. -1.
<scales pt_clust_3="31.14702" pt_clust_4="31.14702" pt_clust_5="100.29719" pt_clust_6="30.35755"></scales>
<clustering>
<clus scale="   30.358">  2  6  1 -1</clus>
<clus scale="   31.147">  3  4 -1 -1</clus>
<clus scale="  100.297">  2  5  1 -1</clus>
<clus scale="  109.407">  1  3  2 -1</clus>
</clustering>
</event>
<event>
 6    0  0.7258365E+002  0.8945977E+02  0.7546771E-02  0.1304165E+00
         21   -1    0    0  503  502  0.00000000000E+00  0.00000000000E+00  0.66169524879E+02  0.66169524879E+02  0.00000000000E+00 0.  1.
          3   -1    0    0  504    0 -0.00000000000E+00 -0.00000000000E+00 -0.56398153488E+03  0.56398153488E+03  0.00000000000E+00 0.  1.
         21    1    1    2  503  505 -0.23404857414E+02 -0.75785606422E+02  0.18776465285E+02  0.81509515641E+02  0.00000000000E+00 0.  1.
         21    1    1    2  504  502 -0.62383740261E+02  0.40437623573E+02 -0.14246011563E+03  0.16069168303E+03  0.00000000000E+00 0. -1.
         21    1    1    2  505  501  0.58407199830E+02  0.66278277960E+01 -0.16670607742E+03  0.17676607520E+03  0.00000000000E+00 0. -1.
          3    1    1    2  501    0  0.27381397846E+02  0.28720155053E+02 -0.20742228223E+03  0.21118378588E+03  0.00000000000E+00 0.  1.
<scales pt_clust_3="77.96889" pt_clust_4="74.34334" pt_clust_5="36.03801" pt_clust_6="36.03801"></scales>
<clustering>
<clus scale="   36.038">  5  6 -1 -1</clus>
<clus scale="   74.343">  2  4  1 -1</clus>
<clus scale="   77.969">  1  3  2 -1</clus>
<clus scale="   77.969">  1  3  2 -1</clus>
</clustering>
</event>
<event>
 6    0  0.7258365E+002  0.4000814E+03  0.7546771E-02  0.1043752E+00
          2   -1    0    0  505    0 -0.00000000000E+00  0.00000000000E+00  0.25512062904E+04  0.25512062904E+04  0.00000000000E+00 0.  1.
         21   -1    0    0  504  502  0.00000000000E+00 -0.00000000000E+00 -0.40585891726E+03  0.40585891726E+03  0.00000000000E+00 0.  1.
         21    1    1    2  503  501  0.28969190528E+03 -0.34250207135E+03  0.28536752206E+03  0.53166125636E+03  0.00000000000E+00 0.  1.
         21    1    1    2  504  503 -0.14348008877E+02  0.71112214891E+02 -0.23644337907E+03  0.24732222700E+03  0.00000000000E+00 0.  1.
         21    1    1    2  505  502 -0.23559369442E+03  0.30009917932E+03  0.86170514949E+03  0.94239040261E+03  0.00000000000E+00 0.  1.
          2    1    1    2  501    0 -0.39750201984E+02 -0.28709322860E+02  0.12347180807E+04  0.12356913217E+04  0.00000000000E+00 0.  1.
<scales pt_clust_3="400.08137" pt_clust_4="72.46165" pt_clust_5="14000.00000" pt_clust_6="49.03370"></scales>
<clustering>
<clus scale="   49.034">  1  6  2 -1</clus>
<clus scale="   72.462">  2  4  1 -1</clus>
<clus scale="  400.081">  2  3  1 -1</clus>
<clus scale="   72.462">  2  3  1 -1</clus>
</clustering>
</event>
<event>
 6    0  0.7258365E+002  0.7752334E+02  0.7546771E-02  0.1336230E+00
          1   -1    0    0  504    0 -0.00000000000E+00  0.00000000000E+00  0.28903996837E+03  0.28903996837E+03  0.00000000000E+00 0.  1.
         21   -1    0    0  503  502  0.00000000000E+00 -0.00000000000E+00 -0.48356873773E+03  0.48356873773E+03  0.00000000000E+00 0.  1.
         21    1    1    2  503  501 -0.64735628647E+02 -0.17935355230E+00  0.52345457932E+02  0.83251310801E+02  0.00000000000E+00 0.  1.
         21    1    1    2  504  505  0.81752354783E+02  0.77884247847E+02  0.21257690967E+02  0.11489687986E+03  0.00000000000E+00 0.  1.
         21    1    1    2  505  502 -0.12585355091E+02 -0.47999434160E+02 -0.41834328428E+03  0.42127596697E+03  0.00000000000E+00 0.  1.
          1    1    1    2  501    0 -0.44313710453E+01 -0.29705460134E+02  0.15021136602E+03  0.15318454848E+03  0.00000000000E+00 0.  1.
<scales pt_clust_3="77.52334" pt_clust_4="14000.00000" pt_clust_5="49.94073" pt_clust_6="30.03417"></scales>
<clustering>
<clus scale="   30.034">  1  6  2 -1</clus>
<clus scale="   49.941">  2  5  1 -1</clus>
<clus scale="   77.523">  1  3  2 -1</clus>
<clus scale="   49.941">  2  3  1 -1</clus>
</clustering>
</event>
<event>
 6    0  0.7258365E+002  0.6011161E+02  0.7546771E-02  0.1397364E+00
         21   -1    0    0  503  502  0.00000000000E+00  0.00000000000E+00  0.31407243305E+03  0.31407243305E+03  0.00000000000E+00 0. -1.
          2   -1    0    0  504    0 -0.00000000000E+00 -0.00000000000E+00 -0.49439420362E+03  0.49439420362E+03  0.00000000000E+00 0.  1.
         21    1    1    2  503  501  0.85833361255E+02  0.21057857133E+02  0.18315720160E+03  0.20336508980E+03  0.00000000000E+00 0. -1.
         21    1    1    2  504  505 -0.96529178401E+02  0.29999370776E+02 -0.28999402949E+03  0.30710646634E+03  0.00000000000E+00 0.  1.
         21    1    1    2  505  502 -0.30468401926E+02 -0.35927195033E+02  0.10453161134E+03  0.11465576579E+03  0.00000000000E+00 0. -1.
          2    1    1    2  501    0  0.41164219073E+02 -0.15130032876E+02 -0.17801655401E+03  0.18333931474E+03  0.00000000000E+00 0.  1.
<scales pt_clust_3="14000.00000" pt_clust_4="60.11161" pt_clust_5="46.86848" pt_clust_6="43.85671"></scales>
<clustering>
<clus scale="   43.857">  2  6  1 -1</clus>
<clus scale="   46.868">  1  5  2 -1</clus>
<clus scale="   60.112">  2  4  1 -1</clus>
<clus scale="   46.868">  1  3  2 -1</clus>
</clustering>
</event>
<event>
 6    0  0.7258365E+002  0.1188440E+03  0.7546771E-02  0.1245016E+00
         21   -1    0    0  503  502  0.00000000000E+00  0.00000000000E+00  0.19208744597E+03  0.19208744597E+03  0.00000000000E+00 0. -1.
          4   -1    0    0  504    0 -0.00000000000E+00 -0.00000000000E+00 -0.10631225646E+04  0.10631225646E+04  0.00000000000E+00 0. -1.
         21    1    1    2  503  505  0.95920327060E+02  0.72018027197E+02  0.15957282009E+03  0.19962662722E+03  0.00000000000E+00 0. -1.
         21    1    1    2  504  502  0.23393220048E+02 -0.20213430504E+02 -0.54375943281E+02  0.62550529372E+02  0.00000000000E+00 0.  1.
         21    1    1    2  505  501 -0.10816698001E+03 -0.17958732354E+02 -0.37384945460E+03  0.38959726172E+03  0.00000000000E+00 0. -1.
          4    1    1    2  501    0 -0.11146567098E+02 -0.33845864339E+02 -0.60238254085E+03  0.60343559226E+03  0.00000000000E+00 0. -1.
<scales pt_clust_3="118.84404" pt_clust_4="30.91643" pt_clust_5="14000.00000" pt_clust_6="46.06707"></scales>
<clustering>
<clus scale="   30.916">  2  4  1 -1</clus>
<clus scale="   46.067">  2  6  1 -1</clus>
<clus scale="  118.844">  1  3  2 -1</clus>
<clus scale="  118.844">  1  3  2 -1</clus>
</clustering>
</event>
<event>
 6    0  0.7258365E+002  0.1114613E+03  0.7546771E-02  0.1257888E+00
          1   -1    0    0  505    0 -0.00000000000E+00  0.00000000000E+00  0.93679139583E+03  0.93679139583E+03  0.00000000000E+00 0. -1.
         21   -1    0    0  504  502  0.00000000000E+00 -0.00000000000E+00 -0.66702271332E+02  0.66702271332E+02  0.00000000000E+00 0.  1.
         21    1    1    2  503  502 -0.33171511554E+02 -0.25791218606E+02 -0.21789275659E+02  0.47331899071E+02  0.00000000000E+00 0.  1.
         21    1    1    2  504  501  0.13884466115E+03  0.24376534916E+02  0.19271317661E+03  0.23876855703E+03  0.00000000000E+00 0. -1.
         21    1    1    2  505  503 -0.93717941620E+02  0.47645857269E+02  0.36521754484E+03  0.38004872761E+03  0.00000000000E+00 0. -1.
          1    1    1    2  501    0 -0.11955207975E+02 -0.46231173580E+02  0.33394767870E+03  0.33734448346E+03  0.00000000000E+00 0. -1.
<scales pt_clust_3="42.01828" pt_clust_4="14000.00000" pt_clust_5="111.46126" pt_clust_6="49.52878"></scales>
<clustering>
<clus scale="   42.018">  2  3  1 -1</clus>
<clus scale="   49.529">  1  6  2 -1</clus>
<clus scale="  111.461">  1  5  2 -1</clus>
<clus scale="   42.018">  2  3  1 -1</clus>
</clustering>
</event>
<event>
 6    0  0.7258365E+002  0.1279933E+03  0.7546771E-02  0.1230464E+00
          1   -1    0    0  503    0 -0.00000000000E+00  0.00000000000E+00  0.81365340704E+03  0.81365340704E+03  0.00000000000E+00 0. -1.
         21   -1    0    0  504  502  0.00000000000E+00 -0.00000000000E+00 -0.45157561897E+02  0.45157561897E+02  0.00000000000E+00 0. -1.
         21    1    1    2  503  502  0.25936366342E+01  0.32281527927E+02  0.38025379190E+02  0.49947507033E+02  0.00000000000E+00 0. -1.
         21    1    1    2  504  505 -0.49291705116E+02 -0.56035104067E+02  0.13449469380E+03  0.15381296350E+03  0.00000000000E+00 0. -1.
         21    1    1    2  505  501 -0.98048087398E+02  0.12509482120E+02  0.11015327676E+03  0.14799884786E+03  0.00000000000E+00 0. -1.
          1    1    1    2  501    0  0.14474615588E+03  0.11244094021E+02  0.48582249538E+03  0.50705165054E+03  0.00000000000E+00 0. -1.
<scales pt_clust_3="32.38555" pt_clust_4="68.40146" pt_clust_5="14000.00000" pt_clust_6="127.99334"></scales>
<clustering>
<clus scale="   32.386">  2  3  1 -1</clus>
<clus scale="   68.401">  2  4  1 -1</clus>
<clus scale="  127.993">  1  6  2 -1</clus>
<clus scale="   32.386">  2  3  1 -1</clus>
</clustering>
</event>
<event>
 6    0  0.7258365E+002  0.1086491E+03  0.7546771E-02  0.1263092E+00
          2   -1    0    0  503    0 -0.00000000000E+00  0.00000000000E+00  0.97879007015E+03  0.97879007015E+03  0.00000000000E+00 0.  1.
         21   -1    0    0  501  502  0.00000000000E+00 -0.00000000000E+00 -0.26772289623E+03  0.26772289623E+03  0.00000000000E+00 0. -1.
         21    1    1    2  503  505 -0.11995484920E+03  0.67390834657E+01  0.35436618800E+03  0.37417906982E+03  0.00000000000E+00 0. -1.
         21    1    1    2  504  502  0.20514993635E+02  0.32373136059E+02 -0.22893590711E+03  0.23212180955E+03  0.00000000000E+00 0. -1.
         21    1    1    2  505  504  0.17472952030E+02  0.37636358850E+02 -0.23866033249E+01  0.41563149971E+02  0.00000000000E+00 0. -1.
          2    1    1    2  501    0  0.81966903538E+02 -0.76748578374E+02  0.58802349635E+03  0.59864893704E+03  0.00000000000E+00 0.  1.
<scales pt_clust_3="108.64908" pt_clust_4="38.32603" pt_clust_5="64.01416" pt_clust_6="14000.00000"></scales>
<clustering>
<clus scale="   38.326">  2  4  1 -1</clus>
<clus scale="   64.014">  2  5  1 -1</clus>
<clus scale="  108.649">  2  3  1 -1</clus>
<clus scale="   38.326">  2  3  1 -1</clus>
</clustering>
</event>
<event>
 6    0  0.7258365E+002  0.7742820E+02  0.7546771E-02  0.1336512E+00
         21   -1    0    0  503  502  0.00000000000E+00  0.00000000000E+00  0.42301856869E+03  0.42301856869E+03  0.00000000000E+00 0. -1.
          2   -1    0    0  504    0 -0.00000000000E+00 -0.00000000000E+00 -0.80992132911E+02  0.80992132911E+02  0.00000000000E+00 0. -1.
         21    1    1    2  503  501  0.37065698915E+02  0.97100920165E+02  0.17835768731E+03  0.20643139140E+03  0.00000000000E+00 0. -1.
         21    1    1    2  504  505 -0.55027325244E+02 -0.28052113596E+02  0.14214787678E+03  0.15498692356E+03  0.00000000000E+00 0. -1.
         21    1    1    2  505  502  0.45102019102E+02 -0.44180991865E+00  0.46419932239E+02  0.64724009704E+02  0.00000000000E+00 0.  1.
          2    1    1    2  501    0 -0.27140392773E+02 -0.68606996651E+02 -0.24899060558E+02  0.77868376932E+02  0.00000000000E+00 0. -1.
<scales pt_clust_3="14000.00000" pt_clust_4="46.37445" pt_clust_5="45.10418" pt_clust_6="77.42820"></scales>
<clustering>
<clus scale="   45.104">  1  5  2 -1</clus>
<clus scale="   46.374">  1  4  2 -1</clus>
<clus scale="   77.428">  2  6  1 -1</clus>
<clus scale="   45.104">  1  3  2 -1</clus>
</clustering>
</event>
<event>
 6    0  0.7258365E+002  0.9016660E+02  0.7546771E-02  0.1302449E+00
         -4   -1    0    0    0  501 -0.00000000000E+00  0.00000000000E+00  0.75173636047E+03  0.75173636047E+03  0.00000000000E+00 0. -1.
         21   -1    0    0  504  502  0.00000000000E+00 -0.00000000000E+00 -0.50817418636E+02  0.50817418636E+02  0.00000000000E+00 0.  1.
         21    1    1    2  503  502 -0.24556967099E+02  0.59592635817E+02  0.73994305111E+02  0.98129934605E+02  0.00000000000E+00 0.  1.
         21    1    1    2  504  505  0.54723348612E+02 -0.12001691538E+03  0.10840054805E+03  0.17073190586E+03  0.00000000000E+00 0.  1.
         21    1    1    2  505  501  0.31076799692E+02  0.28430033147E+02  0.33417735033E+03  0.33682122222E+03  0.00000000000E+00 0.  1.
         -4    1    1    2    0  503 -0.61243181205E+02  0.31994246413E+02  0.18434673834E+03  0.19687071642E+03  0.00000000000E+00 0. -1.
<scales pt_clust_3="90.16660" pt_clust_4="14000.00000" pt_clust_5="42.11929" pt_clust_6="65.08712"></scales>
<clustering>
<clus scale="   42.119">  1  5  2 -1</clus>
<clus scale="   65.087">  1  6  2 -1</clus>
<clus scale="   90.167">  2  3  1 -1</clus>
<clus scale="   90.167">  2  3  1 -1</clus>
</clustering>
</event>
<event>
 6    0  0.7258365E+002  0.8337754E+02  0.7546771E-02  0.1319731E+00
         21   -1    0    0  501  502  0.00000000000E+00  0.00000000000E+00  0.18246954384E+03  0.18246954384E+03  0.00000000000E+00 0. -1.
          2   -1    0    0  503    0 -0.00000000000E+00 -0.00000000000E+00 -0.19465173997E+04  0.19465173997E+04  0.00000000000E+00 0. -1.
         21    1    1    2  503  505 -0.89257237003E+02  0.35394750209E+02 -0.39069943444E+03  0.40232535438E+03  0.00000000000E+00 0. -1.
         21    1    1    2  504  502 -0.44053297185E+02 -0.98356634313E+01  0.56914477833E+02  0.72640836002E+02  0.00000000000E+00 0. -1.
         21    1    1    2  505  504  0.91959553622E+02 -0.57172370769E+02  0.85126298285E+02  0.13773788927E+03  0.00000000000E+00 0. -1.
          2    1    1    2  501    0  0.41350980566E+02  0.31613283991E+02 -0.15153891976E+04  0.15162828639E+04  0.00000000000E+00 0. -1.
<scales pt_clust_3="14000.00000" pt_clust_4="45.13794" pt_clust_5="83.37754" pt_clust_6="51.89547"></scales>
<clustering>
<clus scale="   45.138">  1  4  2 -1</clus>
<clus scale="   51.895">  2  6  1 -1</clus>
<clus scale="   83.378">  1  5  2 -1</clus>
<clus scale="   45.138">  1  3  2 -1</clus>
</clustering>
</event>
<event>
 6    0  0.7258365E+002  0.5992956E+02  0.7546771E-02  0.1398128E+00
         21   -1    0    0  503  502  0.00000000000E+00  0.00000000000E+00  0.15369167914E+03  0.15369167914E+03  0.00000000000E+00 0. -1.
          1   -1    0    0  504    0 -0.00000000000E+00 -0.00000000000E+00 -0.33430458064E+04  0.33430458064E+04  0.00000000000E+00 0.  1.
         21    1    1    2  503  501  0.77608639496E+02 -0.61334189430E+02  0.61630247307E+02  0.11654729126E+03  0.00000000000E+00 0. -1.
         21    1    1    2  504  505 -0.84246889633E+02  0.54581942317E+02 -0.37893780397E+03  0.39200840057E+03  0.00000000000E+00 0. -1.
         21    1    1    2  505  502 -0.31809294161E+02  0.31951727612E+02  0.49107800176E+02  0.66665734306E+02  0.00000000000E+00 0. -1.
          1    1    1    2  501    0  0.38447544299E+02 -0.25199480499E+02 -0.29211543708E+04  0.29215160595E+04  0.00000000000E+00 0.  1.
<scales pt_clust_3="59.92956" pt_clust_4="14000.00000" pt_clust_5="45.08596" pt_clust_6="45.88658"></scales>
<clustering>
<clus scale="   45.086">  1  5  2 -1</clus>
<clus scale="   45.887">  2  6  1 -1</clus>
<clus scale="   59.930">  1  3  2 -1</clus>
<clus scale="   45.086">  1  3  2 -1</clus>
</clustering>
</event>
<event>
 6    0  0.7258365E+002  0.8868049E+02  0.7546771E-02  0.1306079E+00
         21   -1    0    0  504  502  0.00000000000E+00  0.00000000000E+00  0.33490441835E+03  0.33490441835E+03  0.00000000000E+00 0.  1.
          2   -1    0    0  503    0 -0.00000000000E+00 -0.00000000000E+00 -0.23242066158E+03  0.23242066158E+03  0.00000000000E+00 0.  1.
         21    1    1    2  503  505  0.66864388949E+02 -0.67040512771E+02 -0.85915545271E+01  0.95074137763E+02  0.00000000000E+00 0. -1.
         21    1    1    2  504  501  0.42261495903E+01  0.61731039100E+02  0.50822265776E+02  0.80071744251E+02  0.00000000000E+00 0.  1.
         21    1    1    2  505  502 -0.73057973852E+02 -0.10402595973E+03  0.18615580031E+03  0.22541705755E+03  0.00000000000E+00 0.  1.
          2    1    1    2  501    0  0.19674353119E+01  0.10933543340E+03 -0.12590275479E+03  0.16676214037E+03  0.00000000000E+00 0.  1.
<scales pt_clust_3="88.46647" pt_clust_4="61.87553" pt_clust_5="14000.00000" pt_clust_6="88.68049"></scales>
<clustering>
<clus scale="   61.876">  1  4  2 -1</clus>
<clus scale="   88.466">  2  3  1 -1</clus>
<clus scale="   88.680">  2  6  1 -1</clus>
<clus scale="   61.876">  1  3  2 -1</clus>
</clustering>
</event>
<event>
 6    0  0.7258365E+002  0.1474762E+03  0.7546771E-02  0.1203609E+00
         21   -1    0    0  505  502  0.00000000000E+00  0.00000000000E+00  0.95560992185E+02  0.95560992185E+02  0.00000000000E+00 0. -1.
          2   -1    0    0  504    0 -0.00000000000E+00 -0.00000000000E+00 -0.11969315589E+04  0.11969315589E+04  0.00000000000E+00 0. -1.
         21    1    1    2  503  501  0.80493976416E+02 -0.25148039007E+02  0.17078404125E+02  0.86042872991E+02  0.00000000000E+00 0. -1.
         21    1    1    2  504  502 -0.14680359477E+03  0.93002862521E+02 -0.92279340152E+03  0.93901463767E+03  0.00000000000E+00 0. -1.
         21    1    1    2  505  503  0.15091353984E+02  0.31824351471E+02  0.69500221831E+01  0.35900433423E+02  0.00000000000E+00 0.  1.
          2    1    1    2  501    0  0.51218264367E+02 -0.99679174985E+02 -0.20260559150E+03  0.23153460700E+03  0.00000000000E+00 0. -1.
<scales pt_clust_3="91.03978" pt_clust_4="14000.00000" pt_clust_5="35.22128" pt_clust_6="147.47624"></scales>
<clustering>
<clus scale="   35.221">  1  5  2 -1</clus>
<clus scale="   91.040">  1  3  2 -1</clus>
<clus scale="  147.476">  1  6  2 -1</clus>
<clus scale="   35.221">  1  3  2 -1</clus>
</clustering>
</event>
<event>
 6    0  0.7258365E+002  0.1458198E+03  0.7546771E-02  0.1205706E+00
         21   -1    0    0  504  502  0.00000000000E+00  0.00000000000E+00  0.63783499882E+03  0.63783499882E+03  0.00000000000E+00 0. -1.
          3   -1    0    0  503    0 -0.00000000000E+00 -0.00000000000E+00 -0.16243092196E+04  0.16243092196E+04  0.00000000000E+00 0. -1.
         21    1    1    2  503  502 -0.24186075046E+03  0.77955401353E+02 -0.12647446036E+03  0.28384759350E+03  0.00000000000E+00 0. -1.
         21    1    1    2  504  505  0.14089179435E+03  0.11849750031E+02  0.48584338976E+03  0.50599872891E+03  0.00000000000E+00 0. -1.
         21    1    1    2  505  501  0.57031085423E+02 -0.74690483752E+02  0.27697738398E+02  0.97971311005E+02  0.00000000000E+00 0. -1.
          3    1    1    2  501    0  0.43937870687E+02 -0.15114667632E+02 -0.13735408886E+04  0.13743265850E+04  0.00000000000E+00 0. -1.
<scales pt_clust_3="14000.00000" pt_clust_4="145.81979" pt_clust_5="99.46812" pt_clust_6="46.46493"></scales>
<clustering>
<clus scale="   46.465">  2  6  1 -1</clus>
<clus scale="   99.468">  2  5  1 -1</clus>
<clus scale="  145.820">  1  4  2 -1</clus>
<clus scale="  145.820">  1  3  2 -1</clus>
</clustering>
</event>
<event>
 6    0  0.7258365E+002  0.1066965E+03  0.7546771E-02  0.1266813E+00
         21   -1    0    0  504  502  0.00000000000E+00  0.00000000000E+00  0.47998388555E+03  0.47998388555E+03  0.00000000000E+00 0. -1.
          1   -1    0    0  503    0 -0.00000000000E+00 -0.00000000000E+00 -0.35005032117E+03  0.35005032117E+03  0.00000000000E+00 0.  1.
         21    1    1    2  503  505  0.20697918993E+02 -0.78232173086E+02 -0.78677762037E+02  0.11286658937E+03  0.00000000000E+00 0.  1.
         21    1    1    2  504  501  0.48580654996E+02  0.71071746213E+02  0.12677316443E+03  0.15324068771E+03  0.00000000000E+00 0. -1.
         21    1    1    2  505  502  0.27772306794E+02  0.15303414644E+02  0.31220899181E+03  0.31381515275E+03  0.00000000000E+00 0. -1.
          1    1    1    2  501    0 -0.97050880783E+02 -0.81429877712E+01 -0.23037082982E+03  0.25011177690E+03  0.00000000000E+00 0.  1.
<scales pt_clust_3="80.19836" pt_clust_4="106.69652" pt_clust_5="31.70955" pt_clust_6="14000.00000"></scales>
<clustering>
<clus scale="   31.710">  1  5  2 -1</clus>
<clus scale="   80.198">  2  3  1 -1</clus>
<clus scale="  106.697">  1  4  2 -1</clus>
<clus scale="   31.710">  1  3  2 -1</clus>
</clustering>
</event>
<event>
 6    0  0.7258365E+002  0.1107343E+03  0.7546771E-02  0.1259216E+00
         21   -1    0    0  504  502  0.00000000000E+00  0.00000000000E+00  0.83419494667E+02  0.83419494667E+02  0.00000000000E+00 0. -1.
          2   -1    0    0  505    0 -0.00000000000E+00 -0.00000000000E+00 -0.97385637099E+03  0.97385637099E+03  0.00000000000E+00 0. -1.
         21    1    1    2  503  501  0.37149508067E+02 -0.11823144430E+03 -0.22255071100E+03  0.25473040521E+03  0.00000000000E+00 0. -1.
         21    1    1    2  504  503  0.74158722350E+02 -0.14230304894E+02 -0.89342601454E+01  0.76038402681E+02  0.00000000000E+00 0. -1.
         21    1    1    2  505  502 -0.87748821235E+02  0.10145364020E+03 -0.10281346155E+03  0.16900681824E+03  0.00000000000E+00 0. -1.
          2    1    1    2  501    0 -0.23559409183E+02  0.31008108993E+02 -0.55613844363E+03  0.55750023952E+03  0.00000000000E+00 0. -1.
<scales pt_clust_3="14000.00000" pt_clust_4="72.60762" pt_clust_5="110.73431" pt_clust_6="38.94289"></scales>
<clustering>
<clus scale="   38.943">  2  6  1 -1</clus>
<clus scale="   72.608">  1  4  2 -1</clus>
<clus scale="  110.734">  1  5  2 -1</clus>
<clus scale="   72.608">  1  3  2 -1</clus>
</clustering>
</event>
<event>
 6    0  0.7258365E+002  0.1217228E+03  0.7546771E-02  0.1240282E+00
         21   -1    0    0  505  502  0.00000000000E+00  0.00000000000E+00  0.12661055956E+04  0.12661055956E+04  0.00000000000E+00 0. -1.
         -3   -1    0    0    0  501 -0.00000000000E+00 -0.00000000000E+00 -0.38491698534E+03  0.38491698534E+03  0.00000000000E+00 0.  1.
         21    1    1    2  503  504  0.28232031663E+02 -0.10131713178E+03  0.60637234731E+02  0.12140462528E+03  0.00000000000E+00 0. -1.
         21    1    1    2  504  502  0.21481736012E+02  0.34879169712E+02  0.42205571975E+03  0.42403897466E+03  0.00000000000E+00 0. -1.
         21    1    1    2  505  501  0.10866899217E+02 -0.41788078187E+02  0.74051135284E+03  0.74176909929E+03  0.00000000000E+00 0. -1.
         -3    1    1    2    0  503 -0.60580666892E+02  0.10822604026E+03 -0.34201569706E+03  0.36380988171E+03  0.00000000000E+00 0.  1.
<scales pt_clust_3="14000.00000" pt_clust_4="40.96366" pt_clust_5="31.76381" pt_clust_6="121.72282"></scales>
<clustering>
<clus scale="   40.964">  1  4  2 -1</clus>
<clus scale="   31.764">  1  5  2 -1</clus>
<clus scale="  121.723">  2  6  1 -1</clus>
<clus scale="   40.964">  1  3  2 -1</clus>
</clustering>
</event>
<event>
 6    0  0.7258365E+002  0.1483820E+03  0.7546771E-02  0.1202475E+00
          1   -1    0    0  505    0 -0.00000000000E+00  0.00000000000E+00  0.13094220995E+04  0.13094220995E+04  0.00000000000E+00 0.  1.
         21   -1    0    0  503  502  0.00000000000E+00 -0.00000000000E+00 -0.33486400827E+03  0.33486400827E+03  0.00000000000E+00 0.  1.
         21    1    1    2  503  504 -0.14019985288E+02  0.27264793802E+02 -0.22469070089E+03  0.22677266157E+03  0.00000000000E+00 0.  1.
         21    1    1    2  504  501 -0.50002054029E+02  0.41002386868E+02  0.50840635047E+03  0.51250211544E+03  0.00000000000E+00 0.  1.
         21    1    1    2  505  502  0.85922492028E+02 -0.14761466891E+03 -0.35139617963E+02  0.17437763006E+03  0.00000000000E+00 0.  1.
          1    1    1    2  501    0 -0.21900452712E+02  0.79347488243E+02  0.72598205965E+03  0.73063370074E+03  0.00000000000E+00 0.  1.
<scales pt_clust_3="30.65826" pt_clust_4="39.82194" pt_clust_5="141.41918" pt_clust_6="39.82194"></scales>
<clustering>
<clus scale="   30.658">  2  3  1 -1</clus>
<clus scale="   39.822">  4  6 -1 -1</clus>
<clus scale="  141.419">  2  5  1 -1</clus>
<clus scale="   30.658">  2  3  1 -1</clus>
</clustering>
</event>
<event>
 6    0  0.7258365E+002  0.1200131E+03  0.7546771E-02  0.1243075E+00
         21   -1    0    0  504  502  0.00000000000E+00  0.00000000000E+00  0.57012280399E+03  0.57012280399E+03  0.00000000000E+00 0.  1.
         -4   -1    0    0    0  501 -0.00000000000E+00 -0.00000000000E+00 -0.18746670557E+03  0.18746670557E+03  0.00000000000E+00 0.  1.
         21    1    1    2  503  501 -0.32120511503E+02 -0.14698079361E+02 -0.20819052731E+02  0.41002362770E+02  0.00000000000E+00 0.  1.
         21    1    1    2  504  505 -0.15404759238E+02  0.36698002960E+02  0.27514290761E+03  0.27800659998E+03  0.00000000000E+00 0.  1.
         21    1    1    2  505  503  0.16262050370E+02  0.73121474839E+02  0.26147300991E+03  0.27199143236E+03  0.00000000000E+00 0.  1.
         -4    1    1    2    0  502  0.31263220371E+02 -0.95121398438E+02 -0.13314076636E+03  0.16658911445E+03  0.00000000000E+00 0.  1.
<scales pt_clust_3="35.32366" pt_clust_4="36.47003" pt_clust_5="36.47003" pt_clust_6="109.19251"></scales>
<clustering>
<clus scale="   35.324">  2  3  1 -1</clus>
<clus scale="   36.470">  4  5 -1 -1</clus>
<clus scale="  109.193">  2  6  1 -1</clus>
<clus scale="  120.013">  1  3  2 -1</clus>
</clustering>
</event>
<event>
 6    0  0.7258365E+002  0.2240552E+03  0.7546771E-02  0.1130895E+00
          2   -1    0    0  503    0 -0.00000000000E+00  0.00000000000E+00  0.23827883299E+04  0.23827883299E+04  0.00000000000E+00 0.  1.
         21   -1    0    0  504  502  0.00000000000E+00 -0.00000000000E+00 -0.96681165330E+02  0.96681165330E+02  0.00000000000E+00 0. -1.
         21    1    1    2  503  502  0.79588215969E+02 -0.24208647243E+03  0.16113781270E+03  0.30150545424E+03  0.00000000000E+00 0. -1.
         21    1    1    2  504  505 -0.33452977461E+02  0.16864275027E+02  0.36014892055E+01  0.37636102318E+02  0.00000000000E+00 0. -1.
         21    1    1    2  505  501 -0.47679893171E+02  0.17629711329E+03  0.91938744115E+03  0.93735122090E+03  0.00000000000E+00 0. -1.
          2    1    1    2  501    0  0.15446546627E+01  0.48925084113E+02  0.12019804215E+04  0.12029767178E+04  0.00000000000E+00 0.  1.
<scales pt_clust_3="14000.00000" pt_clust_4="37.46339" pt_clust_5="224.05519" pt_clust_6="49.04872"></scales>
<clustering>
<clus scale="   37.463">  2  4  1 -1</clus>
<clus scale="   49.049">  1  6  2 -1</clus>
<clus scale="  224.055">  1  5  2 -1</clus>
<clus scale="   37.463">  2  3  1 -1</clus>
</clustering>
</event>
<event>
 6    0  0.7258365E+002  0.1324813E+03  0.7546771E-02  0.1223820E+00
         21   -1    0    0  504  502  0.00000000000E+00  0.00000000000E+00  0.30833366314E+03  0.30833366314E+03  0.00000000000E+00 0.  1.
          3   -1    0    0  503    0 -0.00000000000E+00 -0.00000000000E+00 -0.22374852116E+03  0.22374852116E+03  0.00000000000E+00 0.  1.
         21    1    1    2  503  505  0.12806021192E+03  0.11547305175E+03 -0.51423669967E+01  0.17251054314E+03  0.00000000000E+00 0.  1.
         21    1    1    2  504  501 -0.76255377944E+02  0.44985309982E+02  0.70143682170E+02  0.11295440199E+03  0.00000000000E+00 0.  1.
         21    1    1    2  505  502  0.10032480417E+02 -0.59642301687E+02  0.90400910934E+02  0.10876662867E+03  0.00000000000E+00 0.  1.
          3    1    1    2  501    0 -0.61837314389E+02 -0.10081606004E+03 -0.70817084131E+02  0.13785061051E+03  0.00000000000E+00 0.  1.
<scales pt_clust_3="14000.00000" pt_clust_4="74.28148" pt_clust_5="60.48020" pt_clust_6="132.48128"></scales>
<clustering>
<clus scale="   60.480">  1  5  2 -1</clus>
<clus scale="   74.281">  1  4  2 -1</clus>
<clus scale="  132.481">  2  6  1 -1</clus>
<clus scale="   60.480">  1  3  2 -1</clus>
</clustering>
</event>
<event>
 6    0  0.7258365E+002  0.1135554E+03  0.7546771E-02  0.1254124E+00
          2   -1    0    0  504    0 -0.00000000000E+00  0.00000000000E+00  0.13225339123E+04  0.13225339123E+04  0.00000000000E+00 0.  1.
         21   -1    0    0  503  502  0.00000000000E+00 -0.00000000000E+00 -0.90573968318E+02  0.90573968318E+02  0.00000000000E+00 0.  1.
         21    1    1    2  503  505 -0.55144550461E+02  0.21385284310E+02 -0.15358925318E+02  0.61107678875E+02  0.00000000000E+00 0.  1.
         21    1    1    2  504  502  0.87038050414E+02 -0.11864183745E+03  0.12559746619E+03  0.19345860365E+03  0.00000000000E+00 0.  1.
         21    1    1    2  505  501  0.50345277049E+01  0.10435241978E+03  0.13309930773E+03  0.16920460898E+03  0.00000000000E+00 0.  1.
          2    1    1    2  501    0 -0.36928027658E+02 -0.70958666411E+01  0.98862209540E+03  0.98933698913E+03  0.00000000000E+00 0.  1.
<scales pt_clust_3="61.34647" pt_clust_4="113.55541" pt_clust_5="14000.00000" pt_clust_6="37.60360"></scales>
<clustering>
<clus scale="   37.604">  1  6  2 -1</clus>
<clus scale="   61.346">  2  3  1 -1</clus>
<clus scale="  113.555">  2  4  1 -1</clus>
<clus scale="   61.346">  2  3  1 -1</clus>
</clustering>
</event>
<event>
 6    0  0.7258365E+002  0.1469155E+03  0.7546771E-02  0.1204315E+00
         21   -1    0    0  501  502  0.00000000000E+00  0.00000000000E+00  0.60497257119E+02  0.60497257119E+02  0.00000000000E+00 0. -1.
          2   -1    0    0  505    0 -0.00000000000E+00 -0.00000000000E+00 -0.15586466702E+04  0.15586466702E+04  0.00000000000E+00 0. -1.
         21    1    1    2  503  504 -0.81123551669E+02 -0.29483674938E+02 -0.22098120032E+03  0.23724040258E+03  0.00000000000E+00 0. -1.
         21    1    1    2  504  502  0.88979717845E+02  0.11408435682E+03 -0.73972319412E+02  0.16249472206E+03  0.00000000000E+00 0. -1.
         21    1    1    2  505  503 -0.64634505194E+02  0.17720136091E+02 -0.24174972858E+03  0.25086760204E+03  0.00000000000E+00 0. -1.
          2    1    1    2  501    0  0.56778339019E+02 -0.10232081798E+03 -0.96144616482E+03  0.96854120068E+03  0.00000000000E+00 0. -1.
<scales pt_clust_3="46.17269" pt_clust_4="137.25320" pt_clust_5="46.17269" pt_clust_6="117.01850"></scales>
<clustering>
<clus scale="   46.173">  3  5 -1 -1</clus>
<clus scale="  117.019">  2  6  1 -1</clus>
<clus scale="  137.253">  1  4  2 -1</clus>
<clus scale="  137.253">  1  3  2 -1</clus>
</clustering>
</event>
<event>
 6    0  0.7258365E+002  0.8088071E+02  0.7546771E-02  0.1326571E+00
          3   -1    0    0  505    0 -0.00000000000E+00  0.00000000000E+00  0.15182789157E+04  0.15182789157E+04  0.00000000000E+00 0. -1.
         21   -1    0    0  503  502  0.00000000000E+00 -0.00000000000E+00 -0.38383642853E+02  0.38383642853E+02  0.00000000000E+00 0.  1.
         21    1    1    2  503  501  0.96673773262E+02 -0.74495022592E+02  0.11096636146E+03  0.16495108427E+03  0.00000000000E+00 0.  1.
         21    1    1    2  504  502 -0.58784618575E+02  0.20120460582E+02  0.13397427047E+03  0.14768063334E+03  0.00000000000E+00 0. -1.
         21    1    1    2  505  504 -0.49667436931E+02  0.91416641355E+02  0.70283174068E+03  0.71049019157E+03  0.00000000000E+00 0. -1.
          3    1    1    2  501    0  0.11778282244E+02 -0.37042079345E+02  0.53212290021E+03  0.53354064934E+03  0.00000000000E+00 0. -1.
<scales pt_clust_3="14000.00000" pt_clust_4="58.99499" pt_clust_5="80.88071" pt_clust_6="38.86957"></scales>
<clustering>
<clus scale="   38.870">  1  6  2 -1</clus>
<clus scale="   58.995">  2  4  1 -1</clus>
<clus scale="   80.881">  1  5  2 -1</clus>
<clus scale="   58.995">  2  3  1 -1</clus>
</clustering>
</event>
<event>
 6    0  0.7258365E+002  0.1047782E+03  0.7546771E-02  0.1270557E+00
         21   -1    0    0  503  502  0.00000000000E+00  0.00000000000E+00  0.74488511706E+03  0.74488511706E+03  0.00000000000E+00 0.  1.
          2   -1    0    0  504    0 -0.00000000000E+00 -0.00000000000E+00 -0.36177920518E+04  0.36177920518E+04  0.00000000000E+00 0.  1.
         21    1    1    2  503  501 -0.50097970895E+01  0.36820277846E+02  0.26685545776E+03  0.26943026234E+03  0.00000000000E+00 0.  1.
         21    1    1    2  504  505 -0.31123636362E+02  0.41106506059E+02 -0.10793576783E+04  0.10805884616E+04  0.00000000000E+00 0.  1.
         21    1    1    2  505  502  0.10765699695E+03 -0.58284534946E+02  0.46770466851E+03  0.48346124245E+03  0.00000000000E+00 0.  1.
          2    1    1    2  501    0 -0.71523563502E+02 -0.19642248959E+02 -0.25281093827E+04  0.25291972025E+04  0.00000000000E+00 0.  1.
<scales pt_clust_3="37.15953" pt_clust_4="51.60172" pt_clust_5="104.77817" pt_clust_6="14000.00000"></scales>
<clustering>
<clus scale="   37.160">  1  3  2 -1</clus>
<clus scale="   51.602">  2  4  1 -1</clus>
<clus scale="  104.778">  1  5  2 -1</clus>
<clus scale="   37.160">  1  3  2 -1</clus>
</clustering>
</event>
<event>
 6    0  0.7258365E+002  0.8782871E+02  0.7546771E-02  0.1308197E+00
         21   -1    0    0  505  502  0.00000000000E+00  0.00000000000E+00  0.28746361262E+03  0.28746361262E+03  0.00000000000E+00 0. -1.
         -1   -1    0    0    0  501 -0.00000000000E+00 -0.00000000000E+00 -0.14754383116E+04  0.14754383116E+04  0.00000000000E+00 0.  1.
         21    1    1    2  503  504  0.19525067297E+02 -0.11673143528E+03  0.75791668792E+02  0.14054121564E+03  0.00000000000E+00 0. -1.
         21    1    1    2  504  502 -0.38842589484E+02  0.31964679556E+02  0.17132842217E+03  0.17856067803E+03  0.00000000000E+00 0. -1.
         21    1    1    2  505  501 -0.24421210727E+02  0.93491796450E+02 -0.61988746704E+03  0.62737355964E+03  0.00000000000E+00 0.  1.
         -1    1    1    2    0  503  0.43738732913E+02 -0.87250407234E+01 -0.81520732288E+03  0.81642647089E+03  0.00000000000E+00 0.  1.
<scales pt_clust_3="87.82871" pt_clust_4="50.08854" pt_clust_5="14000.00000" pt_clust_6="44.60048"></scales>
<clustering>
<clus scale="   44.600">  2  6  1 -1</clus>
<clus scale="   50.089">  1  4  2 -1</clus>
<clus scale="   87.829">  1  3  2 -1</clus>
<clus scale="   50.089">  1  3  2 -1</clus>
</clustering>
</event>
<event>
 6    0  0.7258365E+002  0.2907545E+03  0.7546771E-02  0.1089956E+00
         21   -1    0    0  503  502  0.00000000000E+00  0.00000000000E+00  0.51042128981E+03  0.51042128981E+03  0.00000000000E+00 0. -1.
          2   -1    0    0  502    0 -0.00000000000E+00 -0.00000000000E+00 -0.99009457199E+03  0.99009457199E+03  0.00000000000E+00 0. -1.
         21    1    1    2  503  505  0.53865589375E+01 -0.69103171122E+02  0.17162774000E+03  0.18509550079E+03  0.00000000000E+00 0. -1.
         21    1    1    2  504  501 -0.12788930094E+03  0.26996222254E+03 -0.13543681609E+03  0.32799147252E+03  0.00000000000E+00 0. -1.
         21    1    1    2  505  504  0.10543923706E+03 -0.22645878122E+03  0.16917628208E+03  0.30169790639E+03  0.00000000000E+00 0. -1.
          2    1    1    2  501    0  0.17063504948E+02  0.25599729800E+02 -0.68504048817E+03  0.68573098209E+03  0.00000000000E+00 0. -1.
<scales pt_clust_3="68.77935" pt_clust_4="290.75447" pt_clust_5="14000.00000" pt_clust_6="30.76539"></scales>
<clustering>
<clus scale="   30.765">  2  6  1 -1</clus>
<clus scale="   68.779">  1  3  2 -1</clus>
<clus scale="  290.754">  2  4  1 -1</clus>
<clus scale="   68.779">  1  3  2 -1</clus>
</clustering>
</event>
<event>
 6    0  0.7258365E+002  0.1180047E+03  0.7546771E-02  0.1246425E+00
         21   -1    0    0  503  502  0.00000000000E+00  0.00000000000E+00  0.20054560091E+04  0.20054560091E+04  0.00000000000E+00 0.  1.
          1   -1    0    0  504    0 -0.00000000000E+00 -0.00000000000E+00 -0.24878177349E+03  0.24878177349E+03  0.00000000000E+00 0.  1.
         21    1    1    2  503  501 -0.18167087527E+02 -0.32163887124E+02  0.22502867084E+03  0.22804048194E+03  0.00000000000E+00 0. -1.
         21    1    1    2  504  505  0.66197866416E+02 -0.13423473310E+03  0.59824928319E+03  0.61668738103E+03  0.00000000000E+00 0.  1.
         21    1    1    2  505  502 -0.75658947170E+02  0.86347124747E+02  0.11609999133E+04  0.11666622909E+04  0.00000000000E+00 0.  1.
          1    1    1    2  501    0  0.27628168281E+02  0.80051495477E+02 -0.22760363173E+03  0.24284762875E+03  0.00000000000E+00 0.  1.
<scales pt_clust_3="36.93993" pt_clust_4="14000.00000" pt_clust_5="118.00471" pt_clust_6="84.52939"></scales>
<clustering>
<clus scale="   36.940">  1  3  2 -1</clus>
<clus scale="   84.529">  2  6  1 -1</clus>
<clus scale="  118.005">  1  5  2 -1</clus>
<clus scale="   36.940">  1  3  2 -1</clus>
</clustering>
</event>
<event>
 6    0  0.7258365E+002  0.1177754E+03  0.7546771E-02  0.1246813E+00
         21   -1    0    0  503  502  0.00000000000E+00  0.00000000000E+00  0.54227453107E+02  0.54227453107E+02  0.00000000000E+00 0.  1.
          1   -1    0    0  504    0 -0.00000000000E+00 -0.00000000000E+00 -0.42694401952E+03  0.42694401952E+03  0.00000000000E+00 0.  1.
         21    1    1    2  503  501 -0.73446283416E+02  0.12276901149E+02 -0.11565408008E+03  0.13755342630E+03  0.00000000000E+00 0. -1.
         21    1    1    2  504  505  0.74516496299E+02 -0.51420249618E+02 -0.80447185216E+02  0.12111358264E+03  0.00000000000E+00 0.  1.
         21    1    1    2  505  502  0.44407079215E+02  0.17703404008E+02 -0.10497631337E+02  0.48944861442E+02  0.00000000000E+00 0.  1.
          1    1    1    2  501    0 -0.45477292098E+02  0.21439944461E+02 -0.16611766978E+03  0.17355960223E+03  0.00000000000E+00 0.  1.
<scales pt_clust_3="37.80118" pt_clust_4="108.41908" pt_clust_5="47.80585" pt_clust_6="37.80118"></scales>
<clustering>
<clus scale="   37.801">  3  6 -1 -1</clus>
<clus scale="   47.806">  1  5  2 -1</clus>
<clus scale="  108.419">  1  4  2 -1</clus>
<clus scale="   47.806">  1  3  2 -1</clus>
</clustering>
</event>
<event>
 6    0  0.7258365E+002  0.1122409E+03  0.7546771E-02  0.1256476E+00
         21   -1    0    0  505  502  0.00000000000E+00  0.00000000000E+00  0.10226941644E+04  0.10226941644E+04  0.00000000000E+00 0. -1.
          2   -1    0    0  503    0 -0.00000000000E+00 -0.00000000000E+00 -0.41896732219E+03  0.41896732219E+03  0.00000000000E+00 0.  1.
         21    1    1    2  503  504 -0.81868369215E+02  0.58676898556E+02 -0.47224416497E+02  0.11124546649E+03  0.00000000000E+00 0. -1.
         21    1    1    2  504  502  0.90689816736E+02 -0.48331434800E+02  0.12604486734E+03  0.16262803888E+03  0.00000000000E+00 0. -1.
         21    1    1    2  505  501  0.28200397361E+02  0.16780083617E+02  0.84438860174E+03  0.84502600218E+03  0.00000000000E+00 0. -1.
          2    1    1    2  501    0 -0.37021844882E+02 -0.27125547373E+02 -0.31948221040E+03  0.32276197899E+03  0.00000000000E+00 0.  1.
<scales pt_clust_3="112.24088" pt_clust_4="14000.00000" pt_clust_5="32.81514" pt_clust_6="45.59471"></scales>
<clustering>
<clus scale="   32.815">  1  5  2 -1</clus>
<clus scale="   45.595">  2  6  1 -1</clus>
<clus scale="  112.241">  2  3  1 -1</clus>
<clus scale="   32.815">  1  3  2 -1</clus>
</clustering>
</event>
<event>
 6    0  0.7258365E+002  0.8994172E+02  0.7546771E-02  0.1302993E+00
          2   -1    0    0  505    0 -0.00000000000E+00  0.00000000000E+00  0.22694842343E+04  0.22694842343E+04  0.00000000000E+00 0.  1.
         21   -1    0    0  504  502  0.00000000000E+00 -0.00000000000E+00 -0.22186705588E+03  0.22186705588E+03  0.00000000000E+00 0. -1.
         21    1    1    2  503  501 -0.30775015024E+02  0.53443561271E+02  0.11426669198E+03  0.12984680468E+03  0.00000000000E+00 0. -1.
         21    1    1    2  504  503 -0.39001595381E+02  0.37285007184E+02  0.18671089481E+03  0.19435085398E+03  0.00000000000E+00 0. -1.
         21    1    1    2  505  502  0.53319408792E+02 -0.12333756804E+02 -0.20586060136E+03  0.21301095771E+03  0.00000000000E+00 0. -1.
          2    1    1    2  501    0  0.16457201613E+02 -0.78394811651E+02  0.19525001930E+04  0.19541426738E+04  0.00000000000E+00 0.  1.
<scales pt_clust_3="35.19962" pt_clust_4="35.19962" pt_clust_5="54.72733" pt_clust_6="81.69056"></scales>
<clustering>
<clus scale="   35.200">  3  4 -1 -1</clus>
<clus scale="   54.727">  2  5  1 -1</clus>
<clus scale="   81.691">  1  6  2 -1</clus>
<clus scale="   54.727">  2  3  1 -1</clus>
</clustering>
</event>
<event>
 6    0  0.7258365E+002  0.9086326E+02  0.7546771E-02  0.1300775E+00
         21   -1    0    0  501  502  0.00000000000E+00  0.00000000000E+00  0.63568557994E+02  0.63568557994E+02  0.00000000000E+00 0.  1.
         -1   -1    0    0    0  501 -0.00000000000E+00 -0.00000000000E+00 -0.13689616962E+04  0.13689616962E+04  0.00000000000E+00 0. -1.
         21    1    1    2  503  502 -0.19816559440E+02  0.22647011692E+02  0.39370163259E+02  0.49553939517E+02  0.00000000000E+00 0.  1.
         21    1    1    2  504  505 -0.38799577703E+02  0.75494743912E+02 -0.76327847040E+03  0.76798365019E+03  0.00000000000E+00 0. -1.
         21    1    1    2  505  503  0.20702348389E+02 -0.11112516873E+03 -0.18723041287E+03  0.21870669368E+03  0.00000000000E+00 0.  1.
         -1    1    1    2    0  504  0.37913788754E+02  0.12983413128E+02 -0.39425441816E+03  0.39628597077E+03  0.00000000000E+00 0. -1.
<scales pt_clust_3="30.09291" pt_clust_4="90.86326" pt_clust_5="14000.00000" pt_clust_6="39.49635"></scales>
<clustering>
<clus scale="   30.093">  1  3  2 -1</clus>
<clus scale="   39.496">  2  6  1 -1</clus>
<clus scale="   90.863">  2  4  1 -1</clus>
<clus scale="   30.093">  1  3  2 -1</clus>
</clustering>
</event>
<event>
 6    0  0.7258365E+002  0.7263907E+02  0.7546771E-02  0.1351342E+00
         21   -1    0    0  505  502  0.00000000000E+00  0.00000000000E+00  0.17457847211E+03  0.17457847211E+03  0.00000000000E+00 0. -1.
          2   -1    0    0  504    0 -0.00000000000E+00 -0.00000000000E+00 -0.19558432945E+04  0.19558432945E+04  0.00000000000E+00 0.  1.
         21    1    1    2  503  501 -0.62333046211E+01  0.55600261891E+02 -0.10400461803E+03  0.11809828017E+03  0.00000000000E+00 0. -1.
         21    1    1    2  504  502 -0.28804030168E+02 -0.15967447278E+03 -0.13057711574E+02  0.16277626744E+03  0.00000000000E+00 0. -1.
         21    1    1    2  505  503  0.22312988854E+02  0.33451654775E+02  0.87541089974E+02  0.96334444061E+02  0.00000000000E+00 0. -1.
          2    1    1    2  501    0  0.12724345935E+02  0.70622556113E+02 -0.17517435828E+04  0.17532127750E+04  0.00000000000E+00 0.  1.
<scales pt_clust_3="58.61291" pt_clust_4="72.63907" pt_clust_5="40.21048" pt_clust_6="14000.00000"></scales>
<clustering>
<clus scale="   40.210">  1  5  2 -1</clus>
<clus scale="   58.613">  1  3  2 -1</clus>
<clus scale="   72.639">  1  4  2 -1</clus>
<clus scale="   40.210">  1  3  2 -1</clus>
</clustering>
</event>
<event>
 6    0  0.7258365E+002  0.1612912E+03  0.7546771E-02  0.1187247E+00
         21   -1    0    0  504  502  0.00000000000E+00  0.00000000000E+00  0.82263361760E+03  0.82263361760E+03  0.00000000000E+00 0. -1.
          1   -1    0    0  505    0 -0.00000000000E+00 -0.00000000000E+00 -0.10942847065E+03  0.10942847065E+03  0.00000000000E+00 0. -1.
         21    1    1    2  503  501 -0.16308271441E+03 -0.60844453434E+02  0.11440098329E+03  0.20829211274E+03  0.00000000000E+00 0. -1.
         21    1    1    2  504  503  0.14521637091E+03 -0.54874408139E+02  0.51859171229E+03  0.54132832838E+03  0.00000000000E+00 0. -1.
         21    1    1    2  505  502  0.23730633002E+02  0.41581150925E+02  0.95215142289E+02  0.10657419189E+03  0.00000000000E+00 0. -1.
          1    1    1    2  501    0 -0.58642895042E+01  0.74137710648E+02 -0.15002690913E+02  0.75867455250E+02  0.00000000000E+00 0. -1.
<scales pt_clust_3="14000.00000" pt_clust_4="161.29120" pt_clust_5="47.87625" pt_clust_6="76.04669"></scales>
<clustering>
<clus scale="   47.876">  1  5  2 -1</clus>
<clus scale="   76.047">  2  6  1 -1</clus>
<clus scale="  161.291">  1  4  2 -1</clus>
<clus scale="   47.876">  1  3  2 -1</clus>
</clustering>
</event>
<event>
 6    0  0.7258365E+002  0.8656661E+02  0.7546771E-02  0.1311386E+00
          1   -1    0    0  503    0 -0.00000000000E+00  0.00000000000E+00  0.78538326083E+03  0.78538326083E+03  0.00000000000E+00 0. -1.
         21   -1    0    0  505  502  0.00000000000E+00 -0.00000000000E+00 -0.11410741992E+03  0.11410741992E+03  0.00000000000E+00 0. -1.
         21    1    1    2  503  502 -0.14449497562E+02  0.11167783021E+03 -0.26553032909E+02  0.11569697186E+03  0.00000000000E+00 0. -1.
         21    1    1    2  504  501  0.62761168232E+02 -0.32274223834E+02  0.15879518788E+03  0.17377140575E+03  0.00000000000E+00 0. -1.
         21    1    1    2  505  504 -0.33077776159E+01 -0.67650533208E+02 -0.12472926329E+01  0.67742835599E+02  0.00000000000E+00 0. -1.
          1    1    1    2  501    0 -0.45003893054E+02 -0.11753073167E+02  0.54028097856E+03  0.54227946754E+03  0.00000000000E+00 0. -1.
<scales pt_clust_3="86.56661" pt_clust_4="51.50932" pt_clust_5="14000.00000" pt_clust_6="46.51328"></scales>
<clustering>
<clus scale="   46.513">  1  6  2 -1</clus>
<clus scale="   51.509">  1  4  2 -1</clus>
<clus scale="   86.567">  1  3  2 -1</clus>
<clus scale="   86.567">  2  3  1 -1</clus>
</clustering>
</event>
<event>
 6    0  0.7258365E+002  0.1076286E+03  0.7546771E-02  0.1265025E+00
          1   -1    0    0  503    0 -0.00000000000E+00  0.00000000000E+00  0.11308612116E+04  0.11308612116E+04  0.00000000000E+00 0.  1.
         21   -1    0    0  504  502  0.00000000000E+00 -0.00000000000E+00 -0.20380563772E+04  0.20380563772E+04  0.00000000000E+00 0. -1.
         21    1    1    2  503  505 -0.71814301306E+02  0.57265558285E+02  0.16719868190E+02  0.93360548574E+02  0.00000000000E+00 0.  1.
         21    1    1    2  504  501  0.50139111123E+02 -0.13475587203E+03 -0.54277987674E+02  0.15368531308E+03  0.00000000000E+00 0.  1.
         21    1    1    2  505  502 -0.58992156043E+02  0.88844980700E+02 -0.18926340599E+04  0.18956363549E+04  0.00000000000E+00 0. -1.
          1    1    1    2  501    0  0.80667346226E+02 -0.11354666950E+02  0.10229970138E+04  0.10262353724E+04  0.00000000000E+00 0.  1.
<scales pt_clust_3="59.51233" pt_clust_4="107.62864" pt_clust_5="14000.00000" pt_clust_6="81.46256"></scales>
<clustering>
<clus scale="   81.463">  1  6  2 -1</clus>
<clus scale="   59.512">  1  3  2 -1</clus>
<clus scale="  107.629">  1  4  2 -1</clus>
<clus scale="  107.629">  2  3  1 -1</clus>
</clustering>
</event>
<event>
 6    0  0.7258365E+002  0.9758891E+02  0.7546771E-02  0.1285449E+00
         21   -1    0    0  503  502  0.00000000000E+00  0.00000000000E+00  0.19661147916E+04  0.19661147916E+04  0.00000000000E+00 0.  1.
          2   -1    0    0  505    0 -0.00000000000E+00 -0.00000000000E+00 -0.37619326179E+03  0.37619326179E+03  0.00000000000E+00 0.  1.
         21    1    1    2  503  501 -0.17605211015E+03  0.10242383512E+02  0.29349191371E+03  0.34239853289E+03  0.00000000000E+00 0.  1.
         21    1    1    2  504  502  0.93274357162E+02  0.32477004700E+01  0.16314720857E+04  0.16341394737E+04  0.00000000000E+00 0.  1.
         21    1    1    2  505  504  0.56764608415E+02  0.21350574492E+02 -0.53446060663E+02  0.80836558561E+02  0.00000000000E+00 0.  1.
          2    1    1    2  501    0  0.26013144577E+02 -0.34840658474E+02 -0.28159640893E+03  0.28493348820E+03  0.00000000000E+00 0.  1.
<scales pt_clust_3="97.58891" pt_clust_4="14000.00000" pt_clust_5="75.65588" pt_clust_6="43.48051"></scales>
<clustering>
<clus scale="   43.481">  2  6  1 -1</clus>
<clus scale="   75.656">  2  5  1 -1</clus>
<clus scale="   97.589">  2  3  1 -1</clus>
<clus scale="   97.589">  1  3  2 -1</clus>
</clustering>
</event>
<event>
 6    0  0.7258365E+002  0.9230845E+02  0.7546771E-02  0.1297356E+00
          2   -1    0    0  503    0 -0.00000000000E+00  0.00000000000E+00  0.26139557452E+04  0.26139557452E+04  0.00000000000E+00 0. -1.
         21   -1    0    0  504  502  0.00000000000E+00 -0.00000000000E+00 -0.42913393100E+03  0.42913393100E+03  0.00000000000E+00 0.  1.
         21    1    1    2  503  505 -0.13978123357E+02  0.10140497570E+03  0.64662908308E+03  0.65468124161E+03  0.00000000000E+00 0. -1.
         21    1    1    2  504  501 -0.96746959904E+00 -0.12072296235E+03  0.96882446747E+02  0.15479398607E+03  0.00000000000E+00 0. -1.
         21    1    1    2  505  502 -0.19002642681E+02  0.35731974706E+02 -0.39492439318E+03  0.39699263314E+03  0.00000000000E+00 0.  1.
          2    1    1    2  501    0  0.33948235637E+02 -0.16413988052E+02  0.18362346775E+04  0.18366218154E+04  0.00000000000E+00 0. -1.
<scales pt_clust_3="14000.00000" pt_clust_4="92.30845" pt_clust_5="40.43020" pt_clust_6="37.70811"></scales>
<clustering>
<clus scale="   37.708">  1  6  2 -1</clus>
<clus scale="   40.430">  2  5  1 -1</clus>
<clus scale="   92.308">  2  4  1 -1</clus>
<clus scale="   40.430">  2  3  1 -1</clus>
</clustering>
</event>
<event>
 6    0  0.7258365E+002  0.8128396E+02  0.7546771E-02  0.1325447E+00
         -4   -1    0    0    0  501 -0.00000000000E+00  0.00000000000E+00  0.81297169472E+02  0.81297169472E+02  0.00000000000E+00 0.  1.
         21   -1    0    0  503  502  0.00000000000E+00 -0.00000000000E+00 -0.19644571213E+04  0.19644571213E+04  0.00000000000E+00 0.  1.
         21    1    1    2  503  501  0.36721061147E+02 -0.17718361779E+02 -0.33591000419E+01  0.40910392677E+02  0.00000000000E+00 0. -1.
         21    1    1    2  504  502  0.24910693560E+02  0.21529198849E+02 -0.15294992000E+04  0.15298535393E+04  0.00000000000E+00 0.  1.
         21    1    1    2  505  504 -0.85502471306E+02 -0.72554512459E+02 -0.38014413507E+03  0.39633873556E+03  0.00000000000E+00 0.  1.
         -4    1    1    2    0  505  0.23870716598E+02  0.68743675389E+02  0.29842483304E+02  0.78651623166E+02  0.00000000000E+00 0.  1.
<scales pt_clust_3="41.46668" pt_clust_4="32.92490" pt_clust_5="14000.00000" pt_clust_6="81.28396"></scales>
<clustering>
<clus scale="   32.925">  2  4  1 -1</clus>
<clus scale="   41.467">  1  3  2 -1</clus>
<clus scale="   81.284">  1  6  2 -1</clus>
<clus scale="   32.925">  2  3  1 -1</clus>
</clustering>
</event>
<event>
 6    0  0.7258365E+002  0.7528460E+02  0.7546771E-02  0.1342992E+00
         21   -1    0    0  501  502  0.00000000000E+00  0.00000000000E+00  0.78768093390E+03  0.78768093390E+03  0.00000000000E+00 0. -1.
          2   -1    0    0  504    0 -0.00000000000E+00 -0.00000000000E+00 -0.61114974380E+03  0.61114974380E+03  0.00000000000E+00 0.  1.
         21    1    1    2  503  505  0.22342278516E+02 -0.12092689071E+03  0.64904648773E+02  0.13905072362E+03  0.00000000000E+00 0. -1.
         21    1    1    2  504  503  0.71957450416E-01  0.37026796139E+02 -0.12889963159E+03  0.13411228070E+03  0.00000000000E+00 0. -1.
         21    1    1    2  505  502  0.52589521558E+01  0.50852466455E+02  0.68108711221E+03  0.68300313640E+03  0.00000000000E+00 0. -1.
          2    1    1    2  501    0 -0.27673188123E+02  0.33047628117E+02 -0.44056093929E+03  0.44266453697E+03  0.00000000000E+00 0.  1.
<scales pt_clust_3="14000.00000" pt_clust_4="37.02687" pt_clust_5="51.19725" pt_clust_6="75.28460"></scales>
<clustering>
<clus scale="   37.027">  2  4  1 -1</clus>
<clus scale="   51.197">  1  5  2 -1</clus>
<clus scale="   75.285">  2  6  1 -1</clus>
<clus scale="   51.197">  1  3  2 -1</clus>
</clustering>
</event>
<event>
 6    0  0.7258365E+002  0.1006414E+03  0.7546771E-02  0.1278953E+00
          2   -1    0    0  504    0 -0.00000000000E+00  0.00000000000E+00  0.15381353946E+04  0.15381353946E+04  0.00000000000E+00 0. -1.
         21   -1    0    0  505  502  0.00000000000E+00 -0.00000000000E+00 -0.36553292672E+03  0.36553292672E+03  0.00000000000E+00 0.  1.
         21    1    1    2  503  501  0.11642146859E+03  0.44611639608E+02 -0.57718818958E+02  0.13738856866E+03  0.00000000000E+00 0.  1.
         21    1    1    2  504  502 -0.30908771565E+02  0.20456787759E+01  0.88490786114E+02  0.93755832824E+02  0.00000000000E+00 0.  1.
         21    1    1    2  505  503 -0.96143510689E+02  0.24582548395E+02 -0.25510797463E+03  0.27372971168E+03  0.00000000000E+00 0.  1.
          2    1    1    2  501    0  0.10630813663E+02 -0.71239866779E+02  0.13969384754E+04  0.13987942082E+04  0.00000000000E+00 0. -1.
<scales pt_clust_3="14000.00000" pt_clust_4="30.97639" pt_clust_5="100.64140" pt_clust_6="71.88309"></scales>
<clustering>
<clus scale="   30.976">  1  4  2 -1</clus>
<clus scale="   71.883">  1  6  2 -1</clus>
<clus scale="  100.641">  2  5  1 -1</clus>
<clus scale="  100.641">  2  3  1 -1</clus>
</clustering>
</event>
<event>
 6    0  0.7258365E+002  0.3951416E+03  0.7546771E-02  0.1045475E+00
          2   -1    0    0  504    0 -0.00000000000E+00  0.00000000000E+00  0.76591317013E+03  0.76591317013E+03  0.00000000000E+00 0. -1.
         21   -1    0    0  503  502  0.00000000000E+00 -0.00000000000E+00 -0.27575505558E+04  0.27575505558E+04  0.00000000000E+00 0. -1.
         21    1    1    2  503  505  0.10172290263E+02 -0.39969589686E+03 -0.82584344413E+03  0.91753892542E+03  0.00000000000E+00 0. -1.
         21    1    1    2  504  502 -0.34518584226E+01  0.30429962241E+02 -0.12460731822E+04  0.12464494668E+04  0.00000000000E+00 0. -1.
         21    1    1    2  505  501 -0.52284380445E+01  0.40300457095E+03 -0.57562745774E+03  0.70269978716E+03  0.00000000000E+00 0. -1.
          2    1    1    2  501    0 -0.14919937955E+01 -0.33738636324E+02  0.65590669836E+03  0.65677554658E+03  0.00000000000E+00 0. -1.
<scales pt_clust_3="14000.00000" pt_clust_4="30.62512" pt_clust_5="395.14163" pt_clust_6="33.76292"></scales>
<clustering>
<clus scale="   30.625">  2  4  1 -1</clus>
<clus scale="   33.763">  1  6  2 -1</clus>
<clus scale="  395.142">  1  5  2 -1</clus>
<clus scale="   30.625">  2  3  1 -1</clus>
</clustering>
</event>
<event>
 6    0  0.7258365E+002  0.7963111E+02  0.7546771E-02  0.1330102E+00
         21   -1    0    0  505  502  0.00000000000E+00  0.00000000000E+00  0.41914648481E+02  0.41914648481E+02  0.00000000000E+00 0. -1.
          1   -1    0    0  503    0 -0.00000000000E+00 -0.00000000000E+00 -0.41763737969E+04  0.41763737969E+04  0.00000000000E+00 0.  1.
         21    1    1    2  503  502  0.78277695392E+01  0.44102317926E+02  0.79617162848E+01  0.45493706693E+02  0.00000000000E+00 0. -1.
         21    1    1    2  504  501  0.27630339421E+02  0.10001432310E+03 -0.26039129720E+03  0.28030327886E+03  0.00000000000E+00 0. -1.
         21    1    1    2  505  504 -0.41763033571E+02 -0.65532491770E+02 -0.30997914651E+03  0.31957116535E+03  0.00000000000E+00 0. -1.
          1    1    1    2  501    0  0.63049246110E+01 -0.78584149258E+02 -0.35720504210E+04  0.35729202945E+04  0.00000000000E+00 0.  1.
<scales pt_clust_3="44.79161" pt_clust_4="14000.00000" pt_clust_5="64.86037" pt_clust_6="79.63111"></scales>
<clustering>
<clus scale="   44.792">  1  3  2 -1</clus>
<clus scale="   64.860">  1  5  2 -1</clus>
<clus scale="   79.631">  2  6  1 -1</clus>
<clus scale="   44.792">  1  3  2 -1</clus>
</clustering>
</event>
<event>
 6    0  0.7258365E+002  0.1010339E+03  0.7546771E-02  0.1278137E+00
         21   -1    0    0  504  502  0.00000000000E+00  0.00000000000E+00  0.13217667753E+03  0.13217667753E+03  0.00000000000E+00 0.  1.
         -1   -1    0    0    0  501 -0.00000000000E+00 -0.00000000000E+00 -0.24930803559E+03  0.24930803559E+03  0.00000000000E+00 0.  1.
         21    1    1    2  503  502 -0.19515450074E+02  0.25828581810E+02  0.37856007201E+02  0.49810096478E+02  0.00000000000E+00 0.  1.
         21    1    1    2  504  505  0.11547617834E+03 -0.32607058534E+02 -0.13759917640E+01  0.11999942243E+03  0.00000000000E+00 0.  1.
         21    1    1    2  505  501 -0.16478142707E+02 -0.45813708255E+02 -0.67512198689E+02  0.83236542594E+02  0.00000000000E+00 0.  1.
         -1    1    1    2    0  503 -0.79482585554E+02  0.52592184979E+02 -0.86099174808E+02  0.12843865162E+03  0.00000000000E+00 0.  1.
<scales pt_clust_3="32.37234" pt_clust_4="101.03386" pt_clust_5="47.17357" pt_clust_6="14000.00000"></scales>
<clustering>
<clus scale="   32.372">  1  3  2 -1</clus>
<clus scale="   47.174">  2  5  1 -1</clus>
<clus scale="  101.034">  1  4  2 -1</clus>
<clus scale="   32.372">  1  3  2 -1</clus>
</clustering>
</event>
<event>
 6    0  0.7258365E+002  0.1087705E+03  0.7546771E-02  0.1262864E+00
          2   -1    0    0  504    0 -0.00000000000E+00  0.00000000000E+00  0.29379429721E+04  0.29379429721E+04  0.00000000000E+00 0.  1.
         21   -1    0    0  505  502  0.00000000000E+00 -0.00000000000E+00 -0.51117893033E+02  0.51117893033E+02  0.00000000000E+00 0. -1.
         21    1    1    2  503  502  0.16590248517E+02  0.29608012776E+02 -0.15517164862E+02  0.37318268607E+02  0.00000000000E+00 0. -1.
         21    1    1    2  504  503 -0.13678710075E+03  0.66496223593E+00  0.29022219090E+03  0.32084275463E+03  0.00000000000E+00 0. -1.
         21    1    1    2  505  501  0.83293734746E+02 -0.33671115431E+02  0.20897414908E+03  0.22746820711E+03  0.00000000000E+00 0.  1.
          2    1    1    2  501    0  0.36903117485E+02  0.33981404185E+01  0.24031459040E+04  0.24034316348E+04  0.00000000000E+00 0.  1.
<scales pt_clust_3="33.93922" pt_clust_4="14000.00000" pt_clust_5="108.77046" pt_clust_6="37.17085"></scales>
<clustering>
<clus scale="   33.939">  2  3  1 -1</clus>
<clus scale="   37.171">  1  6  2 -1</clus>
<clus scale="  108.770">  2  5  1 -1</clus>
<clus scale="   33.939">  2  3  1 -1</clus>
</clustering>
</event>
<event>
 6    0  0.7258365E+002  0.2280514E+03  0.7546771E-02  0.1128019E+00
          2   -1    0    0  502    0 -0.00000000000E+00  0.00000000000E+00  0.18642569036E+04  0.18642569036E+04  0.00000000000E+00 0.  1.
         21   -1    0    0  505  502  0.00000000000E+00 -0.00000000000E+00 -0.26061182843E+04  0.26061182843E+04  0.00000000000E+00 0.  1.
         21    1    1    2  503  504  0.80687456900E+02  0.10593282870E+03 -0.53445462796E+03  0.55079395352E+03  0.00000000000E+00 0.  1.
         21    1    1    2  504  501 -0.15294837716E+03 -0.14284231402E+03  0.53780960128E+03  0.57709297342E+03  0.00000000000E+00 0. -1.
         21    1    1    2  505  503  0.98473452939E+00  0.11406716851E+03 -0.20401323274E+04  0.20433189183E+04  0.00000000000E+00 0.  1.
          2    1    1    2  501    0  0.71276185728E+02 -0.77157683188E+02  0.12949159734E+04  0.12991693426E+04  0.00000000000E+00 0.  1.
<scales pt_clust_3="14000.00000" pt_clust_4="228.05137" pt_clust_5="113.85660" pt_clust_6="105.04096"></scales>
<clustering>
<clus scale="  105.041">  1  6  2 -1</clus>
<clus scale="  113.857">  2  5  1 -1</clus>
<clus scale="  228.051">  1  4  2 -1</clus>
<clus scale="  113.857">  2  3  1 -1</clus>
</clustering>
</event>
<event>
 6    0  0.7258365E+002  0.2168398E+03  0.7546771E-02  0.1136261E+00
         21   -1    0    0  503  502  0.00000000000E+00  0.00000000000E+00  0.40321322249E+03  0.40321322249E+03  0.00000000000E+00 0.  1.
          1   -1    0    0  505    0 -0.00000000000E+00 -0.00000000000E+00 -0.14601142540E+04  0.14601142540E+04  0.00000000000E+00 0. -1.
         21    1    1    2  503  504  0.38280635135E+02  0.12412887884E+02  0.68017257709E+02  0.79030590016E+02  0.00000000000E+00 0.  1.
         21    1    1    2  504  501 -0.12588873907E+03  0.23858126623E+03 -0.13516016820E+03  0.30172382453E+03  0.00000000000E+00 0.  1.
         21    1    1    2  505  502 -0.57787239788E+02 -0.21997432311E+03  0.18823882490E+03  0.29523198185E+03  0.00000000000E+00 0.  1.
          1    1    1    2  501    0  0.14539534372E+03 -0.31019831003E+02 -0.11779969459E+04  0.11873410801E+04  0.00000000000E+00 0. -1.
<scales pt_clust_3="40.24285" pt_clust_4="216.83976" pt_clust_5="14000.00000" pt_clust_6="149.16164"></scales>
<clustering>
<clus scale="   40.243">  1  3  2 -1</clus>
<clus scale="  149.162">  2  6  1 -1</clus>
<clus scale="  216.840">  2  4  1 -1</clus>
<clus scale="   40.243">  1  3  2 -1</clus>
</clustering>
</event>
<event>
 6    0  0.7258365E+002  0.9638370E+02  0.7546771E-02  0.1288090E+00
         21   -1    0    0  505  502  0.00000000000E+00  0.00000000000E+00  0.23387305222E+03  0.23387305222E+03  0.00000000000E+00 0. -1.
          3   -1    0    0  503    0 -0.00000000000E+00 -0.00000000000E+00 -0.13689676669E+04  0.13689676669E+04  0.00000000000E+00 0. -1.
         21    1    1    2  503  502  0.93241634899E+02 -0.32887231296E+01 -0.27123132082E+02  0.97162145265E+02  0.00000000000E+00 0. -1.
         21    1    1    2  504  501 -0.80494786249E+02  0.46026413153E+02  0.68272234250E+02  0.11514746758E+03  0.00000000000E+00 0. -1.
         21    1    1    2  505  504 -0.47901481487E+01  0.30604809038E+02  0.10382018893E+03  0.10834311923E+03  0.00000000000E+00 0. -1.
          3    1    1    2  501    0 -0.79567005017E+01 -0.73342499062E+02 -0.12800639058E+04  0.12821879871E+04  0.00000000000E+00 0. -1.
<scales pt_clust_3="14000.00000" pt_clust_4="96.38370" pt_clust_5="30.97741" pt_clust_6="73.52429"></scales>
<clustering>
<clus scale="   30.977">  1  5  2 -1</clus>
<clus scale="   73.524">  2  6  1 -1</clus>
<clus scale="   96.384">  1  4  2 -1</clus>
<clus scale="   30.977">  1  3  2 -1</clus>
</clustering>
</event>
<event>
 6    0  0.7258365E+002  0.7811669E+02  0.7546771E-02  0.1334483E+00
         21   -1    0    0  505  502  0.00000000000E+00  0.00000000000E+00  0.19601267366E+03  0.19601267366E+03  0.00000000000E+00 0. -1.
          4   -1    0    0  503    0 -0.00000000000E+00 -0.00000000000E+00 -0.16653208854E+04  0.16653208854E+04  0.00000000000E+00 0.  1.
         21    1    1    2  503  502 -0.27469441225E+02  0.29180373315E+02 -0.14512476580E+03  0.15055650778E+03  0.00000000000E+00 0.  1.
         21    1    1    2  504  501  0.26969785355E+02  0.76229780596E+02 -0.19003344376E+03  0.20652132704E+03  0.00000000000E+00 0. -1.
         21    1    1    2  505  504  0.39415421539E+02 -0.68653507198E+02  0.17601489274E+03  0.19299772530E+03  0.00000000000E+00 0. -1.
          4    1    1    2  501    0 -0.38915765669E+02 -0.36756646714E+02 -0.13101648949E+04  0.13112579989E+04  0.00000000000E+00 0.  1.
<scales pt_clust_3="40.07573" pt_clust_4="14000.00000" pt_clust_5="78.11669" pt_clust_6="63.69860"></scales>
<clustering>
<clus scale="   40.076">  2  3  1 -1</clus>
<clus scale="   63.699">  2  6  1 -1</clus>
<clus scale="   78.117">  1  5  2 -1</clus>
<clus scale="   78.117">  1  3  2 -1</clus>
</clustering>
</event>
<event>
 6    0  0.7258365E+002  0.1227741E+03  0.7546771E-02  0.1238590E+00
         21   -1    0    0  505  502  0.00000000000E+00  0.00000000000E+00  0.13587091217E+03  0.13587091217E+03  0.00000000000E+00 0. -1.
          2   -1    0    0  504    0 -0.00000000000E+00 -0.00000000000E+00 -0.15934718892E+04  0.15934718892E+04  0.00000000000E+00 0.  1.
         21    1    1    2  503  501  0.81770094809E+02 -0.79762133796E+02 -0.80824361949E+03  0.81627574682E+03  0.00000000000E+00 0.  1.
         21    1    1    2  504  502 -0.78400024319E+02 -0.35791617459E+02  0.28370691833E+02  0.90733124319E+02  0.00000000000E+00 0. -1.
         21    1    1    2  505  503 -0.45982106414E+02  0.73751866931E+02  0.44500945463E+02  0.97642337811E+02  0.00000000000E+00 0. -1.
          2    1    1    2  501    0  0.42612035924E+02  0.41801884324E+02 -0.72222899481E+03  0.72469159239E+03  0.00000000000E+00 0.  1.
<scales pt_clust_3="14000.00000" pt_clust_4="84.17523" pt_clust_5="122.77407" pt_clust_6="59.69240"></scales>
<clustering>
<clus scale="   59.692">  2  6  1 -1</clus>
<clus scale="   84.175">  1  4  2 -1</clus>
<clus scale="  122.774">  1  5  2 -1</clus>
<clus scale="   84.175">  1  3  2 -1</clus>
</clustering>
</event>
<event>
 6    0  0.7258365E+002  0.2525718E+03  0.7546771E-02  0.1111690E+00
         21   -1    0    0  503  502  0.00000000000E+00  0.00000000000E+00  0.78116867805E+03  0.78116867805E+03  0.00000000000E+00 0.  1.
          1   -1    0    0  505    0 -0.00000000000E+00 -0.00000000000E+00 -0.24991598513E+04  0.24991598513E+04  0.00000000000E+00 0. -1.
         21    1    1    2  503  504 -0.12851297549E+03 -0.14841337858E+03  0.68694050433E+03  0.71444340035E+03  0.00000000000E+00 0.  1.
         21    1    1    2  504  501  0.30078740796E+03 -0.53958940922E+02 -0.10164017216E+04  0.10613468292E+04  0.00000000000E+00 0. -1.
         21    1    1    2  505  502 -0.42105284630E+02 -0.24874277153E+02  0.33057991845E+02  0.59028937670E+02  0.00000000000E+00 0. -1.
          1    1    1    2  501    0 -0.13016914784E+03  0.22724659666E+03 -0.14215879478E+04  0.14455093622E+04  0.00000000000E+00 0. -1.
<scales pt_clust_3="240.97232" pt_clust_4="14000.00000" pt_clust_5="48.90383" pt_clust_6="252.57175"></scales>
<clustering>
<clus scale="   48.904">  1  5  2 -1</clus>
<clus scale="  240.972">  1  3  2 -1</clus>
<clus scale="  252.572">  2  6  1 -1</clus>
<clus scale="   48.904">  1  3  2 -1</clus>
</clustering>
</event>
<event>
 6    0  0.7258365E+002  0.1161430E+03  0.7546771E-02  0.1249599E+00
         21   -1    0    0  504  502  0.00000000000E+00  0.00000000000E+00  0.36783766782E+03  0.36783766782E+03  0.00000000000E+00 0. -1.
          2   -1    0    0  505    0 -0.00000000000E+00 -0.00000000000E+00 -0.95612836248E+03  0.95612836248E+03  0.00000000000E+00 0.  1.
         21    1    1    2  503  501  0.10709296639E+03 -0.44309101514E+02 -0.13211713684E+03  0.17574736918E+03  0.00000000000E+00 0.  1.
         21    1    1    2  504  503 -0.49039519430E+02  0.25690388818E+02  0.29208294924E+03  0.29728323158E+03  0.00000000000E+00 0. -1.
         21    1    1    2  505  502 -0.99611721423E+02 -0.19303934914E+02 -0.90469540714E+00  0.10146898749E+03  0.00000000000E+00 0.  1.
          2    1    1    2  501    0  0.41558274468E+02  0.37922647610E+02 -0.74735181165E+03  0.74946644205E+03  0.00000000000E+00 0.  1.
<scales pt_clust_3="116.14304" pt_clust_4="55.36127" pt_clust_5="14000.00000" pt_clust_6="55.99204"></scales>
<clustering>
<clus scale="   55.361">  1  4  2 -1</clus>
<clus scale="   55.992">  2  6  1 -1</clus>
<clus scale="  116.143">  2  3  1 -1</clus>
<clus scale="   55.361">  1  3  2 -1</clus>
</clustering>
</event>
<event>
 6    0  0.7258365E+002  0.8102906E+02  0.7546771E-02  0.1326156E+00
          2   -1    0    0  505    0 -0.00000000000E+00  0.00000000000E+00  0.83081493524E+03  0.83081493524E+03  0.00000000000E+00 0.  1.
         21   -1    0    0  504  502  0.00000000000E+00 -0.00000000000E+00 -0.13895535920E+04  0.13895535920E+04  0.00000000000E+00 0.  1.
         21    1    1    2  503  501 -0.34994237387E+01  0.71678937683E+02 -0.10753560175E+03  0.12928272010E+03  0.00000000000E+00 0.  1.
         21    1    1    2  504  503 -0.31073249528E+02 -0.47557305785E+01 -0.10995727681E+04  0.11000220162E+04  0.00000000000E+00 0.  1.
         21    1    1    2  505  502  0.96453365050E+02 -0.66490340493E+02 -0.14998476067E+03  0.19031459597E+03  0.00000000000E+00 0.  1.
          2    1    1    2  501    0 -0.61880691783E+02 -0.43286661137E+00  0.79835447377E+03  0.80074919493E+03  0.00000000000E+00 0.  1.
<scales pt_clust_3="14000.00000" pt_clust_4="31.43507" pt_clust_5="81.02906" pt_clust_6="62.01075"></scales>
<clustering>
<clus scale="   31.435">  2  4  1 -1</clus>
<clus scale="   62.011">  1  6  2 -1</clus>
<clus scale="   81.029">  1  5  2 -1</clus>
<clus scale="   31.435">  2  3  1 -1</clus>
</clustering>
</event>
<event>
 6    0  0.7258365E+002  0.3797237E+03  0.7546771E-02  0.1051036E+00
          2   -1    0    0  505    0 -0.00000000000E+00  0.00000000000E+00  0.35042306086E+03  0.35042306086E+03  0.00000000000E+00 0.  1.
         21   -1    0    0  504  502  0.00000000000E+00 -0.00000000000E+00 -0.49456260609E+03  0.49456260609E+03  0.00000000000E+00 0.  1.
         21    1    1    2  503  501 -0.13912784930E+03  0.28476210958E+02 -0.71543752090E+02  0.15901560145E+03  0.00000000000E+00 0. -1.
         21    1    1    2  504  503 -0.12448214869E+02  0.53559790284E+02 -0.50475042751E+02  0.74641403587E+02  0.00000000000E+00 0.  1.
         21    1    1    2  505  502  0.37481202199E+03 -0.81669179809E+02  0.20109188279E+02  0.38413316208E+03  0.00000000000E+00 0.  1.
          2    1    1    2  501    0 -0.22323595782E+03 -0.36682143325E+00 -0.42229938673E+02  0.22719549983E+03  0.00000000000E+00 0.  1.
<scales pt_clust_3="51.17588" pt_clust_4="54.98735" pt_clust_5="374.26358" pt_clust_6="51.17588"></scales>
<clustering>
<clus scale="   51.176">  3  6 -1 -1</clus>
<clus scale="   54.987">  2  4  1 -1</clus>
<clus scale="  374.264">  1  5  2 -1</clus>
<clus scale="   54.987">  2  3  1 -1</clus>
</clustering>
</event>
<event>
 6    0  0.7258365E+002  0.1803736E+03  0.7546771E-02  0.1167442E+00
         21   -1    0    0  503  502  0.00000000000E+00  0.00000000000E+00  0.27327234240E+03  0.27327234240E+03  0.00000000000E+00 0.  1.
          1   -1    0    0  505    0 -0.00000000000E+00 -0.00000000000E+00 -0.60458755695E+03  0.60458755695E+03  0.00000000000E+00 0.  1.
         21    1    1    2  503  504 -0.51762548124E+01 -0.33961918106E+02  0.54061901848E+02  0.64053842404E+02  0.00000000000E+00 0.  1.
         21    1    1    2  504  501  0.17879077961E+03 -0.51990833875E+02  0.83262158311E+02  0.20396513596E+03  0.00000000000E+00 0.  1.
         21    1    1    2  505  502 -0.16106519363E+03  0.46893094610E+02 -0.31381493053E+02  0.17066269957E+03  0.00000000000E+00 0.  1.
          1    1    1    2  501    0 -0.12549331174E+02  0.39059657371E+02 -0.43725778166E+03  0.43917822142E+03  0.00000000000E+00 0.  1.
<scales pt_clust_3="34.35412" pt_clust_4="180.37364" pt_clust_5="14000.00000" pt_clust_6="40.88834"></scales>
<clustering>
<clus scale="   34.354">  1  3  2 -1</clus>
<clus scale="   40.888">  2  6  1 -1</clus>
<clus scale="  180.374">  1  4  2 -1</clus>
<clus scale="   34.354">  1  3  2 -1</clus>
</clustering>
</event>
<event>
 6    0  0.7258365E+002  0.1309093E+03  0.7546771E-02  0.1226113E+00
         21   -1    0    0  505  502  0.00000000000E+00  0.00000000000E+00  0.24533723541E+03  0.24533723541E+03  0.00000000000E+00 0.  1.
          2   -1    0    0  503    0 -0.00000000000E+00 -0.00000000000E+00 -0.62732626629E+03  0.62732626629E+03  0.00000000000E+00 0. -1.
         21    1    1    2  503  502  0.67621098407E+01  0.15943976534E+03  0.18933966602E+03  0.24762123098E+03  0.00000000000E+00 0.  1.
         21    1    1    2  504  501 -0.61767533388E+02 -0.87515990898E+02 -0.19820208676E+03  0.22529612522E+03  0.00000000000E+00 0.  1.
         21    1    1    2  505  504  0.18948534125E+02 -0.26174161032E+02 -0.12823305305E+02  0.34764505032E+02  0.00000000000E+00 0.  1.
          2    1    1    2  501    0  0.36056889422E+02 -0.45749613414E+02 -0.36030330484E+03  0.36498164047E+03  0.00000000000E+00 0. -1.
<scales pt_clust_3="14000.00000" pt_clust_4="130.90931" pt_clust_5="32.31306" pt_clust_6="58.57279"></scales>
<clustering>
<clus scale="   32.313">  1  5  2 -1</clus>
<clus scale="   58.573">  2  6  1 -1</clus>
<clus scale="  130.909">  2  4  1 -1</clus>
<clus scale="   32.313">  1  3  2 -1</clus>
</clustering>
</event>
<event>
 6    0  0.7258365E+002  0.2364449E+03  0.7546771E-02  0.1122184E+00
         21   -1    0    0  503  502  0.00000000000E+00  0.00000000000E+00  0.50523661193E+02  0.50523661193E+02  0.00000000000E+00 0.  1.
          2   -1    0    0  502    0 -0.00000000000E+00 -0.00000000000E+00 -0.21594724970E+04  0.21594724970E+04  0.00000000000E+00 0. -1.
         21    1    1    2  503  504  0.50166662377E+02  0.59100852392E+02 -0.19251559301E+03  0.20753760700E+03  0.00000000000E+00 0.  1.
         21    1    1    2  504  505  0.51881244480E+02  0.14542756195E+03 -0.27798997262E+03  0.31799255366E+03  0.00000000000E+00 0.  1.
         21    1    1    2  505  501 -0.57929066678E+02 -0.22981816600E+03 -0.60492176312E+03  0.64969416319E+03  0.00000000000E+00 0.  1.
          2    1    1    2  501    0 -0.44118840179E+02  0.25289751656E+02 -0.10335215071E+04  0.10347718344E+04  0.00000000000E+00 0. -1.
<scales pt_clust_3="35.85669" pt_clust_4="35.85669" pt_clust_5="230.96616" pt_clust_6="50.85316"></scales>
<clustering>
<clus scale="   35.857">  3  4 -1 -1</clus>
<clus scale="   50.853">  2  6  1 -1</clus>
<clus scale="  230.966">  2  5  1 -1</clus>
<clus scale="  236.445">  1  3  2 -1</clus>
</clustering>
</event>
<event>
 6    0  0.7258365E+002  0.1445717E+03  0.7546771E-02  0.1207307E+00
         21   -1    0    0  505  502  0.00000000000E+00  0.00000000000E+00  0.38456506994E+03  0.38456506994E+03  0.00000000000E+00 0.  1.
          4   -1    0    0  504    0 -0.00000000000E+00 -0.00000000000E+00 -0.94749315221E+03  0.94749315221E+03  0.00000000000E+00 0. -1.
         21    1    1    2  503  502 -0.11345290664E+03 -0.31295301165E+01 -0.24903733352E+02  0.11619617859E+03  0.00000000000E+00 0.  1.
         21    1    1    2  504  503 -0.88765754833E+01 -0.10385064211E+03  0.94223045596E+02  0.14050527314E+03  0.00000000000E+00 0.  1.
         21    1    1    2  505  501  0.59948794458E+02 -0.26235762812E+02  0.21020676047E+03  0.22015688805E+03  0.00000000000E+00 0.  1.
          4    1    1    2  501    0  0.62380687669E+02  0.13321593504E+03 -0.84245415498E+03  0.85519988236E+03  0.00000000000E+00 0. -1.
<scales pt_clust_3="97.83077" pt_clust_4="14000.00000" pt_clust_5="65.43832" pt_clust_6="144.57166"></scales>
<clustering>
<clus scale="   65.438">  1  5  2 -1</clus>
<clus scale="   97.831">  1  3  2 -1</clus>
<clus scale="  144.572">  2  6  1 -1</clus>
<clus scale="   65.438">  1  3  2 -1</clus>
</clustering>
</event>
<event>
 6    0  0.7258365E+002  0.1458133E+03  0.7546771E-02  0.1205714E+00
          2   -1    0    0  504    0 -0.00000000000E+00  0.00000000000E+00  0.17139715826E+04  0.17139715826E+04  0.00000000000E+00 0. -1.
         21   -1    0    0  503  502  0.00000000000E+00 -0.00000000000E+00 -0.27639064306E+03  0.27639064306E+03  0.00000000000E+00 0.  1.
         21    1    1    2  503  501  0.43589783918E+01 -0.62572014010E+02  0.10455956531E+02  0.63589186635E+02  0.00000000000E+00 0.  1.
         21    1    1    2  504  505 -0.74621971410E+02  0.57980431790E+02  0.94740165091E+03  0.95210296567E+03  0.00000000000E+00 0. -1.
         21    1    1    2  505  502  0.14290457298E+03  0.92862940669E+02 -0.21287980584E+03  0.27269590108E+03  0.00000000000E+00 0.  1.
          2    1    1    2  501    0 -0.72641579962E+02 -0.88271358449E+02  0.69260313793E+03  0.70197417227E+03  0.00000000000E+00 0. -1.
<scales pt_clust_3="62.72366" pt_clust_4="94.10698" pt_clust_5="145.81335" pt_clust_6="14000.00000"></scales>
<clustering>
<clus scale="   62.724">  2  3  1 -1</clus>
<clus scale="   94.107">  1  4  2 -1</clus>
<clus scale="  145.813">  2  5  1 -1</clus>
<clus scale="   62.724">  2  3  1 -1</clus>
</clustering>
</event>
<event>
 6    0  0.7258365E+002  0.8930067E+02  0.7546771E-02  0.1304554E+00
         21   -1    0    0  503  502  0.00000000000E+00  0.00000000000E+00  0.38547908229E+02  0.38547908229E+02  0.00000000000E+00 0. -1.
          2   -1    0    0  505    0 -0.00000000000E+00 -0.00000000000E+00 -0.32613658060E+04  0.32613658060E+04  0.00000000000E+00 0.  1.
         21    1    1    2  503  501 -0.64004439788E+02 -0.85646446988E+02 -0.16199876791E+03  0.19410173363E+03  0.00000000000E+00 0. -1.
         21    1    1    2  504  502  0.74483004256E+02  0.37788920034E+02 -0.75707369956E+02  0.11272677706E+03  0.00000000000E+00 0. -1.
         21    1    1    2  505  504 -0.35654963520E+02  0.72640164050E+02 -0.41965919631E+03  0.42738941366E+03  0.00000000000E+00 0. -1.
          2    1    1    2  501    0  0.25176399052E+02 -0.24782637096E+02 -0.25654525636E+04  0.25656957899E+04  0.00000000000E+00 0.  1.
<scales pt_clust_3="14000.00000" pt_clust_4="89.30067" pt_clust_5="61.04023" pt_clust_6="35.32747"></scales>
<clustering>
<clus scale="   35.327">  2  6  1 -1</clus>
<clus scale="   61.040">  2  5  1 -1</clus>
<clus scale="   89.301">  1  4  2 -1</clus>
<clus scale="   89.301">  1  3  2 -1</clus>
</clustering>
</event>
<event>
 6    0  0.7258365E+002  0.1480022E+03  0.7546771E-02  0.1202950E+00
          2   -1    0    0  503    0 -0.00000000000E+00  0.00000000000E+00  0.13085012775E+04  0.13085012775E+04  0.00000000000E+00 0. -1.
         21   -1    0    0  501  502  0.00000000000E+00 -0.00000000000E+00 -0.47926640911E+03  0.47926640911E+03  0.00000000000E+00 0.  1.
         21    1    1    2  503  505  0.38633195387E+02 -0.30759471013E+01  0.83342814965E+02  0.91913056976E+02  0.00000000000E+00 0.  1.
         21    1    1    2  504  502 -0.74739627055E+01 -0.41828322340E+02 -0.44403095360E+03  0.44605936424E+03  0.00000000000E+00 0.  1.
         21    1    1    2  505  504 -0.99072000067E+02  0.14484564665E+03  0.27030988389E+03  0.32227776200E+03  0.00000000000E+00 0. -1.
          2    1    1    2  501    0  0.67912767386E+02 -0.99941377204E+02  0.91961312311E+03  0.92751750337E+03  0.00000000000E+00 0. -1.
<scales pt_clust_3="38.75545" pt_clust_4="42.48769" pt_clust_5="14000.00000" pt_clust_6="148.00223"></scales>
<clustering>
<clus scale="   38.755">  1  3  2 -1</clus>
<clus scale="   42.488">  2  4  1 -1</clus>
<clus scale="  148.002">  1  6  2 -1</clus>
<clus scale="   42.488">  2  3  1 -1</clus>
</clustering>
</event>
<event>
 6    0  0.7258365E+002  0.1009979E+03  0.7546771E-02  0.1278211E+00
          2   -1    0    0  503    0 -0.00000000000E+00  0.00000000000E+00  0.27126974645E+04  0.27126974645E+04  0.00000000000E+00 0. -1.
         21   -1    0    0  505  502  0.00000000000E+00 -0.00000000000E+00 -0.44318856878E+02  0.44318856878E+02  0.00000000000E+00 0. -1.
         21    1    1    2  503  502  0.92213987536E+01 -0.46387852661E+02  0.22783675674E+03  0.23269390793E+03  0.00000000000E+00 0.  1.
         21    1    1    2  504  501 -0.87500758259E+02  0.74566972193E+02  0.73246696139E+02  0.13631468935E+03  0.00000000000E+00 0. -1.
         21    1    1    2  505  504  0.32076535852E+02  0.11567880176E+02  0.19221340143E+02  0.39143069897E+02  0.00000000000E+00 0. -1.
          2    1    1    2  501    0  0.46202823653E+02 -0.39746999709E+02  0.23480738146E+04  0.23488646542E+04  0.00000000000E+00 0. -1.
<scales pt_clust_3="46.99609" pt_clust_4="100.99795" pt_clust_5="34.09868" pt_clust_6="14000.00000"></scales>
<clustering>
<clus scale="   34.099">  2  5  1 -1</clus>
<clus scale="   46.996">  1  3  2 -1</clus>
<clus scale="  100.998">  2  4  1 -1</clus>
<clus scale="   34.099">  2  3  1 -1</clus>
</clustering>
</event>
<event>
 6    0  0.7258365E+002  0.8749361E+02  0.7546771E-02  0.1309037E+00
         21   -1    0    0  503  502  0.00000000000E+00  0.00000000000E+00  0.18955222300E+03  0.18955222300E+03  0.00000000000E+00 0.  1.
          2   -1    0    0  505    0 -0.00000000000E+00 -0.00000000000E+00 -0.18324886380E+04  0.18324886380E+04  0.00000000000E+00 0.  1.
         21    1    1    2  503  501  0.38457850339E+02  0.24175858209E+02  0.15772282533E+01  0.45452898937E+02  0.00000000000E+00 0.  1.
         21    1    1    2  504  502  0.18696179288E+02  0.54254507596E+02  0.12369205241E+03  0.13635550060E+03  0.00000000000E+00 0.  1.
         21    1    1    2  505  504 -0.10662229343E+03 -0.34172418780E+02 -0.53231883167E+02  0.12397459840E+03  0.00000000000E+00 0.  1.
          2    1    1    2  501    0  0.49468263807E+02 -0.44257947025E+02 -0.17149738125E+04  0.17162578631E+04  0.00000000000E+00 0.  1.
<scales pt_clust_3="45.42553" pt_clust_4="14000.00000" pt_clust_5="87.49361" pt_clust_6="66.42548"></scales>
<clustering>
<clus scale="   45.426">  1  3  2 -1</clus>
<clus scale="   66.425">  2  6  1 -1</clus>
<clus scale="   87.494">  2  5  1 -1</clus>
<clus scale="   45.426">  1  3  2 -1</clus>
</clustering>
</event>
<event>
 6    0  0.7258365E+002  0.9304482E+02  0.7546771E-02  0.1295641E+00
          1   -1    0    0  505    0 -0.00000000000E+00  0.00000000000E+00  0.39884944127E+03  0.39884944127E+03  0.00000000000E+00 0.  1.
         21   -1    0    0  501  502  0.00000000000E+00 -0.00000000000E+00 -0.20265021378E+03  0.20265021378E+03  0.00000000000E+00 0.  1.
         21    1    1    2  503  502  0.32702336480E+02  0.36009079415E+02 -0.61706414885E+02  0.78573394031E+02  0.00000000000E+00 0.  1.
         21    1    1    2  504  503  0.66998864154E+02 -0.58963578526E+02 -0.95696926447E+02  0.13085661283E+03  0.00000000000E+00 0.  1.
         21    1    1    2  505  504 -0.30817741567E+02  0.74499741838E+02  0.13635187526E+03  0.15840384660E+03  0.00000000000E+00 0.  1.
          1    1    1    2  501    0 -0.68883459067E+02 -0.51545242727E+02  0.21725069356E+03  0.23366580159E+03  0.00000000000E+00 0.  1.
<scales pt_clust_3="48.64254" pt_clust_4="14000.00000" pt_clust_5="82.43210" pt_clust_6="93.04482"></scales>
<clustering>
<clus scale="   48.643">  2  3  1 -1</clus>
<clus scale="   82.432">  1  5  2 -1</clus>
<clus scale="   93.045">  1  6  2 -1</clus>
<clus scale="   48.643">  2  3  1 -1</clus>
</clustering>
</event>
<event>
 6    0  0.7258365E+002  0.1086572E+03  0.7546771E-02  0.1263077E+00
         21   -1    0    0  501  502  0.00000000000E+00  0.00000000000E+00  0.11669427098E+04  0.11669427098E+04  0.00000000000E+00 0.  1.
          2   -1    0    0  503    0 -0.00000000000E+00 -0.00000000000E+00 -0.19509712526E+04  0.19509712526E+04  0.00000000000E+00 0. -1.
         21    1    1    2  503  504 -0.11371404644E+03  0.43643110056E+02 -0.51962496749E+03  0.53370938933E+03  0.00000000000E+00 0.  1.
         21    1    1    2  504  505  0.10757163036E+03 -0.11810081201E+03  0.80830765096E+03  0.82394218005E+03  0.00000000000E+00 0.  1.
         21    1    1    2  505  502 -0.33771896273E+02  0.39019377886E+02  0.34133259835E+03  0.34521152288E+03  0.00000000000E+00 0.  1.
          2    1    1    2  501    0  0.39914312356E+02  0.35438324069E+02 -0.14140438246E+04  0.14150508701E+04  0.00000000000E+00 0. -1.
<scales pt_clust_3="14000.00000" pt_clust_4="108.65723" pt_clust_5="51.60478" pt_clust_6="53.37669"></scales>
<clustering>
<clus scale="   51.605">  1  5  2 -1</clus>
<clus scale="   53.377">  2  6  1 -1</clus>
<clus scale="  108.657">  1  4  2 -1</clus>
<clus scale="   51.605">  1  3  2 -1</clus>
</clustering>
</event>
<event>
 6    0  0.7258365E+002  0.7077426E+02  0.7546771E-02  0.1357480E+00
         21   -1    0    0  504  502  0.00000000000E+00  0.00000000000E+00  0.22440111927E+03  0.22440111927E+03  0.00000000000E+00 0.  1.
          2   -1    0    0  503    0 -0.00000000000E+00 -0.00000000000E+00 -0.17514996799E+04  0.17514996799E+04  0.00000000000E+00 0.  1.
         21    1    1    2  503  505  0.42540079614E+02 -0.99904750216E+02 -0.14200351326E+04  0.14241806049E+04  0.00000000000E+00 0.  1.
         21    1    1    2  504  501 -0.11699782529E+02 -0.36864727640E+02  0.41269042746E+01  0.38896328800E+02  0.00000000000E+00 0. -1.
         21    1    1    2  505  502 -0.23679239067E+02  0.96893588477E+02  0.18697600894E+03  0.21191767687E+03  0.00000000000E+00 0.  1.
          2    1    1    2  501    0 -0.71610580185E+01  0.39875889379E+02 -0.29816634119E+03  0.30090618857E+03  0.00000000000E+00 0.  1.
<scales pt_clust_3="14000.00000" pt_clust_4="38.67678" pt_clust_5="70.77426" pt_clust_6="40.28294"></scales>
<clustering>
<clus scale="   38.677">  1  4  2 -1</clus>
<clus scale="   40.283">  2  6  1 -1</clus>
<clus scale="   70.774">  1  5  2 -1</clus>
<clus scale="   38.677">  1  3  2 -1</clus>
</clustering>
</event>
<event>
 6    0  0.7258365E+002  0.1398499E+03  0.7546771E-02  0.1213531E+00
         21   -1    0    0  505  502  0.00000000000E+00  0.00000000000E+00  0.40313286018E+03  0.40313286018E+03  0.00000000000E+00 0. -1.
          2   -1    0    0  504    0 -0.00000000000E+00 -0.00000000000E+00 -0.12328072106E+04  0.12328072106E+04  0.00000000000E+00 0.  1.
         21    1    1    2  503  501  0.70757027825E+02 -0.11456081898E+02  0.24174119217E+03  0.25214401200E+03  0.00000000000E+00 0. -1.
         21    1    1    2  504  502 -0.14802012092E+03  0.11951809343E+03 -0.47152078996E+03  0.50845490087E+03  0.00000000000E+00 0.  1.
         21    1    1    2  505  503  0.31135487064E+02 -0.54778796431E+02  0.12872616225E+03  0.14331978210E+03  0.00000000000E+00 0. -1.
          2    1    1    2  501    0  0.46127606031E+02 -0.53283215103E+02 -0.72862091492E+03  0.73202137586E+03  0.00000000000E+00 0.  1.
<scales pt_clust_3="62.02488" pt_clust_4="123.21358" pt_clust_5="62.02488" pt_clust_6="70.47593"></scales>
<clustering>
<clus scale="   62.025">  3  5 -1 -1</clus>
<clus scale="   70.476">  2  6  1 -1</clus>
<clus scale="  123.214">  2  4  1 -1</clus>
<clus scale="  139.850">  1  3  2 -1</clus>
</clustering>
</event>
<event>
 6    0  0.7258365E+002  0.9600014E+02  0.7546771E-02  0.1288939E+00
         21   -1    0    0  504  502  0.00000000000E+00  0.00000000000E+00  0.16052669871E+03  0.16052669871E+03  0.00000000000E+00 0.  1.
          2   -1    0    0  505    0 -0.00000000000E+00 -0.00000000000E+00 -0.15874010534E+04  0.15874010534E+04  0.00000000000E+00 0.  1.
         21    1    1    2  503  501  0.59906078347E+02 -0.53312830546E+02 -0.15108016315E+03  0.17104447323E+03  0.00000000000E+00 0.  1.
         21    1    1    2  504  503  0.37900967211E+02  0.51544329218E+02  0.79802701712E+02  0.10228280594E+03  0.00000000000E+00 0.  1.
         21    1    1    2  505  502 -0.19062357987E+03 -0.64347559136E+01 -0.99637065761E+02  0.21518898708E+03  0.00000000000E+00 0.  1.
          2    1    1    2  501    0  0.92816534310E+02  0.82032572418E+01 -0.12559598275E+04  0.12594114859E+04  0.00000000000E+00 0.  1.
<scales pt_clust_3="79.86417" pt_clust_4="63.97891" pt_clust_5="96.00014" pt_clust_6="14000.00000"></scales>
<clustering>
<clus scale="   63.979">  1  4  2 -1</clus>
<clus scale="   79.864">  1  3  2 -1</clus>
<clus scale="   96.000">  1  5  2 -1</clus>
<clus scale="   63.979">  1  3  2 -1</clus>
</clustering>
</event>
<event>
 6    0  0.7258365E+002  0.9610355E+02  0.7546771E-02  0.1288710E+00
          2   -1    0    0  503    0 -0.00000000000E+00  0.00000000000E+00  0.45154930622E+03  0.45154930622E+03  0.00000000000E+00 0. -1.
         21   -1    0    0  505  502  0.00000000000E+00 -0.00000000000E+00 -0.24861507453E+03  0.24861507453E+03  0.00000000000E+00 0.  1.
         21    1    1    2  503  502  0.32747914091E+01  0.10011574740E+03 -0.71743960261E+00  0.10017186159E+03  0.00000000000E+00 0.  1.
         21    1    1    2  504  501 -0.20975392096E+01 -0.10858395525E+03  0.18884519205E+02  0.11023384269E+03  0.00000000000E+00 0.  1.
         21    1    1    2  505  504  0.61456756079E+01 -0.31588183862E+02 -0.14954878808E+03  0.15297196705E+03  0.00000000000E+00 0.  1.
          2    1    1    2  501    0 -0.73229278075E+01  0.40056391717E+02  0.33431594016E+03  0.33678670941E+03  0.00000000000E+00 0. -1.
<scales pt_clust_3="96.10355" pt_clust_4="14000.00000" pt_clust_5="32.18047" pt_clust_6="40.31193"></scales>
<clustering>
<clus scale="   32.180">  2  5  1 -1</clus>
<clus scale="   40.312">  1  6  2 -1</clus>
<clus scale="   96.104">  2  3  1 -1</clus>
<clus scale="   32.180">  2  3  1 -1</clus>
</clustering>
</event>
<event>
 6    0  0.7258365E+002  0.7896941E+02  0.7546771E-02  0.1332002E+00
         21   -1    0    0  503  502  0.00000000000E+00  0.00000000000E+00  0.15810849838E+04  0.15810849838E+04  0.00000000000E+00 0. -1.
          1   -1    0    0  505    0 -0.00000000000E+00 -0.00000000000E+00 -0.29364755303E+02  0.29364755303E+02  0.00000000000E+00 0.  1.
         21    1    1    2  503  504 -0.59710076174E+02  0.65836459720E+02  0.97901717852E+03  0.98304342146E+03  0.00000000000E+00 0. -1.
         21    1    1    2  504  501  0.19748668628E+02 -0.76399159879E+02  0.17496605338E+03  0.19193738922E+03  0.00000000000E+00 0.  1.
         21    1    1    2  505  502 -0.18089171661E+02 -0.31717806930E+02  0.34359784972E+03  0.34553251618E+03  0.00000000000E+00 0. -1.
          1    1    1    2  501    0  0.58050579207E+02  0.42280507089E+02  0.54139146901E+02  0.89936412276E+02  0.00000000000E+00 0.  1.
<scales pt_clust_3="78.96941" pt_clust_4="14000.00000" pt_clust_5="36.51352" pt_clust_6="69.88153"></scales>
<clustering>
<clus scale="   36.514">  1  5  2 -1</clus>
<clus scale="   69.882">  2  6  1 -1</clus>
<clus scale="   78.969">  1  3  2 -1</clus>
<clus scale="   36.514">  1  3  2 -1</clus>
</clustering>
</event>
<event>
 6    0  0.7258365E+002  0.6918864E+02  0.7546771E-02  0.1362874E+00
         21   -1    0    0  505  502  0.00000000000E+00  0.00000000000E+00  0.47730383263E+03  0.47730383263E+03  0.00000000000E+00 0.  1.
          1   -1    0    0  503    0 -0.00000000000E+00 -0.00000000000E+00 -0.23329523361E+04  0.23329523361E+04  0.00000000000E+00 0. -1.
         21    1    1    2  503  502  0.31940461249E+02  0.72331442538E+02  0.13228960129E+03  0.15411868561E+03  0.00000000000E+00 0.  1.
         21    1    1    2  504  501 -0.30121022442E+02 -0.55307431124E+02  0.36311123273E+02  0.72695843099E+02  0.00000000000E+00 0.  1.
         21    1    1    2  505  504  0.34470317530E+01 -0.67621366818E+02  0.27521151704E+03  0.28341826051E+03  0.00000000000E+00 0.  1.
          1    1    1    2  501    0 -0.52664705597E+01  0.50597355403E+02 -0.22994607451E+04  0.23000233795E+04  0.00000000000E+00 0. -1.
<scales pt_clust_3="69.18864" pt_clust_4="43.01897" pt_clust_5="14000.00000" pt_clust_6="50.87070"></scales>
<clustering>
<clus scale="   50.871">  2  6  1 -1</clus>
<clus scale="   43.019">  2  4  1 -1</clus>
<clus scale="   69.189">  2  3  1 -1</clus>
<clus scale="   69.189">  1  3  2 -1</clus>
</clustering>
</event>
<event>
 6    0  0.7258365E+002  0.7183636E+02  0.7546771E-02  0.1353957E+00
         21   -1    0    0  503  502  0.00000000000E+00  0.00000000000E+00  0.57206238325E+02  0.57206238325E+02  0.00000000000E+00 0.  1.
          2   -1    0    0  505    0 -0.00000000000E+00 -0.00000000000E+00 -0.20308399330E+04  0.20308399330E+04  0.00000000000E+00 0.  1.
         21    1    1    2  503  501 -0.49710175584E+02  0.30963005648E+02  0.56109891392E+01  0.58832750017E+02  0.00000000000E+00 0.  1.
         21    1    1    2  504  502  0.10356548636E+03 -0.68826888570E+02 -0.15625449892E+03  0.19969581615E+03  0.00000000000E+00 0.  1.
         21    1    1    2  505  504 -0.50111315040E+02 -0.39122474092E+02 -0.46291205957E+03  0.46725719553E+03  0.00000000000E+00 0.  1.
          2    1    1    2  501    0 -0.37439957351E+01  0.76986357013E+02 -0.13600781253E+04  0.13622604096E+04  0.00000000000E+00 0.  1.
<scales pt_clust_3="58.56457" pt_clust_4="71.83636" pt_clust_5="65.49964" pt_clust_6="14000.00000"></scales>
<clustering>
<clus scale="   58.565">  1  3  2 -1</clus>
<clus scale="   65.500">  2  5  1 -1</clus>
<clus scale="   71.836">  1  4  2 -1</clus>
<clus scale="   58.565">  1  3  2 -1</clus>
</clustering>
</event>
<event>
 6    0  0.7258365E+002  0.9337078E+02  0.7546771E-02  0.1294888E+00
         21   -1    0    0  505  502  0.00000000000E+00  0.00000000000E+00  0.23812775339E+03  0.23812775339E+03  0.00000000000E+00 0.  1.
          2   -1    0    0  504    0 -0.00000000000E+00 -0.00000000000E+00 -0.16749752718E+04  0.16749752718E+04  0.00000000000E+00 0. -1.
         21    1    1    2  503  501  0.59620231273E+02 -0.10679122704E+03  0.51931198355E+02  0.13287508236E+03  0.00000000000E+00 0.  1.
         21    1    1    2  504  502 -0.37250255758E+02  0.50352702372E+02 -0.89129513055E+02  0.10893597334E+03  0.00000000000E+00 0.  1.
         21    1    1    2  505  503 -0.40960385657E+02  0.59036802519E+01  0.13218501096E+03  0.13851167372E+03  0.00000000000E+00 0.  1.
          2    1    1    2  501    0  0.18590410141E+02  0.50534844414E+02 -0.15318342146E+04  0.15327802957E+04  0.00000000000E+00 0. -1.
<scales pt_clust_3="93.37078" pt_clust_4="14000.00000" pt_clust_5="41.38365" pt_clust_6="53.80657"></scales>
<clustering>
<clus scale="   41.384">  1  5  2 -1</clus>
<clus scale="   53.807">  2  6  1 -1</clus>
<clus scale="   93.371">  1  3  2 -1</clus>
<clus scale="   41.384">  1  3  2 -1</clus>
</clustering>
</event>
<event>
 6    0  0.7258365E+002  0.1013644E+03  0.7546771E-02  0.1277453E+00
          2   -1    0    0  504    0 -0.00000000000E+00  0.00000000000E+00  0.61796530195E+03  0.61796530195E+03  0.00000000000E+00 0. -1.
         21   -1    0    0  503  502  0.00000000000E+00 -0.00000000000E+00 -0.14275272087E+04  0.14275272087E+04  0.00000000000E+00 0.  1.
         21    1    1    2  503  501 -0.89864745795E+02 -0.13568906539E+02 -0.11283376699E+04  0.11319919104E+04  0.00000000000E+00 0.  1.
         21    1    1    2  504  505  0.69811453767E+02 -0.39844555728E+02 -0.12263048754E+03  0.14662695582E+03  0.00000000000E+00 0.  1.
         21    1    1    2  505  502 -0.75775420031E+02  0.20233573664E+02 -0.14870055314E+03  0.16811652592E+03  0.00000000000E+00 0.  1.
          2    1    1    2  501    0  0.95828712060E+02  0.33179888603E+02  0.59010680385E+03  0.59875711855E+03  0.00000000000E+00 0. -1.
<scales pt_clust_3="101.36436" pt_clust_4="72.36764" pt_clust_5="78.43030" pt_clust_6="14000.00000"></scales>
<clustering>
<clus scale="   78.430">  2  5  1 -1</clus>
<clus scale="   72.368">  2  4  1 -1</clus>
<clus scale="  101.364">  2  3  1 -1</clus>
<clus scale="   78.430">  2  3  1 -1</clus>
</clustering>
</event>
<event>
 6    0  0.7258365E+002  0.6344042E+02  0.7546771E-02  0.1383936E+00
          1   -1    0    0  503    0 -0.00000000000E+00  0.00000000000E+00  0.59020495013E+03  0.59020495013E+03  0.00000000000E+00 0. -1.
         21   -1    0    0  504  502  0.00000000000E+00 -0.00000000000E+00 -0.84179217793E+03  0.84179217793E+03  0.00000000000E+00 0.  1.
         21    1    1    2  503  505  0.56716100933E+02 -0.23116939061E+02  0.32012824019E+02  0.69108102841E+02  0.00000000000E+00 0.  1.
         21    1    1    2  504  501 -0.70044095701E+02  0.53604645080E+02  0.20009327701E+03  0.21867087785E+03  0.00000000000E+00 0. -1.
         21    1    1    2  505  502  0.52856492385E+02 -0.34821990601E+02 -0.81152191454E+03  0.81398660775E+03  0.00000000000E+00 0.  1.
          1    1    1    2  501    0 -0.39528497617E+02  0.43342845825E+01  0.32782858572E+03  0.33023153962E+03  0.00000000000E+00 0. -1.
<scales pt_clust_3="53.88473" pt_clust_4="63.44042" pt_clust_5="14000.00000" pt_clust_6="39.76541"></scales>
<clustering>
<clus scale="   39.765">  1  6  2 -1</clus>
<clus scale="   53.885">  1  3  2 -1</clus>
<clus scale="   63.440">  1  4  2 -1</clus>
<clus scale="   63.440">  2  3  1 -1</clus>
</clustering>
</event>
<event>
 6    0  0.7258365E+002  0.1639412E+03  0.7546771E-02  0.1184318E+00
          2   -1    0    0  505    0 -0.00000000000E+00  0.00000000000E+00  0.11134087682E+04  0.11134087682E+04  0.00000000000E+00 0.  1.
         21   -1    0    0  504  502  0.00000000000E+00 -0.00000000000E+00 -0.63232155263E+03  0.63232155263E+03  0.00000000000E+00 0.  1.
         21    1    1    2  503  501 -0.13382055558E+03 -0.27574426983E+02  0.24865059358E+03  0.28371712639E+03  0.00000000000E+00 0.  1.
         21    1    1    2  504  503  0.75859088222E+02 -0.10428755109E+03 -0.71970782742E+02  0.14768306656E+03  0.00000000000E+00 0.  1.
         21    1    1    2  505  502  0.68777901139E+02  0.19785534053E+03 -0.48175753651E+03  0.52532605061E+03  0.00000000000E+00 0.  1.
          2    1    1    2  501    0 -0.10816433780E+02 -0.65993362454E+02  0.78616494120E+03  0.78900407723E+03  0.00000000000E+00 0.  1.
<scales pt_clust_3="14000.00000" pt_clust_4="134.53418" pt_clust_5="163.94121" pt_clust_6="66.87390"></scales>
<clustering>
<clus scale="   66.874">  1  6  2 -1</clus>
<clus scale="  134.534">  2  4  1 -1</clus>
<clus scale="  163.941">  2  5  1 -1</clus>
<clus scale="  134.534">  2  3  1 -1</clus>
</clustering>
</event>
<event>
 6    0  0.7258365E+002  0.9297044E+02  0.7546771E-02  0.1295814E+00
          2   -1    0    0  503    0 -0.00000000000E+00  0.00000000000E+00  0.10838802098E+04  0.10838802098E+04  0.00000000000E+00 0. -1.
         21   -1    0    0  504  502  0.00000000000E+00 -0.00000000000E+00 -0.14416709373E+03  0.14416709373E+03  0.00000000000E+00 0.  1.
         21    1    1    2  503  505 -0.11806730722E+03  0.12092676252E+03  0.22026348193E+03  0.27763136062E+03  0.00000000000E+00 0.  1.
         21    1    1    2  504  501  0.10470625719E+02 -0.64850216415E+02 -0.75399680787E+02  0.10000148216E+03  0.00000000000E+00 0.  1.
         21    1    1    2  505  502  0.29506737553E+02 -0.16852331831E+02 -0.14077777167E+02  0.36780870832E+02  0.00000000000E+00 0.  1.
          2    1    1    2  501    0  0.78089943944E+02 -0.39224214275E+02  0.80892709212E+03  0.81363358995E+03  0.00000000000E+00 0. -1.
<scales pt_clust_3="14000.00000" pt_clust_4="83.76096" pt_clust_5="33.98012" pt_clust_6="92.97044"></scales>
<clustering>
<clus scale="   33.980">  2  5  1 -1</clus>
<clus scale="   83.761">  2  4  1 -1</clus>
<clus scale="   92.970">  1  6  2 -1</clus>
<clus scale="   33.980">  2  3  1 -1</clus>
</clustering>
</event>
<event>
 6    0  0.7258365E+002  0.1604979E+03  0.7546771E-02  0.1188136E+00
         -2   -1    0    0    0  501 -0.00000000000E+00  0.00000000000E+00  0.16004862773E+04  0.16004862773E+04  0.00000000000E+00 0.  1.
         21   -1    0    0  504  502  0.00000000000E+00 -0.00000000000E+00 -0.47780449680E+03  0.47780449680E+03  0.00000000000E+00 0.  1.
         21    1    1    2  503  502 -0.12809188001E+03  0.25549563382E+02 -0.25380871042E+02  0.13305825239E+03  0.00000000000E+00 0. -1.
         21    1    1    2  504  505 -0.25561221247E+02  0.46878937394E+02 -0.15639183855E+03  0.16525561403E+03  0.00000000000E+00 0. -1.
         21    1    1    2  505  501  0.16391894948E+03 -0.13446275791E+03 -0.18970473317E+03  0.28449523907E+03  0.00000000000E+00 0.  1.
         -2    1    1    2    0  503 -0.10265848224E+02  0.62034257139E+02  0.14941592232E+04  0.14954816686E+04  0.00000000000E+00 0.  1.
<scales pt_clust_3="160.49786" pt_clust_4="53.39486" pt_clust_5="14000.00000" pt_clust_6="62.98314"></scales>
<clustering>
<clus scale="   53.395">  2  4  1 -1</clus>
<clus scale="   62.983">  1  6  2 -1</clus>
<clus scale="  160.498">  1  3  2 -1</clus>
<clus scale="   53.395">  2  3  1 -1</clus>
</clustering>
</event>
<event>
 6    0  0.7258365E+002  0.6198312E+02  0.7546771E-02  0.1389693E+00
          2   -1    0    0  504    0 -0.00000000000E+00  0.00000000000E+00  0.16974547870E+04  0.16974547870E+04  0.00000000000E+00 0. -1.
         21   -1    0    0  503  502  0.00000000000E+00 -0.00000000000E+00 -0.32523538268E+03  0.32523538268E+03  0.00000000000E+00 0.  1.
         21    1    1    2  503  501 -0.30808168734E+02  0.65503710029E+01 -0.43270644605E+02  0.53520083199E+02  0.00000000000E+00 0. -1.
         21    1    1    2  504  505 -0.70263953842E+02 -0.26208247782E+02  0.14833247248E+03  0.16621196664E+03  0.00000000000E+00 0. -1.
         21    1    1    2  505  502  0.84298526129E+02 -0.37119161566E+02 -0.25939229552E+03  0.27526067035E+03  0.00000000000E+00 0.  1.
          2    1    1    2  501    0  0.16773596447E+02  0.56777038345E+02  0.15265498720E+04  0.15276974495E+04  0.00000000000E+00 0. -1.
<scales pt_clust_3="31.49684" pt_clust_4="61.98312" pt_clust_5="14000.00000" pt_clust_6="59.19788"></scales>
<clustering>
<clus scale="   31.497">  2  3  1 -1</clus>
<clus scale="   59.198">  1  6  2 -1</clus>
<clus scale="   61.983">  1  4  2 -1</clus>
<clus scale="   31.497">  2  3  1 -1</clus>
</clustering>
</event>
<event>
 6    0  0.7258365E+002  0.9554883E+02  0.7546771E-02  0.1289945E+00
         21   -1    0    0  504  502  0.00000000000E+00  0.00000000000E+00  0.13305043849E+03  0.13305043849E+03  0.00000000000E+00 0. -1.
          2   -1    0    0  503    0 -0.00000000000E+00 -0.00000000000E+00 -0.32313208552E+04  0.32313208552E+04  0.00000000000E+00 0. -1.
         21    1    1    2  503  502  0.12684785866E+03 -0.13478094196E+02  0.63195894453E+02  0.14235785663E+03  0.00000000000E+00 0. -1.
         21    1    1    2  504  505 -0.28671450568E+02  0.97980601207E+01  0.76287473135E+01  0.31245029131E+02  0.00000000000E+00 0. -1.
         21    1    1    2  505  501 -0.67460705474E+02  0.36646064324E+02 -0.12742722743E+03  0.14876686158E+03  0.00000000000E+00 0.  1.
          2    1    1    2  501    0 -0.30715702615E+02 -0.32966030248E+02 -0.30416678311E+04  0.30420015464E+04  0.00000000000E+00 0. -1.
<scales pt_clust_3="95.54883" pt_clust_4="30.29941" pt_clust_5="14000.00000" pt_clust_6="45.07609"></scales>
<clustering>
<clus scale="   30.299">  1  4  2 -1</clus>
<clus scale="   45.076">  2  6  1 -1</clus>
<clus scale="   95.549">  1  3  2 -1</clus>
<clus scale="   30.299">  1  3  2 -1</clus>
</clustering>
</event>
<event>
 6    0  0.7258365E+002  0.9822091E+02  0.7546771E-02  0.1284082E+00
         21   -1    0    0  505  502  0.00000000000E+00  0.00000000000E+00  0.14166829283E+04  0.14166829283E+04  0.00000000000E+00 0. -1.
         -1   -1    0    0    0  501 -0.00000000000E+00 -0.00000000000E+00 -0.17807392853E+03  0.17807392853E+03  0.00000000000E+00 0. -1.
         21    1    1    2  503  502 -0.24482212850E+02  0.17362646836E+02  0.59726156712E+03  0.59801523376E+03  0.00000000000E+00 0. -1.
         21    1    1    2  504  501  0.59913803462E+02 -0.75398787288E+02  0.17294135680E+03  0.19794785642E+03  0.00000000000E+00 0.  1.
         21    1    1    2  505  504 -0.83339474492E+02  0.19976930528E+02  0.62490767635E+03  0.63075680711E+03  0.00000000000E+00 0. -1.
         -1    1    1    2    0  503  0.47907883880E+02  0.38059209924E+02 -0.15650160052E+03  0.16803695952E+03  0.00000000000E+00 0. -1.
<scales pt_clust_3="30.01400" pt_clust_4="98.22091" pt_clust_5="14000.00000" pt_clust_6="61.12693"></scales>
<clustering>
<clus scale="   30.014">  1  3  2 -1</clus>
<clus scale="   61.127">  2  6  1 -1</clus>
<clus scale="   98.221">  2  4  1 -1</clus>
<clus scale="   30.014">  1  3  2 -1</clus>
</clustering>
</event>
<event>
 6    0  0.7258365E+002  0.7769656E+02  0.7546771E-02  0.1335718E+00
         21   -1    0    0  503  502  0.00000000000E+00  0.00000000000E+00  0.59238723019E+03  0.59238723019E+03  0.00000000000E+00 0. -1.
          1   -1    0    0  504    0 -0.00000000000E+00 -0.00000000000E+00 -0.34606437989E+03  0.34606437989E+03  0.00000000000E+00 0. -1.
         21    1    1    2  503  505  0.12941517720E+02  0.28686472194E+02  0.31635669263E+03  0.31791815541E+03  0.00000000000E+00 0. -1.
         21    1    1    2  504  502  0.58947215797E+02 -0.10473451564E+02 -0.11866671570E+03  0.13291447195E+03  0.00000000000E+00 0.  1.
         21    1    1    2  505  501  0.47134520404E+02 -0.24547546133E+02  0.24893048459E+03  0.25454003849E+03  0.00000000000E+00 0. -1.
          1    1    1    2  501    0 -0.11902325392E+03  0.63345255031E+01 -0.20029761122E+03  0.23307894424E+03  0.00000000000E+00 0. -1.
<scales pt_clust_3="31.47057" pt_clust_4="14000.00000" pt_clust_5="58.99461" pt_clust_6="77.69656"></scales>
<clustering>
<clus scale="   31.471">  1  3  2 -1</clus>
<clus scale="   58.995">  1  5  2 -1</clus>
<clus scale="   77.697">  1  6  2 -1</clus>
<clus scale="   31.471">  1  3  2 -1</clus>
</clustering>
</event>
<event>
 6    0  0.7258365E+002  0.8270209E+02  0.7546771E-02  0.1321554E+00
          2   -1    0    0  502    0 -0.00000000000E+00  0.00000000000E+00  0.19625945682E+04  0.19625945682E+04  0.00000000000E+00 0. -1.
         21   -1    0    0  503  502  0.00000000000E+00 -0.00000000000E+00 -0.17613369236E+04  0.17613369236E+04  0.00000000000E+00 0.  1.
         21    1    1    2  503  504  0.38636627276E+02  0.69363382643E+02 -0.14920526620E+04  0.14941637173E+04  0.00000000000E+00 0.  1.
         21    1    1    2  504  505 -0.68475651601E+02 -0.14243097662E+03 -0.23635359279E+03  0.28432115431E+03  0.00000000000E+00 0.  1.
         21    1    1    2  505  501  0.62351681317E+02  0.55415737199E+02  0.21849021905E+03  0.23387306795E+03  0.00000000000E+00 0. -1.
          2    1    1    2  501    0 -0.32512656992E+02  0.17651856774E+02  0.17111736803E+04  0.17115735524E+04  0.00000000000E+00 0. -1.
<scales pt_clust_3="82.70209" pt_clust_4="14000.00000" pt_clust_5="78.60739" pt_clust_6="36.99542"></scales>
<clustering>
<clus scale="   36.995">  1  6  2 -1</clus>
<clus scale="   78.607">  1  5  2 -1</clus>
<clus scale="   82.702">  2  3  1 -1</clus>
<clus scale="   82.702">  2  3  1 -1</clus>
</clustering>
</event>
<event>
 6    0  0.7258365E+002  0.6683891E+02  0.7546771E-02  0.1371185E+00
         21   -1    0    0  503  502  0.00000000000E+00  0.00000000000E+00  0.23861527913E+03  0.23861527913E+03  0.00000000000E+00 0. -1.
          4   -1    0    0  504    0 -0.00000000000E+00 -0.00000000000E+00 -0.23961152119E+03  0.23961152119E+03  0.00000000000E+00 0. -1.
         21    1    1    2  503  505  0.39741892803E+02 -0.96704992490E+01  0.10046383027E+03  0.10847081540E+03  0.00000000000E+00 0. -1.
         21    1    1    2  504  502  0.96346056968E+02 -0.23737414908E+02 -0.44727139336E+02  0.10884183273E+03  0.00000000000E+00 0. -1.
         21    1    1    2  505  501 -0.79467222954E+02  0.12267874289E+02  0.78758390053E+02  0.11255409485E+03  0.00000000000E+00 0. -1.
          4    1    1    2  501    0 -0.56620726817E+02  0.21140039869E+02 -0.13549132305E+03  0.14836005734E+03  0.00000000000E+00 0. -1.
<scales pt_clust_3="40.90155" pt_clust_4="14000.00000" pt_clust_5="51.41012" pt_clust_6="66.83891"></scales>
<clustering>
<clus scale="   40.902">  1  3  2 -1</clus>
<clus scale="   51.410">  1  5  2 -1</clus>
<clus scale="   66.839">  2  6  1 -1</clus>
<clus scale="   40.902">  1  3  2 -1</clus>
</clustering>
</event>
<event>
 6    0  0.7258365E+002  0.7054824E+02  0.7546771E-02  0.1358239E+00
         -4   -1    0    0    0  501 -0.00000000000E+00  0.00000000000E+00  0.36709469414E+03  0.36709469414E+03  0.00000000000E+00 0.  1.
         21   -1    0    0  503  502  0.00000000000E+00 -0.00000000000E+00 -0.31221883607E+03  0.31221883607E+03  0.00000000000E+00 0. -1.
         21    1    1    2  503  505 -0.49150960165E+02 -0.68178396754E+02 -0.18101788614E+03  0.19957852031E+03  0.00000000000E+00 0. -1.
         21    1    1    2  504  502 -0.79988041982E+01  0.64284424728E+02 -0.79140164544E+02  0.10227235098E+03  0.00000000000E+00 0.  1.
         21    1    1    2  505  501  0.94157392166E+02  0.28464982980E+01  0.44102138918E+02  0.10401305548E+03  0.00000000000E+00 0.  1.
         -4    1    1    2    0  504 -0.37007627803E+02  0.10474737281E+01  0.27093176984E+03  0.27344960344E+03  0.00000000000E+00 0.  1.
<scales pt_clust_3="70.54824" pt_clust_4="14000.00000" pt_clust_5="65.38152" pt_clust_6="37.02245"></scales>
<clustering>
<clus scale="   37.022">  1  6  2 -1</clus>
<clus scale="   65.382">  1  5  2 -1</clus>
<clus scale="   70.548">  2  3  1 -1</clus>
<clus scale="   70.548">  2  3  1 -1</clus>
</clustering>
</event>
<event>
 6    0  0.7258365E+002  0.1705805E+03  0.7546771E-02  0.1177244E+00
         21   -1    0    0  504  502  0.00000000000E+00  0.00000000000E+00  0.14889846861E+04  0.14889846861E+04  0.00000000000E+00 0.  1.
          1   -1    0    0  505    0 -0.00000000000E+00 -0.00000000000E+00 -0.16250755514E+03  0.16250755514E+03  0.00000000000E+00 0.  1.
         21    1    1    2  503  502 -0.90705710858E+02  0.14854987943E+03  0.10374718646E+04  0.10519707517E+04  0.00000000000E+00 0.  1.
         21    1    1    2  504  501  0.12676250459E+03 -0.11002271724E+03  0.38433015496E+03  0.41938454775E+03  0.00000000000E+00 0.  1.
         21    1    1    2  505  503 -0.29300623931E+02 -0.71873018919E+02  0.13728058803E+01  0.77628229448E+02  0.00000000000E+00 0.  1.
          1    1    1    2  501    0 -0.67561698061E+01  0.33345856723E+02 -0.96697694456E+02  0.10250871233E+03  0.00000000000E+00 0.  1.
<scales pt_clust_3="14000.00000" pt_clust_4="170.58053" pt_clust_5="61.51559" pt_clust_6="34.02340"></scales>
<clustering>
<clus scale="   34.023">  2  6  1 -1</clus>
<clus scale="   61.516">  2  5  1 -1</clus>
<clus scale="  170.581">  2  4  1 -1</clus>
<clus scale="  170.581">  1  3  2 -1</clus>
</clustering>
</event>
<event>
 6    0  0.7258365E+002  0.1689753E+03  0.7546771E-02  0.1178921E+00
         21   -1    0    0  501  502  0.00000000000E+00  0.00000000000E+00  0.13966347287E+03  0.13966347287E+03  0.00000000000E+00 0.  1.
         -2   -1    0    0    0  501 -0.00000000000E+00 -0.00000000000E+00 -0.16217411238E+04  0.16217411238E+04  0.00000000000E+00 0.  1.
         21    1    1    2  503  502  0.22651438247E+02 -0.56906211546E+02 -0.29893367926E+02  0.68154368995E+02  0.00000000000E+00 0.  1.
         21    1    1    2  504  505 -0.11792375170E+03 -0.11475680010E+03  0.38470722193E+02  0.16898263476E+03  0.00000000000E+00 0.  1.
         21    1    1    2  505  503 -0.41457711576E+02  0.71860127466E+02 -0.13767602653E+03  0.16073987697E+03  0.00000000000E+00 0.  1.
         -2    1    1    2    0  504  0.13673002503E+03  0.99802884184E+02 -0.13529789786E+04  0.13635277159E+04  0.00000000000E+00 0.  1.
<scales pt_clust_3="61.24871" pt_clust_4="168.97530" pt_clust_5="77.16726" pt_clust_6="14000.00000"></scales>
<clustering>
<clus scale="   61.249">  1  3  2 -1</clus>
<clus scale="   77.167">  1  5  2 -1</clus>
<clus scale="  168.975">  1  4  2 -1</clus>
<clus scale="   61.249">  1  3  2 -1</clus>
</clustering>
</event>
<event>
 6    0  0.7258365E+002  0.6968369E+02  0.7546771E-02  0.1361172E+00
         21   -1    0    0  504  502  0.00000000000E+00  0.00000000000E+00  0.39787603540E+02  0.39787603540E+02  0.00000000000E+00 0.  1.
         -4   -1    0    0    0  501 -0.00000000000E+00 -0.00000000000E+00 -0.13234405972E+04  0.13234405972E+04  0.00000000000E+00 0. -1.
         21    1    1    2  503  502  0.62194682970E+02 -0.57446396636E+01 -0.22865272974E+02  0.66513157967E+02  0.00000000000E+00 0.  1.
         21    1    1    2  504  501 -0.10931166054E+02 -0.44880802445E+02 -0.53540279149E+02  0.70713070297E+02  0.00000000000E+00 0.  1.
         21    1    1    2  505  503 -0.35513337886E+02  0.11271280799E+03 -0.42462677686E+03  0.44076441994E+03  0.00000000000E+00 0.  1.
         -4    1    1    2    0  505 -0.15750179030E+02 -0.62087365884E+02 -0.78262066467E+03  0.78523755254E+03  0.00000000000E+00 0. -1.
<scales pt_clust_3="65.99029" pt_clust_4="46.19282" pt_clust_5="69.68369" pt_clust_6="14000.00000"></scales>
<clustering>
<clus scale="   46.193">  1  4  2 -1</clus>
<clus scale="   65.990">  1  3  2 -1</clus>
<clus scale="   69.684">  1  5  2 -1</clus>
<clus scale="   46.193">  1  3  2 -1</clus>
</clustering>
</event>
<event>
 6    0  0.7258365E+002  0.1490530E+03  0.7546771E-02  0.1201642E+00
          1   -1    0    0  503    0 -0.00000000000E+00  0.00000000000E+00  0.14047800766E+04  0.14047800766E+04  0.00000000000E+00 0.  1.
         21   -1    0    0  504  502  0.00000000000E+00 -0.00000000000E+00 -0.89180856946E+03  0.89180856946E+03  0.00000000000E+00 0. -1.
         21    1    1    2  503  505  0.18997003168E+03 -0.10019915951E+02  0.36450718133E+03  0.41116237291E+03  0.00000000000E+00 0.  1.
         21    1    1    2  504  501 -0.92973127803E+02 -0.21467685196E+02 -0.33470069996E+03  0.34803652474E+03  0.00000000000E+00 0. -1.
         21    1    1    2  505  502 -0.56912250283E+02  0.39032209092E+02 -0.52443919732E+03  0.52896029082E+03  0.00000000000E+00 0. -1.
          1    1    1    2  501    0 -0.40084653590E+02 -0.75446079453E+01  0.10076042231E+04  0.10084294576E+04  0.00000000000E+00 0.  1.
<scales pt_clust_3="149.05300" pt_clust_4="14000.00000" pt_clust_5="69.17522" pt_clust_6="40.78849"></scales>
<clustering>
<clus scale="   40.788">  1  6  2 -1</clus>
<clus scale="   69.175">  2  5  1 -1</clus>
<clus scale="  149.053">  1  3  2 -1</clus>
<clus scale="   69.175">  2  3  1 -1</clus>
</clustering>
</event>
<event>
 6    0  0.7258365E+002  0.1428859E+03  0.7546771E-02  0.1209498E+00
         21   -1    0    0  503  502  0.00000000000E+00  0.00000000000E+00  0.45834417471E+03  0.45834417471E+03  0.00000000000E+00 0. -1.
          1   -1    0    0  505    0 -0.00000000000E+00 -0.00000000000E+00 -0.35607599455E+03  0.35607599455E+03  0.00000000000E+00 0.  1.
         21    1    1    2  503  501  0.28515432617E+02 -0.27695319235E+02  0.54646852641E+01  0.40125096759E+02  0.00000000000E+00 0. -1.
         21    1    1    2  504  502  0.16770692048E+02  0.29590811348E+02  0.17450551106E+03  0.17778932932E+03  0.00000000000E+00 0. -1.
         21    1    1    2  505  504  0.16010274727E+02  0.11200463509E+03  0.23351406929E+03  0.25948061148E+03  0.00000000000E+00 0.  1.
          1    1    1    2  501    0 -0.61296399392E+02 -0.11390012720E+03 -0.31121608546E+03  0.33702513171E+03  0.00000000000E+00 0.  1.
<scales pt_clust_3="39.75123" pt_clust_4="32.90247" pt_clust_5="32.90247" pt_clust_6="129.67353"></scales>
<clustering>
<clus scale="   32.902">  4  5 -1 -1</clus>
<clus scale="   39.751">  1  3  2 -1</clus>
<clus scale="  129.674">  2  6  1 -1</clus>
<clus scale="   39.751">  1  3  2 -1</clus>
</clustering>
</event>
<event>
 6    0  0.7258365E+002  0.8580295E+02  0.7546771E-02  0.1313346E+00
         21   -1    0    0  503  502  0.00000000000E+00  0.00000000000E+00  0.11073036839E+03  0.11073036839E+03  0.00000000000E+00 0. -1.
          2   -1    0    0  504    0 -0.00000000000E+00 -0.00000000000E+00 -0.23818130702E+04  0.23818130702E+04  0.00000000000E+00 0.  1.
         21    1    1    2  503  501 -0.82222418838E+02  0.30844731118E+01  0.49632869227E+02  0.96090904052E+02  0.00000000000E+00 0. -1.
         21    1    1    2  504  505  0.56906017039E+01 -0.49876675013E+02 -0.75220284421E+03  0.75387610686E+03  0.00000000000E+00 0.  1.
         21    1    1    2  505  502  0.97337978549E+02  0.72535029162E+02 -0.63123215683E+02  0.13682307145E+03  0.00000000000E+00 0. -1.
          2    1    1    2  501    0 -0.20806161416E+02 -0.25742827261E+02 -0.15053895112E+04  0.15057533563E+04  0.00000000000E+00 0.  1.
<scales pt_clust_3="14000.00000" pt_clust_4="73.02464" pt_clust_5="85.80295" pt_clust_6="33.09969"></scales>
<clustering>
<clus scale="   33.100">  2  6  1 -1</clus>
<clus scale="   73.025">  2  4  1 -1</clus>
<clus scale="   85.803">  2  5  1 -1</clus>
<clus scale="   85.803">  1  3  2 -1</clus>
</clustering>
</event>
<event>
 6    0  0.7258365E+002  0.6795638E+02  0.7546771E-02  0.1367184E+00
          2   -1    0    0  502    0 -0.00000000000E+00  0.00000000000E+00  0.11855138452E+04  0.11855138452E+04  0.00000000000E+00 0.  1.
         21   -1    0    0  504  502  0.00000000000E+00 -0.00000000000E+00 -0.36638278206E+02  0.36638278206E+02  0.00000000000E+00 0. -1.
         21    1    1    2  503  505 -0.88168158312E+02  0.32160272407E+02  0.11634470992E+03  0.14947909147E+03  0.00000000000E+00 0. -1.
         21    1    1    2  504  503  0.27027123201E+02 -0.44956138196E+02  0.38713745438E+02  0.65194124243E+02  0.00000000000E+00 0. -1.
         21    1    1    2  505  501  0.39529642248E+02 -0.54002596363E+02  0.20731465475E+03  0.21784912004E+03  0.00000000000E+00 0. -1.
          2    1    1    2  501    0  0.21611392862E+02  0.66798462152E+02  0.78650245692E+03  0.78962978768E+03  0.00000000000E+00 0.  1.
<scales pt_clust_3="14000.00000" pt_clust_4="52.45493" pt_clust_5="65.02255" pt_clust_6="67.95638"></scales>
<clustering>
<clus scale="   52.455">  2  4  1 -1</clus>
<clus scale="   67.956">  1  6  2 -1</clus>
<clus scale="   65.023">  1  5  2 -1</clus>
<clus scale="   52.455">  2  3  1 -1</clus>
</clustering>
</event>
<event>
 6    0  0.7258365E+002  0.1207001E+03  0.7546771E-02  0.1241947E+00
         21   -1    0    0  504  502  0.00000000000E+00  0.00000000000E+00  0.50283796827E+03  0.50283796827E+03  0.00000000000E+00 0.  1.
         -2   -1    0    0    0  501 -0.00000000000E+00 -0.00000000000E+00 -0.83199613843E+03  0.83199613843E+03  0.00000000000E+00 0.  1.
         21    1    1    2  503  502 -0.40948867888E+02  0.92173031685E+02 -0.34633388262E+03  0.36072127163E+03  0.00000000000E+00 0.  1.
         21    1    1    2  504  505 -0.32003295924E+02 -0.11892198680E+03  0.47354911057E+03  0.48930094013E+03  0.00000000000E+00 0.  1.
         21    1    1    2  505  501  0.57296757035E+02  0.63697912237E+02 -0.12819492967E+03  0.15418911241E+03  0.00000000000E+00 0. -1.
         -2    1    1    2    0  503  0.15655406778E+02 -0.36948957122E+02 -0.32817846842E+03  0.33062278253E+03  0.00000000000E+00 0.  1.
<scales pt_clust_3="72.63884" pt_clust_4="120.70013" pt_clust_5="14000.00000" pt_clust_6="40.12876"></scales>
<clustering>
<clus scale="   40.129">  2  6  1 -1</clus>
<clus scale="   72.639">  2  3  1 -1</clus>
<clus scale="  120.700">  1  4  2 -1</clus>
<clus scale="  120.700">  1  3  2 -1</clus>
</clustering>
</event>
<event>
 6    0  0.7258365E+002  0.1937224E+03  0.7546771E-02  0.1155146E+00
         21   -1    0    0  501  502  0.00000000000E+00  0.00000000000E+00  0.69420574448E+03  0.69420574448E+03  0.00000000000E+00 0.  1.
          2   -1    0    0  504    0 -0.00000000000E+00 -0.00000000000E+00 -0.29935425805E+04  0.29935425805E+04  0.00000000000E+00 0. -1.
         21    1    1    2  503  502 -0.34147039872E+02 -0.55105530969E+01  0.77012680238E+02  0.84423571619E+02  0.00000000000E+00 0. -1.
         21    1    1    2  504  505 -0.32055055536E+02 -0.10445600338E+02 -0.34384313560E+02  0.48155146879E+02  0.00000000000E+00 0.  1.
         21    1    1    2  505  503  0.74188625927E+02  0.19496541270E+03  0.58584766850E+03  0.62187856938E+03  0.00000000000E+00 0.  1.
          2    1    1    2  501    0 -0.79865305178E+01 -0.17900925926E+03 -0.29278128712E+04  0.29332910371E+04  0.00000000000E+00 0. -1.
<scales pt_clust_3="34.63063" pt_clust_4="33.71405" pt_clust_5="14000.00000" pt_clust_6="193.72239"></scales>
<clustering>
<clus scale="   33.714">  2  4  1 -1</clus>
<clus scale="   34.631">  1  3  2 -1</clus>
<clus scale="  193.722">  2  6  1 -1</clus>
<clus scale="   34.631">  1  3  2 -1</clus>
</clustering>
</event>
<event>
 6    0  0.7258365E+002  0.1431570E+03  0.7546771E-02  0.1209143E+00
         21   -1    0    0  504  502  0.00000000000E+00  0.00000000000E+00  0.75771367660E+02  0.75771367660E+02  0.00000000000E+00 0.  1.
          1   -1    0    0  505    0 -0.00000000000E+00 -0.00000000000E+00 -0.24740345297E+04  0.24740345297E+04  0.00000000000E+00 0. -1.
         21    1    1    2  503  502  0.90223227434E+02  0.10776410048E+03 -0.20846738109E+02  0.14208419550E+03  0.00000000000E+00 0.  1.
         21    1    1    2  504  501 -0.19038967510E+03 -0.57450647471E+02 -0.82473049396E+03  0.84836854783E+03  0.00000000000E+00 0. -1.
         21    1    1    2  505  503  0.68568012161E+02 -0.63968167521E+02 -0.73707999525E+03  0.74302114246E+03  0.00000000000E+00 0.  1.
          1    1    1    2  501    0  0.31598435509E+02  0.13654714510E+02 -0.81560593469E+03  0.81633201153E+03  0.00000000000E+00 0. -1.
<scales pt_clust_3="14000.00000" pt_clust_4="143.15704" pt_clust_5="100.91543" pt_clust_6="34.42256"></scales>
<clustering>
<clus scale="   34.423">  2  6  1 -1</clus>
<clus scale="  100.915">  2  5  1 -1</clus>
<clus scale="  143.157">  2  4  1 -1</clus>
<clus scale="  143.157">  1  3  2 -1</clus>
</clustering>
</event>
<event>
 6    0  0.7258365E+002  0.9800535E+02  0.7546771E-02  0.1284547E+00
          2   -1    0    0  503    0 -0.00000000000E+00  0.00000000000E+00  0.26058622647E+04  0.26058622647E+04  0.00000000000E+00 0. -1.
         21   -1    0    0  505  502  0.00000000000E+00 -0.00000000000E+00 -0.10623056125E+03  0.10623056125E+03  0.00000000000E+00 0.  1.
         21    1    1    2  503  502  0.23004754639E+02  0.39536029868E+02 -0.67988342778E+01  0.46244356858E+02  0.00000000000E+00 0.  1.
         21    1    1    2  504  501  0.76324755996E+02 -0.33437498043E+02  0.15221408776E+03  0.17353000653E+03  0.00000000000E+00 0.  1.
         21    1    1    2  505  504 -0.10184074811E+03  0.29942048056E+02 -0.28036795433E+02  0.10979128434E+03  0.00000000000E+00 0.  1.
          2    1    1    2  501    0  0.25112374793E+01 -0.36040579881E+02  0.23822532454E+04  0.23825271782E+04  0.00000000000E+00 0. -1.
<scales pt_clust_3="43.14125" pt_clust_4="14000.00000" pt_clust_5="98.00535" pt_clust_6="36.12796"></scales>
<clustering>
<clus scale="   36.128">  1  6  2 -1</clus>
<clus scale="   43.141">  2  3  1 -1</clus>
<clus scale="   98.005">  2  5  1 -1</clus>
<clus scale="   43.141">  2  3  1 -1</clus>
</clustering>
</event>
<event>
 6    0  0.7258365E+002  0.1373234E+03  0.7546771E-02  0.1216977E+00
          2   -1    0    0  503    0 -0.00000000000E+00  0.00000000000E+00  0.70736156161E+03  0.70736156161E+03  0.00000000000E+00 0.  1.
         21   -1    0    0  504  502  0.00000000000E+00 -0.00000000000E+00 -0.17952574948E+03  0.17952574948E+03  0.00000000000E+00 0.  1.
         21    1    1    2  503  502 -0.24633600402E+02 -0.18959666987E+02 -0.42819381602E+02  0.52912972718E+02  0.00000000000E+00 0.  1.
         21    1    1    2  504  505  0.29292382242E+02  0.67766647214E+02 -0.67684045433E+02  0.10015733692E+03  0.00000000000E+00 0.  1.
         21    1    1    2  505  501 -0.65593272965E+01  0.72718959823E+02 -0.10435151255E+02  0.73756113469E+02  0.00000000000E+00 0.  1.
          2    1    1    2  501    0  0.19005454570E+01 -0.12152594005E+03  0.64877439042E+03  0.66006088798E+03  0.00000000000E+00 0.  1.
<scales pt_clust_3="31.08510" pt_clust_4="57.17819" pt_clust_5="57.17819" pt_clust_6="122.34151"></scales>
<clustering>
<clus scale="   31.085">  2  3  1 -1</clus>
<clus scale="   57.178">  4  5 -1 -1</clus>
<clus scale="  122.342">  1  6  2 -1</clus>
<clus scale="   31.085">  2  3  1 -1</clus>
</clustering>
</event>
<event>
 6    0  0.7258365E+002  0.7211157E+02  0.7546771E-02  0.1353056E+00
          1   -1    0    0  504    0 -0.00000000000E+00  0.00000000000E+00  0.25319662877E+03  0.25319662877E+03  0.00000000000E+00 0. -1.
         21   -1    0    0  503  502  0.00000000000E+00 -0.00000000000E+00 -0.73986652903E+03  0.73986652903E+03  0.00000000000E+00 0.  1.
         21    1    1    2  503  505  0.40420250962E+02  0.55616026487E+02 -0.19265474295E+03  0.20455510033E+03  0.00000000000E+00 0.  1.
         21    1    1    2  504  502  0.31907374723E+01 -0.79909934760E+02 -0.45635372638E+03  0.46330821497E+03  0.00000000000E+00 0.  1.
         21    1    1    2  505  501 -0.72922418220E+02  0.43294018723E+01 -0.63379363637E+02  0.96712804399E+02  0.00000000000E+00 0.  1.
          1    1    1    2  501    0  0.29311429786E+02  0.19964506400E+02  0.22571793271E+03  0.22848703810E+03  0.00000000000E+00 0. -1.
<scales pt_clust_3="72.11157" pt_clust_4="14000.00000" pt_clust_5="56.82856" pt_clust_6="35.46465"></scales>
<clustering>
<clus scale="   35.465">  1  6  2 -1</clus>
<clus scale="   56.829">  1  5  2 -1</clus>
<clus scale="   72.112">  1  3  2 -1</clus>
<clus scale="   72.112">  2  3  1 -1</clus>
</clustering>
</event>
<event>
 6    0  0.7258365E+002  0.3067426E+03  0.7546771E-02  0.1081918E+00
         21   -1    0    0  501  502  0.00000000000E+00  0.00000000000E+00  0.16218386223E+03  0.16218386223E+03  0.00000000000E+00 0. -1.
          3   -1    0    0  505    0 -0.00000000000E+00 -0.00000000000E+00 -0.29584499040E+04  0.29584499040E+04  0.00000000000E+00 0. -1.
         21    1    1    2  503  504  0.17343125025E+02  0.23139634170E+03 -0.43298058340E+02  0.23605036071E+03  0.00000000000E+00 0. -1.
         21    1    1    2  504  502  0.41353907478E+02  0.67600282785E+02  0.49051021811E+01  0.79397757674E+02  0.00000000000E+00 0. -1.
         21    1    1    2  505  503 -0.59402525929E+02 -0.26303087746E+03 -0.75021645364E+03  0.79720676734E+03  0.00000000000E+00 0. -1.
          3    1    1    2  501    0  0.70549342638E+00 -0.35965747024E+02 -0.20076566320E+04  0.20079788805E+04  0.00000000000E+00 0. -1.
<scales pt_clust_3="42.26326" pt_clust_4="42.26326" pt_clust_5="298.16417" pt_clust_6="35.97267"></scales>
<clustering>
<clus scale="   35.973">  2  6  1 -1</clus>
<clus scale="   42.263">  3  4 -1 -1</clus>
<clus scale="  298.164">  2  5  1 -1</clus>
<clus scale="  306.743">  1  3  2 -1</clus>
</clustering>
</event>
<event>
 6    0  0.7258365E+002  0.1009019E+03  0.7546771E-02  0.1278411E+00
          2   -1    0    0  505    0 -0.00000000000E+00  0.00000000000E+00  0.12630956117E+04  0.12630956117E+04  0.00000000000E+00 0.  1.
         21   -1    0    0  503  502  0.00000000000E+00 -0.00000000000E+00 -0.31918561523E+02  0.31918561523E+02  0.00000000000E+00 0.  1.
         21    1    1    2  503  501 -0.18180587404E+02 -0.75176583874E+02  0.19040742499E+03  0.20551652005E+03  0.00000000000E+00 0. -1.
         21    1    1    2  504  502  0.50542602056E+02  0.12040069584E+03  0.22594278070E+03  0.26096172580E+03  0.00000000000E+00 0.  1.
         21    1    1    2  505  504 -0.27923846194E+02  0.46414019560E+02  0.21420978725E+03  0.22095211099E+03  0.00000000000E+00 0.  1.
          2    1    1    2  501    0 -0.44381684575E+01 -0.91638131527E+02  0.60061705726E+03  0.60758381640E+03  0.00000000000E+00 0.  1.
<scales pt_clust_3="100.90191" pt_clust_4="14000.00000" pt_clust_5="54.16643" pt_clust_6="68.00638"></scales>
<clustering>
<clus scale="   54.166">  1  5  2 -1</clus>
<clus scale="   68.006">  1  6  2 -1</clus>
<clus scale="  100.902">  2  3  1 -1</clus>
<clus scale="  100.902">  2  3  1 -1</clus>
</clustering>
</event>
<event>
 6    0  0.7258365E+002  0.7780222E+02  0.7546771E-02  0.1335407E+00
         -4   -1    0    0    0  501 -0.00000000000E+00  0.00000000000E+00  0.21774944644E+02  0.21774944644E+02  0.00000000000E+00 0.  1.
         21   -1    0    0  504  502  0.00000000000E+00 -0.00000000000E+00 -0.22986495953E+04  0.22986495953E+04  0.00000000000E+00 0.  1.
         21    1    1    2  503  502 -0.29857994614E+02 -0.76803638869E+02 -0.77023554695E+03  0.77463094217E+03  0.00000000000E+00 0.  1.
         21    1    1    2  504  501 -0.67407144394E+02  0.73818602366E+02 -0.11753833910E+04  0.11796266464E+04  0.00000000000E+00 0.  1.
         21    1    1    2  505  503  0.59276007582E+02 -0.10439731920E+01 -0.32125215251E+03  0.32667672162E+03  0.00000000000E+00 0. -1.
         -4    1    1    2    0  505  0.37989131425E+02  0.40290096946E+01 -0.10003560196E+02  0.39490229705E+02  0.00000000000E+00 0.  1.
<scales pt_clust_3="77.80222" pt_clust_4="14000.00000" pt_clust_5="73.93122" pt_clust_6="38.20219"></scales>
<clustering>
<clus scale="   38.202">  1  6  2 -1</clus>
<clus scale="   73.931">  1  5  2 -1</clus>
<clus scale="   77.802">  1  3  2 -1</clus>
<clus scale="   77.802">  2  3  1 -1</clus>
</clustering>
</event>
<event>
 6    0  0.7258365E+002  0.6789716E+02  0.7546771E-02  0.1367393E+00
          2   -1    0    0  504    0 -0.00000000000E+00  0.00000000000E+00  0.12250807557E+04  0.12250807557E+04  0.00000000000E+00 0. -1.
         21   -1    0    0  505  502  0.00000000000E+00 -0.00000000000E+00 -0.19731418345E+03  0.19731418345E+03  0.00000000000E+00 0. -1.
         21    1    1    2  503  501 -0.32728529710E+02  0.23599722138E+02  0.59449280954E+02  0.71849290518E+02  0.00000000000E+00 0. -1.
         21    1    1    2  504  502 -0.43816311671E+02  0.44609942539E+02 -0.12555315937E+03  0.14026229704E+03  0.00000000000E+00 0. -1.
         21    1    1    2  505  503  0.11040014056E+03 -0.49190393339E+02  0.52568165125E+01  0.12097735305E+03  0.00000000000E+00 0. -1.
          2    1    1    2  501    0 -0.33855299178E+02 -0.19019271337E+02  0.10886136342E+04  0.10893059985E+04  0.00000000000E+00 0. -1.
<scales pt_clust_3="51.13391" pt_clust_4="67.89716" pt_clust_5="14000.00000" pt_clust_6="38.83187"></scales>
<clustering>
<clus scale="   38.832">  1  6  2 -1</clus>
<clus scale="   51.134">  1  3  2 -1</clus>
<clus scale="   67.897">  2  4  1 -1</clus>
<clus scale="   67.897">  2  3  1 -1</clus>
</clustering>
</event>
<event>
 6    0  0.7258365E+002  0.9617518E+02  0.7546771E-02  0.1288551E+00
         21   -1    0    0  503  502  0.00000000000E+00  0.00000000000E+00  0.62673040076E+03  0.62673040076E+03  0.00000000000E+00 0. -1.
          2   -1    0    0  504    0 -0.00000000000E+00 -0.00000000000E+00 -0.69820130279E+03  0.69820130279E+03  0.00000000000E+00 0. -1.
         21    1    1    2  503  501  0.10197839360E+02  0.38436993798E+02  0.93267702264E+02  0.10139163035E+03  0.00000000000E+00 0. -1.
         21    1    1    2  504  505  0.83076468741E+02 -0.13433945885E+03 -0.50563435154E+02  0.16584767360E+03  0.00000000000E+00 0.  1.
         21    1    1    2  505  502 -0.67855923652E+02  0.35636867290E+02  0.46679832408E+03  0.47304871636E+03  0.00000000000E+00 0. -1.
          2    1    1    2  501    0 -0.25418384449E+02  0.60265597767E+02 -0.58097349322E+03  0.58464368325E+03  0.00000000000E+00 0. -1.
<scales pt_clust_3="39.76680" pt_clust_4="96.17518" pt_clust_5="14000.00000" pt_clust_6="65.51578"></scales>
<clustering>
<clus scale="   39.767">  1  3  2 -1</clus>
<clus scale="   65.516">  2  6  1 -1</clus>
<clus scale="   96.175">  2  4  1 -1</clus>
<clus scale="   39.767">  1  3  2 -1</clus>
</clustering>
</event>
<event>
 6    0  0.7258365E+002  0.8420388E+02  0.7546771E-02  0.1317528E+00
         21   -1    0    0  503  502  0.00000000000E+00  0.00000000000E+00  0.29679999736E+03  0.29679999736E+03  0.00000000000E+00 0.  1.
          1   -1    0    0  505    0 -0.00000000000E+00 -0.00000000000E+00 -0.11314264904E+04  0.11314264904E+04  0.00000000000E+00 0.  1.
         21    1    1    2  503  501  0.41801755482E+02  0.72534174822E+02  0.13316781080E+03  0.15729672314E+03  0.00000000000E+00 0.  1.
         21    1    1    2  504  502  0.29747708685E+02 -0.12610122987E+02  0.73977480573E+02  0.80725516447E+02  0.00000000000E+00 0.  1.
         21    1    1    2  505  504  0.12387163255E+02 -0.49538299973E+02  0.63621948660E+02  0.81579637955E+02  0.00000000000E+00 0.  1.
          1    1    1    2  501    0 -0.83936627422E+02 -0.10385751863E+02 -0.11053937331E+04  0.11086246102E+04  0.00000000000E+00 0.  1.
<scales pt_clust_3="84.20388" pt_clust_4="32.31008" pt_clust_5="58.12826" pt_clust_6="14000.00000"></scales>
<clustering>
<clus scale="   32.310">  1  4  2 -1</clus>
<clus scale="   58.128">  1  5  2 -1</clus>
<clus scale="   84.204">  1  3  2 -1</clus>
<clus scale="   32.310">  1  3  2 -1</clus>
</clustering>
</event>
<event>
 6    0  0.7258365E+002  0.1185652E+03  0.7546771E-02  0.1245483E+00
         21   -1    0    0  505  502  0.00000000000E+00  0.00000000000E+00  0.38234375346E+02  0.38234375346E+02  0.00000000000E+00 0.  1.
          1   -1    0    0  504    0 -0.00000000000E+00 -0.00000000000E+00 -0.17554760145E+04  0.17554760145E+04  0.00000000000E+00 0.  1.
         21    1    1    2  503  502 -0.28791655821E+01 -0.31223142770E+02 -0.56947265031E+01  0.31868544818E+02  0.00000000000E+00 0. -1.
         21    1    1    2  504  503 -0.17413504817E+03 -0.12962417021E+02 -0.62454508544E+03  0.64849641710E+03  0.00000000000E+00 0.  1.
         21    1    1    2  505  501  0.90802141420E+02  0.55055423490E+02 -0.24697128090E+03  0.26883255408E+03  0.00000000000E+00 0. -1.
          1    1    1    2  501    0  0.86212072331E+02 -0.10869863700E+02 -0.84003054636E+03  0.84451287389E+03  0.00000000000E+00 0.  1.
<scales pt_clust_3="31.35561" pt_clust_4="118.56524" pt_clust_5="14000.00000" pt_clust_6="87.03295"></scales>
<clustering>
<clus scale="   31.356">  1  3  2 -1</clus>
<clus scale="   87.033">  2  6  1 -1</clus>
<clus scale="  118.565">  2  4  1 -1</clus>
<clus scale="   31.356">  1  3  2 -1</clus>
</clustering>
</event>
<event>
 6    0  0.7258365E+002  0.8362782E+02  0.7546771E-02  0.1319060E+00
          2   -1    0    0  503    0 -0.00000000000E+00  0.00000000000E+00  0.20149763170E+04  0.20149763170E+04  0.00000000000E+00 0. -1.
         21   -1    0    0  501  502  0.00000000000E+00 -0.00000000000E+00 -0.12026657459E+02  0.12026657459E+02  0.00000000000E+00 0. -1.
         21    1    1    2  503  505  0.56983405744E+02 -0.56159708902E+02  0.98026226959E+03  0.98352180384E+03  0.00000000000E+00 0. -1.
         21    1    1    2  504  502 -0.37442053336E+02  0.30760880485E+01  0.91190115172E+02  0.98625588874E+02  0.00000000000E+00 0. -1.
         21    1    1    2  505  504 -0.20618701591E+02  0.10465272703E+03  0.61417431324E+03  0.62336779767E+03  0.00000000000E+00 0. -1.
          2    1    1    2  501    0  0.10773491837E+01 -0.51569106174E+02  0.31732296151E+03  0.32148778405E+03  0.00000000000E+00 0. -1.
<scales pt_clust_3="83.62782" pt_clust_4="37.56820" pt_clust_5="14000.00000" pt_clust_6="51.47283"></scales>
<clustering>
<clus scale="   37.568">  2  4  1 -1</clus>
<clus scale="   51.473">  2  6  1 -1</clus>
<clus scale="   83.628">  1  3  2 -1</clus>
<clus scale="   37.568">  2  3  1 -1</clus>
</clustering>
</event>
<event>
 6    0  0.7258365E+002  0.2006239E+03  0.7546771E-02  0.1149214E+00
         21   -1    0    0  503  502  0.00000000000E+00  0.00000000000E+00  0.81142429027E+02  0.81142429027E+02  0.00000000000E+00 0. -1.
          2   -1    0    0  504    0 -0.00000000000E+00 -0.00000000000E+00 -0.11445037632E+04  0.11445037632E+04  0.00000000000E+00 0. -1.
         21    1    1    2  503  501 -0.25394860107E+02  0.31936457783E+02 -0.14262887554E+01  0.40827326084E+02  0.00000000000E+00 0. -1.
         21    1    1    2  504  505 -0.38860505779E+02  0.59466303838E+01 -0.58769534583E+02  0.70706149078E+02  0.00000000000E+00 0. -1.
         21    1    1    2  505  502 -0.12526955362E+03 -0.55767023032E+02 -0.56183065494E+02  0.14818555520E+03  0.00000000000E+00 0. -1.
          2    1    1    2  501    0  0.18952491951E+03  0.17883934865E+02 -0.94698244532E+03  0.96592716185E+03  0.00000000000E+00 0. -1.
<scales pt_clust_3="40.80241" pt_clust_4="38.90260" pt_clust_5="38.90260" pt_clust_6="187.00588"></scales>
<clustering>
<clus scale="   38.903">  4  5 -1 -1</clus>
<clus scale="   40.802">  1  3  2 -1</clus>
<clus scale="  187.006">  2  6  1 -1</clus>
<clus scale="   40.802">  1  3  2 -1</clus>
</clustering>
</event>
<event>
 6    0  0.7258365E+002  0.1360452E+03  0.7546771E-02  0.1218752E+00
          2   -1    0    0  504    0 -0.00000000000E+00  0.00000000000E+00  0.65198675283E+03  0.65198675283E+03  0.00000000000E+00 0. -1.
         21   -1    0    0  505  502  0.00000000000E+00 -0.00000000000E+00 -0.22289666579E+03  0.22289666579E+03  0.00000000000E+00 0.  1.
         21    1    1    2  503  502  0.12419956307E+03 -0.43334094692E+02 -0.16805221378E+03  0.21341256239E+03  0.00000000000E+00 0.  1.
         21    1    1    2  504  503 -0.73610667652E+02 -0.66056173451E+02  0.46514019825E+03  0.47553901257E+03  0.00000000000E+00 0. -1.
         21    1    1    2  505  501 -0.15492617584E+02  0.88606239743E+02  0.85936026351E+02  0.12440292419E+03  0.00000000000E+00 0. -1.
          2    1    1    2  501    0 -0.35096277836E+02  0.20784028400E+02  0.46066076211E+02  0.61528919477E+02  0.00000000000E+00 0. -1.
<scales pt_clust_3="126.04629" pt_clust_4="98.90373" pt_clust_5="34.47239" pt_clust_6="34.47239"></scales>
<clustering>
<clus scale="   34.472">  5  6 -1 -1</clus>
<clus scale="   98.904">  1  4  2 -1</clus>
<clus scale="  126.046">  2  3  1 -1</clus>
<clus scale="  126.046">  2  3  1 -1</clus>
</clustering>
</event>
<event>
 6    0  0.7258365E+002  0.1021199E+03  0.7546771E-02  0.1275900E+00
          2   -1    0    0  505    0 -0.00000000000E+00  0.00000000000E+00  0.71269315612E+03  0.71269315612E+03  0.00000000000E+00 0. -1.
         21   -1    0    0  504  502  0.00000000000E+00 -0.00000000000E+00 -0.63571342573E+03  0.63571342573E+03  0.00000000000E+00 0. -1.
         21    1    1    2  503  501 -0.63109127224E+02  0.11618721346E+03 -0.18464264045E+03  0.22710159661E+03  0.00000000000E+00 0. -1.
         21    1    1    2  504  503  0.73294934603E+01 -0.29539153060E+02 -0.40013828188E+03  0.40129406632E+03  0.00000000000E+00 0. -1.
         21    1    1    2  505  502  0.40196407361E+02  0.13850107539E+02 -0.74098749819E+01  0.43156493032E+02  0.00000000000E+00 0. -1.
          2    1    1    2  501    0  0.15583226403E+02 -0.10049816794E+03  0.66917052770E+03  0.67685442589E+03  0.00000000000E+00 0. -1.
<scales pt_clust_3="102.11986" pt_clust_4="30.43490" pt_clust_5="42.35163" pt_clust_6="14000.00000"></scales>
<clustering>
<clus scale="   30.435">  2  4  1 -1</clus>
<clus scale="   42.352">  2  5  1 -1</clus>
<clus scale="  102.120">  2  3  1 -1</clus>
<clus scale="   30.435">  2  3  1 -1</clus>
</clustering>
</event>
<event>
 6    0  0.7258365E+002  0.1362910E+03  0.7546771E-02  0.1218409E+00
          2   -1    0    0  503    0 -0.00000000000E+00  0.00000000000E+00  0.36847191483E+04  0.36847191483E+04  0.00000000000E+00 0.  1.
         21   -1    0    0  504  502  0.00000000000E+00 -0.00000000000E+00 -0.34618893991E+03  0.34618893991E+03  0.00000000000E+00 0. -1.
         21    1    1    2  503  502 -0.25998553167E+02 -0.38280787459E+02 -0.30525812540E+02  0.55436167675E+02  0.00000000000E+00 0.  1.
         21    1    1    2  504  505  0.11528369986E+03  0.19607349032E+02 -0.17620734269E+03  0.21148003974E+03  0.00000000000E+00 0. -1.
         21    1    1    2  505  501 -0.64775925012E+02  0.15271049901E+03 -0.44418498517E+02  0.17172483798E+03  0.00000000000E+00 0. -1.
          2    1    1    2  501    0 -0.24509221677E+02 -0.13403706059E+03  0.35896818622E+04  0.35922670429E+04  0.00000000000E+00 0.  1.
<scales pt_clust_3="46.27465" pt_clust_4="98.78250" pt_clust_5="14000.00000" pt_clust_6="136.29099"></scales>
<clustering>
<clus scale="   46.275">  2  3  1 -1</clus>
<clus scale="   98.782">  2  4  1 -1</clus>
<clus scale="  136.291">  1  6  2 -1</clus>
<clus scale="   46.275">  2  3  1 -1</clus>
</clustering>
</event>
<event>
 6    0  0.7258365E+002  0.6791350E+02  0.7546771E-02  0.1367336E+00
         21   -1    0    0  504  502  0.00000000000E+00  0.00000000000E+00  0.39426684519E+03  0.39426684519E+03  0.00000000000E+00 0.  1.
          1   -1    0    0  502    0 -0.00000000000E+00 -0.00000000000E+00 -0.17428007970E+03  0.17428007970E+03  0.00000000000E+00 0.  1.
         21    1    1    2  503  501  0.63354881070E+02  0.46683700331E+02  0.64235076861E+02  0.10158422088E+03  0.00000000000E+00 0.  1.
         21    1    1    2  504  505  0.31226369845E+02 -0.65334165971E+02  0.24629360423E+03  0.25671809228E+03  0.00000000000E+00 0.  1.
         21    1    1    2  505  503 -0.46960899377E+02  0.36130523324E+02  0.39128172218E+02  0.71005314217E+02  0.00000000000E+00 0.  1.
          1    1    1    2  501    0 -0.47620351538E+02 -0.17480057684E+02 -0.12967008782E+03  0.13923929752E+03  0.00000000000E+00 0.  1.
<scales pt_clust_3="56.25230" pt_clust_4="67.91350" pt_clust_5="14000.00000" pt_clust_6="50.72721"></scales>
<clustering>
<clus scale="   50.727">  2  6  1 -1</clus>
<clus scale="   56.252">  2  3  1 -1</clus>
<clus scale="   67.914">  1  4  2 -1</clus>
<clus scale="   67.914">  1  3  2 -1</clus>
</clustering>
</event>
<event>
 6    0  0.7258365E+002  0.1568454E+03  0.7546771E-02  0.1192305E+00
         21   -1    0    0  503  502  0.00000000000E+00  0.00000000000E+00  0.38604492763E+03  0.38604492763E+03  0.00000000000E+00 0.  1.
          2   -1    0    0  505    0 -0.00000000000E+00 -0.00000000000E+00 -0.66081400160E+03  0.66081400160E+03  0.00000000000E+00 0. -1.
         21    1    1    2  503  504  0.30735346887E+02  0.75354534392E+01  0.14876871251E+03  0.15209725319E+03  0.00000000000E+00 0.  1.
         21    1    1    2  504  501  0.10350120770E+03 -0.88151187634E+02  0.18600900337E+03  0.23039635676E+03  0.00000000000E+00 0.  1.
         21    1    1    2  505  502 -0.17608707706E+03  0.79628206926E+02 -0.33582282560E+03  0.38745874650E+03  0.00000000000E+00 0.  1.
          2    1    1    2  501    0  0.41850522471E+02  0.98752726894E+00 -0.27372396425E+03  0.27690657277E+03  0.00000000000E+00 0. -1.
<scales pt_clust_3="31.64561" pt_clust_4="156.84544" pt_clust_5="14000.00000" pt_clust_6="42.07092"></scales>
<clustering>
<clus scale="   31.646">  1  3  2 -1</clus>
<clus scale="   42.071">  2  6  1 -1</clus>
<clus scale="  156.845">  1  4  2 -1</clus>
<clus scale="   31.646">  1  3  2 -1</clus>
</clustering>
</event>
<event>
 6    0  0.7258365E+002  0.8468867E+02  0.7546771E-02  0.1316249E+00
         -4   -1    0    0    0  501 -0.00000000000E+00  0.00000000000E+00  0.26683407234E+03  0.26683407234E+03  0.00000000000E+00 0.  1.
         21   -1    0    0  505  502  0.00000000000E+00 -0.00000000000E+00 -0.12012372078E+04  0.12012372078E+04  0.00000000000E+00 0.  1.
         21    1    1    2  503  504  0.30742052434E+02  0.59450793286E+02 -0.28991073412E+03  0.29753605557E+03  0.00000000000E+00 0. -1.
         21    1    1    2  504  501 -0.33091616709E+02 -0.37364456154E+01 -0.18222780498E+02  0.37961636574E+02  0.00000000000E+00 0. -1.
         21    1    1    2  505  503  0.11271700151E+02 -0.10510725347E+03 -0.87371618604E+03  0.88008781364E+03  0.00000000000E+00 0.  1.
         -4    1    1    2    0  502 -0.89221358759E+01  0.49392905804E+02  0.24744656517E+03  0.25248577438E+03  0.00000000000E+00 0.  1.
<scales pt_clust_3="84.68867" pt_clust_4="33.30189" pt_clust_5="14000.00000" pt_clust_6="61.51465"></scales>
<clustering>
<clus scale="   33.302">  1  4  2 -1</clus>
<clus scale="   61.515">  1  6  2 -1</clus>
<clus scale="   84.689">  1  3  2 -1</clus>
<clus scale="   84.689">  2  3  1 -1</clus>
</clustering>
</event>
<event>
 6    0  0.7258365E+002  0.1189425E+03  0.7546771E-02  0.1244852E+00
         21   -1    0    0  505  502  0.00000000000E+00  0.00000000000E+00  0.38558445228E+03  0.38558445228E+03  0.00000000000E+00 0.  1.
          1   -1    0    0  503    0 -0.00000000000E+00 -0.00000000000E+00 -0.23830173384E+04  0.23830173384E+04  0.00000000000E+00 0. -1.
         21    1    1    2  503  502 -0.13875690862E+03 -0.15304266229E+03  0.63091610810E+02  0.21600020260E+03  0.00000000000E+00 0. -1.
         21    1    1    2  504  501  0.75101566574E+02  0.15718615851E+02  0.13703872222E+02  0.77943032402E+02  0.00000000000E+00 0. -1.
         21    1    1    2  505  504  0.52403536326E+02  0.52607817954E+02  0.19249733577E+03  0.20632241131E+03  0.00000000000E+00 0.  1.
          1    1    1    2  501    0  0.11251805721E+02  0.84716228484E+02 -0.22667257049E+04  0.22683361444E+04  0.00000000000E+00 0. -1.
<scales pt_clust_3="118.94254" pt_clust_4="14000.00000" pt_clust_5="74.25438" pt_clust_6="85.71580"></scales>
<clustering>
<clus scale="   74.254">  1  5  2 -1</clus>
<clus scale="   85.716">  2  6  1 -1</clus>
<clus scale="  118.943">  1  3  2 -1</clus>
<clus scale="   74.254">  1  3  2 -1</clus>
</clustering>
</event>
<event>
 6    0  0.7258365E+002  0.1000915E+03  0.7546771E-02  0.1280104E+00
          2   -1    0    0  503    0 -0.00000000000E+00  0.00000000000E+00  0.21127010978E+04  0.21127010978E+04  0.00000000000E+00 0. -1.
         21   -1    0    0  501  502  0.00000000000E+00 -0.00000000000E+00 -0.42442928579E+02  0.42442928579E+02  0.00000000000E+00 0.  1.
         21    1    1    2  503  505  0.20385267594E+01 -0.99591978094E+02  0.16371894539E+04  0.16402170666E+04  0.00000000000E+00 0. -1.
         21    1    1    2  504  502  0.16453768233E+02  0.65184614038E+02  0.38052194897E+02  0.77251083700E+02  0.00000000000E+00 0.  1.
         21    1    1    2  505  504  0.24114632389E+02  0.10376761213E+03  0.24015857417E+03  0.26272680406E+03  0.00000000000E+00 0. -1.
          2    1    1    2  501    0 -0.42606927381E+02 -0.69360248079E+02  0.15485794628E+03  0.17494907202E+03  0.00000000000E+00 0. -1.
<scales pt_clust_3="100.09145" pt_clust_4="67.22916" pt_clust_5="14000.00000" pt_clust_6="53.91849"></scales>
<clustering>
<clus scale="   67.229">  2  4  1 -1</clus>
<clus scale="   53.918">  2  6  1 -1</clus>
<clus scale="  100.091">  1  3  2 -1</clus>
<clus scale="   67.229">  2  3  1 -1</clus>
</clustering>
</event>
<event>
 6    0  0.7258365E+002  0.1700336E+03  0.7546771E-02  0.1177813E+00
          2   -1    0    0  503    0 -0.00000000000E+00  0.00000000000E+00  0.18544139701E+04  0.18544139701E+04  0.00000000000E+00 0.  1.
         21   -1    0    0  501  502  0.00000000000E+00 -0.00000000000E+00 -0.17333562885E+03  0.17333562885E+03  0.00000000000E+00 0.  1.
         21    1    1    2  503  504 -0.40564606825E+02  0.56453895706E+02  0.49505325219E+02  0.85342292518E+02  0.00000000000E+00 0.  1.
         21    1    1    2  504  505 -0.85397874753E+01  0.52878143286E+02 -0.40795715308E+01  0.53718422458E+02  0.00000000000E+00 0.  1.
         21    1    1    2  505  502 -0.91732605698E+02 -0.20765991449E+02 -0.10450489177E+03  0.14059647845E+03  0.00000000000E+00 0.  1.
          2    1    1    2  501    0  0.14083700000E+03 -0.88566047543E+02  0.17401574793E+04  0.17480924055E+04  0.00000000000E+00 0.  1.
<scales pt_clust_3="47.34893" pt_clust_4="47.34893" pt_clust_5="94.05369" pt_clust_6="161.25063"></scales>
<clustering>
<clus scale="   47.349">  3  4 -1 -1</clus>
<clus scale="   94.054">  2  5  1 -1</clus>
<clus scale="  161.251">  1  6  2 -1</clus>
<clus scale="   94.054">  2  3  1 -1</clus>
</clustering>
</event>
<event>
 6    0  0.7258365E+002  0.9542524E+02  0.7546771E-02  0.1290221E+00
         21   -1    0    0  503  502  0.00000000000E+00  0.00000000000E+00  0.76803324288E+02  0.76803324288E+02  0.00000000000E+00 0. -1.
         -1   -1    0    0    0  501 -0.00000000000E+00 -0.00000000000E+00 -0.93919875502E+03  0.93919875502E+03  0.00000000000E+00 0.  1.
         21    1    1    2  503  504  0.79584645082E+02  0.19582788828E+02 -0.16320090592E+02  0.83567617581E+02  0.00000000000E+00 0. -1.
         21    1    1    2  504  501 -0.13182721045E+03 -0.97277414577E+02 -0.19095677769E+03  0.25160643821E+03  0.00000000000E+00 0. -1.
         21    1    1    2  505  502  0.19849324957E+02  0.59419960654E+02 -0.67721605763E+02  0.92254773928E+02  0.00000000000E+00 0. -1.
         -1    1    1    2    0  505  0.32393240411E+02  0.18274665095E+02 -0.58739695668E+03  0.58857324959E+03  0.00000000000E+00 0.  1.
<scales pt_clust_3="95.42524" pt_clust_4="14000.00000" pt_clust_5="69.16623" pt_clust_6="37.19255"></scales>
<clustering>
<clus scale="   37.193">  2  6  1 -1</clus>
<clus scale="   69.166">  2  5  1 -1</clus>
<clus scale="   95.425">  1  3  2 -1</clus>
<clus scale="   95.425">  1  3  2 -1</clus>
</clustering>
</event>
<event>
 6    0  0.7258365E+002  0.2713145E+03  0.7546771E-02  0.1100530E+00
         -1   -1    0    0    0  501 -0.00000000000E+00  0.00000000000E+00  0.74447127704E+03  0.74447127704E+03  0.00000000000E+00 0.  1.
         21   -1    0    0  503  502  0.00000000000E+00 -0.00000000000E+00 -0.36147779885E+03  0.36147779885E+03  0.00000000000E+00 0.  1.
         21    1    1    2  503  505 -0.25083845297E+03  0.17102272428E+02 -0.23528193757E+03  0.34433995899E+03  0.00000000000E+00 0.  1.
         21    1    1    2  504  502  0.14786116410E+03 -0.16390365557E+02  0.21854607056E+03  0.26437464494E+03  0.00000000000E+00 0. -1.
         21    1    1    2  505  501 -0.30036535828E+02  0.93679266920E+02  0.47858910616E+02  0.10940052039E+03  0.00000000000E+00 0. -1.
         -1    1    1    2    0  504  0.13301382470E+03 -0.94391173790E+02  0.35187043459E+03  0.38783395157E+03  0.00000000000E+00 0.  1.
<scales pt_clust_3="254.50694" pt_clust_4="89.78296" pt_clust_5="98.37682" pt_clust_6="89.78296"></scales>
<clustering>
<clus scale="   89.783">  4  6 -1 -1</clus>
<clus scale="   98.377">  1  5  2 -1</clus>
<clus scale="  254.507">  2  3  1 -1</clus>
<clus scale="  254.507">  2  3  1 -1</clus>
</clustering>
</event>
<event>
 6    0  0.7258365E+002  0.2636878E+03  0.7546771E-02  0.1104948E+00
          1   -1    0    0  505    0 -0.00000000000E+00  0.00000000000E+00  0.28494246872E+03  0.28494246872E+03  0.00000000000E+00 0. -1.
         21   -1    0    0  503  502  0.00000000000E+00 -0.00000000000E+00 -0.92589047727E+03  0.92589047727E+03  0.00000000000E+00 0.  1.
         21    1    1    2  503  504  0.49915425784E+02  0.26348605221E+02 -0.26162738517E+03  0.26764657180E+03  0.00000000000E+00 0.  1.
         21    1    1    2  504  501  0.17280046358E+03  0.13398308498E+03 -0.47118709311E+03  0.51945042495E+03  0.00000000000E+00 0.  1.
         21    1    1    2  505  502 -0.45361460024E+02  0.12892797583E+02 -0.99793770485E+02  0.11037519156E+03  0.00000000000E+00 0.  1.
          1    1    1    2  501    0 -0.17735442934E+03 -0.17322448778E+03  0.19166024021E+03  0.31336075767E+03  0.00000000000E+00 0. -1.
<scales pt_clust_3="43.09901" pt_clust_4="43.09901" pt_clust_5="47.15810" pt_clust_6="249.67026"></scales>
<clustering>
<clus scale="   43.099">  3  4 -1 -1</clus>
<clus scale="   47.158">  2  5  1 -1</clus>
<clus scale="  249.670">  1  6  2 -1</clus>
<clus scale="   47.158">  2  3  1 -1</clus>
</clustering>
</event>
<event>
 6    0  0.7258365E+002  0.1500690E+03  0.7546771E-02  0.1200388E+00
         -3   -1    0    0    0  501 -0.00000000000E+00  0.00000000000E+00  0.26807893097E+03  0.26807893097E+03  0.00000000000E+00 0.  1.
         21   -1    0    0  503  502  0.00000000000E+00 -0.00000000000E+00 -0.34682704784E+03  0.34682704784E+03  0.00000000000E+00 0.  1.
         21    1    1    2  503  504  0.14058753065E+03 -0.90573671498E+02 -0.12094403784E+03  0.20638775165E+03  0.00000000000E+00 0.  1.
         21    1    1    2  504  501 -0.13184773872E+02  0.10448666036E+03 -0.11504986969E+02  0.10594180092E+03  0.00000000000E+00 0.  1.
         21    1    1    2  505  502 -0.12402976152E+03  0.53835080709E+02 -0.76800492664E+02  0.15549891746E+03  0.00000000000E+00 0.  1.
         -3    1    1    2    0  505 -0.33729952572E+01 -0.67748069575E+02  0.13050140060E+03  0.14707750878E+03  0.00000000000E+00 0.  1.
<scales pt_clust_3="150.06898" pt_clust_4="81.03676" pt_clust_5="14000.00000" pt_clust_6="67.83198"></scales>
<clustering>
<clus scale="   67.832">  1  6  2 -1</clus>
<clus scale="   81.037">  1  4  2 -1</clus>
<clus scale="  150.069">  1  3  2 -1</clus>
<clus scale="  150.069">  2  3  1 -1</clus>
</clustering>
</event>
<event>
 6    0  0.7258365E+002  0.7615108E+02  0.7546771E-02  0.1340343E+00
         21   -1    0    0  504  502  0.00000000000E+00  0.00000000000E+00  0.54635857674E+02  0.54635857674E+02  0.00000000000E+00 0. -1.
          2   -1    0    0  503    0 -0.00000000000E+00 -0.00000000000E+00 -0.80032960945E+03  0.80032960945E+03  0.00000000000E+00 0. -1.
         21    1    1    2  503  502  0.41694810552E+02  0.42661813218E+02 -0.89104352812E+01  0.60314868738E+02  0.00000000000E+00 0. -1.
         21    1    1    2  504  505  0.33867024997E+02 -0.54854839833E+02 -0.42867685961E+02  0.77418778955E+02  0.00000000000E+00 0. -1.
         21    1    1    2  505  501 -0.97426658329E+02  0.42558085300E+02 -0.24902437917E+03  0.27076980223E+03  0.00000000000E+00 0. -1.
          2    1    1    2  501    0  0.21864822781E+02 -0.30365058685E+02 -0.44489125137E+03  0.44646201721E+03  0.00000000000E+00 0. -1.
<scales pt_clust_3="59.13470" pt_clust_4="14000.00000" pt_clust_5="76.15108" pt_clust_6="37.41801"></scales>
<clustering>
<clus scale="   37.418">  2  6  1 -1</clus>
<clus scale="   59.135">  1  3  2 -1</clus>
<clus scale="   76.151">  2  5  1 -1</clus>
<clus scale="   59.135">  1  3  2 -1</clus>
</clustering>
</event>
<event>
 6    0  0.7258365E+002  0.1888714E+03  0.7546771E-02  0.1159483E+00
         21   -1    0    0  503  502  0.00000000000E+00  0.00000000000E+00  0.12960485028E+03  0.12960485028E+03  0.00000000000E+00 0.  1.
          1   -1    0    0  502    0 -0.00000000000E+00 -0.00000000000E+00 -0.25146039940E+04  0.25146039940E+04  0.00000000000E+00 0. -1.
         21    1    1    2  503  504 -0.10974958375E+03  0.71518605758E+02  0.57369416449E+02  0.14300745452E+03  0.00000000000E+00 0.  1.
         21    1    1    2  504  505 -0.49539560967E+02 -0.43786113476E+01 -0.10565505142E+02  0.50842602579E+02  0.00000000000E+00 0.  1.
         21    1    1    2  505  501  0.14810312628E+03 -0.12577629551E+03 -0.10868744698E+04  0.11041061206E+04  0.00000000000E+00 0. -1.
          1    1    1    2  501    0  0.11186018440E+02  0.58636301102E+02 -0.13449285852E+04  0.13462526665E+04  0.00000000000E+00 0. -1.
<scales pt_clust_3="45.72223" pt_clust_4="45.72223" pt_clust_5="173.68356" pt_clust_6="59.69374"></scales>
<clustering>
<clus scale="   45.722">  3  4 -1 -1</clus>
<clus scale="   59.694">  2  6  1 -1</clus>
<clus scale="  173.684">  2  5  1 -1</clus>
<clus scale="  188.871">  1  3  2 -1</clus>
</clustering>
</event>
<event>
 6    0  0.7258365E+002  0.1323041E+03  0.7546771E-02  0.1224076E+00
         21   -1    0    0  503  502  0.00000000000E+00  0.00000000000E+00  0.22706136540E+03  0.22706136540E+03  0.00000000000E+00 0.  1.
          2   -1    0    0  504    0 -0.00000000000E+00 -0.00000000000E+00 -0.18965444108E+04  0.18965444108E+04  0.00000000000E+00 0.  1.
         21    1    1    2  503  505  0.39133525539E+02 -0.46570967826E+01  0.18256194913E+03  0.18676719905E+03  0.00000000000E+00 0.  1.
         21    1    1    2  504  502 -0.90310644277E+02 -0.84807794159E+02 -0.25842455688E+03  0.28658615811E+03  0.00000000000E+00 0.  1.
         21    1    1    2  505  501  0.10326497115E+03  0.77845451640E+02 -0.12238576383E+03  0.17805011597E+03  0.00000000000E+00 0.  1.
          2    1    1    2  501    0 -0.52087852408E+02  0.11619439301E+02 -0.14712346738E+04  0.14722023031E+04  0.00000000000E+00 0.  1.
<scales pt_clust_3="39.40966" pt_clust_4="132.30414" pt_clust_5="14000.00000" pt_clust_6="52.92070"></scales>
<clustering>
<clus scale="   39.410">  1  3  2 -1</clus>
<clus scale="   52.921">  2  6  1 -1</clus>
<clus scale="  132.304">  2  4  1 -1</clus>
<clus scale="   39.410">  1  3  2 -1</clus>
</clustering>
</event>
<event>
 6    0  0.7258365E+002  0.1022425E+03  0.7546771E-02  0.1275650E+00
         21   -1    0    0  505  502  0.00000000000E+00  0.00000000000E+00  0.12040501264E+03  0.12040501264E+03  0.00000000000E+00 0. -1.
          2   -1    0    0  504    0 -0.00000000000E+00 -0.00000000000E+00 -0.39125362402E+03  0.39125362402E+03  0.00000000000E+00 0. -1.
         21    1    1    2  503  502  0.28036464232E+02  0.11425801443E+03 -0.29763444242E+02  0.12135402672E+03  0.00000000000E+00 0. -1.
         21    1    1    2  504  503 -0.18606867482E+02 -0.11298349474E+03 -0.13886316554E+03  0.17998462252E+03  0.00000000000E+00 0. -1.
         21    1    1    2  505  501  0.29907485721E+02 -0.47708247488E+02  0.30697335221E+02  0.64131591047E+02  0.00000000000E+00 0. -1.
          2    1    1    2  501    0 -0.39337082471E+02  0.46433727789E+02 -0.13291933682E+03  0.14618839637E+03  0.00000000000E+00 0. -1.
<scales pt_clust_3="102.24251" pt_clust_4="14000.00000" pt_clust_5="56.30750" pt_clust_6="55.79518"></scales>
<clustering>
<clus scale="   56.308">  1  5  2 -1</clus>
<clus scale="   55.795">  2  6  1 -1</clus>
<clus scale="  102.243">  1  3  2 -1</clus>
<clus scale="   56.308">  1  3  2 -1</clus>
</clustering>
</event>
<event>
 6    0  0.7258365E+002  0.1249490E+03  0.7546771E-02  0.1235149E+00
          2   -1    0    0  504    0 -0.00000000000E+00  0.00000000000E+00  0.53814846548E+03  0.53814846548E+03  0.00000000000E+00 0. -1.
         21   -1    0    0  505  502  0.00000000000E+00 -0.00000000000E+00 -0.14299692256E+04  0.14299692256E+04  0.00000000000E+00 0. -1.
         21    1    1    2  503  502  0.12384886539E+03  0.36301906959E+02 -0.11919378847E+04  0.11989046212E+04  0.00000000000E+00 0. -1.
         21    1    1    2  504  503 -0.10513458528E+03  0.61943934393E+02  0.45005249160E+02  0.13006077227E+03  0.00000000000E+00 0. -1.
         21    1    1    2  505  501 -0.58030720047E+02 -0.12419411019E+03 -0.16607283695E+03  0.21534142344E+03  0.00000000000E+00 0. -1.
          2    1    1    2  501    0  0.39316439936E+02  0.25948268842E+02  0.42118471235E+03  0.42381087412E+03  0.00000000000E+00 0. -1.
<scales pt_clust_3="14000.00000" pt_clust_4="111.07457" pt_clust_5="124.94904" pt_clust_6="47.10727"></scales>
<clustering>
<clus scale="   47.107">  1  6  2 -1</clus>
<clus scale="  111.075">  1  4  2 -1</clus>
<clus scale="  124.949">  1  5  2 -1</clus>
<clus scale="  124.949">  2  3  1 -1</clus>
</clustering>
</event>
<event>
 6    0  0.7258365E+002  0.8677471E+02  0.7546771E-02  0.1310856E+00
          2   -1    0    0  503    0 -0.00000000000E+00  0.00000000000E+00  0.97172807034E+03  0.97172807034E+03  0.00000000000E+00 0.  1.
         21   -1    0    0  504  502  0.00000000000E+00 -0.00000000000E+00 -0.75191701917E+03  0.75191701917E+03  0.00000000000E+00 0.  1.
         21    1    1    2  503  505 -0.16668588146E+02  0.78614044721E+02  0.19693268968E+01  0.80385870068E+02  0.00000000000E+00 0. -1.
         21    1    1    2  504  501 -0.47489103765E+02 -0.16785435540E+02 -0.45989714430E+03  0.46264711083E+03  0.00000000000E+00 0.  1.
         21    1    1    2  505  502  0.10320938434E+03 -0.51252200646E+02 -0.23776324823E+03  0.26421644025E+03  0.00000000000E+00 0.  1.
          2    1    1    2  501    0 -0.39051692425E+02 -0.10576408535E+02  0.91550211681E+03  0.91639566836E+03  0.00000000000E+00 0.  1.
<scales pt_clust_3="14000.00000" pt_clust_4="51.36286" pt_clust_5="86.77471" pt_clust_6="40.45856"></scales>
<clustering>
<clus scale="   40.459">  1  6  2 -1</clus>
<clus scale="   51.363">  2  4  1 -1</clus>
<clus scale="   86.775">  2  5  1 -1</clus>
<clus scale="   51.363">  2  3  1 -1</clus>
</clustering>
</event>
<event>
 6    0  0.7258365E+002  0.6783860E+02  0.7546771E-02  0.1367601E+00
         21   -1    0    0  505  502  0.00000000000E+00  0.00000000000E+00  0.21494070578E+03  0.21494070578E+03  0.00000000000E+00 0. -1.
          1   -1    0    0  503    0 -0.00000000000E+00 -0.00000000000E+00 -0.30558850695E+03  0.30558850695E+03  0.00000000000E+00 0.  1.
         21    1    1    2  503  504 -0.60134945498E+02  0.20020182139E+02  0.66057705599E+02  0.91545834596E+02  0.00000000000E+00 0. -1.
         21    1    1    2  504  502  0.25364739890E+02  0.32071606164E+02  0.74253102721E+02  0.84767217811E+02  0.00000000000E+00 0. -1.
         21    1    1    2  505  501  0.27847317144E+02 -0.98934608177E+02  0.56323229116E+01  0.10293324453E+03  0.00000000000E+00 0. -1.
          1    1    1    2  501    0  0.69228884638E+01  0.46842819874E+02 -0.23659093241E+03  0.24128291580E+03  0.00000000000E+00 0.  1.
<scales pt_clust_3="14000.00000" pt_clust_4="40.88958" pt_clust_5="67.83860" pt_clust_6="47.96675"></scales>
<clustering>
<clus scale="   40.890">  1  4  2 -1</clus>
<clus scale="   47.967">  2  6  1 -1</clus>
<clus scale="   67.839">  2  5  1 -1</clus>
<clus scale="   40.890">  1  3  2 -1</clus>
</clustering>
</event>
<event>
 6    0  0.7258365E+002  0.8240031E+02  0.7546771E-02  0.1322374E+00
         21   -1    0    0  503  502  0.00000000000E+00  0.00000000000E+00  0.10217466999E+03  0.10217466999E+03  0.00000000000E+00 0. -1.
          2   -1    0    0  504    0 -0.00000000000E+00 -0.00000000000E+00 -0.22377449618E+04  0.22377449618E+04  0.00000000000E+00 0.  1.
         21    1    1    2  503  501 -0.55604408654E+02 -0.10974531763E+02 -0.51843647754E+02  0.76811811732E+02  0.00000000000E+00 0.  1.
         21    1    1    2  504  505  0.14324983126E+03  0.52178030926E+02  0.88408032983E+01  0.15271287067E+03  0.00000000000E+00 0. -1.
         21    1    1    2  505  502 -0.64708560749E+01 -0.51719271361E+02 -0.75937976921E+02  0.92105001749E+02  0.00000000000E+00 0.  1.
          2    1    1    2  501    0 -0.81174566528E+02  0.10515772198E+02 -0.20166294704E+04  0.20182899476E+04  0.00000000000E+00 0.  1.
<scales pt_clust_3="59.21329" pt_clust_4="82.40031" pt_clust_5="52.12250" pt_clust_6="14000.00000"></scales>
<clustering>
<clus scale="   52.123">  1  5  2 -1</clus>
<clus scale="   59.213">  1  3  2 -1</clus>
<clus scale="   82.400">  1  4  2 -1</clus>
<clus scale="   52.123">  1  3  2 -1</clus>
</clustering>
</event>
<event>
 6    0  0.7258365E+002  0.9326735E+02  0.7546771E-02  0.1295127E+00
         -1   -1    0    0    0  501 -0.00000000000E+00  0.00000000000E+00  0.16137493295E+03  0.16137493295E+03  0.00000000000E+00 0.  1.
         21   -1    0    0  504  502  0.00000000000E+00 -0.00000000000E+00 -0.47894371571E+03  0.47894371571E+03  0.00000000000E+00 0. -1.
         21    1    1    2  503  502  0.14627840743E+02 -0.99455312989E+02 -0.17685102818E+03  0.20342472607E+03  0.00000000000E+00 0. -1.
         21    1    1    2  504  505 -0.17657022931E+02  0.64715857488E+02 -0.56791850349E+02  0.87893270136E+02  0.00000000000E+00 0. -1.
         21    1    1    2  505  501 -0.87759908228E+02  0.94284653518E+01 -0.18854783855E+03  0.20818497754E+03  0.00000000000E+00 0. -1.
         -1    1    1    2    0  503  0.90789090415E+02  0.25310990150E+02  0.10462193433E+03  0.14081567492E+03  0.00000000000E+00 0.  1.
<scales pt_clust_3="69.48508" pt_clust_4="67.08139" pt_clust_5="14000.00000" pt_clust_6="93.26735"></scales>
<clustering>
<clus scale="   67.081">  2  4  1 -1</clus>
<clus scale="   69.485">  2  3  1 -1</clus>
<clus scale="   93.267">  1  6  2 -1</clus>
<clus scale="   67.081">  2  3  1 -1</clus>
</clustering>
</event>
<event>
 6    0  0.7258365E+002  0.1336436E+03  0.7546771E-02  0.1222147E+00
         21   -1    0    0  504  502  0.00000000000E+00  0.00000000000E+00  0.16528235133E+03  0.16528235133E+03  0.00000000000E+00 0.  1.
          2   -1    0    0  503    0 -0.00000000000E+00 -0.00000000000E+00 -0.21294731987E+04  0.21294731987E+04  0.00000000000E+00 0. -1.
         21    1    1    2  503  502  0.41256792009E+02  0.44430366985E+02  0.11365671781E+03  0.12881781670E+03  0.00000000000E+00 0.  1.
         21    1    1    2  504  505  0.11087427103E+03 -0.77211420457E+02 -0.96281053280E+02  0.16590584271E+03  0.00000000000E+00 0. -1.
         21    1    1    2  505  501 -0.11174580087E+03  0.11722238107E+02 -0.34507563432E+03  0.36290732740E+03  0.00000000000E+00 0. -1.
          2    1    1    2  501    0 -0.40385262162E+02  0.21058815364E+02 -0.16364908775E+04  0.16371245632E+04  0.00000000000E+00 0. -1.
<scales pt_clust_3="60.44990" pt_clust_4="14000.00000" pt_clust_5="133.64363" pt_clust_6="45.54605"></scales>
<clustering>
<clus scale="   45.546">  2  6  1 -1</clus>
<clus scale="   60.450">  1  3  2 -1</clus>
<clus scale="  133.644">  2  5  1 -1</clus>
<clus scale="   60.450">  1  3  2 -1</clus>
</clustering>
</event>
<event>
 6    0  0.7258365E+002  0.8718903E+02  0.7546771E-02  0.1309805E+00
          2   -1    0    0  505    0 -0.00000000000E+00  0.00000000000E+00  0.24656661722E+04  0.24656661722E+04  0.00000000000E+00 0.  1.
         21   -1    0    0  503  502  0.00000000000E+00 -0.00000000000E+00 -0.20765556365E+02  0.20765556365E+02  0.00000000000E+00 0.  1.
         21    1    1    2  503  501  0.37472811228E+02 -0.23942895032E+02  0.73603368656E+02  0.85993776992E+02  0.00000000000E+00 0.  1.
         21    1    1    2  504  502 -0.74310742411E+02  0.20182798441E+02  0.19788682980E+03  0.21234083263E+03  0.00000000000E+00 0.  1.
         21    1    1    2  505  504  0.53020187912E+02  0.87755095327E+02  0.41041869675E+03  0.42303144531E+03  0.00000000000E+00 0.  1.
          2    1    1    2  501    0 -0.16182256729E+02 -0.83994998736E+02  0.17629917207E+04  0.17650656737E+04  0.00000000000E+00 0.  1.
<scales pt_clust_3="44.46880" pt_clust_4="56.33972" pt_clust_5="14000.00000" pt_clust_6="87.18903"></scales>
<clustering>
<clus scale="   44.469">  2  3  1 -1</clus>
<clus scale="   56.340">  2  4  1 -1</clus>
<clus scale="   87.189">  1  6  2 -1</clus>
<clus scale="   44.469">  2  3  1 -1</clus>
</clustering>
</event>
<event>
 6    0  0.7258365E+002  0.1098214E+03  0.7546771E-02  0.1260901E+00
          2   -1    0    0  505    0 -0.00000000000E+00  0.00000000000E+00  0.17910804194E+04  0.17910804194E+04  0.00000000000E+00 0. -1.
         21   -1    0    0  501  502  0.00000000000E+00 -0.00000000000E+00 -0.60982593073E+02  0.60982593073E+02  0.00000000000E+00 0. -1.
         21    1    1    2  503  504  0.10538424061E+03  0.46722647446E+02  0.12615545830E+03  0.17089190622E+03  0.00000000000E+00 0. -1.
         21    1    1    2  504  502 -0.24555773984E+02  0.34660333629E+02 -0.16476773720E+02  0.45561045153E+02  0.00000000000E+00 0. -1.
         21    1    1    2  505  503 -0.72182350228E+02  0.32800027387E+02  0.30222947488E+03  0.31245605926E+03  0.00000000000E+00 0.  1.
          2    1    1    2  501    0 -0.86461163972E+01 -0.11418300846E+03  0.13181896668E+04  0.13231540018E+04  0.00000000000E+00 0. -1.
<scales pt_clust_3="109.82143" pt_clust_4="42.47734" pt_clust_5="85.62498" pt_clust_6="14000.00000"></scales>
<clustering>
<clus scale="   42.477">  2  4  1 -1</clus>
<clus scale="   85.625">  1  5  2 -1</clus>
<clus scale="  109.821">  2  3  1 -1</clus>
<clus scale="   42.477">  2  3  1 -1</clus>
</clustering>
</event>
<event>
 6    0  0.7258365E+002  0.1022742E+03  0.7546771E-02  0.1275585E+00
          1   -1    0    0  503    0 -0.00000000000E+00  0.00000000000E+00  0.21027392858E+04  0.21027392858E+04  0.00000000000E+00 0.  1.
         21   -1    0    0  504  502  0.00000000000E+00 -0.00000000000E+00 -0.14517759471E+03  0.14517759471E+03  0.00000000000E+00 0. -1.
         21    1    1    2  503  502 -0.13092620238E+03  0.10384941849E+03 -0.43618530309E+02  0.17271059139E+03  0.00000000000E+00 0. -1.
         21    1    1    2  504  505 -0.41531720183E+01 -0.68949693662E+02  0.96952260184E+02  0.11904221877E+03  0.00000000000E+00 0. -1.
         21    1    1    2  505  501  0.72607919411E+02 -0.38893621165E+01  0.26880614953E+02  0.77521639296E+02  0.00000000000E+00 0. -1.
          1    1    1    2  501    0  0.62471454991E+02 -0.31010362714E+02  0.18773473463E+04  0.18786424311E+04  0.00000000000E+00 0.  1.
<scales pt_clust_3="102.27424" pt_clust_4="69.07466" pt_clust_5="14000.00000" pt_clust_6="69.87543"></scales>
<clustering>
<clus scale="   69.075">  2  4  1 -1</clus>
<clus scale="   69.875">  1  6  2 -1</clus>
<clus scale="  102.274">  2  3  1 -1</clus>
<clus scale="   69.075">  2  3  1 -1</clus>
</clustering>
</event>
<event>
 6    0  0.7258365E+002  0.9645077E+02  0.7546771E-02  0.1287942E+00
         21   -1    0    0  503  502  0.00000000000E+00  0.00000000000E+00  0.17095391674E+03  0.17095391674E+03  0.00000000000E+00 0. -1.
          2   -1    0    0  504    0 -0.00000000000E+00 -0.00000000000E+00 -0.80254683492E+03  0.80254683492E+03  0.00000000000E+00 0. -1.
         21    1    1    2  503  501 -0.55788997120E+02 -0.11011752290E+03  0.45793782790E+02  0.13166378238E+03  0.00000000000E+00 0. -1.
         21    1    1    2  504  505  0.59134837079E+02  0.96329898070E+02 -0.11400547055E+03  0.16054166292E+03  0.00000000000E+00 0. -1.
         21    1    1    2  505  502  0.17439032619E+02  0.36684323639E+02  0.51526061822E+02  0.65610932827E+02  0.00000000000E+00 0. -1.
          2    1    1    2  501    0 -0.20784872579E+02 -0.22896698807E+02 -0.61490729225E+03  0.61568437353E+03  0.00000000000E+00 0. -1.
<scales pt_clust_3="96.45077" pt_clust_4="14000.00000" pt_clust_5="39.50655" pt_clust_6="30.92361"></scales>
<clustering>
<clus scale="   30.924">  2  6  1 -1</clus>
<clus scale="   39.507">  1  5  2 -1</clus>
<clus scale="   96.451">  1  3  2 -1</clus>
<clus scale="   39.507">  1  3  2 -1</clus>
</clustering>
</event>
<event>
 6    0  0.7258365E+002  0.6321153E+02  0.7546771E-02  0.1384828E+00
         -1   -1    0    0    0  501 -0.00000000000E+00  0.00000000000E+00  0.10554113325E+03  0.10554113325E+03  0.00000000000E+00 0. -1.
         21   -1    0    0  505  502  0.00000000000E+00 -0.00000000000E+00 -0.99296218578E+03  0.99296218578E+03  0.00000000000E+00 0. -1.
         21    1    1    2  503  502  0.58975466760E+02 -0.20077709109E+02 -0.85771717326E+03  0.85997672607E+03  0.00000000000E+00 0. -1.
         21    1    1    2  504  503 -0.78161794621E+02  0.26602933388E+02 -0.47118860705E+02  0.95064027042E+02  0.00000000000E+00 0. -1.
         21    1    1    2  505  501  0.49258616204E+02  0.35157831432E+02 -0.35116144591E+02  0.69968764404E+02  0.00000000000E+00 0. -1.
         -1    1    1    2    0  504 -0.30072288343E+02 -0.41683055711E+02  0.52531126023E+02  0.73493801513E+02  0.00000000000E+00 0. -1.
<scales pt_clust_3="63.21153" pt_clust_4="14000.00000" pt_clust_5="41.12310" pt_clust_6="51.39863"></scales>
<clustering>
<clus scale="   51.399">  1  6  2 -1</clus>
<clus scale="   41.123">  1  5  2 -1</clus>
<clus scale="   63.212">  2  3  1 -1</clus>
<clus scale="   63.212">  2  3  1 -1</clus>
</clustering>
</event>
<event>
 6    0  0.7258365E+002  0.8911830E+02  0.7546771E-02  0.1305001E+00
         -3   -1    0    0    0  501 -0.00000000000E+00  0.00000000000E+00  0.13184198227E+03  0.13184198227E+03  0.00000000000E+00 0.  1.
         21   -1    0    0  505  502  0.00000000000E+00 -0.00000000000E+00 -0.30952075632E+03  0.30952075632E+03  0.00000000000E+00 0. -1.
         21    1    1    2  503  502  0.34907296701E+02  0.34693113265E+01 -0.43752039136E+02  0.56078484400E+02  0.00000000000E+00 0. -1.
         21    1    1    2  504  503 -0.44862557661E+02 -0.36594037107E+02 -0.25068102363E+02  0.63088686686E+02  0.00000000000E+00 0. -1.
         21    1    1    2  505  501 -0.80094707551E+02  0.27493864633E+02 -0.18543402709E+03  0.20385498074E+03  0.00000000000E+00 0. -1.
         -3    1    1    2    0  504  0.90049968511E+02  0.56308611479E+01  0.76575394545E+02  0.11834058677E+03  0.00000000000E+00 0.  1.
<scales pt_clust_3="35.07927" pt_clust_4="53.03153" pt_clust_5="89.11830" pt_clust_6="14000.00000"></scales>
<clustering>
<clus scale="   35.079">  2  3  1 -1</clus>
<clus scale="   53.032">  2  4  1 -1</clus>
<clus scale="   89.118">  2  5  1 -1</clus>
<clus scale="   35.079">  2  3  1 -1</clus>
</clustering>
</event>
<event>
 6    0  0.7258365E+002  0.7994721E+02  0.7546771E-02  0.1329201E+00
         21   -1    0    0  503  502  0.00000000000E+00  0.00000000000E+00  0.14972875511E+03  0.14972875511E+03  0.00000000000E+00 0.  1.
          2   -1    0    0  505    0 -0.00000000000E+00 -0.00000000000E+00 -0.26675766930E+04  0.26675766930E+04  0.00000000000E+00 0. -1.
         21    1    1    2  503  504  0.25378041437E+02 -0.30021706314E+02  0.10267910022E+03  0.10994701205E+03  0.00000000000E+00 0.  1.
         21    1    1    2  504  501 -0.97252302219E+02 -0.40379590654E+02 -0.43172747756E+03  0.44438399668E+03  0.00000000000E+00 0. -1.
         21    1    1    2  505  502  0.56523012365E+02  0.26208343872E+02  0.10495922802E+02  0.63181426154E+02  0.00000000000E+00 0.  1.
          2    1    1    2  501    0  0.15351248416E+02  0.44192953096E+02 -0.21992954833E+04  0.21997930132E+04  0.00000000000E+00 0. -1.
<scales pt_clust_3="39.31091" pt_clust_4="79.94721" pt_clust_5="14000.00000" pt_clust_6="46.66893"></scales>
<clustering>
<clus scale="   39.311">  1  3  2 -1</clus>
<clus scale="   46.669">  2  6  1 -1</clus>
<clus scale="   79.947">  2  4  1 -1</clus>
<clus scale="   39.311">  1  3  2 -1</clus>
</clustering>
</event>
<event>
 6    0  0.7258365E+002  0.1741344E+03  0.7546771E-02  0.1173604E+00
         21   -1    0    0  503  502  0.00000000000E+00  0.00000000000E+00  0.98763796178E+03  0.98763796178E+03  0.00000000000E+00 0. -1.
          2   -1    0    0  505    0 -0.00000000000E+00 -0.00000000000E+00 -0.75158299050E+03  0.75158299050E+03  0.00000000000E+00 0. -1.
         21    1    1    2  503  504 -0.30520307302E+02  0.36961795728E+02  0.76178839181E+03  0.76329497404E+03  0.00000000000E+00 0. -1.
         21    1    1    2  504  501 -0.33167347782E+02 -0.18431909890E+03  0.11576990251E+03  0.22017328063E+03  0.00000000000E+00 0. -1.
         21    1    1    2  505  502  0.21905130706E+02  0.21080058928E+03 -0.15303446426E+03  0.26141207020E+03  0.00000000000E+00 0. -1.
          2    1    1    2  501    0  0.41782524378E+02 -0.63443286113E+02 -0.48846885878E+03  0.49434062740E+03  0.00000000000E+00 0. -1.
<scales pt_clust_3="47.93395" pt_clust_4="174.13443" pt_clust_5="14000.00000" pt_clust_6="75.34445"></scales>
<clustering>
<clus scale="   47.934">  1  3  2 -1</clus>
<clus scale="   75.344">  2  6  1 -1</clus>
<clus scale="  174.134">  1  4  2 -1</clus>
<clus scale="   47.934">  1  3  2 -1</clus>
</clustering>
</event>
<event>
 6    0  0.7258365E+002  0.1809533E+03  0.7546771E-02  0.1166884E+00
         21   -1    0    0  503  502  0.00000000000E+00  0.00000000000E+00  0.51278571521E+03  0.51278571521E+03  0.00000000000E+00 0. -1.
          3   -1    0    0  505    0 -0.00000000000E+00 -0.00000000000E+00 -0.85943125965E+03  0.85943125965E+03  0.00000000000E+00 0. -1.
         21    1    1    2  503  501 -0.61449225633E+02 -0.12071830720E+03  0.41633826870E+02  0.14171200571E+03  0.00000000000E+00 0. -1.
         21    1    1    2  504  502 -0.37539986543E+02 -0.49110121550E+02  0.39774137000E+03  0.40251615127E+03  0.00000000000E+00 0. -1.
         21    1    1    2  505  504  0.92178856258E+01  0.42501802514E+02 -0.22944098716E+02  0.49171173448E+02  0.00000000000E+00 0. -1.
          3    1    1    2  501    0  0.89771326550E+02  0.12732662623E+03 -0.76307664259E+03  0.77881764443E+03  0.00000000000E+00 0. -1.
<scales pt_clust_3="14000.00000" pt_clust_4="61.70056" pt_clust_5="43.48991" pt_clust_6="180.95333"></scales>
<clustering>
<clus scale="   43.490">  2  5  1 -1</clus>
<clus scale="   61.701">  1  4  2 -1</clus>
<clus scale="  180.953">  2  6  1 -1</clus>
<clus scale="   61.701">  1  3  2 -1</clus>
</clustering>
</event>
<event>
 6    0  0.7258365E+002  0.7591259E+02  0.7546771E-02  0.1341068E+00
         21   -1    0    0  505  502  0.00000000000E+00  0.00000000000E+00  0.25413514759E+03  0.25413514759E+03  0.00000000000E+00 0.  1.
         -1   -1    0    0    0  501 -0.00000000000E+00 -0.00000000000E+00 -0.58751281423E+03  0.58751281423E+03  0.00000000000E+00 0. -1.
         21    1    1    2  503  501  0.19362705363E+01  0.85237381377E+02 -0.52086253989E+02  0.99910650995E+02  0.00000000000E+00 0.  1.
         21    1    1    2  504  502 -0.12603567308E+00  0.33821291878E+02  0.54836041937E+02  0.64427378999E+02  0.00000000000E+00 0.  1.
         21    1    1    2  505  503 -0.25205743268E+02 -0.99490723759E+02  0.15463775921E+03  0.18559787224E+03  0.00000000000E+00 0.  1.
         -1    1    1    2    0  504  0.23395508404E+02 -0.19567949497E+02 -0.49076521380E+03  0.49171205958E+03  0.00000000000E+00 0. -1.
<scales pt_clust_3="75.91259" pt_clust_4="32.86300" pt_clust_5="14000.00000" pt_clust_6="30.50007"></scales>
<clustering>
<clus scale="   30.500">  2  6  1 -1</clus>
<clus scale="   32.863">  1  4  2 -1</clus>
<clus scale="   75.913">  2  3  1 -1</clus>
<clus scale="   32.863">  1  3  2 -1</clus>
</clustering>
</event>
<event>
 6    0  0.7258365E+002  0.9184013E+02  0.7546771E-02  0.1298456E+00
         21   -1    0    0  505  502  0.00000000000E+00  0.00000000000E+00  0.11280491272E+04  0.11280491272E+04  0.00000000000E+00 0. -1.
          1   -1    0    0  503    0 -0.00000000000E+00 -0.00000000000E+00 -0.33291958198E+03  0.33291958198E+03  0.00000000000E+00 0. -1.
         21    1    1    2  503  504 -0.46654684248E+02  0.54291482456E+02  0.37054126630E+02  0.80605415016E+02  0.00000000000E+00 0. -1.
         21    1    1    2  504  502  0.52703420037E+02  0.64924604627E+02  0.10066591496E+04  0.10101264764E+04  0.00000000000E+00 0. -1.
         21    1    1    2  505  501 -0.20463316831E+02 -0.24601889540E+02  0.48506799783E+02  0.58111185928E+02  0.00000000000E+00 0. -1.
          1    1    1    2  501    0  0.14414581042E+02 -0.94614197543E+02 -0.29709053085E+03  0.31212563182E+03  0.00000000000E+00 0. -1.
<scales pt_clust_3="91.84013" pt_clust_4="53.60210" pt_clust_5="32.00000" pt_clust_6="14000.00000"></scales>
<clustering>
<clus scale="   32.000">  1  5  2 -1</clus>
<clus scale="   53.602">  1  4  2 -1</clus>
<clus scale="   91.840">  1  3  2 -1</clus>
<clus scale="   32.000">  1  3  2 -1</clus>
</clustering>
</event>
<event>
 6    0  0.7258365E+002  0.1886206E+03  0.7546771E-02  0.1159711E+00
          1   -1    0    0  505    0 -0.00000000000E+00  0.00000000000E+00  0.10667103943E+04  0.10667103943E+04  0.00000000000E+00 0. -1.
         21   -1    0    0  504  502  0.00000000000E+00 -0.00000000000E+00 -0.14678181957E+03  0.14678181957E+03  0.00000000000E+00 0. -1.
         21    1    1    2  503  501  0.11477930247E+03 -0.48114845281E+02 -0.12437238998E+01  0.12446233752E+03  0.00000000000E+00 0. -1.
         21    1    1    2  504  503  0.45448842673E+02  0.59244831021E+02 -0.26817137706E+02  0.79339184377E+02  0.00000000000E+00 0. -1.
         21    1    1    2  505  502  0.28434119251E+02 -0.77876067290E+02  0.67976289321E+02  0.10720987316E+03  0.00000000000E+00 0. -1.
          1    1    1    2  501    0 -0.18866226439E+03  0.66746081551E+02  0.88001314704E+03  0.90248081884E+03  0.00000000000E+00 0. -1.
<scales pt_clust_3="14000.00000" pt_clust_4="74.66959" pt_clust_5="75.67597" pt_clust_6="188.62056"></scales>
<clustering>
<clus scale="   74.670">  2  4  1 -1</clus>
<clus scale="   75.676">  2  5  1 -1</clus>
<clus scale="  188.621">  1  6  2 -1</clus>
<clus scale="   74.670">  2  3  1 -1</clus>
</clustering>
</event>
<event>
 6    0  0.7258365E+002  0.9253792E+02  0.7546771E-02  0.1296820E+00
          1   -1    0    0  502    0 -0.00000000000E+00  0.00000000000E+00  0.36078385718E+03  0.36078385718E+03  0.00000000000E+00 0.  1.
         21   -1    0    0  503  502  0.00000000000E+00 -0.00000000000E+00 -0.38003322208E+03  0.38003322208E+03  0.00000000000E+00 0. -1.
         21    1    1    2  503  505 -0.91835834333E+01 -0.33849200496E+02 -0.28148802588E+03  0.28366461762E+03  0.00000000000E+00 0. -1.
         21    1    1    2  504  501 -0.71111762095E+02 -0.67267931747E+02 -0.59780811229E+01  0.98069336714E+02  0.00000000000E+00 0. -1.
         21    1    1    2  505  504  0.64754880445E+02  0.67251218608E+02  0.52681854667E+01  0.93507618533E+02  0.00000000000E+00 0. -1.
          1    1    1    2  501    0  0.15540465083E+02  0.33865913634E+02  0.26294855663E+03  0.26557550639E+03  0.00000000000E+00 0.  1.
<scales pt_clust_3="35.07288" pt_clust_4="92.53792" pt_clust_5="14000.00000" pt_clust_6="36.79515"></scales>
<clustering>
<clus scale="   35.073">  2  3  1 -1</clus>
<clus scale="   36.795">  1  6  2 -1</clus>
<clus scale="   92.538">  1  4  2 -1</clus>
<clus scale="   35.073">  2  3  1 -1</clus>
</clustering>
</event>
<event>
 6    0  0.7258365E+002  0.1020332E+03  0.7546771E-02  0.1276078E+00
         21   -1    0    0  504  502  0.00000000000E+00  0.00000000000E+00  0.21469655027E+04  0.21469655027E+04  0.00000000000E+00 0.  1.
          1   -1    0    0  505    0 -0.00000000000E+00 -0.00000000000E+00 -0.27829543703E+04  0.27829543703E+04  0.00000000000E+00 0. -1.
         21    1    1    2  503  501 -0.37052549145E+02 -0.10836186606E+03  0.89628655471E+01  0.11487174750E+03  0.00000000000E+00 0.  1.
         21    1    1    2  504  503  0.10484406445E+03  0.83204976439E+02  0.17729076324E+04  0.17779529856E+04  0.00000000000E+00 0.  1.
         21    1    1    2  505  502 -0.35579595812E+02 -0.99930033291E+01  0.30830592103E+03  0.31051297669E+03  0.00000000000E+00 0.  1.
          1    1    1    2  501    0 -0.32211919490E+02  0.35149892954E+02 -0.27261652866E+04  0.27265821632E+04  0.00000000000E+00 0. -1.
<scales pt_clust_3="14000.00000" pt_clust_4="102.03315" pt_clust_5="36.95630" pt_clust_6="47.67917"></scales>
<clustering>
<clus scale="   36.956">  1  5  2 -1</clus>
<clus scale="   47.679">  2  6  1 -1</clus>
<clus scale="  102.033">  1  4  2 -1</clus>
<clus scale="   36.956">  1  3  2 -1</clus>
</clustering>
</event>
<event>
 6    0  0.7258365E+002  0.8339982E+02  0.7546771E-02  0.1319671E+00
          2   -1    0    0  505    0 -0.00000000000E+00  0.00000000000E+00  0.61599897231E+03  0.61599897231E+03  0.00000000000E+00 0.  1.
         21   -1    0    0  503  502  0.00000000000E+00 -0.00000000000E+00 -0.22637953053E+03  0.22637953053E+03  0.00000000000E+00 0. -1.
         21    1    1    2  503  501  0.87018530088E+02 -0.90643683623E+01  0.41858900483E+02  0.96987395584E+02  0.00000000000E+00 0.  1.
         21    1    1    2  504  502 -0.56545520566E+02 -0.67194941521E+02 -0.18013722395E+03  0.20040452968E+03  0.00000000000E+00 0. -1.
         21    1    1    2  505  504 -0.43527943259E+02  0.38020252306E+02  0.10247498307E+03  0.11764923962E+03  0.00000000000E+00 0.  1.
          2    1    1    2  501    0  0.13054933737E+02  0.38239057578E+02  0.42542278218E+03  0.42733733796E+03  0.00000000000E+00 0.  1.
<scales pt_clust_3="83.39982" pt_clust_4="14000.00000" pt_clust_5="70.13099" pt_clust_6="40.40615"></scales>
<clustering>
<clus scale="   40.406">  1  6  2 -1</clus>
<clus scale="   70.131">  1  5  2 -1</clus>
<clus scale="   83.400">  1  3  2 -1</clus>
<clus scale="   83.400">  2  3  1 -1</clus>
</clustering>
</event>
