<event>
 5    0  0.5626800E-005  0.2535872E+03  0.7546771E-02  0.1111059E+00
         21   -1    0    0  502  501  0.00000000000E+00  0.00000000000E+00  0.92835887093E+02  0.92835887093E+02  0.00000000000E+00 0.  1.
         21   -1    0    0  501  502 -0.00000000000E+00 -0.00000000000E+00 -0.69268991293E+03  0.69268991293E+03  0.00000000000E+00 0.  1.
         25    1    1    2    0    0 -0.44115771027E+02 -0.10915397121E+02 -0.25435285392E+03  0.28702912996E+03  0.12500000000E+03 0.  0.
         25    1    1    2    0    0 -0.19328763543E+02  0.12208488821E+03 -0.13134787512E+03  0.21944380904E+03  0.12500000000E+03 0.  0.
         25    1    1    2    0    0  0.63444534570E+02 -0.11116949109E+03 -0.21415329681E+03  0.27905286103E+03  0.12500000000E+03 0.  0.
</event>
<event>
 5    0  0.5626800E-005  0.4111260E+03  0.7546771E-02  0.1039994E+00
         21   -1    0    0  502  501  0.00000000000E+00  0.00000000000E+00  0.15156825375E+03  0.15156825375E+03  0.00000000000E+00 0.  1.
         21   -1    0    0  501  502 -0.00000000000E+00 -0.00000000000E+00 -0.11151715452E+04  0.11151715452E+04  0.00000000000E+00 0.  1.
         25    1    1    2    0    0  0.12614705907E+03  0.12596279447E+03 -0.43301723494E+03  0.48467373754E+03  0.12500000000E+03 0.  0.
         25    1    1    2    0    0  0.99450982380E+02 -0.20538897442E+03 -0.11031804031E+03  0.28261316092E+03  0.12500000000E+03 0.  0.
         25    1    1    2    0    0 -0.22559804145E+03  0.79426179952E+02 -0.42026801616E+03  0.49945290045E+03  0.12500000000E+03 0.  0.
</event>
<event>
 5    0  0.5626800E-005  0.2449179E+03  0.7546771E-02  0.1116559E+00
         21   -1    0    0  502  501  0.00000000000E+00  0.00000000000E+00  0.12719623453E+03  0.12719623453E+03  0.00000000000E+00 0.  1.
         21   -1    0    0  501  502 -0.00000000000E+00 -0.00000000000E+00 -0.47159239646E+03  0.47159239646E+03  0.00000000000E+00 0.  1.
         25    1    1    2    0    0 -0.79840566905E+02 -0.35064000006E+02 -0.25756797724E+01  0.15243239271E+03  0.12500000000E+03 0.  0.
         25    1    1    2    0    0  0.60476817558E+02 -0.17428802898E+02 -0.23142554735E+03  0.27045146070E+03  0.12500000000E+03 0.  0.
         25    1    1    2    0    0  0.19363749347E+02  0.52492802904E+02 -0.11039493481E+03  0.17590477759E+03  0.12500000000E+03 0.  0.
</event>
<event>
 5    0  0.5626800E-005  0.3890292E+03  0.7546771E-02  0.1047646E+00
         21   -1    0    0  502  501  0.00000000000E+00  0.00000000000E+00  0.32180447753E+03  0.32180447753E+03  0.00000000000E+00 0.  1.
         21   -1    0    0  501  502 -0.00000000000E+00 -0.00000000000E+00 -0.47029703556E+03  0.47029703556E+03  0.00000000000E+00 0.  1.
         25    1    1    2    0    0  0.25948295116E+03  0.11548278944E+03 -0.71254205386E+01  0.31039241005E+03  0.12500000000E+03 0.  0.
         25    1    1    2    0    0 -0.28029779569E+03 -0.39909442146E+02 -0.67756967555E+02  0.31682112381E+03  0.12500000000E+03 0.  0.
         25    1    1    2    0    0  0.20814844531E+02 -0.75573347298E+02 -0.73610169935E+02  0.16488797922E+03  0.12500000000E+03 0.  0.
</event>
<event>
 5    0  0.5626800E-005  0.2136642E+03  0.7546771E-02  0.1138697E+00
         21   -1    0    0  502  501  0.00000000000E+00  0.00000000000E+00  0.15827687577E+04  0.15827687577E+04  0.00000000000E+00 0.  1.
         21   -1    0    0  501  502 -0.00000000000E+00 -0.00000000000E+00 -0.28843363007E+02  0.28843363007E+02  0.00000000000E+00 0.  1.
         25    1    1    2    0    0 -0.51658794700E+01  0.20610895836E+02  0.34076297702E+03  0.36358754358E+03  0.12500000000E+03 0.  0.
         25    1    1    2    0    0 -0.63556219084E+01  0.35048100925E+02  0.84788977925E+03  0.85779417174E+03  0.12500000000E+03 0.  0.
         25    1    1    2    0    0  0.11521501378E+02 -0.55658996761E+02  0.36527263847E+03  0.39023040544E+03  0.12500000000E+03 0.  0.
</event>
<event>
 5    0  0.5626800E-005  0.2671379E+03  0.7546771E-02  0.1102929E+00
         21   -1    0    0  502  501  0.00000000000E+00  0.00000000000E+00  0.11375903355E+03  0.11375903355E+03  0.00000000000E+00 0.  1.
         21   -1    0    0  501  502 -0.00000000000E+00 -0.00000000000E+00 -0.62731419483E+03  0.62731419483E+03  0.00000000000E+00 0.  1.
         25    1    1    2    0    0  0.41626996535E+02 -0.19459553121E+02 -0.29162656448E+03  0.32059715245E+03  0.12500000000E+03 0.  0.
         25    1    1    2    0    0 -0.29605207426E+02  0.12187491513E+03 -0.49517486336E+02  0.18386664923E+03  0.12500000000E+03 0.  0.
         25    1    1    2    0    0 -0.12021789109E+02 -0.10241536201E+03 -0.17241111047E+03  0.23660942670E+03  0.12500000000E+03 0.  0.
</event>
<event>
 5    0  0.5626800E-005  0.5171982E+03  0.7546771E-02  0.1009385E+00
         21   -1    0    0  502  501  0.00000000000E+00  0.00000000000E+00  0.78929822600E+03  0.78929822600E+03  0.00000000000E+00 0.  1.
         21   -1    0    0  501  502 -0.00000000000E+00 -0.00000000000E+00 -0.33890104242E+03  0.33890104242E+03  0.00000000000E+00 0.  1.
         25    1    1    2    0    0 -0.12979303306E+03  0.37587694570E+03 -0.30673633559E+02  0.41796600524E+03  0.12500000000E+03 0.  0.
         25    1    1    2    0    0  0.13601808651E+03 -0.87257559602E+02  0.14940491791E+03  0.25310399259E+03  0.12500000000E+03 0.  0.
         25    1    1    2    0    0 -0.62250534567E+01 -0.28861938610E+03  0.33166589922E+03  0.45712927059E+03  0.12500000000E+03 0.  0.
</event>
<event>
 5    0  0.5626800E-005  0.2694608E+03  0.7546771E-02  0.1101589E+00
         21   -1    0    0  502  501  0.00000000000E+00  0.00000000000E+00  0.80483659604E+02  0.80483659604E+02  0.00000000000E+00 0. -1.
         21   -1    0    0  501  502 -0.00000000000E+00 -0.00000000000E+00 -0.90215974133E+03  0.90215974133E+03  0.00000000000E+00 0. -1.
         25    1    1    2    0    0 -0.13657965585E+02  0.97609643886E+02 -0.67089469957E+02  0.17274310285E+03  0.12500000000E+03 0.  0.
         25    1    1    2    0    0 -0.52309934632E+02 -0.55262313749E+02 -0.39360830703E+03  0.41993184202E+03  0.12500000000E+03 0.  0.
         25    1    1    2    0    0  0.65967900217E+02 -0.42347330137E+02 -0.36097830474E+03  0.38996845606E+03  0.12500000000E+03 0.  0.
</event>
<event>
 5    0  0.5626800E-005  0.3445160E+03  0.7546771E-02  0.1064889E+00
         21   -1    0    0  502  501  0.00000000000E+00  0.00000000000E+00  0.56525618062E+03  0.56525618062E+03  0.00000000000E+00 0. -1.
         21   -1    0    0  501  502 -0.00000000000E+00 -0.00000000000E+00 -0.20997787455E+03  0.20997787455E+03  0.00000000000E+00 0.  1.
         25    1    1    2    0    0 -0.20399299397E+03  0.78176756091E+02 -0.35707595831E+01  0.25171908371E+03  0.12500000000E+03 0.  0.
         25    1    1    2    0    0  0.11660360430E+03 -0.85541455221E+01  0.30081190214E+03  0.34609590349E+03  0.12500000000E+03 0.  0.
         25    1    1    2    0    0  0.87389389666E+02 -0.69622610569E+02  0.58037163516E+02  0.17741906796E+03  0.12500000000E+03 0.  0.
</event>
<event>
 5    0  0.6141697E-005  0.2985626E+03  0.7546771E-02  0.1085961E+00
         21   -1    0    0  502  501  0.00000000000E+00  0.00000000000E+00  0.24409900904E+03  0.24409900904E+03  0.00000000000E+00 0.  1.
         21   -1    0    0  501  502 -0.00000000000E+00 -0.00000000000E+00 -0.36517808192E+03  0.36517808192E+03  0.00000000000E+00 0.  1.
         25    1    1    2    0    0 -0.12197133595E+03  0.14026216594E+03 -0.11271453981E+02  0.22428225000E+03  0.12500000000E+03 0.  0.
         25    1    1    2    0    0  0.13657842875E+03 -0.16476299776E+02 -0.92505656560E+02  0.20762329385E+03  0.12500000000E+03 0.  0.
         25    1    1    2    0    0 -0.14607092807E+02 -0.12378586617E+03 -0.17301962343E+02  0.17737154711E+03  0.12500000000E+03 0.  0.
</event>
<event>
 5    0  0.5626800E-005  0.3348360E+03  0.7546771E-02  0.1069017E+00
         21   -1    0    0  502  501  0.00000000000E+00  0.00000000000E+00  0.16452559699E+03  0.16452559699E+03  0.00000000000E+00 0. -1.
         21   -1    0    0  501  502 -0.00000000000E+00 -0.00000000000E+00 -0.68144483435E+03  0.68144483435E+03  0.00000000000E+00 0. -1.
         25    1    1    2    0    0 -0.10498565578E+03  0.20330122666E+02 -0.77814890667E+02  0.18197653425E+03  0.12500000000E+03 0.  0.
         25    1    1    2    0    0  0.12299945395E+03  0.41376767008E+02 -0.48398900816E+03  0.51644095746E+03  0.12500000000E+03 0.  0.
         25    1    1    2    0    0 -0.18013798163E+02 -0.61706889674E+02  0.44884661469E+02  0.14755293963E+03  0.12500000000E+03 0.  0.
</event>
<event>
 5    0  0.5626800E-005  0.4258372E+03  0.7546771E-02  0.1035183E+00
         21   -1    0    0  502  501  0.00000000000E+00  0.00000000000E+00  0.22703361225E+03  0.22703361225E+03  0.00000000000E+00 0. -1.
         21   -1    0    0  501  502 -0.00000000000E+00 -0.00000000000E+00 -0.79872445853E+03  0.79872445853E+03  0.00000000000E+00 0. -1.
         25    1    1    2    0    0 -0.22904044529E+03 -0.80750855923E+02 -0.10283942825E+03  0.29185814073E+03  0.12500000000E+03 0.  0.
         25    1    1    2    0    0 -0.80466512487E+02  0.18918256030E+02 -0.33862660073E+03  0.37030492134E+03  0.12500000000E+03 0.  0.
         25    1    1    2    0    0  0.30950695777E+03  0.61832599894E+02 -0.13022481730E+03  0.36359500871E+03  0.12500000000E+03 0.  0.
</event>
<event>
 5    0  0.5626800E-005  0.2683852E+03  0.7546771E-02  0.1102207E+00
         21   -1    0    0  502  501  0.00000000000E+00  0.00000000000E+00  0.23115069684E+03  0.23115069684E+03  0.00000000000E+00 0.  1.
         21   -1    0    0  501  502 -0.00000000000E+00 -0.00000000000E+00 -0.31161752907E+03  0.31161752907E+03  0.00000000000E+00 0.  1.
         25    1    1    2    0    0  0.10484148074E+03  0.45658579829E+02  0.51867704851E+02  0.17717703238E+03  0.12500000000E+03 0.  0.
         25    1    1    2    0    0  0.14427368024E+02 -0.89785591244E+02 -0.22622193610E+02  0.15622536602E+03  0.12500000000E+03 0.  0.
         25    1    1    2    0    0 -0.11926884876E+03  0.44127011414E+02 -0.10971234347E+03  0.20936582751E+03  0.12500000000E+03 0.  0.
</event>
<event>
 5    0  0.5626800E-005  0.2460033E+03  0.7546771E-02  0.1115857E+00
         21   -1    0    0  502  501  0.00000000000E+00  0.00000000000E+00  0.34541708629E+03  0.34541708629E+03  0.00000000000E+00 0. -1.
         21   -1    0    0  501  502 -0.00000000000E+00 -0.00000000000E+00 -0.17520158476E+03  0.17520158476E+03  0.00000000000E+00 0. -1.
         25    1    1    2    0    0 -0.18854092557E+02  0.18544031776E+02 -0.52090461961E+02  0.13797744072E+03  0.12500000000E+03 0.  0.
         25    1    1    2    0    0 -0.36300764795E+02 -0.87079936020E+02  0.13401552865E+03  0.20612089341E+03  0.12500000000E+03 0.  0.
         25    1    1    2    0    0  0.55154857352E+02  0.68535904245E+02  0.88290434850E+02  0.17652033692E+03  0.12500000000E+03 0.  0.
</event>
<event>
 5    0  0.5626800E-005  0.2891931E+03  0.7546771E-02  0.1090771E+00
         21   -1    0    0  502  501  0.00000000000E+00  0.00000000000E+00  0.17877945810E+03  0.17877945810E+03  0.00000000000E+00 0. -1.
         21   -1    0    0  501  502 -0.00000000000E+00 -0.00000000000E+00 -0.46779799978E+03  0.46779799978E+03  0.00000000000E+00 0. -1.
         25    1    1    2    0    0 -0.58694390830E+02 -0.41959737869E+00 -0.18608000499E+03  0.23172392158E+03  0.12500000000E+03 0.  0.
         25    1    1    2    0    0 -0.85051598901E+01 -0.14975171413E+03 -0.48732667443E+02  0.20124061843E+03  0.12500000000E+03 0.  0.
         25    1    1    2    0    0  0.67199550720E+02  0.15017131151E+03 -0.54205869254E+02  0.21361291786E+03  0.12500000000E+03 0.  0.
</event>
<event>
 5    0  0.5626800E-005  0.2679457E+03  0.7546771E-02  0.1102461E+00
         21   -1    0    0  502  501  0.00000000000E+00  0.00000000000E+00  0.10733600265E+04  0.10733600265E+04  0.00000000000E+00 0.  1.
         21   -1    0    0  501  502 -0.00000000000E+00 -0.00000000000E+00 -0.66887977277E+02  0.66887977277E+02  0.00000000000E+00 0.  1.
         25    1    1    2    0    0  0.66138463775E+02  0.40830457079E+01  0.35845644663E+03  0.38536604908E+03  0.12500000000E+03 0.  0.
         25    1    1    2    0    0 -0.10564292381E+03 -0.21839831682E+02  0.58592405878E+03  0.60874412380E+03  0.12500000000E+03 0.  0.
         25    1    1    2    0    0  0.39504460036E+02  0.17756785974E+02  0.62091543836E+02  0.14613783092E+03  0.12500000000E+03 0.  0.
</event>
<event>
 5    0  0.6686371E-005  0.3586123E+03  0.7546771E-02  0.1059135E+00
         21   -1    0    0  502  501  0.00000000000E+00  0.00000000000E+00  0.41122274380E+03  0.41122274380E+03  0.00000000000E+00 0. -1.
         21   -1    0    0  501  502 -0.00000000000E+00 -0.00000000000E+00 -0.31273264893E+03  0.31273264893E+03  0.00000000000E+00 0. -1.
         25    1    1    2    0    0  0.12759713024E+03 -0.15966469164E+03 -0.13416917171E+03  0.27459098317E+03  0.12500000000E+03 0.  0.
         25    1    1    2    0    0 -0.55717764682E+02  0.17648476897E+03  0.76301402686E+02  0.23600476061E+03  0.12500000000E+03 0.  0.
         25    1    1    2    0    0 -0.71879365561E+02 -0.16820077328E+02  0.15635786389E+03  0.21335964894E+03  0.12500000000E+03 0.  0.
</event>
<event>
 5    0  0.5626800E-005  0.3046295E+03  0.7546771E-02  0.1082949E+00
         21   -1    0    0  502  501  0.00000000000E+00  0.00000000000E+00  0.68934548461E+03  0.68934548461E+03  0.00000000000E+00 0.  1.
         21   -1    0    0  501  502 -0.00000000000E+00 -0.00000000000E+00 -0.13461920397E+03  0.13461920397E+03  0.00000000000E+00 0.  1.
         25    1    1    2    0    0  0.57044334496E+02 -0.76734811016E+02  0.16362398650E+03  0.22702443982E+03  0.12500000000E+03 0.  0.
         25    1    1    2    0    0  0.15313191497E+03  0.56187208359E+02  0.17301384194E+03  0.26863576692E+03  0.12500000000E+03 0.  0.
         25    1    1    2    0    0 -0.21017624946E+03  0.20547602657E+02  0.21808845219E+03  0.32830448184E+03  0.12500000000E+03 0.  0.
</event>
<event>
 5    0  0.5626800E-005  0.3750598E+03  0.7546771E-02  0.1052775E+00
         21   -1    0    0  502  501  0.00000000000E+00  0.00000000000E+00  0.12251827726E+04  0.12251827726E+04  0.00000000000E+00 0. -1.
         21   -1    0    0  501  502 -0.00000000000E+00 -0.00000000000E+00 -0.11481540263E+03  0.11481540263E+03  0.00000000000E+00 0. -1.
         25    1    1    2    0    0 -0.14155962113E+03  0.18068490380E+03  0.57063647728E+03  0.62764412688E+03  0.12500000000E+03 0.  0.
         25    1    1    2    0    0  0.20801327600E+03 -0.17185528197E+03  0.46520071293E+03  0.55212359508E+03  0.12500000000E+03 0.  0.
         25    1    1    2    0    0 -0.66453654872E+02 -0.88296218292E+01  0.74530179781E+02  0.16023045330E+03  0.12500000000E+03 0.  0.
</event>
<event>
 5    0  0.5626800E-005  0.2399257E+03  0.7546771E-02  0.1119842E+00
         21   -1    0    0  502  501  0.00000000000E+00  0.00000000000E+00  0.29605956945E+04  0.29605956945E+04  0.00000000000E+00 0.  1.
         21   -1    0    0  501  502 -0.00000000000E+00 -0.00000000000E+00 -0.19443492003E+02  0.19443492003E+02  0.00000000000E+00 0.  1.
         25    1    1    2    0    0  0.82762150595E+02  0.34084075984E+02  0.60159934738E+03  0.62093322715E+03  0.12500000000E+03 0.  0.
         25    1    1    2    0    0 -0.27712679474E+02 -0.10643883353E+02  0.16930131711E+04  0.16978809977E+04  0.12500000000E+03 0.  0.
         25    1    1    2    0    0 -0.55049471121E+02 -0.23440192632E+02  0.64653968405E+03  0.66122496169E+03  0.12500000000E+03 0.  0.
</event>
<event>
 5    0  0.5626800E-005  0.2212161E+03  0.7546771E-02  0.1132980E+00
         21   -1    0    0  502  501  0.00000000000E+00  0.00000000000E+00  0.25760318887E+03  0.25760318887E+03  0.00000000000E+00 0. -1.
         21   -1    0    0  501  502 -0.00000000000E+00 -0.00000000000E+00 -0.18996876035E+03  0.18996876035E+03  0.00000000000E+00 0. -1.
         25    1    1    2    0    0 -0.22044085181E+02 -0.73218280957E+02  0.63994472735E+02  0.15989731361E+03  0.12500000000E+03 0.  0.
         25    1    1    2    0    0  0.26664643873E+00  0.50042860923E+02 -0.55682115786E+02  0.14570469124E+03  0.12500000000E+03 0.  0.
         25    1    1    2    0    0  0.21777438742E+02  0.23175420035E+02  0.59322071570E+02  0.14196994438E+03  0.12500000000E+03 0.  0.
</event>
<event>
 5    0  0.5626800E-005  0.4465884E+03  0.7546771E-02  0.1028744E+00
         21   -1    0    0  502  501  0.00000000000E+00  0.00000000000E+00  0.47233670979E+03  0.47233670979E+03  0.00000000000E+00 0. -1.
         21   -1    0    0  501  502 -0.00000000000E+00 -0.00000000000E+00 -0.42224373291E+03  0.42224373291E+03  0.00000000000E+00 0. -1.
         25    1    1    2    0    0  0.16353112526E+03  0.11224500671E+03 -0.24969139708E+03  0.34250863381E+03  0.12500000000E+03 0.  0.
         25    1    1    2    0    0 -0.17412252959E+03 -0.81729224558E+02  0.41046991473E+01  0.22943445690E+03  0.12500000000E+03 0.  0.
         25    1    1    2    0    0  0.10591404332E+02 -0.30515782157E+02  0.29567967481E+03  0.32263735199E+03  0.12500000000E+03 0.  0.
</event>
<event>
 5    0  0.5626800E-005  0.3544719E+03  0.7546771E-02  0.1060794E+00
         21   -1    0    0  502  501  0.00000000000E+00  0.00000000000E+00  0.17357491679E+03  0.17357491679E+03  0.00000000000E+00 0. -1.
         21   -1    0    0  501  502 -0.00000000000E+00 -0.00000000000E+00 -0.72389686475E+03  0.72389686475E+03  0.00000000000E+00 0. -1.
         25    1    1    2    0    0 -0.10250020431E+03 -0.16555420629E+03 -0.34013151990E+03  0.41137444978E+03  0.12500000000E+03 0.  0.
         25    1    1    2    0    0  0.18649647612E+03  0.61573568495E+02 -0.19278268548E+03  0.30226214411E+03  0.12500000000E+03 0.  0.
         25    1    1    2    0    0 -0.83996271811E+02  0.10398063780E+03 -0.17407742578E+02  0.18383518765E+03  0.12500000000E+03 0.  0.
</event>
<event>
 5    0  0.5626800E-005  0.3798012E+03  0.7546771E-02  0.1051007E+00
         21   -1    0    0  502  501  0.00000000000E+00  0.00000000000E+00  0.17850790355E+03  0.17850790355E+03  0.00000000000E+00 0.  1.
         21   -1    0    0  501  502 -0.00000000000E+00 -0.00000000000E+00 -0.80808152205E+03  0.80808152205E+03  0.00000000000E+00 0.  1.
         25    1    1    2    0    0  0.43837114647E+02 -0.10635785719E+03 -0.67792786747E+02  0.18290584557E+03  0.12500000000E+03 0.  0.
         25    1    1    2    0    0  0.32629579775E+02 -0.14063899578E+03 -0.21967559165E+02  0.19222796432E+03  0.12500000000E+03 0.  0.
         25    1    1    2    0    0 -0.76466694422E+02  0.24699685297E+03 -0.53981327258E+03  0.61145561572E+03  0.12500000000E+03 0.  0.
</event>
<event>
 5    0  0.5626800E-005  0.2369425E+03  0.7546771E-02  0.1121847E+00
         21   -1    0    0  502  501  0.00000000000E+00  0.00000000000E+00  0.58881202800E+02  0.58881202800E+02  0.00000000000E+00 0.  1.
         21   -1    0    0  501  502 -0.00000000000E+00 -0.00000000000E+00 -0.95347448848E+03  0.95347448848E+03  0.00000000000E+00 0.  1.
         25    1    1    2    0    0 -0.10415471974E+02  0.10097653545E+02 -0.83846559120E+02  0.15121405404E+03  0.12500000000E+03 0.  0.
         25    1    1    2    0    0  0.33848818011E+02  0.55819801196E+02 -0.31522990006E+03  0.34533531905E+03  0.12500000000E+03 0.  0.
         25    1    1    2    0    0 -0.23433346037E+02 -0.65917454741E+02 -0.49551682649E+03  0.51580631819E+03  0.12500000000E+03 0.  0.
</event>
<event>
 5    0  0.5626800E-005  0.5105261E+03  0.7546771E-02  0.1011067E+00
         21   -1    0    0  502  501  0.00000000000E+00  0.00000000000E+00  0.63217385219E+03  0.63217385219E+03  0.00000000000E+00 0.  1.
         21   -1    0    0  501  502 -0.00000000000E+00 -0.00000000000E+00 -0.41228681259E+03  0.41228681259E+03  0.00000000000E+00 0.  1.
         25    1    1    2    0    0 -0.76059862358E+02 -0.20235348725E+03  0.38280164060E+03  0.45704937645E+03  0.12500000000E+03 0.  0.
         25    1    1    2    0    0 -0.13198412565E+03  0.29143763535E+02 -0.21678138199E+03  0.28440874803E+03  0.12500000000E+03 0.  0.
         25    1    1    2    0    0  0.20804398801E+03  0.17320972371E+03  0.53866780988E+02  0.30300254030E+03  0.12500000000E+03 0.  0.
</event>
<event>
 5    0  0.5626800E-005  0.2402899E+03  0.7546771E-02  0.1119600E+00
         21   -1    0    0  502  501  0.00000000000E+00  0.00000000000E+00  0.73675194412E+03  0.73675194412E+03  0.00000000000E+00 0.  1.
         21   -1    0    0  501  502 -0.00000000000E+00 -0.00000000000E+00 -0.78369964760E+02  0.78369964760E+02  0.00000000000E+00 0.  1.
         25    1    1    2    0    0  0.28263148903E+02  0.87981041114E+02  0.29183319710E+03  0.33065251263E+03  0.12500000000E+03 0.  0.
         25    1    1    2    0    0 -0.44356909043E+02  0.37687531164E+02  0.14186356265E+03  0.19783365688E+03  0.12500000000E+03 0.  0.
         25    1    1    2    0    0  0.16093760140E+02 -0.12566857228E+03  0.22468521961E+03  0.28663573937E+03  0.12500000000E+03 0.  0.
</event>
<event>
 5    0  0.5626800E-005  0.2222729E+03  0.7546771E-02  0.1132200E+00
         21   -1    0    0  502  501  0.00000000000E+00  0.00000000000E+00  0.68766668781E+03  0.68766668781E+03  0.00000000000E+00 0.  1.
         21   -1    0    0  501  502 -0.00000000000E+00 -0.00000000000E+00 -0.71844751348E+02  0.71844751348E+02  0.00000000000E+00 0.  1.
         25    1    1    2    0    0  0.52983667636E+02  0.23006779692E+02  0.17167745563E+03  0.22007891703E+03  0.12500000000E+03 0.  0.
         25    1    1    2    0    0  0.54689260634E+02  0.10612003874E+02  0.22005474973E+03  0.25913823094E+03  0.12500000000E+03 0.  0.
         25    1    1    2    0    0 -0.10767292827E+03 -0.33618783566E+02  0.22408973110E+03  0.28029429119E+03  0.12500000000E+03 0.  0.
</event>
<event>
 5    0  0.6029420E-005  0.2657676E+03  0.7546771E-02  0.1103727E+00
         21   -1    0    0  502  501  0.00000000000E+00  0.00000000000E+00  0.19729835563E+03  0.19729835563E+03  0.00000000000E+00 0. -1.
         21   -1    0    0  501  502 -0.00000000000E+00 -0.00000000000E+00 -0.35799793089E+03  0.35799793089E+03  0.00000000000E+00 0. -1.
         25    1    1    2    0    0 -0.10858055004E+03  0.93206177618E+02 -0.14911324235E+03  0.24153030128E+03  0.12500000000E+03 0.  0.
         25    1    1    2    0    0  0.83250033101E+02  0.36909193225E+01 -0.27773650336E+02  0.15277619759E+03  0.12500000000E+03 0.  0.
         25    1    1    2    0    0  0.25330516938E+02 -0.96897096941E+02  0.16187317421E+02  0.16098978765E+03  0.12500000000E+03 0.  0.
</event>
<event>
 5    0  0.5626800E-005  0.3348483E+03  0.7546771E-02  0.1069012E+00
         21   -1    0    0  502  501  0.00000000000E+00  0.00000000000E+00  0.13583062108E+04  0.13583062108E+04  0.00000000000E+00 0.  1.
         21   -1    0    0  501  502 -0.00000000000E+00 -0.00000000000E+00 -0.82546447639E+02  0.82546447639E+02  0.00000000000E+00 0.  1.
         25    1    1    2    0    0 -0.15475689684E+02  0.22633741686E+00  0.28855105281E+02  0.12921751159E+03  0.12500000000E+03 0.  0.
         25    1    1    2    0    0  0.66531736981E+02 -0.11742660532E+03  0.92773964163E+03  0.94580194666E+03  0.12500000000E+03 0.  0.
         25    1    1    2    0    0 -0.51056047297E+02  0.11720026791E+03  0.31916501626E+03  0.36583320020E+03  0.12500000000E+03 0.  0.
</event>
<event>
 5    0  0.5626800E-005  0.2626946E+03  0.7546771E-02  0.1105535E+00
         21   -1    0    0  502  501  0.00000000000E+00  0.00000000000E+00  0.64112585495E+02  0.64112585495E+02  0.00000000000E+00 0. -1.
         21   -1    0    0  501  502 -0.00000000000E+00 -0.00000000000E+00 -0.10763639232E+04  0.10763639232E+04  0.00000000000E+00 0. -1.
         25    1    1    2    0    0  0.38270515979E+02  0.36131899834E+02 -0.47435675502E+03  0.49336546050E+03  0.12500000000E+03 0.  0.
         25    1    1    2    0    0 -0.66739239085E+02 -0.75632088381E+02 -0.10018246707E+03  0.18930363318E+03  0.12500000000E+03 0.  0.
         25    1    1    2    0    0  0.28468723106E+02  0.39500188547E+02 -0.43771211562E+03  0.45780741503E+03  0.12500000000E+03 0.  0.
</event>
<event>
 5    0  0.5626800E-005  0.2395417E+03  0.7546771E-02  0.1120099E+00
         21   -1    0    0  502  501  0.00000000000E+00  0.00000000000E+00  0.11366411700E+04  0.11366411700E+04  0.00000000000E+00 0. -1.
         21   -1    0    0  501  502 -0.00000000000E+00 -0.00000000000E+00 -0.50482262554E+02  0.50482262554E+02  0.00000000000E+00 0. -1.
         25    1    1    2    0    0  0.65741521978E+02  0.83787639748E+02  0.30977111970E+03  0.35060727729E+03  0.12500000000E+03 0.  0.
         25    1    1    2    0    0  0.30989464017E+02  0.59303637332E+01  0.35114738131E+03  0.37406550161E+03  0.12500000000E+03 0.  0.
         25    1    1    2    0    0 -0.96730985995E+02 -0.89718003481E+02  0.42524040642E+03  0.46245065364E+03  0.12500000000E+03 0.  0.
</event>
<event>
 5    0  0.5626800E-005  0.2828843E+03  0.7546771E-02  0.1094124E+00
         21   -1    0    0  502  501  0.00000000000E+00  0.00000000000E+00  0.51501407167E+03  0.51501407167E+03  0.00000000000E+00 0.  1.
         21   -1    0    0  501  502 -0.00000000000E+00 -0.00000000000E+00 -0.15538120151E+03  0.15538120151E+03  0.00000000000E+00 0.  1.
         25    1    1    2    0    0  0.16389078140E+03 -0.70133185933E+02  0.13982337996E+03  0.25875554019E+03  0.12500000000E+03 0.  0.
         25    1    1    2    0    0 -0.22103830970E+02 -0.34506000196E+02  0.73187369950E+02  0.15053449609E+03  0.12500000000E+03 0.  0.
         25    1    1    2    0    0 -0.14178695043E+03  0.10463918613E+03  0.14662212026E+03  0.26110523690E+03  0.12500000000E+03 0.  0.
</event>
<event>
 5    0  0.5626800E-005  0.2865930E+03  0.7546771E-02  0.1092141E+00
         21   -1    0    0  502  501  0.00000000000E+00  0.00000000000E+00  0.21593349817E+03  0.21593349817E+03  0.00000000000E+00 0.  1.
         21   -1    0    0  501  502 -0.00000000000E+00 -0.00000000000E+00 -0.38037433819E+03  0.38037433819E+03  0.00000000000E+00 0. -1.
         25    1    1    2    0    0 -0.84120686974E+02  0.10129801140E+03 -0.13610092966E+03  0.22690535504E+03  0.12500000000E+03 0.  0.
         25    1    1    2    0    0  0.14932472515E+03 -0.11548637325E+03 -0.11347939056E+02  0.22669087249E+03  0.12500000000E+03 0.  0.
         25    1    1    2    0    0 -0.65204038181E+02  0.14188361856E+02 -0.16991971310E+02  0.14271160883E+03  0.12500000000E+03 0.  0.
</event>
<event>
 5    0  0.5626800E-005  0.4833590E+03  0.7546771E-02  0.1018216E+00
         21   -1    0    0  502  501  0.00000000000E+00  0.00000000000E+00  0.69226036851E+03  0.69226036851E+03  0.00000000000E+00 0.  1.
         21   -1    0    0  501  502 -0.00000000000E+00 -0.00000000000E+00 -0.33749713005E+03  0.33749713005E+03  0.00000000000E+00 0.  1.
         25    1    1    2    0    0 -0.30558718844E+03  0.56462310781E+02 -0.10995367899E+03  0.35254266947E+03  0.12500000000E+03 0.  0.
         25    1    1    2    0    0  0.26714831013E+03 -0.14040611337E+03  0.24607877000E+03  0.40897659752E+03  0.12500000000E+03 0.  0.
         25    1    1    2    0    0  0.38438878312E+02  0.83943802584E+02  0.21863814745E+03  0.26823823157E+03  0.12500000000E+03 0.  0.
</event>
<event>
 5    0  0.5626800E-005  0.2739111E+03  0.7546771E-02  0.1099062E+00
         21   -1    0    0  502  501  0.00000000000E+00  0.00000000000E+00  0.75049895379E+03  0.75049895379E+03  0.00000000000E+00 0. -1.
         21   -1    0    0  501  502 -0.00000000000E+00 -0.00000000000E+00 -0.99969912550E+02  0.99969912550E+02  0.00000000000E+00 0. -1.
         25    1    1    2    0    0 -0.60171423474E+02 -0.23556296890E+02  0.23504788382E+03  0.27394891315E+03  0.12500000000E+03 0.  0.
         25    1    1    2    0    0 -0.10077033390E+03  0.61922338827E+02  0.10012322610E+03  0.19909469266E+03  0.12500000000E+03 0.  0.
         25    1    1    2    0    0  0.16094175738E+03 -0.38366041937E+02  0.31535793132E+03  0.37742526054E+03  0.12500000000E+03 0.  0.
</event>
<event>
 5    0  0.5626800E-005  0.3613263E+03  0.7546771E-02  0.1058060E+00
         21   -1    0    0  502  501  0.00000000000E+00  0.00000000000E+00  0.11809166580E+04  0.11809166580E+04  0.00000000000E+00 0.  1.
         21   -1    0    0  501  502 -0.00000000000E+00 -0.00000000000E+00 -0.11055536428E+03  0.11055536428E+03  0.00000000000E+00 0.  1.
         25    1    1    2    0    0 -0.21278053505E+03  0.15314494029E+03  0.50337226398E+03  0.58115192934E+03  0.12500000000E+03 0.  0.
         25    1    1    2    0    0  0.85813696015E+02 -0.18407814574E+03  0.39094854596E+03  0.45794597908E+03  0.12500000000E+03 0.  0.
         25    1    1    2    0    0  0.12696683903E+03  0.30933205454E+02  0.17604048374E+03  0.25237411382E+03  0.12500000000E+03 0.  0.
</event>
<event>
 5    0  0.5626800E-005  0.3175094E+03  0.7546771E-02  0.1076801E+00
         21   -1    0    0  502  501  0.00000000000E+00  0.00000000000E+00  0.38680922434E+03  0.38680922434E+03  0.00000000000E+00 0. -1.
         21   -1    0    0  501  502 -0.00000000000E+00 -0.00000000000E+00 -0.26062510423E+03  0.26062510423E+03  0.00000000000E+00 0. -1.
         25    1    1    2    0    0 -0.65751279570E+02 -0.56726982855E+02 -0.85510714105E+02  0.17458024967E+03  0.12500000000E+03 0.  0.
         25    1    1    2    0    0 -0.97653800945E+02 -0.54084652496E+02  0.16374934049E+03  0.23430804720E+03  0.12500000000E+03 0.  0.
         25    1    1    2    0    0  0.16340508052E+03  0.11081163535E+03  0.47945493731E+02  0.23854603169E+03  0.12500000000E+03 0.  0.
</event>
<event>
 5    0  0.5626800E-005  0.4310417E+03  0.7546771E-02  0.1033531E+00
         21   -1    0    0  502  501  0.00000000000E+00  0.00000000000E+00  0.43308788601E+03  0.43308788601E+03  0.00000000000E+00 0.  1.
         21   -1    0    0  501  502 -0.00000000000E+00 -0.00000000000E+00 -0.42900517861E+03  0.42900517861E+03  0.00000000000E+00 0.  1.
         25    1    1    2    0    0 -0.72625426388E+02 -0.15852887851E+03 -0.12418296650E+03  0.24789567775E+03  0.12500000000E+03 0.  0.
         25    1    1    2    0    0  0.23373376155E+03  0.11817256391E+03  0.24144477142E+03  0.37751397828E+03  0.12500000000E+03 0.  0.
         25    1    1    2    0    0 -0.16110833516E+03  0.40356314599E+02 -0.11317909752E+03  0.23668340859E+03  0.12500000000E+03 0.  0.
</event>
<event>
 5    0  0.5626800E-005  0.2883978E+03  0.7546771E-02  0.1091189E+00
         21   -1    0    0  502  501  0.00000000000E+00  0.00000000000E+00  0.22261266382E+03  0.22261266382E+03  0.00000000000E+00 0. -1.
         21   -1    0    0  501  502 -0.00000000000E+00 -0.00000000000E+00 -0.37362346327E+03  0.37362346327E+03  0.00000000000E+00 0. -1.
         25    1    1    2    0    0 -0.51114101581E+01 -0.15386805154E+03 -0.14981013977E+03  0.24853487034E+03  0.12500000000E+03 0.  0.
         25    1    1    2    0    0 -0.61706423282E+01  0.18022827943E+03  0.15311387889E+01  0.21942573669E+03  0.12500000000E+03 0.  0.
         25    1    1    2    0    0  0.11282052486E+02 -0.26360227891E+02 -0.27317984749E+01  0.12827552006E+03  0.12500000000E+03 0.  0.
</event>
<event>
 5    0  0.5660819E-005  0.3433982E+03  0.7546771E-02  0.1065358E+00
         21   -1    0    0  502  501  0.00000000000E+00  0.00000000000E+00  0.20976592374E+03  0.20976592374E+03  0.00000000000E+00 0.  1.
         21   -1    0    0  501  502 -0.00000000000E+00 -0.00000000000E+00 -0.56216136080E+03  0.56216136080E+03  0.00000000000E+00 0.  1.
         25    1    1    2    0    0 -0.14539518905E+03 -0.20143979281E+02  0.23179191113E+02  0.19418500406E+03  0.12500000000E+03 0.  0.
         25    1    1    2    0    0  0.18142304436E+03 -0.38301432677E+02 -0.60140776782E+02  0.23156690999E+03  0.12500000000E+03 0.  0.
         25    1    1    2    0    0 -0.36027855311E+02  0.58445411957E+02 -0.31543385139E+03  0.34617537050E+03  0.12500000000E+03 0.  0.
</event>
<event>
 5    0  0.5626800E-005  0.3194258E+03  0.7546771E-02  0.1075914E+00
         21   -1    0    0  502  501  0.00000000000E+00  0.00000000000E+00  0.36495836735E+03  0.36495836735E+03  0.00000000000E+00 0. -1.
         21   -1    0    0  501  502 -0.00000000000E+00 -0.00000000000E+00 -0.27957397175E+03  0.27957397175E+03  0.00000000000E+00 0. -1.
         25    1    1    2    0    0  0.17518433037E+03  0.42886203108E+02  0.94278833452E+02  0.23883524543E+03  0.12500000000E+03 0.  0.
         25    1    1    2    0    0 -0.15978407497E+03 -0.36545512901E+02 -0.11923366150E+03  0.23813481720E+03  0.12500000000E+03 0.  0.
         25    1    1    2    0    0 -0.15400255398E+02 -0.63406902069E+01  0.11033922365E+03  0.16756227647E+03  0.12500000000E+03 0.  0.
</event>
<event>
 5    0  0.5626800E-005  0.2998571E+03  0.7546771E-02  0.1085312E+00
         21   -1    0    0  502  501  0.00000000000E+00  0.00000000000E+00  0.17508337469E+03  0.17508337469E+03  0.00000000000E+00 0.  1.
         21   -1    0    0  501  502 -0.00000000000E+00 -0.00000000000E+00 -0.51355108705E+03  0.51355108705E+03  0.00000000000E+00 0.  1.
         25    1    1    2    0    0 -0.27482311111E+02 -0.13155271928E+02  0.18233968939E+01  0.12867269866E+03  0.12500000000E+03 0.  0.
         25    1    1    2    0    0  0.76776813526E+02 -0.16517229813E+03 -0.15587877930E+03  0.27036967470E+03  0.12500000000E+03 0.  0.
         25    1    1    2    0    0 -0.49294502415E+02  0.17832757006E+03 -0.18441232996E+03  0.28959208838E+03  0.12500000000E+03 0.  0.
</event>
<event>
 5    0  0.5626800E-005  0.4340963E+03  0.7546771E-02  0.1032574E+00
         21   -1    0    0  502  501  0.00000000000E+00  0.00000000000E+00  0.11958331015E+04  0.11958331015E+04  0.00000000000E+00 0.  1.
         21   -1    0    0  501  502 -0.00000000000E+00 -0.00000000000E+00 -0.15758021162E+03  0.15758021162E+03  0.00000000000E+00 0.  1.
         25    1    1    2    0    0 -0.46355175861E+02  0.13817376282E+03  0.59850890829E+03  0.62855286521E+03  0.12500000000E+03 0.  0.
         25    1    1    2    0    0  0.72202930911E+01 -0.11428083863E+03 -0.80632926282E+02  0.18772030127E+03  0.12500000000E+03 0.  0.
         25    1    1    2    0    0  0.39134882770E+02 -0.23892924196E+02  0.52037690788E+03  0.53714014664E+03  0.12500000000E+03 0.  0.
</event>
<event>
 5    0  0.5626800E-005  0.2208770E+03  0.7546771E-02  0.1133231E+00
         21   -1    0    0  502  501  0.00000000000E+00  0.00000000000E+00  0.56520071185E+02  0.56520071185E+02  0.00000000000E+00 0. -1.
         21   -1    0    0  501  502 -0.00000000000E+00 -0.00000000000E+00 -0.86317359894E+03  0.86317359894E+03  0.00000000000E+00 0. -1.
         25    1    1    2    0    0 -0.14988364957E+02  0.50998578293E+01 -0.86947257672E+02  0.15308652864E+03  0.12500000000E+03 0.  0.
         25    1    1    2    0    0 -0.12020937222E+02  0.20931863808E+02 -0.27296654680E+03  0.30119492281E+03  0.12500000000E+03 0.  0.
         25    1    1    2    0    0  0.27009302179E+02 -0.26031721637E+02 -0.44673972329E+03  0.46541221868E+03  0.12500000000E+03 0.  0.
</event>
<event>
 5    0  0.5626800E-005  0.3213252E+03  0.7546771E-02  0.1075041E+00
         21   -1    0    0  502  501  0.00000000000E+00  0.00000000000E+00  0.76285061117E+03  0.76285061117E+03  0.00000000000E+00 0. -1.
         21   -1    0    0  501  502 -0.00000000000E+00 -0.00000000000E+00 -0.13534743917E+03  0.13534743917E+03  0.00000000000E+00 0. -1.
         25    1    1    2    0    0 -0.16614233206E+03  0.45635871426E+02  0.91693108846E+02  0.23177258999E+03  0.12500000000E+03 0.  0.
         25    1    1    2    0    0  0.75799074205E+02 -0.21313484057E+02  0.49719525345E+02  0.15587429375E+03  0.12500000000E+03 0.  0.
         25    1    1    2    0    0  0.90343257854E+02 -0.24322387369E+02  0.48609053781E+03  0.51055116660E+03  0.12500000000E+03 0.  0.
</event>
<event>
 5    0  0.5626800E-005  0.4441102E+03  0.7546771E-02  0.1029493E+00
         21   -1    0    0  502  501  0.00000000000E+00  0.00000000000E+00  0.48702500315E+03  0.48702500315E+03  0.00000000000E+00 0. -1.
         21   -1    0    0  501  502 -0.00000000000E+00 -0.00000000000E+00 -0.40497689140E+03  0.40497689140E+03  0.00000000000E+00 0. -1.
         25    1    1    2    0    0  0.34953320549E+03  0.40869888407E+02 -0.13589798788E+03  0.39741297491E+03  0.12500000000E+03 0.  0.
         25    1    1    2    0    0 -0.14357284773E+03 -0.99233158645E+01  0.14941862509E+03  0.24220355143E+03  0.12500000000E+03 0.  0.
         25    1    1    2    0    0 -0.20596035775E+03 -0.30946572543E+02  0.68527474538E+02  0.25238536821E+03  0.12500000000E+03 0.  0.
</event>
<event>
 5    0  0.5626800E-005  0.4366136E+03  0.7546771E-02  0.1031791E+00
         21   -1    0    0  502  501  0.00000000000E+00  0.00000000000E+00  0.26228342226E+03  0.26228342226E+03  0.00000000000E+00 0.  1.
         21   -1    0    0  501  502 -0.00000000000E+00 -0.00000000000E+00 -0.72681471942E+03  0.72681471942E+03  0.00000000000E+00 0.  1.
         25    1    1    2    0    0  0.86462774919E+02  0.13179160200E+03  0.52369964510E+02  0.20787604717E+03  0.12500000000E+03 0.  0.
         25    1    1    2    0    0 -0.98127583972E+02 -0.18098152917E+02 -0.57910607179E+03  0.60078732365E+03  0.12500000000E+03 0.  0.
         25    1    1    2    0    0  0.11664809053E+02 -0.11369344908E+03  0.62204810119E+02  0.18043477086E+03  0.12500000000E+03 0.  0.
</event>
<event>
 5    0  0.5626800E-005  0.3921489E+03  0.7546771E-02  0.1046533E+00
         21   -1    0    0  502  501  0.00000000000E+00  0.00000000000E+00  0.12220905728E+03  0.12220905728E+03  0.00000000000E+00 0. -1.
         21   -1    0    0  501  502 -0.00000000000E+00 -0.00000000000E+00 -0.12583417156E+04  0.12583417156E+04  0.00000000000E+00 0. -1.
         25    1    1    2    0    0  0.85403650365E+02  0.31692876377E+02 -0.24260677459E+03  0.28771734217E+03  0.12500000000E+03 0.  0.
         25    1    1    2    0    0  0.18081036312E+03 -0.10318073332E+03 -0.13883115405E+03  0.27971010077E+03  0.12500000000E+03 0.  0.
         25    1    1    2    0    0 -0.26621401348E+03  0.71487856945E+02 -0.75469472968E+03  0.81312332993E+03  0.12500000000E+03 0.  0.
</event>
<event>
 5    0  0.5626800E-005  0.3510086E+03  0.7546771E-02  0.1062202E+00
         21   -1    0    0  502  501  0.00000000000E+00  0.00000000000E+00  0.31034795235E+03  0.31034795235E+03  0.00000000000E+00 0. -1.
         21   -1    0    0  501  502 -0.00000000000E+00 -0.00000000000E+00 -0.39699637150E+03  0.39699637150E+03  0.00000000000E+00 0. -1.
         25    1    1    2    0    0 -0.78015375670E+00  0.25008962563E+03  0.68545925703E+02  0.28786971605E+03  0.12500000000E+03 0.  0.
         25    1    1    2    0    0  0.28183586620E+02 -0.29216855302E+02 -0.77827762078E+02  0.15274193838E+03  0.12500000000E+03 0.  0.
         25    1    1    2    0    0 -0.27403432863E+02 -0.22087277033E+03 -0.77366582775E+02  0.26673266942E+03  0.12500000000E+03 0.  0.
</event>
<event>
 5    0  0.5626800E-005  0.3839476E+03  0.7546771E-02  0.1049484E+00
         21   -1    0    0  502  501  0.00000000000E+00  0.00000000000E+00  0.17222281320E+03  0.17222281320E+03  0.00000000000E+00 0. -1.
         21   -1    0    0  501  502 -0.00000000000E+00 -0.00000000000E+00 -0.85595950194E+03  0.85595950194E+03  0.00000000000E+00 0. -1.
         25    1    1    2    0    0 -0.15125756291E+03  0.29014018431E+02 -0.14287436203E+03  0.24445602249E+03  0.12500000000E+03 0.  0.
         25    1    1    2    0    0  0.28640871571E+03 -0.39381256786E+02 -0.50607762000E+03  0.59608757182E+03  0.12500000000E+03 0.  0.
         25    1    1    2    0    0 -0.13515115280E+03  0.10367238356E+02 -0.34784706707E+02  0.18763872083E+03  0.12500000000E+03 0.  0.
</event>
<event>
 5    0  0.5626800E-005  0.3431938E+03  0.7546771E-02  0.1065444E+00
         21   -1    0    0  502  501  0.00000000000E+00  0.00000000000E+00  0.36745068036E+03  0.36745068036E+03  0.00000000000E+00 0. -1.
         21   -1    0    0  501  502 -0.00000000000E+00 -0.00000000000E+00 -0.32053818140E+03  0.32053818140E+03  0.00000000000E+00 0. -1.
         25    1    1    2    0    0 -0.96630100699E+02 -0.14869300791E+03 -0.79789594334E+01  0.21710746361E+03  0.12500000000E+03 0.  0.
         25    1    1    2    0    0  0.22689242105E+02  0.24299083278E+03 -0.33897316675E+02  0.27628495182E+03  0.12500000000E+03 0.  0.
         25    1    1    2    0    0  0.73940858594E+02 -0.94297824877E+02  0.88788775067E+02  0.19459644633E+03  0.12500000000E+03 0.  0.
</event>
<event>
 5    0  0.5626800E-005  0.3016398E+03  0.7546771E-02  0.1084424E+00
         21   -1    0    0  502  501  0.00000000000E+00  0.00000000000E+00  0.18613567582E+02  0.18613567582E+02  0.00000000000E+00 0.  1.
         21   -1    0    0  501  502 -0.00000000000E+00 -0.00000000000E+00 -0.48881862226E+04  0.48881862226E+04  0.00000000000E+00 0.  1.
         25    1    1    2    0    0  0.15907442484E+02 -0.21736372692E+03 -0.24857250503E+04  0.24983902942E+04  0.12500000000E+03 0.  0.
         25    1    1    2    0    0 -0.22078186506E+02  0.15873818483E+03 -0.13016310667E+04  0.13174041489E+04  0.12500000000E+03 0.  0.
         25    1    1    2    0    0  0.61707440221E+01  0.58625542091E+02 -0.10822165379E+04  0.10910053470E+04  0.12500000000E+03 0.  0.
</event>
<event>
 5    0  0.5626800E-005  0.2758447E+03  0.7546771E-02  0.1097980E+00
         21   -1    0    0  502  501  0.00000000000E+00  0.00000000000E+00  0.19202932752E+04  0.19202932752E+04  0.00000000000E+00 0. -1.
         21   -1    0    0  501  502 -0.00000000000E+00 -0.00000000000E+00 -0.39624307358E+02  0.39624307358E+02  0.00000000000E+00 0. -1.
         25    1    1    2    0    0 -0.21580298782E+02  0.50396971887E+02  0.36213854535E+03  0.38700760987E+03  0.12500000000E+03 0.  0.
         25    1    1    2    0    0 -0.13099433549E+03 -0.99464500832E+02  0.78841640628E+03  0.81503259600E+03  0.12500000000E+03 0.  0.
         25    1    1    2    0    0  0.15257463427E+03  0.49067528945E+02  0.73011401626E+03  0.75787737673E+03  0.12500000000E+03 0.  0.
</event>
<event>
 5    0  0.5626800E-005  0.2516113E+03  0.7546771E-02  0.1112291E+00
         21   -1    0    0  502  501  0.00000000000E+00  0.00000000000E+00  0.60270528872E+02  0.60270528872E+02  0.00000000000E+00 0. -1.
         21   -1    0    0  501  502 -0.00000000000E+00 -0.00000000000E+00 -0.10504012559E+04  0.10504012559E+04  0.00000000000E+00 0. -1.
         25    1    1    2    0    0  0.50520518740E+02 -0.34620067425E+01 -0.25790104519E+03  0.29103652248E+03  0.12500000000E+03 0.  0.
         25    1    1    2    0    0 -0.78165387642E+02  0.74369942625E+02 -0.60031590974E+03  0.62261136167E+03  0.12500000000E+03 0.  0.
         25    1    1    2    0    0  0.27644868903E+02 -0.70907935882E+02 -0.13191377208E+03  0.19702390061E+03  0.12500000000E+03 0.  0.
</event>
<event>
 5    0  0.5626800E-005  0.3299841E+03  0.7546771E-02  0.1071144E+00
         21   -1    0    0  502  501  0.00000000000E+00  0.00000000000E+00  0.58678841011E+03  0.58678841011E+03  0.00000000000E+00 0.  1.
         21   -1    0    0  501  502 -0.00000000000E+00 -0.00000000000E+00 -0.18556862961E+03  0.18556862961E+03  0.00000000000E+00 0.  1.
         25    1    1    2    0    0  0.30868761285E+02 -0.33915999857E+02 -0.11668501304E+02  0.13365750780E+03  0.12500000000E+03 0.  0.
         25    1    1    2    0    0  0.19186130819E+02 -0.17625002468E+03  0.28523031995E+03  0.35834831412E+03  0.12500000000E+03 0.  0.
         25    1    1    2    0    0 -0.50054892104E+02  0.21016602453E+03  0.12765796186E+03  0.28035121779E+03  0.12500000000E+03 0.  0.
</event>
<event>
 5    0  0.5626800E-005  0.2465220E+03  0.7546771E-02  0.1115523E+00
         21   -1    0    0  502  501  0.00000000000E+00  0.00000000000E+00  0.54291005782E+03  0.54291005782E+03  0.00000000000E+00 0. -1.
         21   -1    0    0  501  502 -0.00000000000E+00 -0.00000000000E+00 -0.11193950551E+03  0.11193950551E+03  0.00000000000E+00 0. -1.
         25    1    1    2    0    0  0.10692651477E+02  0.99751153110E+02  0.19012421122E+03  0.24867014504E+03  0.12500000000E+03 0.  0.
         25    1    1    2    0    0  0.58896802874E+02  0.20153183707E+02  0.89454874121E+02  0.16583774813E+03  0.12500000000E+03 0.  0.
         25    1    1    2    0    0 -0.69589454351E+02 -0.11990433682E+03  0.15139146696E+03  0.24034167015E+03  0.12500000000E+03 0.  0.
</event>
<event>
 5    0  0.5626800E-005  0.2945139E+03  0.7546771E-02  0.1088016E+00
         21   -1    0    0  502  501  0.00000000000E+00  0.00000000000E+00  0.88298969973E+03  0.88298969973E+03  0.00000000000E+00 0.  1.
         21   -1    0    0  501  502 -0.00000000000E+00 -0.00000000000E+00 -0.98232677999E+02  0.98232677999E+02  0.00000000000E+00 0.  1.
         25    1    1    2    0    0  0.10605942434E+03  0.16511144731E+03  0.20313081166E+03  0.30886488659E+03  0.12500000000E+03 0.  0.
         25    1    1    2    0    0 -0.96211769504E+02 -0.94227861197E+02  0.40287055738E+03  0.44279259300E+03  0.12500000000E+03 0.  0.
         25    1    1    2    0    0 -0.98476548306E+01 -0.70883586112E+02  0.17875565269E+03  0.22956489813E+03  0.12500000000E+03 0.  0.
</event>
<event>
 5    0  0.5626800E-005  0.2479400E+03  0.7546771E-02  0.1114614E+00
         21   -1    0    0  502  501  0.00000000000E+00  0.00000000000E+00  0.19281448586E+03  0.19281448586E+03  0.00000000000E+00 0.  1.
         21   -1    0    0  501  502 -0.00000000000E+00 -0.00000000000E+00 -0.31882581531E+03  0.31882581531E+03  0.00000000000E+00 0.  1.
         25    1    1    2    0    0 -0.12325123613E+03 -0.19618881102E+02  0.17026570115E+01  0.17664559645E+03  0.12500000000E+03 0.  0.
         25    1    1    2    0    0  0.13134071650E+02 -0.79621358101E+01 -0.10626930185E+03  0.16478490210E+03  0.12500000000E+03 0.  0.
         25    1    1    2    0    0  0.11011716448E+03  0.27581016912E+02 -0.21444684615E+02  0.17020980261E+03  0.12500000000E+03 0.  0.
</event>
<event>
 5    0  0.5626800E-005  0.2702207E+03  0.7546771E-02  0.1101153E+00
         21   -1    0    0  502  501  0.00000000000E+00  0.00000000000E+00  0.10272134940E+04  0.10272134940E+04  0.00000000000E+00 0.  1.
         21   -1    0    0  501  502 -0.00000000000E+00 -0.00000000000E+00 -0.71084767907E+02  0.71084767907E+02  0.00000000000E+00 0.  1.
         25    1    1    2    0    0  0.13829295641E+03 -0.84240706624E+02  0.21497922208E+03  0.29675327188E+03  0.12500000000E+03 0.  0.
         25    1    1    2    0    0 -0.95643569966E+02  0.29554279061E+02  0.43867640203E+03  0.46699371900E+03  0.12500000000E+03 0.  0.
         25    1    1    2    0    0 -0.42649386447E+02  0.54686427563E+02  0.30247310200E+03  0.33455127105E+03  0.12500000000E+03 0.  0.
</event>
<event>
 5    0  0.5626800E-005  0.2539868E+03  0.7546771E-02  0.1110811E+00
         21   -1    0    0  502  501  0.00000000000E+00  0.00000000000E+00  0.44388759658E+03  0.44388759658E+03  0.00000000000E+00 0.  1.
         21   -1    0    0  501  502 -0.00000000000E+00 -0.00000000000E+00 -0.14532794857E+03  0.14532794857E+03  0.00000000000E+00 0.  1.
         25    1    1    2    0    0  0.38644895064E+02 -0.71675025089E+02 -0.48258133250E+01  0.14926160126E+03  0.12500000000E+03 0.  0.
         25    1    1    2    0    0 -0.24208778151E+02 -0.13738610948E+02  0.24612826472E+03  0.27745078314E+03  0.12500000000E+03 0.  0.
         25    1    1    2    0    0 -0.14436116913E+02  0.85413636037E+02  0.57257196621E+02  0.16250316076E+03  0.12500000000E+03 0.  0.
</event>
<event>
 5    0  0.5626800E-005  0.2885156E+03  0.7546771E-02  0.1091127E+00
         21   -1    0    0  502  501  0.00000000000E+00  0.00000000000E+00  0.71456945647E+03  0.71456945647E+03  0.00000000000E+00 0.  1.
         21   -1    0    0  501  502 -0.00000000000E+00 -0.00000000000E+00 -0.11649149925E+03  0.11649149925E+03  0.00000000000E+00 0.  1.
         25    1    1    2    0    0  0.11193493358E+03 -0.70728368934E+02  0.17780980659E+03  0.25450591122E+03  0.12500000000E+03 0.  0.
         25    1    1    2    0    0 -0.15227173333E+03 -0.63310909223E+02  0.21368456686E+03  0.29745763750E+03  0.12500000000E+03 0.  0.
         25    1    1    2    0    0  0.40336799742E+02  0.13403927816E+03  0.20658358377E+03  0.27909740699E+03  0.12500000000E+03 0.  0.
</event>
<event>
 5    0  0.6030590E-005  0.3371730E+03  0.7546771E-02  0.1068006E+00
         21   -1    0    0  502  501  0.00000000000E+00  0.00000000000E+00  0.31180816103E+03  0.31180816103E+03  0.00000000000E+00 0. -1.
         21   -1    0    0  501  502 -0.00000000000E+00 -0.00000000000E+00 -0.36460128164E+03  0.36460128164E+03  0.00000000000E+00 0. -1.
         25    1    1    2    0    0 -0.12649677017E+03 -0.79653024662E+02  0.19400207181E+02  0.19582493519E+03  0.12500000000E+03 0.  0.
         25    1    1    2    0    0 -0.89445029663E+02  0.11018324128E+03  0.57580947402E+02  0.19768997317E+03  0.12500000000E+03 0.  0.
         25    1    1    2    0    0  0.21594179984E+03 -0.30530216616E+02 -0.12977427519E+03  0.28289453431E+03  0.12500000000E+03 0.  0.
</event>
<event>
 5    0  0.5626800E-005  0.2300826E+03  0.7546771E-02  0.1126582E+00
         21   -1    0    0  502  501  0.00000000000E+00  0.00000000000E+00  0.23013717792E+03  0.23013717792E+03  0.00000000000E+00 0.  1.
         21   -1    0    0  501  502 -0.00000000000E+00 -0.00000000000E+00 -0.23002810507E+03  0.23002810507E+03  0.00000000000E+00 0.  1.
         25    1    1    2    0    0  0.30520695586E+02  0.32169632916E+02 -0.47040616753E+02  0.14072745917E+03  0.12500000000E+03 0.  0.
         25    1    1    2    0    0  0.16870638330E+02  0.66371104577E+02  0.55975851281E+02  0.15312752165E+03  0.12500000000E+03 0.  0.
         25    1    1    2    0    0 -0.47391333916E+02 -0.98540737493E+02 -0.88261616711E+01  0.16631030216E+03  0.12500000000E+03 0.  0.
</event>
<event>
 5    0  0.5626800E-005  0.2465167E+03  0.7546771E-02  0.1115526E+00
         21   -1    0    0  502  501  0.00000000000E+00  0.00000000000E+00  0.61670874645E+02  0.61670874645E+02  0.00000000000E+00 0. -1.
         21   -1    0    0  501  502 -0.00000000000E+00 -0.00000000000E+00 -0.98540011865E+03  0.98540011865E+03  0.00000000000E+00 0. -1.
         25    1    1    2    0    0 -0.58926405118E+01  0.10792494262E+02 -0.22268792896E+03  0.25566797775E+03  0.12500000000E+03 0.  0.
         25    1    1    2    0    0  0.13022977780E+03  0.91450979685E+01 -0.44093578090E+03  0.47654253821E+03  0.12500000000E+03 0.  0.
         25    1    1    2    0    0 -0.12433713729E+03 -0.19937592230E+02 -0.26010553415E+03  0.31486047733E+03  0.12500000000E+03 0.  0.
</event>
<event>
 5    0  0.5626800E-005  0.2414232E+03  0.7546771E-02  0.1118848E+00
         21   -1    0    0  502  501  0.00000000000E+00  0.00000000000E+00  0.13996695429E+03  0.13996695429E+03  0.00000000000E+00 0. -1.
         21   -1    0    0  501  502 -0.00000000000E+00 -0.00000000000E+00 -0.41642100227E+03  0.41642100227E+03  0.00000000000E+00 0. -1.
         25    1    1    2    0    0 -0.84828255805E+02  0.56586370638E+02 -0.56000471931E+02  0.17075978210E+03  0.12500000000E+03 0.  0.
         25    1    1    2    0    0  0.75806377026E+02 -0.27456679996E+02 -0.23823041485E+02  0.15064200404E+03  0.12500000000E+03 0.  0.
         25    1    1    2    0    0  0.90218787785E+01 -0.29129690642E+02 -0.19663053456E+03  0.23498617043E+03  0.12500000000E+03 0.  0.
</event>
<event>
 5    0  0.5626800E-005  0.2653238E+03  0.7546771E-02  0.1103986E+00
         21   -1    0    0  502  501  0.00000000000E+00  0.00000000000E+00  0.50613409697E+03  0.50613409697E+03  0.00000000000E+00 0. -1.
         21   -1    0    0  501  502 -0.00000000000E+00 -0.00000000000E+00 -0.13908704374E+03  0.13908704374E+03  0.00000000000E+00 0. -1.
         25    1    1    2    0    0 -0.71650258857E+02  0.18610156131E+02  0.88114113511E+02  0.16990937145E+03  0.12500000000E+03 0.  0.
         25    1    1    2    0    0 -0.14746596876E+02  0.34372772962E+02 -0.23645862363E+02  0.13260119324E+03  0.12500000000E+03 0.  0.
         25    1    1    2    0    0  0.86396855733E+02 -0.52982929093E+02  0.30257880208E+03  0.34271057603E+03  0.12500000000E+03 0.  0.
</event>
<event>
 5    0  0.5626800E-005  0.3263816E+03  0.7546771E-02  0.1072749E+00
         21   -1    0    0  502  501  0.00000000000E+00  0.00000000000E+00  0.41190134666E+03  0.41190134666E+03  0.00000000000E+00 0.  1.
         21   -1    0    0  501  502 -0.00000000000E+00 -0.00000000000E+00 -0.25861764773E+03  0.25861764773E+03  0.00000000000E+00 0.  1.
         25    1    1    2    0    0 -0.56471610724E+02  0.78835932918E+02  0.24430126004E+02  0.16008116127E+03  0.12500000000E+03 0.  0.
         25    1    1    2    0    0 -0.85197391978E+02  0.11722192470E+03 -0.32245445847E+02  0.19407303782E+03  0.12500000000E+03 0.  0.
         25    1    1    2    0    0  0.14166900270E+03 -0.19605785761E+03  0.16109901877E+03  0.31636479530E+03  0.12500000000E+03 0.  0.
</event>
<event>
 5    0  0.5626800E-005  0.4058151E+03  0.7546771E-02  0.1041784E+00
         21   -1    0    0  502  501  0.00000000000E+00  0.00000000000E+00  0.42801502003E+03  0.42801502003E+03  0.00000000000E+00 0. -1.
         21   -1    0    0  501  502 -0.00000000000E+00 -0.00000000000E+00 -0.38476671528E+03  0.38476671528E+03  0.00000000000E+00 0. -1.
         25    1    1    2    0    0 -0.13127169623E+03 -0.19535059021E+03 -0.16539840439E+03  0.31364907700E+03  0.12500000000E+03 0.  0.
         25    1    1    2    0    0  0.11025886973E+03 -0.49782585080E+02  0.50832185110E+02  0.18122978556E+03  0.12500000000E+03 0.  0.
         25    1    1    2    0    0  0.21012826494E+02  0.24513317529E+03  0.15781452404E+03  0.31790287275E+03  0.12500000000E+03 0.  0.
</event>
<event>
 5    0  0.5626800E-005  0.2634188E+03  0.7546771E-02  0.1105106E+00
         21   -1    0    0  502  501  0.00000000000E+00  0.00000000000E+00  0.28197357591E+02  0.28197357591E+02  0.00000000000E+00 0. -1.
         21   -1    0    0  501  502 -0.00000000000E+00 -0.00000000000E+00 -0.24608501076E+04  0.24608501076E+04  0.00000000000E+00 0. -1.
         25    1    1    2    0    0 -0.92685990079E+01 -0.20041003190E+02 -0.58963100001E+03  0.60313950700E+03  0.12500000000E+03 0.  0.
         25    1    1    2    0    0  0.12238422129E+03 -0.91806423938E+02 -0.92100449256E+03  0.94195572741E+03  0.12500000000E+03 0.  0.
         25    1    1    2    0    0 -0.11311562228E+03  0.11184742713E+03 -0.92201725745E+03  0.94395223078E+03  0.12500000000E+03 0.  0.
</event>
<event>
 5    0  0.5626800E-005  0.3155134E+03  0.7546771E-02  0.1077733E+00
         21   -1    0    0  502  501  0.00000000000E+00  0.00000000000E+00  0.44553217776E+03  0.44553217776E+03  0.00000000000E+00 0. -1.
         21   -1    0    0  501  502 -0.00000000000E+00 -0.00000000000E+00 -0.22343767782E+03  0.22343767782E+03  0.00000000000E+00 0. -1.
         25    1    1    2    0    0 -0.16710174771E+02  0.13975742578E+03  0.18917614390E+03  0.26687821459E+03  0.12500000000E+03 0.  0.
         25    1    1    2    0    0  0.58767279589E+02  0.10098939318E+02 -0.92309240817E+02  0.16643790934E+03  0.12500000000E+03 0.  0.
         25    1    1    2    0    0 -0.42057104818E+02 -0.14985636510E+03  0.12522759686E+03  0.23565373165E+03  0.12500000000E+03 0.  0.
</event>
<event>
 5    0  0.5626800E-005  0.3469337E+03  0.7546771E-02  0.1063881E+00
         21   -1    0    0  502  501  0.00000000000E+00  0.00000000000E+00  0.18045438347E+03  0.18045438347E+03  0.00000000000E+00 0.  1.
         21   -1    0    0  501  502 -0.00000000000E+00 -0.00000000000E+00 -0.66699964611E+03  0.66699964611E+03  0.00000000000E+00 0.  1.
         25    1    1    2    0    0 -0.14757333961E+03 -0.39900421201E+02 -0.36968527809E+03  0.41912067357E+03  0.12500000000E+03 0.  0.
         25    1    1    2    0    0  0.26375235205E+02 -0.76668376803E+02 -0.15540463930E+03  0.21528886397E+03  0.12500000000E+03 0.  0.
         25    1    1    2    0    0  0.12119810440E+03  0.11656879800E+03  0.38544654746E+02  0.21304449204E+03  0.12500000000E+03 0.  0.
</event>
<event>
 5    0  0.5973382E-005  0.3236143E+03  0.7546771E-02  0.1073998E+00
         21   -1    0    0  502  501  0.00000000000E+00  0.00000000000E+00  0.68095970662E+03  0.68095970662E+03  0.00000000000E+00 0. -1.
         21   -1    0    0  501  502 -0.00000000000E+00 -0.00000000000E+00 -0.15379210290E+03  0.15379210290E+03  0.00000000000E+00 0. -1.
         25    1    1    2    0    0 -0.16138501627E+03 -0.20420289733E+02  0.19749696016E+03  0.28476685373E+03  0.12500000000E+03 0.  0.
         25    1    1    2    0    0  0.34541326175E+02  0.74590734399E+02 -0.22847202059E+02  0.15134026402E+03  0.12500000000E+03 0.  0.
         25    1    1    2    0    0  0.12684369010E+03 -0.54170444666E+02  0.35251784562E+03  0.39864469177E+03  0.12500000000E+03 0.  0.
</event>
<event>
 5    0  0.5626800E-005  0.2860582E+03  0.7546771E-02  0.1092425E+00
         21   -1    0    0  502  501  0.00000000000E+00  0.00000000000E+00  0.10268138489E+04  0.10268138489E+04  0.00000000000E+00 0.  1.
         21   -1    0    0  501  502 -0.00000000000E+00 -0.00000000000E+00 -0.79692410892E+02  0.79692410892E+02  0.00000000000E+00 0.  1.
         25    1    1    2    0    0  0.30448201851E+02  0.10293614152E+03  0.33193512565E+03  0.37057910069E+03  0.12500000000E+03 0.  0.
         25    1    1    2    0    0  0.70322587234E+02 -0.13565875155E+03  0.16649839200E+03  0.25825428881E+03  0.12500000000E+03 0.  0.
         25    1    1    2    0    0 -0.10077078909E+03  0.32722610033E+02  0.44868792034E+03  0.47767287027E+03  0.12500000000E+03 0.  0.
</event>
<event>
 5    0  0.5626800E-005  0.4326362E+03  0.7546771E-02  0.1033030E+00
         21   -1    0    0  502  501  0.00000000000E+00  0.00000000000E+00  0.23104132066E+04  0.23104132066E+04  0.00000000000E+00 0. -1.
         21   -1    0    0  501  502 -0.00000000000E+00 -0.00000000000E+00 -0.81013260251E+02  0.81013260251E+02  0.00000000000E+00 0. -1.
         25    1    1    2    0    0  0.19829511809E+03  0.19440460241E+03  0.77988057879E+03  0.83722925204E+03  0.12500000000E+03 0.  0.
         25    1    1    2    0    0 -0.10387220045E+03 -0.24947675707E+03  0.44102877651E+03  0.53212730437E+03  0.12500000000E+03 0.  0.
         25    1    1    2    0    0 -0.94422917639E+02  0.55072154659E+02  0.10084905911E+04  0.10220699105E+04  0.12500000000E+03 0.  0.
</event>
<event>
 5    0  0.5626800E-005  0.2780720E+03  0.7546771E-02  0.1096747E+00
         21   -1    0    0  502  501  0.00000000000E+00  0.00000000000E+00  0.23409346686E+03  0.23409346686E+03  0.00000000000E+00 0.  1.
         21   -1    0    0  501  502 -0.00000000000E+00 -0.00000000000E+00 -0.33031261298E+03  0.33031261298E+03  0.00000000000E+00 0.  1.
         25    1    1    2    0    0  0.22099289188E+02  0.30054216739E+02 -0.11338941865E+02  0.13093970417E+03  0.12500000000E+03 0.  0.
         25    1    1    2    0    0 -0.15110098485E+03  0.68566966267E+01 -0.14106940664E+03  0.24166940104E+03  0.12500000000E+03 0.  0.
         25    1    1    2    0    0  0.12900169566E+03 -0.36910913366E+02  0.56189202385E+02  0.19179697462E+03  0.12500000000E+03 0.  0.
</event>
<event>
 5    0  0.5727002E-005  0.3627972E+03  0.7546771E-02  0.1057482E+00
         21   -1    0    0  502  501  0.00000000000E+00  0.00000000000E+00  0.79907901015E+03  0.79907901015E+03  0.00000000000E+00 0.  1.
         21   -1    0    0  501  502 -0.00000000000E+00 -0.00000000000E+00 -0.16471685295E+03  0.16471685295E+03  0.00000000000E+00 0.  1.
         25    1    1    2    0    0  0.19570975256E+03 -0.51823815419E+02  0.37000618954E+02  0.24079464466E+03  0.12500000000E+03 0.  0.
         25    1    1    2    0    0 -0.16076911105E+03  0.79107923367E+02  0.17383059447E+03  0.27918962406E+03  0.12500000000E+03 0.  0.
         25    1    1    2    0    0 -0.34940641509E+02 -0.27284107948E+02  0.42353094378E+03  0.44381159439E+03  0.12500000000E+03 0.  0.
</event>
<event>
 5    0  0.5626800E-005  0.2267727E+03  0.7546771E-02  0.1128932E+00
         21   -1    0    0  502  501  0.00000000000E+00  0.00000000000E+00  0.15016949586E+03  0.15016949586E+03  0.00000000000E+00 0.  1.
         21   -1    0    0  501  502 -0.00000000000E+00 -0.00000000000E+00 -0.34245198931E+03  0.34245198931E+03  0.00000000000E+00 0.  1.
         25    1    1    2    0    0  0.18495694402E+02  0.48025800167E+02  0.14135984075E+02  0.13591686517E+03  0.12500000000E+03 0.  0.
         25    1    1    2    0    0  0.26012737247E+02 -0.77118804659E+00 -0.16742652345E+03  0.21055616349E+03  0.12500000000E+03 0.  0.
         25    1    1    2    0    0 -0.44508431648E+02 -0.47254612120E+02 -0.38991954081E+02  0.14614845650E+03  0.12500000000E+03 0.  0.
</event>
<event>
 5    0  0.5626800E-005  0.2522786E+03  0.7546771E-02  0.1111873E+00
         21   -1    0    0  502  501  0.00000000000E+00  0.00000000000E+00  0.71606692859E+03  0.71606692859E+03  0.00000000000E+00 0. -1.
         21   -1    0    0  501  502 -0.00000000000E+00 -0.00000000000E+00 -0.88880678659E+02  0.88880678659E+02  0.00000000000E+00 0. -1.
         25    1    1    2    0    0  0.62821105908E+02  0.10204916030E+03  0.36663982662E+03  0.40547538141E+03  0.12500000000E+03 0.  0.
         25    1    1    2    0    0 -0.75080150472E+02 -0.12583332844E+02  0.15119970111E+03  0.21043221920E+03  0.12500000000E+03 0.  0.
         25    1    1    2    0    0  0.12259044564E+02 -0.89465827455E+02  0.10934672220E+03  0.18904000664E+03  0.12500000000E+03 0.  0.
</event>
<event>
 5    0  0.5626800E-005  0.3163575E+03  0.7546771E-02  0.1077338E+00
         21   -1    0    0  502  501  0.00000000000E+00  0.00000000000E+00  0.12023241396E+03  0.12023241396E+03  0.00000000000E+00 0. -1.
         21   -1    0    0  501  502 -0.00000000000E+00 -0.00000000000E+00 -0.83240494549E+03  0.83240494549E+03  0.00000000000E+00 0. -1.
         25    1    1    2    0    0  0.13395194343E+02  0.11308360823E+03 -0.25182796934E+03  0.30333094109E+03  0.12500000000E+03 0.  0.
         25    1    1    2    0    0 -0.69308010606E+00 -0.20098019217E+03 -0.43312213874E+03  0.49357198570E+03  0.12500000000E+03 0.  0.
         25    1    1    2    0    0 -0.12702114237E+02  0.87896583946E+02 -0.27222423447E+02  0.15573443265E+03  0.12500000000E+03 0.  0.
</event>
<event>
 5    0  0.5626800E-005  0.3927532E+03  0.7546771E-02  0.1046318E+00
         21   -1    0    0  502  501  0.00000000000E+00  0.00000000000E+00  0.15368910734E+03  0.15368910734E+03  0.00000000000E+00 0.  1.
         21   -1    0    0  501  502 -0.00000000000E+00 -0.00000000000E+00 -0.10036825813E+04  0.10036825813E+04  0.00000000000E+00 0.  1.
         25    1    1    2    0    0 -0.76936240621E+02 -0.39177727593E+02  0.47822834698E+02  0.15926739459E+03  0.12500000000E+03 0.  0.
         25    1    1    2    0    0  0.12398989162E+03 -0.11044896052E+03 -0.28109057937E+03  0.34958458192E+03  0.12500000000E+03 0.  0.
         25    1    1    2    0    0 -0.47053651001E+02  0.14962668811E+03 -0.61672572926E+03  0.64851971211E+03  0.12500000000E+03 0.  0.
</event>
<event>
 5    0  0.5762107E-005  0.2728565E+03  0.7546771E-02  0.1099656E+00
         21   -1    0    0  502  501  0.00000000000E+00  0.00000000000E+00  0.53272821514E+03  0.53272821514E+03  0.00000000000E+00 0. -1.
         21   -1    0    0  501  502 -0.00000000000E+00 -0.00000000000E+00 -0.13975357899E+03  0.13975357899E+03  0.00000000000E+00 0. -1.
         25    1    1    2    0    0  0.75138234546E+02  0.59415815615E+00  0.36815023309E+03  0.39598699655E+03  0.12500000000E+03 0.  0.
         25    1    1    2    0    0 -0.32747232571E+02  0.20501068631E+02  0.50756670373E+02  0.14033500862E+03  0.12500000000E+03 0.  0.
         25    1    1    2    0    0 -0.42391001975E+02 -0.21095226788E+02 -0.25932267308E+02  0.13615978896E+03  0.12500000000E+03 0.  0.
</event>
<event>
 5    0  0.5626800E-005  0.5115548E+03  0.7546771E-02  0.1010806E+00
         21   -1    0    0  502  501  0.00000000000E+00  0.00000000000E+00  0.55862540040E+03  0.55862540040E+03  0.00000000000E+00 0. -1.
         21   -1    0    0  501  502 -0.00000000000E+00 -0.00000000000E+00 -0.46845036434E+03  0.46845036434E+03  0.00000000000E+00 0. -1.
         25    1    1    2    0    0  0.66211489200E+02  0.11662231674E+03  0.50244703721E+02  0.19009012682E+03  0.12500000000E+03 0.  0.
         25    1    1    2    0    0  0.23675026246E+03 -0.27146920488E+02 -0.26704343312E+03  0.37911058708E+03  0.12500000000E+03 0.  0.
         25    1    1    2    0    0 -0.30296175166E+03 -0.89475396254E+02  0.30697376545E+03  0.45787505084E+03  0.12500000000E+03 0.  0.
</event>
<event>
 5    0  0.5626800E-005  0.2362100E+03  0.7546771E-02  0.1122344E+00
         21   -1    0    0  502  501  0.00000000000E+00  0.00000000000E+00  0.64024850164E+02  0.64024850164E+02  0.00000000000E+00 0. -1.
         21   -1    0    0  501  502 -0.00000000000E+00 -0.00000000000E+00 -0.87146115089E+03  0.87146115089E+03  0.00000000000E+00 0. -1.
         25    1    1    2    0    0  0.58871166911E+02  0.80999143310E+02 -0.36242983353E+03  0.39624116361E+03  0.12500000000E+03 0.  0.
         25    1    1    2    0    0  0.76946289354E+01 -0.87331883055E+00 -0.28375211320E+03  0.31016162198E+03  0.12500000000E+03 0.  0.
         25    1    1    2    0    0 -0.66565795847E+02 -0.80125824480E+02 -0.16125435400E+03  0.22908321547E+03  0.12500000000E+03 0.  0.
</event>
<event>
 5    0  0.5626800E-005  0.3394255E+03  0.7546771E-02  0.1067041E+00
         21   -1    0    0  502  501  0.00000000000E+00  0.00000000000E+00  0.47580296747E+03  0.47580296747E+03  0.00000000000E+00 0. -1.
         21   -1    0    0  501  502 -0.00000000000E+00 -0.00000000000E+00 -0.24213732993E+03  0.24213732993E+03  0.00000000000E+00 0. -1.
         25    1    1    2    0    0  0.16507160436E+03 -0.10574331726E+02 -0.69397122310E+02  0.21863533941E+03  0.12500000000E+03 0.  0.
         25    1    1    2    0    0 -0.16808004888E+03 -0.29592187001E+02  0.30107029094E+03  0.36796048762E+03  0.12500000000E+03 0.  0.
         25    1    1    2    0    0  0.30084445242E+01  0.40166518727E+02  0.19924689108E+01  0.13134447037E+03  0.12500000000E+03 0.  0.
</event>
<event>
 5    0  0.5626800E-005  0.3496439E+03  0.7546771E-02  0.1062761E+00
         21   -1    0    0  502  501  0.00000000000E+00  0.00000000000E+00  0.28017395216E+03  0.28017395216E+03  0.00000000000E+00 0.  1.
         21   -1    0    0  501  502 -0.00000000000E+00 -0.00000000000E+00 -0.43633908130E+03  0.43633908130E+03  0.00000000000E+00 0.  1.
         25    1    1    2    0    0 -0.14295122487E+03  0.26332545459E+02 -0.48839072082E+02  0.19783505909E+03  0.12500000000E+03 0.  0.
         25    1    1    2    0    0 -0.64840691034E+02  0.12735785029E+03  0.42902638466E+02  0.19465347064E+03  0.12500000000E+03 0.  0.
         25    1    1    2    0    0  0.20779191591E+03 -0.15369039575E+03 -0.15022869552E+03  0.32402450374E+03  0.12500000000E+03 0.  0.
</event>
<event>
 5    0  0.5626800E-005  0.2577253E+03  0.7546771E-02  0.1108518E+00
         21   -1    0    0  502  501  0.00000000000E+00  0.00000000000E+00  0.48920613216E+03  0.48920613216E+03  0.00000000000E+00 0.  1.
         21   -1    0    0  501  502 -0.00000000000E+00 -0.00000000000E+00 -0.13577574510E+03  0.13577574510E+03  0.00000000000E+00 0.  1.
         25    1    1    2    0    0  0.15734954956E+02  0.13886866220E+03  0.15871438559E+03  0.24565697699E+03  0.12500000000E+03 0.  0.
         25    1    1    2    0    0 -0.15386784112E+02 -0.34311193479E+02  0.17025308806E+03  0.21453467113E+03  0.12500000000E+03 0.  0.
         25    1    1    2    0    0 -0.34817084337E+00 -0.10455746872E+03  0.24462913414E+02  0.16479022914E+03  0.12500000000E+03 0.  0.
</event>
<event>
 5    0  0.5626800E-005  0.2786881E+03  0.7546771E-02  0.1096408E+00
         21   -1    0    0  502  501  0.00000000000E+00  0.00000000000E+00  0.48524165269E+02  0.48524165269E+02  0.00000000000E+00 0.  1.
         21   -1    0    0  501  502 -0.00000000000E+00 -0.00000000000E+00 -0.16005855041E+04  0.16005855041E+04  0.00000000000E+00 0.  1.
         25    1    1    2    0    0  0.12776872245E+03 -0.83293647229E+02 -0.66408116555E+03  0.69274199565E+03  0.12500000000E+03 0.  0.
         25    1    1    2    0    0 -0.45840792060E+02 -0.22419328144E+02 -0.60093882966E+03  0.61591921668E+03  0.12500000000E+03 0.  0.
         25    1    1    2    0    0 -0.81927930391E+02  0.10571297537E+03 -0.28704134359E+03  0.34044845699E+03  0.12500000000E+03 0.  0.
</event>
<event>
 5    0  0.5626800E-005  0.3245204E+03  0.7546771E-02  0.1073587E+00
         21   -1    0    0  502  501  0.00000000000E+00  0.00000000000E+00  0.92121935050E+02  0.92121935050E+02  0.00000000000E+00 0.  1.
         21   -1    0    0  501  502 -0.00000000000E+00 -0.00000000000E+00 -0.11431965341E+04  0.11431965341E+04  0.00000000000E+00 0.  1.
         25    1    1    2    0    0 -0.18175957327E+03 -0.37724533386E+02 -0.19370482850E+03  0.29598351893E+03  0.12500000000E+03 0.  0.
         25    1    1    2    0    0  0.16365160231E+03  0.71532102185E+02 -0.70810068360E+03  0.74089828363E+03  0.12500000000E+03 0.  0.
         25    1    1    2    0    0  0.18107970958E+02 -0.33807568799E+02 -0.14926908691E+03  0.19843666654E+03  0.12500000000E+03 0.  0.
</event>
<event>
 5    0  0.5626800E-005  0.2377485E+03  0.7546771E-02  0.1121302E+00
         21   -1    0    0  502  501  0.00000000000E+00  0.00000000000E+00  0.26502326841E+03  0.26502326841E+03  0.00000000000E+00 0. -1.
         21   -1    0    0  501  502 -0.00000000000E+00 -0.00000000000E+00 -0.21328072871E+03  0.21328072871E+03  0.00000000000E+00 0. -1.
         25    1    1    2    0    0  0.20603174249E+02  0.59906379913E+02  0.86798704089E+02  0.16484016554E+03  0.12500000000E+03 0.  0.
         25    1    1    2    0    0 -0.24522676669E+02  0.30719540519E+02 -0.78850047894E+02  0.15292933628E+03  0.12500000000E+03 0.  0.
         25    1    1    2    0    0  0.39195024204E+01 -0.90625920432E+02  0.43793883504E+02  0.16053449531E+03  0.12500000000E+03 0.  0.
</event>
<event>
 5    0  0.5626800E-005  0.4150866E+03  0.7546771E-02  0.1038677E+00
         21   -1    0    0  502  501  0.00000000000E+00  0.00000000000E+00  0.17203727809E+04  0.17203727809E+04  0.00000000000E+00 0. -1.
         21   -1    0    0  501  502 -0.00000000000E+00 -0.00000000000E+00 -0.10015091657E+03  0.10015091657E+03  0.00000000000E+00 0. -1.
         25    1    1    2    0    0  0.26865347511E+03  0.39159919775E+02  0.36410166363E+03  0.47106603620E+03  0.12500000000E+03 0.  0.
         25    1    1    2    0    0 -0.29639805803E+03 -0.10159697668E+03  0.72626562079E+03  0.80078742898E+03  0.12500000000E+03 0.  0.
         25    1    1    2    0    0  0.27744582929E+02  0.62437056902E+02  0.52985457992E+03  0.54867023231E+03  0.12500000000E+03 0.  0.
</event>
<event>
 5    0  0.5626800E-005  0.4003143E+03  0.7546771E-02  0.1043671E+00
         21   -1    0    0  502  501  0.00000000000E+00  0.00000000000E+00  0.23547720924E+04  0.23547720924E+04  0.00000000000E+00 0.  1.
         21   -1    0    0  501  502 -0.00000000000E+00 -0.00000000000E+00 -0.68053937810E+02  0.68053937810E+02  0.00000000000E+00 0.  1.
         25    1    1    2    0    0  0.62509294848E+01 -0.13018743667E+03  0.43613869499E+03  0.47204851875E+03  0.12500000000E+03 0.  0.
         25    1    1    2    0    0  0.14605351804E+02  0.31265711471E+03  0.67585275795E+03  0.75522826888E+03  0.12500000000E+03 0.  0.
         25    1    1    2    0    0 -0.20856281289E+02 -0.18246967804E+03  0.11747267017E+04  0.11955492426E+04  0.12500000000E+03 0.  0.
</event>
<event>
 5    0  0.5626800E-005  0.3552805E+03  0.7546771E-02  0.1060468E+00
         21   -1    0    0  502  501  0.00000000000E+00  0.00000000000E+00  0.63360932237E+02  0.63360932237E+02  0.00000000000E+00 0. -1.
         21   -1    0    0  501  502 -0.00000000000E+00 -0.00000000000E+00 -0.19921461395E+04  0.19921461395E+04  0.00000000000E+00 0. -1.
         25    1    1    2    0    0 -0.80079485646E+02 -0.35406619872E+02 -0.29280491844E+03  0.33019096446E+03  0.12500000000E+03 0.  0.
         25    1    1    2    0    0 -0.18523382471E+03  0.31209029680E+01 -0.99344787426E+03  0.10182754975E+04  0.12500000000E+03 0.  0.
         25    1    1    2    0    0  0.26531331035E+03  0.32285716904E+02 -0.64253241461E+03  0.70704060986E+03  0.12500000000E+03 0.  0.
</event>
<event>
 5    0  0.5626800E-005  0.2624284E+03  0.7546771E-02  0.1105693E+00
         21   -1    0    0  502  501  0.00000000000E+00  0.00000000000E+00  0.70252573924E+03  0.70252573924E+03  0.00000000000E+00 0. -1.
         21   -1    0    0  501  502 -0.00000000000E+00 -0.00000000000E+00 -0.98030101839E+02  0.98030101839E+02  0.00000000000E+00 0. -1.
         25    1    1    2    0    0  0.28919404963E+02 -0.39741990929E+02  0.21372331675E+03  0.25242506601E+03  0.12500000000E+03 0.  0.
         25    1    1    2    0    0  0.23389098309E+02 -0.98902463260E+02  0.28476217225E+03  0.32717463518E+03  0.12500000000E+03 0.  0.
         25    1    1    2    0    0 -0.52308503272E+02  0.13864445419E+03  0.10601014840E+03  0.22095613989E+03  0.12500000000E+03 0.  0.
</event>
<event>
 5    0  0.5626800E-005  0.4529748E+03  0.7546771E-02  0.1026839E+00
         21   -1    0    0  502  501  0.00000000000E+00  0.00000000000E+00  0.93810400282E+03  0.93810400282E+03  0.00000000000E+00 0. -1.
         21   -1    0    0  501  502 -0.00000000000E+00 -0.00000000000E+00 -0.21872431112E+03  0.21872431112E+03  0.00000000000E+00 0. -1.
         25    1    1    2    0    0  0.20148622017E+03 -0.74215140848E+02  0.29790496016E+03  0.38791358489E+03  0.12500000000E+03 0.  0.
         25    1    1    2    0    0 -0.20869554041E+03  0.29230117959E+03  0.18175496224E+03  0.42148982725E+03  0.12500000000E+03 0.  0.
         25    1    1    2    0    0  0.72093202405E+01 -0.21808603874E+03  0.23971976930E+03  0.34742490179E+03  0.12500000000E+03 0.  0.
</event>
<event>
 5    0  0.5626800E-005  0.2676980E+03  0.7546771E-02  0.1102604E+00
         21   -1    0    0  502  501  0.00000000000E+00  0.00000000000E+00  0.33381379192E+03  0.33381379192E+03  0.00000000000E+00 0. -1.
         21   -1    0    0  501  502 -0.00000000000E+00 -0.00000000000E+00 -0.21467725124E+03  0.21467725124E+03  0.00000000000E+00 0. -1.
         25    1    1    2    0    0  0.67091339773E+02 -0.10352942477E+03  0.12241514157E+03  0.21407955660E+03  0.12500000000E+03 0.  0.
         25    1    1    2    0    0 -0.73390372899E+01  0.28838683311E+02 -0.87925166405E+02  0.15569639049E+03  0.12500000000E+03 0.  0.
         25    1    1    2    0    0 -0.59752302483E+02  0.74690741462E+02  0.84646565505E+02  0.17871509607E+03  0.12500000000E+03 0.  0.
</event>
<event>
 5    0  0.5626800E-005  0.2584631E+03  0.7546771E-02  0.1108070E+00
         21   -1    0    0  502  501  0.00000000000E+00  0.00000000000E+00  0.12123522975E+04  0.12123522975E+04  0.00000000000E+00 0.  1.
         21   -1    0    0  501  502 -0.00000000000E+00 -0.00000000000E+00 -0.55102130912E+02  0.55102130912E+02  0.00000000000E+00 0.  1.
         25    1    1    2    0    0 -0.44023834640E+02  0.83838791038E+02  0.78203965793E+03  0.79760771528E+03  0.12500000000E+03 0.  0.
         25    1    1    2    0    0  0.17883634482E+02  0.63800862025E+01  0.16662280972E+03  0.20916187655E+03  0.12500000000E+03 0.  0.
         25    1    1    2    0    0  0.26140200158E+02 -0.90218877241E+02  0.20858769892E+03  0.26068483657E+03  0.12500000000E+03 0.  0.
</event>
<event>
 5    0  0.6018346E-005  0.3467001E+03  0.7546771E-02  0.1063978E+00
         21   -1    0    0  502  501  0.00000000000E+00  0.00000000000E+00  0.26055045270E+03  0.26055045270E+03  0.00000000000E+00 0. -1.
         21   -1    0    0  501  502 -0.00000000000E+00 -0.00000000000E+00 -0.46133465693E+03  0.46133465693E+03  0.00000000000E+00 0. -1.
         25    1    1    2    0    0  0.10681040327E+03 -0.18585241145E+03 -0.17669463213E+03  0.30462365981E+03  0.12500000000E+03 0.  0.
         25    1    1    2    0    0  0.49877617424E+02  0.13181561319E+03 -0.76223158822E+02  0.20321934589E+03  0.12500000000E+03 0.  0.
         25    1    1    2    0    0 -0.15668802070E+03  0.54036798256E+02  0.52133586717E+02  0.21404210394E+03  0.12500000000E+03 0.  0.
</event>
<event>
 5    0  0.5626800E-005  0.3899905E+03  0.7546771E-02  0.1047302E+00
         21   -1    0    0  502  501  0.00000000000E+00  0.00000000000E+00  0.38080806360E+03  0.38080806360E+03  0.00000000000E+00 0. -1.
         21   -1    0    0  501  502 -0.00000000000E+00 -0.00000000000E+00 -0.39939441470E+03  0.39939441470E+03  0.00000000000E+00 0. -1.
         25    1    1    2    0    0 -0.73484628740E+02  0.65230335937E+02 -0.22520947481E+03  0.27567969627E+03  0.12500000000E+03 0.  0.
         25    1    1    2    0    0  0.19493048035E+03  0.20584716154E+02  0.17073447410E+02  0.23310539530E+03  0.12500000000E+03 0.  0.
         25    1    1    2    0    0 -0.12144585161E+03 -0.85815052091E+02  0.18954967630E+03  0.27141738674E+03  0.12500000000E+03 0.  0.
</event>
<event>
 5    0  0.5626800E-005  0.3543521E+03  0.7546771E-02  0.1060843E+00
         21   -1    0    0  502  501  0.00000000000E+00  0.00000000000E+00  0.13687744581E+03  0.13687744581E+03  0.00000000000E+00 0.  1.
         21   -1    0    0  501  502 -0.00000000000E+00 -0.00000000000E+00 -0.91735655170E+03  0.91735655170E+03  0.00000000000E+00 0.  1.
         25    1    1    2    0    0 -0.75536364666E+02  0.17977736760E+02 -0.16462923345E+03  0.22080925232E+03  0.12500000000E+03 0.  0.
         25    1    1    2    0    0 -0.13925465449E+03  0.34751623214E+02 -0.53338857920E+03  0.56632844758E+03  0.12500000000E+03 0.  0.
         25    1    1    2    0    0  0.21479101916E+03 -0.52729359975E+02 -0.82461293241E+02  0.26709629761E+03  0.12500000000E+03 0.  0.
</event>
<event>
 5    0  0.5626800E-005  0.3657304E+03  0.7546771E-02  0.1056338E+00
         21   -1    0    0  502  501  0.00000000000E+00  0.00000000000E+00  0.54747985595E+03  0.54747985595E+03  0.00000000000E+00 0.  1.
         21   -1    0    0  501  502 -0.00000000000E+00 -0.00000000000E+00 -0.24431710957E+03  0.24431710957E+03  0.00000000000E+00 0.  1.
         25    1    1    2    0    0  0.13529480690E+03  0.16606487691E+03  0.14255467925E+03  0.28605779956E+03  0.12500000000E+03 0.  0.
         25    1    1    2    0    0 -0.14465965118E+03  0.40821655513E+02 -0.29981633270E+02  0.19777947460E+03  0.12500000000E+03 0.  0.
         25    1    1    2    0    0  0.93648442881E+01 -0.20688653242E+03  0.19058970040E+03  0.30795969136E+03  0.12500000000E+03 0.  0.
</event>
<event>
 5    0  0.5626800E-005  0.2778520E+03  0.7546771E-02  0.1096868E+00
         21   -1    0    0  502  501  0.00000000000E+00  0.00000000000E+00  0.15111547408E+03  0.15111547408E+03  0.00000000000E+00 0. -1.
         21   -1    0    0  501  502 -0.00000000000E+00 -0.00000000000E+00 -0.51087916727E+03  0.51087916727E+03  0.00000000000E+00 0. -1.
         25    1    1    2    0    0  0.73435233507E+02 -0.12260147278E+03 -0.22015689499E+03  0.29071964684E+03  0.12500000000E+03 0.  0.
         25    1    1    2    0    0 -0.28832434920E+02  0.14945515157E+03 -0.12901462516E+03  0.23545259637E+03  0.12500000000E+03 0.  0.
         25    1    1    2    0    0 -0.44602798588E+02 -0.26853678788E+02 -0.10592173039E+02  0.13582239814E+03  0.12500000000E+03 0.  0.
</event>
<event>
 5    0  0.5626800E-005  0.2359158E+03  0.7546771E-02  0.1122544E+00
         21   -1    0    0  502  501  0.00000000000E+00  0.00000000000E+00  0.20147339950E+04  0.20147339950E+04  0.00000000000E+00 0. -1.
         21   -1    0    0  501  502 -0.00000000000E+00 -0.00000000000E+00 -0.27624632619E+02  0.27624632619E+02  0.00000000000E+00 0. -1.
         25    1    1    2    0    0 -0.56118337067E+02  0.57577766521E+02  0.80451806398E+03  0.81813127445E+03  0.12500000000E+03 0.  0.
         25    1    1    2    0    0  0.39218538669E+02 -0.83104635115E+02  0.90567595983E+03  0.91886800922E+03  0.12500000000E+03 0.  0.
         25    1    1    2    0    0  0.16899798399E+02  0.25526868594E+02  0.27691533858E+03  0.30535934396E+03  0.12500000000E+03 0.  0.
</event>
<event>
 5    0  0.5626800E-005  0.2779466E+03  0.7546771E-02  0.1096816E+00
         21   -1    0    0  502  501  0.00000000000E+00  0.00000000000E+00  0.46848088135E+03  0.46848088135E+03  0.00000000000E+00 0.  1.
         21   -1    0    0  501  502 -0.00000000000E+00 -0.00000000000E+00 -0.16490382588E+03  0.16490382588E+03  0.00000000000E+00 0.  1.
         25    1    1    2    0    0 -0.34907439022E+02 -0.10578212802E+03  0.91129617159E+02  0.19062527385E+03  0.12500000000E+03 0.  0.
         25    1    1    2    0    0  0.43601403367E+02  0.15740784295E+03  0.18983770578E+02  0.20655191827E+03  0.12500000000E+03 0.  0.
         25    1    1    2    0    0 -0.86939643450E+01 -0.51625714927E+02  0.19346366773E+03  0.23620751510E+03  0.12500000000E+03 0.  0.
</event>
<event>
 5    0  0.5626800E-005  0.2766173E+03  0.7546771E-02  0.1097551E+00
         21   -1    0    0  502  501  0.00000000000E+00  0.00000000000E+00  0.24107828161E+03  0.24107828161E+03  0.00000000000E+00 0.  1.
         21   -1    0    0  501  502 -0.00000000000E+00 -0.00000000000E+00 -0.31739527871E+03  0.31739527871E+03  0.00000000000E+00 0.  1.
         25    1    1    2    0    0 -0.29879830667E+02 -0.14086438838E+03 -0.99805661139E+02  0.21522488283E+03  0.12500000000E+03 0.  0.
         25    1    1    2    0    0 -0.13719920922E+02 -0.23411715019E+02 -0.14995553391E+02  0.12878746543E+03  0.12500000000E+03 0.  0.
         25    1    1    2    0    0  0.43599751589E+02  0.16427610340E+03  0.38484217435E+02  0.21446121206E+03  0.12500000000E+03 0.  0.
</event>
<event>
 5    0  0.5626800E-005  0.3435747E+03  0.7546771E-02  0.1065284E+00
         21   -1    0    0  502  501  0.00000000000E+00  0.00000000000E+00  0.28110838925E+03  0.28110838925E+03  0.00000000000E+00 0.  1.
         21   -1    0    0  501  502 -0.00000000000E+00 -0.00000000000E+00 -0.41992188410E+03  0.41992188410E+03  0.00000000000E+00 0.  1.
         25    1    1    2    0    0  0.66093868214E+02  0.36989539315E+00  0.26551670375E+02  0.14386982810E+03  0.12500000000E+03 0.  0.
         25    1    1    2    0    0 -0.23959819115E+03 -0.10375345316E+03 -0.52552934511E+02  0.29420891076E+03  0.12500000000E+03 0.  0.
         25    1    1    2    0    0  0.17350432293E+03  0.10338355777E+03 -0.11281223072E+03  0.26295153449E+03  0.12500000000E+03 0.  0.
</event>
<event>
 5    0  0.5626800E-005  0.2841042E+03  0.7546771E-02  0.1093468E+00
         21   -1    0    0  502  501  0.00000000000E+00  0.00000000000E+00  0.89486990105E+02  0.89486990105E+02  0.00000000000E+00 0.  1.
         21   -1    0    0  501  502 -0.00000000000E+00 -0.00000000000E+00 -0.90197695588E+03  0.90197695588E+03  0.00000000000E+00 0.  1.
         25    1    1    2    0    0  0.24215142490E+01  0.14308888909E+02 -0.18354899295E+03  0.22254402002E+03  0.12500000000E+03 0.  0.
         25    1    1    2    0    0 -0.55454657160E+02  0.16654156693E+03 -0.28521103522E+03  0.35746558873E+03  0.12500000000E+03 0.  0.
         25    1    1    2    0    0  0.53033142911E+02 -0.18085045584E+03 -0.34372993759E+03  0.41145433723E+03  0.12500000000E+03 0.  0.
</event>
<event>
 5    0  0.5626800E-005  0.2871825E+03  0.7546771E-02  0.1091829E+00
         21   -1    0    0  502  501  0.00000000000E+00  0.00000000000E+00  0.44262592040E+02  0.44262592040E+02  0.00000000000E+00 0.  1.
         21   -1    0    0  501  502 -0.00000000000E+00 -0.00000000000E+00 -0.18632843484E+04  0.18632843484E+04  0.00000000000E+00 0.  1.
         25    1    1    2    0    0 -0.89165109772E+02 -0.44230271702E+01 -0.92951027363E+03  0.94211694006E+03  0.12500000000E+03 0.  0.
         25    1    1    2    0    0  0.13945589912E+03 -0.16971892804E+01 -0.74320514572E+03  0.76643963681E+03  0.12500000000E+03 0.  0.
         25    1    1    2    0    0 -0.50290789348E+02  0.61202164506E+01 -0.14630633701E+03  0.19899036356E+03  0.12500000000E+03 0.  0.
</event>
<event>
 5    0  0.5626800E-005  0.2093349E+03  0.7546771E-02  0.1142094E+00
         21   -1    0    0  502  501  0.00000000000E+00  0.00000000000E+00  0.91329256866E+02  0.91329256866E+02  0.00000000000E+00 0.  1.
         21   -1    0    0  501  502 -0.00000000000E+00 -0.00000000000E+00 -0.47981451723E+03  0.47981451723E+03  0.00000000000E+00 0.  1.
         25    1    1    2    0    0 -0.41433075781E+01  0.22085027819E+02 -0.84074295570E+02  0.15231021839E+03  0.12500000000E+03 0.  0.
         25    1    1    2    0    0  0.25837383147E+00  0.27136072966E+02 -0.63120391847E+02  0.14263806322E+03  0.12500000000E+03 0.  0.
         25    1    1    2    0    0  0.38849337466E+01 -0.49221100785E+02 -0.24129057295E+03  0.27619549248E+03  0.12500000000E+03 0.  0.
</event>
<event>
 5    0  0.5626800E-005  0.3016662E+03  0.7546771E-02  0.1084411E+00
         21   -1    0    0  502  501  0.00000000000E+00  0.00000000000E+00  0.28526074211E+03  0.28526074211E+03  0.00000000000E+00 0.  1.
         21   -1    0    0  501  502 -0.00000000000E+00 -0.00000000000E+00 -0.31901519705E+03  0.31901519705E+03  0.00000000000E+00 0.  1.
         25    1    1    2    0    0  0.11187815475E+03  0.33814160307E+02  0.11445788563E+03  0.20587794085E+03  0.12500000000E+03 0.  0.
         25    1    1    2    0    0 -0.15934562843E+03 -0.42660938492E+02 -0.11991828523E+02  0.20731567458E+03  0.12500000000E+03 0.  0.
         25    1    1    2    0    0  0.47467473682E+02  0.88467781845E+01 -0.13622051204E+03  0.19108232373E+03  0.12500000000E+03 0.  0.
</event>
<event>
 5    0  0.5626800E-005  0.2791779E+03  0.7546771E-02  0.1096139E+00
         21   -1    0    0  502  501  0.00000000000E+00  0.00000000000E+00  0.10464696411E+03  0.10464696411E+03  0.00000000000E+00 0.  1.
         21   -1    0    0  501  502 -0.00000000000E+00 -0.00000000000E+00 -0.74479262852E+03  0.74479262852E+03  0.00000000000E+00 0.  1.
         25    1    1    2    0    0 -0.57498023089E-02 -0.14726603086E+01 -0.13914123560E+03  0.18704933094E+03  0.12500000000E+03 0.  0.
         25    1    1    2    0    0 -0.10694650892E+02  0.20329731696E+02  0.17769122904E+02  0.12832932353E+03  0.12500000000E+03 0.  0.
         25    1    1    2    0    0  0.10700400694E+02 -0.18857071387E+02 -0.51877355171E+03  0.53406093816E+03  0.12500000000E+03 0.  0.
</event>
<event>
 5    0  0.5626800E-005  0.8513957E+03  0.7546771E-02  0.9488466E-01
         21   -1    0    0  502  501  0.00000000000E+00  0.00000000000E+00  0.12896266630E+04  0.12896266630E+04  0.00000000000E+00 0.  1.
         21   -1    0    0  501  502 -0.00000000000E+00 -0.00000000000E+00 -0.56208106056E+03  0.56208106056E+03  0.00000000000E+00 0. -1.
         25    1    1    2    0    0 -0.13599383979E+03  0.49799115716E+03 -0.23387227815E+03  0.58035399504E+03  0.12500000000E+03 0.  0.
         25    1    1    2    0    0  0.29058340967E+03 -0.16263274887E+03  0.18125890770E+03  0.39920911888E+03  0.12500000000E+03 0.  0.
         25    1    1    2    0    0 -0.15458956988E+03 -0.33535840829E+03  0.78015897294E+03  0.87214460968E+03  0.12500000000E+03 0.  0.
</event>
<event>
 5    0  0.5626800E-005  0.2458013E+03  0.7546771E-02  0.1115987E+00
         21   -1    0    0  502  501  0.00000000000E+00  0.00000000000E+00  0.59310410052E+02  0.59310410052E+02  0.00000000000E+00 0. -1.
         21   -1    0    0  501  502 -0.00000000000E+00 -0.00000000000E+00 -0.10186788538E+04  0.10186788538E+04  0.00000000000E+00 0. -1.
         25    1    1    2    0    0  0.55722735178E+02  0.38276264732E+02 -0.25881132829E+03  0.29525988435E+03  0.12500000000E+03 0.  0.
         25    1    1    2    0    0  0.62007219846E+02 -0.94362389625E+02 -0.34346504043E+03  0.38254723876E+03  0.12500000000E+03 0.  0.
         25    1    1    2    0    0 -0.11772995502E+03  0.56086124893E+02 -0.35709207505E+03  0.40018214075E+03  0.12500000000E+03 0.  0.
</event>
<event>
 5    0  0.5626800E-005  0.2622177E+03  0.7546771E-02  0.1105818E+00
         21   -1    0    0  502  501  0.00000000000E+00  0.00000000000E+00  0.24536315000E+03  0.24536315000E+03  0.00000000000E+00 0.  1.
         21   -1    0    0  501  502 -0.00000000000E+00 -0.00000000000E+00 -0.28023012047E+03  0.28023012047E+03  0.00000000000E+00 0.  1.
         25    1    1    2    0    0  0.59146636347E+02  0.38554411696E+02 -0.24806294548E+02  0.14568843297E+03  0.12500000000E+03 0.  0.
         25    1    1    2    0    0  0.37513835203E+02  0.27453759305E+02 -0.11750258638E+03  0.17774378902E+03  0.12500000000E+03 0.  0.
         25    1    1    2    0    0 -0.96660471550E+02 -0.66008171001E+02  0.10744191046E+03  0.20216104848E+03  0.12500000000E+03 0.  0.
</event>
<event>
 5    0  0.5626800E-005  0.3361891E+03  0.7546771E-02  0.1068431E+00
         21   -1    0    0  502  501  0.00000000000E+00  0.00000000000E+00  0.73814318543E+03  0.73814318543E+03  0.00000000000E+00 0.  1.
         21   -1    0    0  501  502 -0.00000000000E+00 -0.00000000000E+00 -0.15311815404E+03  0.15311815404E+03  0.00000000000E+00 0.  1.
         25    1    1    2    0    0 -0.12301132076E+03 -0.97848069061E+01  0.17947908789E+01  0.17565804495E+03  0.12500000000E+03 0.  0.
         25    1    1    2    0    0 -0.74971115952E+01  0.52233067798E+02  0.39884645853E+02  0.14142236396E+03  0.12500000000E+03 0.  0.
         25    1    1    2    0    0  0.13050843236E+03 -0.42448260892E+02  0.54334559466E+03  0.57418093055E+03  0.12500000000E+03 0.  0.
</event>
<event>
 5    0  0.5626800E-005  0.2505902E+03  0.7546771E-02  0.1112932E+00
         21   -1    0    0  502  501  0.00000000000E+00  0.00000000000E+00  0.47374910932E+03  0.47374910932E+03  0.00000000000E+00 0.  1.
         21   -1    0    0  501  502 -0.00000000000E+00 -0.00000000000E+00 -0.13255001147E+03  0.13255001147E+03  0.00000000000E+00 0.  1.
         25    1    1    2    0    0 -0.12525065613E+03 -0.33100687508E+02  0.71946028136E+02  0.19386751491E+03  0.12500000000E+03 0.  0.
         25    1    1    2    0    0  0.79895063748E+02  0.80094478167E+02  0.11901466949E+03  0.20636821024E+03  0.12500000000E+03 0.  0.
         25    1    1    2    0    0  0.45355592377E+02 -0.46993790658E+02  0.15023840022E+03  0.20606339564E+03  0.12500000000E+03 0.  0.
</event>
<event>
 5    0  0.5626800E-005  0.3418834E+03  0.7546771E-02  0.1065997E+00
         21   -1    0    0  502  501  0.00000000000E+00  0.00000000000E+00  0.35081010443E+03  0.35081010443E+03  0.00000000000E+00 0. -1.
         21   -1    0    0  501  502 -0.00000000000E+00 -0.00000000000E+00 -0.33318391633E+03  0.33318391633E+03  0.00000000000E+00 0. -1.
         25    1    1    2    0    0  0.19120148853E+02  0.82688704079E+02 -0.18286584261E+03  0.23720859653E+03  0.12500000000E+03 0.  0.
         25    1    1    2    0    0  0.12988662374E+03  0.16006787832E+02  0.97920702788E+02  0.20576738400E+03  0.12500000000E+03 0.  0.
         25    1    1    2    0    0 -0.14900677259E+03 -0.98695491911E+02  0.10257132792E+03  0.24101804022E+03  0.12500000000E+03 0.  0.
</event>
<event>
 5    0  0.6180758E-005  0.3224107E+03  0.7546771E-02  0.1074545E+00
         21   -1    0    0  502  501  0.00000000000E+00  0.00000000000E+00  0.63610353717E+03  0.63610353717E+03  0.00000000000E+00 0. -1.
         21   -1    0    0  501  502 -0.00000000000E+00 -0.00000000000E+00 -0.16341464580E+03  0.16341464580E+03  0.00000000000E+00 0. -1.
         25    1    1    2    0    0  0.74281287353E+02 -0.16481602461E+03  0.12958918710E+03  0.25514777881E+03  0.12500000000E+03 0.  0.
         25    1    1    2    0    0 -0.49404983398E+02  0.18361689919E+03  0.34760181888E+03  0.41546124072E+03  0.12500000000E+03 0.  0.
         25    1    1    2    0    0 -0.24876303955E+02 -0.18800874581E+02 -0.45021146005E+01  0.12890916344E+03  0.12500000000E+03 0.  0.
</event>
<event>
 5    0  0.5626800E-005  0.2563804E+03  0.7546771E-02  0.1109338E+00
         21   -1    0    0  502  501  0.00000000000E+00  0.00000000000E+00  0.12009164611E+04  0.12009164611E+04  0.00000000000E+00 0. -1.
         21   -1    0    0  501  502 -0.00000000000E+00 -0.00000000000E+00 -0.54733969412E+02  0.54733969412E+02  0.00000000000E+00 0. -1.
         25    1    1    2    0    0 -0.13826553617E+03 -0.38998306052E+02  0.52206024191E+03  0.55570686746E+03  0.12500000000E+03 0.  0.
         25    1    1    2    0    0  0.24052970251E+02  0.17027528264E+02  0.15847282881E+03  0.20397823307E+03  0.12500000000E+03 0.  0.
         25    1    1    2    0    0  0.11421256592E+03  0.21970777788E+02  0.46564942101E+03  0.49596533001E+03  0.12500000000E+03 0.  0.
</event>
<event>
 5    0  0.5626800E-005  0.3456131E+03  0.7546771E-02  0.1064430E+00
         21   -1    0    0  502  501  0.00000000000E+00  0.00000000000E+00  0.11511163836E+03  0.11511163836E+03  0.00000000000E+00 0.  1.
         21   -1    0    0  501  502 -0.00000000000E+00 -0.00000000000E+00 -0.10376745191E+04  0.10376745191E+04  0.00000000000E+00 0.  1.
         25    1    1    2    0    0 -0.86099044737E+02  0.11174257965E+03 -0.12302081326E+02  0.18888036112E+03  0.12500000000E+03 0.  0.
         25    1    1    2    0    0  0.82748815602E+02 -0.61605858549E+02 -0.66086199874E+03  0.68044561110E+03  0.12500000000E+03 0.  0.
         25    1    1    2    0    0  0.33502291352E+01 -0.50136721096E+02 -0.24939880070E+03  0.28346018526E+03  0.12500000000E+03 0.  0.
</event>
<event>
 5    0  0.5626800E-005  0.3116207E+03  0.7546771E-02  0.1079572E+00
         21   -1    0    0  502  501  0.00000000000E+00  0.00000000000E+00  0.89985401124E+03  0.89985401124E+03  0.00000000000E+00 0.  1.
         21   -1    0    0  501  502 -0.00000000000E+00 -0.00000000000E+00 -0.10791468020E+03  0.10791468020E+03  0.00000000000E+00 0.  1.
         25    1    1    2    0    0  0.91905766014E+02  0.24023798949E+02  0.15366132265E+03  0.21968298710E+03  0.12500000000E+03 0.  0.
         25    1    1    2    0    0  0.92558599349E+01 -0.13179630459E+03  0.54235908353E+03  0.57204397762E+03  0.12500000000E+03 0.  0.
         25    1    1    2    0    0 -0.10116162595E+03  0.10777250565E+03  0.95918924859E+02  0.21604172672E+03  0.12500000000E+03 0.  0.
</event>
<event>
 5    0  0.5626800E-005  0.2344324E+03  0.7546771E-02  0.1123558E+00
         21   -1    0    0  502  501  0.00000000000E+00  0.00000000000E+00  0.12375800190E+03  0.12375800190E+03  0.00000000000E+00 0. -1.
         21   -1    0    0  501  502 -0.00000000000E+00 -0.00000000000E+00 -0.44408085284E+03  0.44408085284E+03  0.00000000000E+00 0. -1.
         25    1    1    2    0    0  0.19824557738E+01 -0.49743103648E+02 -0.45297609986E+02  0.14196894013E+03  0.12500000000E+03 0.  0.
         25    1    1    2    0    0 -0.66511538506E+02  0.29258548106E+02 -0.23881635912E+03  0.27917396150E+03  0.12500000000E+03 0.  0.
         25    1    1    2    0    0  0.64529082732E+02  0.20484555543E+02 -0.36208881829E+02  0.14669595310E+03  0.12500000000E+03 0.  0.
</event>
<event>
 5    0  0.5626800E-005  0.2247394E+03  0.7546771E-02  0.1130398E+00
         21   -1    0    0  502  501  0.00000000000E+00  0.00000000000E+00  0.90832074140E+03  0.90832074140E+03  0.00000000000E+00 0. -1.
         21   -1    0    0  501  502 -0.00000000000E+00 -0.00000000000E+00 -0.55605702979E+02  0.55605702979E+02  0.00000000000E+00 0. -1.
         25    1    1    2    0    0 -0.10626810489E+03 -0.42366583290E+02  0.32548575319E+03  0.36695205821E+03  0.12500000000E+03 0.  0.
         25    1    1    2    0    0  0.35929123437E+02  0.96242832903E+00  0.22510892662E+03  0.25998241676E+03  0.12500000000E+03 0.  0.
         25    1    1    2    0    0  0.70338981448E+02  0.41404154961E+02  0.30212035860E+03  0.33699196940E+03  0.12500000000E+03 0.  0.
</event>
<event>
 5    0  0.5626800E-005  0.2527692E+03  0.7546771E-02  0.1111567E+00
         21   -1    0    0  502  501  0.00000000000E+00  0.00000000000E+00  0.22380299680E+03  0.22380299680E+03  0.00000000000E+00 0.  1.
         21   -1    0    0  501  502 -0.00000000000E+00 -0.00000000000E+00 -0.28548452389E+03  0.28548452389E+03  0.00000000000E+00 0.  1.
         25    1    1    2    0    0  0.14050708545E+03  0.64974914790E+02 -0.15966287098E+02  0.19960937588E+03  0.12500000000E+03 0.  0.
         25    1    1    2    0    0 -0.29748290156E+02 -0.71220186537E+01 -0.30666219668E+02  0.13229172667E+03  0.12500000000E+03 0.  0.
         25    1    1    2    0    0 -0.11075879530E+03 -0.57852896136E+02 -0.15049020327E+02  0.17738641814E+03  0.12500000000E+03 0.  0.
</event>
<event>
 5    0  0.5626800E-005  0.4439972E+03  0.7546771E-02  0.1029527E+00
         21   -1    0    0  502  501  0.00000000000E+00  0.00000000000E+00  0.81126981744E+03  0.81126981744E+03  0.00000000000E+00 0.  1.
         21   -1    0    0  501  502 -0.00000000000E+00 -0.00000000000E+00 -0.24299372278E+03  0.24299372278E+03  0.00000000000E+00 0.  1.
         25    1    1    2    0    0 -0.77448675509E+02 -0.16821146770E+03  0.59271384332E+03  0.63342568251E+03  0.12500000000E+03 0.  0.
         25    1    1    2    0    0  0.90091189947E+02 -0.41661397617E+02  0.46327143868E+02  0.16620258366E+03  0.12500000000E+03 0.  0.
         25    1    1    2    0    0 -0.12642514438E+02  0.20987286532E+03 -0.70764892532E+02  0.25463527404E+03  0.12500000000E+03 0.  0.
</event>
<event>
 5    0  0.5626800E-005  0.2592466E+03  0.7546771E-02  0.1107597E+00
         21   -1    0    0  502  501  0.00000000000E+00  0.00000000000E+00  0.58434767947E+03  0.58434767947E+03  0.00000000000E+00 0. -1.
         21   -1    0    0  501  502 -0.00000000000E+00 -0.00000000000E+00 -0.11501508551E+03  0.11501508551E+03  0.00000000000E+00 0. -1.
         25    1    1    2    0    0 -0.24666893392E+02 -0.72068660793E+02  0.63309264659E+02  0.15948482840E+03  0.12500000000E+03 0.  0.
         25    1    1    2    0    0 -0.28183859903E+02  0.13753752381E+03  0.14088238887E+03  0.23491221320E+03  0.12500000000E+03 0.  0.
         25    1    1    2    0    0  0.52850753295E+02 -0.65468863022E+02  0.26514094043E+03  0.30496572339E+03  0.12500000000E+03 0.  0.
</event>
<event>
 5    0  0.5626800E-005  0.2322983E+03  0.7546771E-02  0.1125033E+00
         21   -1    0    0  502  501  0.00000000000E+00  0.00000000000E+00  0.22402630296E+03  0.22402630296E+03  0.00000000000E+00 0. -1.
         21   -1    0    0  501  502 -0.00000000000E+00 -0.00000000000E+00 -0.24087567605E+03  0.24087567605E+03  0.00000000000E+00 0. -1.
         25    1    1    2    0    0  0.10464313410E+03 -0.12409495500E+02 -0.79190815905E+02  0.18166002977E+03  0.12500000000E+03 0.  0.
         25    1    1    2    0    0 -0.62165982263E+02 -0.55994563697E+01  0.99577683537E+01  0.14007184019E+03  0.12500000000E+03 0.  0.
         25    1    1    2    0    0 -0.42477151838E+02  0.18008951869E+02  0.52383674465E+02  0.14317010905E+03  0.12500000000E+03 0.  0.
</event>
<event>
 5    0  0.5626800E-005  0.2275031E+03  0.7546771E-02  0.1128410E+00
         21   -1    0    0  502  501  0.00000000000E+00  0.00000000000E+00  0.49415326884E+03  0.49415326884E+03  0.00000000000E+00 0. -1.
         21   -1    0    0  501  502 -0.00000000000E+00 -0.00000000000E+00 -0.10474012712E+03  0.10474012712E+03  0.00000000000E+00 0. -1.
         25    1    1    2    0    0 -0.24772939907E+02 -0.87447260076E+01  0.12581190474E+03  0.17928693248E+03  0.12500000000E+03 0.  0.
         25    1    1    2    0    0  0.31864646725E+02  0.97299847557E+02  0.19027468668E+03  0.24962386191E+03  0.12500000000E+03 0.  0.
         25    1    1    2    0    0 -0.70917068186E+01 -0.88555121550E+02  0.73326550306E+02  0.16998260157E+03  0.12500000000E+03 0.  0.
</event>
<event>
 5    0  0.5626800E-005  0.3647618E+03  0.7546771E-02  0.1056714E+00
         21   -1    0    0  502  501  0.00000000000E+00  0.00000000000E+00  0.56802888991E+03  0.56802888991E+03  0.00000000000E+00 0.  1.
         21   -1    0    0  501  502 -0.00000000000E+00 -0.00000000000E+00 -0.23423307199E+03  0.23423307199E+03  0.00000000000E+00 0.  1.
         25    1    1    2    0    0 -0.12947932926E+03 -0.75363099037E+01  0.17085101180E+03  0.24826751883E+03  0.12500000000E+03 0.  0.
         25    1    1    2    0    0  0.11089392235E+03  0.13899775212E+03 -0.95733179681E+02  0.23750300798E+03  0.12500000000E+03 0.  0.
         25    1    1    2    0    0  0.18585406910E+02 -0.13146144221E+03  0.25867798580E+03  0.31649143508E+03  0.12500000000E+03 0.  0.
</event>
<event>
 5    0  0.5626800E-005  0.2493140E+03  0.7546771E-02  0.1113739E+00
         21   -1    0    0  502  501  0.00000000000E+00  0.00000000000E+00  0.54159310357E+02  0.54159310357E+02  0.00000000000E+00 0.  1.
         21   -1    0    0  501  502 -0.00000000000E+00 -0.00000000000E+00 -0.11476782089E+04  0.11476782089E+04  0.00000000000E+00 0.  1.
         25    1    1    2    0    0  0.13616919429E+02  0.14719642355E+03 -0.44434562860E+03  0.48468571802E+03  0.12500000000E+03 0.  0.
         25    1    1    2    0    0  0.27981692578E+02 -0.92414355948E+02 -0.28182897956E+03  0.32307268845E+03  0.12500000000E+03 0.  0.
         25    1    1    2    0    0 -0.41598612007E+02 -0.54782067605E+02 -0.36734429040E+03  0.39407911279E+03  0.12500000000E+03 0.  0.
</event>
<event>
 5    0  0.5626800E-005  0.2344466E+03  0.7546771E-02  0.1123549E+00
         21   -1    0    0  502  501  0.00000000000E+00  0.00000000000E+00  0.10123274062E+03  0.10123274062E+03  0.00000000000E+00 0.  1.
         21   -1    0    0  501  502 -0.00000000000E+00 -0.00000000000E+00 -0.54295868312E+03  0.54295868312E+03  0.00000000000E+00 0.  1.
         25    1    1    2    0    0 -0.44840678000E+02  0.11336508561E+02 -0.34604406117E+02  0.13770137164E+03  0.12500000000E+03 0.  0.
         25    1    1    2    0    0 -0.27073617803E+02 -0.26388550072E+02 -0.29692129621E+03  0.32437107223E+03  0.12500000000E+03 0.  0.
         25    1    1    2    0    0  0.71914295804E+02  0.15052041511E+02 -0.11020024017E+03  0.18211897987E+03  0.12500000000E+03 0.  0.
</event>
<event>
 5    0  0.5626800E-005  0.2978953E+03  0.7546771E-02  0.1086297E+00
         21   -1    0    0  502  501  0.00000000000E+00  0.00000000000E+00  0.24937491941E+04  0.24937491941E+04  0.00000000000E+00 0. -1.
         21   -1    0    0  501  502 -0.00000000000E+00 -0.00000000000E+00 -0.35585616893E+02  0.35585616893E+02  0.00000000000E+00 0. -1.
         25    1    1    2    0    0  0.14474029014E+03 -0.46795703742E+02  0.13222820348E+04  0.13368598914E+04  0.12500000000E+03 0.  0.
         25    1    1    2    0    0 -0.37893900851E+01 -0.67234006340E+02  0.40717993303E+03  0.43122531111E+03  0.12500000000E+03 0.  0.
         25    1    1    2    0    0 -0.14095090006E+03  0.11402971008E+03  0.72870160938E+03  0.76124960855E+03  0.12500000000E+03 0.  0.
</event>
<event>
 5    0  0.5716412E-005  0.3758345E+03  0.7546771E-02  0.1052484E+00
         21   -1    0    0  502  501  0.00000000000E+00  0.00000000000E+00  0.36198330696E+03  0.36198330696E+03  0.00000000000E+00 0. -1.
         21   -1    0    0  501  502 -0.00000000000E+00 -0.00000000000E+00 -0.39021564024E+03  0.39021564024E+03  0.00000000000E+00 0. -1.
         25    1    1    2    0    0 -0.13219111970E+03 -0.46775513481E+02  0.11359155957E+03  0.21952330900E+03  0.12500000000E+03 0.  0.
         25    1    1    2    0    0 -0.12567955034E+03 -0.34060304020E+02  0.38520742546E+02  0.18456516814E+03  0.12500000000E+03 0.  0.
         25    1    1    2    0    0  0.25787067004E+03  0.80835817501E+02 -0.18034463539E+03  0.34811047007E+03  0.12500000000E+03 0.  0.
</event>
<event>
 5    0  0.6107846E-005  0.5103366E+03  0.7546771E-02  0.1011116E+00
         21   -1    0    0  502  501  0.00000000000E+00  0.00000000000E+00  0.38298040796E+03  0.38298040796E+03  0.00000000000E+00 0. -1.
         21   -1    0    0  501  502 -0.00000000000E+00 -0.00000000000E+00 -0.68004391229E+03  0.68004391229E+03  0.00000000000E+00 0. -1.
         25    1    1    2    0    0 -0.29044878905E+03 -0.15475634322E+03  0.41999402884E+02  0.35454051203E+03  0.12500000000E+03 0.  0.
         25    1    1    2    0    0  0.56309195563E+02 -0.96421616081E+02 -0.29648864965E+03  0.34058533868E+03  0.12500000000E+03 0.  0.
         25    1    1    2    0    0  0.23413959348E+03  0.25117795930E+03 -0.42574257560E+02  0.36789846953E+03  0.12500000000E+03 0.  0.
</event>
<event>
 5    0  0.5651355E-005  0.2809985E+03  0.7546771E-02  0.1095145E+00
         21   -1    0    0  502  501  0.00000000000E+00  0.00000000000E+00  0.19973474378E+03  0.19973474378E+03  0.00000000000E+00 0.  1.
         21   -1    0    0  501  502 -0.00000000000E+00 -0.00000000000E+00 -0.39532513375E+03  0.39532513375E+03  0.00000000000E+00 0.  1.
         25    1    1    2    0    0 -0.89512405359E+02 -0.42835032455E+02 -0.67763336900E+02  0.17339025505E+03  0.12500000000E+03 0.  0.
         25    1    1    2    0    0  0.17440124575E+03  0.72091633898E+02 -0.14184073045E+03  0.26712691929E+03  0.12500000000E+03 0.  0.
         25    1    1    2    0    0 -0.84888840396E+02 -0.29256601443E+02  0.14013677378E+02  0.15454270318E+03  0.12500000000E+03 0.  0.
</event>
<event>
 5    0  0.5626800E-005  0.3494990E+03  0.7546771E-02  0.1062821E+00
         21   -1    0    0  502  501  0.00000000000E+00  0.00000000000E+00  0.21783840813E+03  0.21783840813E+03  0.00000000000E+00 0. -1.
         21   -1    0    0  501  502 -0.00000000000E+00 -0.00000000000E+00 -0.56073479414E+03  0.56073479414E+03  0.00000000000E+00 0. -1.
         25    1    1    2    0    0 -0.20236514567E+02  0.19352872297E+03 -0.11832350881E+03  0.25978517254E+03  0.12500000000E+03 0.  0.
         25    1    1    2    0    0  0.52285744302E+01  0.67024368869E+02 -0.17479582993E+03  0.22516257721E+03  0.12500000000E+03 0.  0.
         25    1    1    2    0    0  0.15007940137E+02 -0.26055309183E+03 -0.49777047268E+02  0.29362545252E+03  0.12500000000E+03 0.  0.
</event>
<event>
 5    0  0.5626800E-005  0.3145303E+03  0.7546771E-02  0.1078195E+00
         21   -1    0    0  502  501  0.00000000000E+00  0.00000000000E+00  0.36843711267E+03  0.36843711267E+03  0.00000000000E+00 0. -1.
         21   -1    0    0  501  502 -0.00000000000E+00 -0.00000000000E+00 -0.26851067165E+03  0.26851067165E+03  0.00000000000E+00 0. -1.
         25    1    1    2    0    0 -0.30194192059E+02  0.18204099997E+03  0.10024177989E+03  0.24438500228E+03  0.12500000000E+03 0.  0.
         25    1    1    2    0    0  0.13132571206E+03 -0.84538055934E+02 -0.29705662807E+02  0.20223884877E+03  0.12500000000E+03 0.  0.
         25    1    1    2    0    0 -0.10113152000E+03 -0.97502944040E+02  0.29390323937E+02  0.19032393327E+03  0.12500000000E+03 0.  0.
</event>
<event>
 5    0  0.5626800E-005  0.3121722E+03  0.7546771E-02  0.1079309E+00
         21   -1    0    0  502  501  0.00000000000E+00  0.00000000000E+00  0.19784789596E+03  0.19784789596E+03  0.00000000000E+00 0. -1.
         21   -1    0    0  501  502 -0.00000000000E+00 -0.00000000000E+00 -0.49255755402E+03  0.49255755402E+03  0.00000000000E+00 0. -1.
         25    1    1    2    0    0 -0.19445873731E+03 -0.45780128477E+02 -0.42407217653E+02  0.23944392410E+03  0.12500000000E+03 0.  0.
         25    1    1    2    0    0  0.98809304240E+02 -0.54544315531E+02 -0.19066884331E+03  0.25439726565E+03  0.12500000000E+03 0.  0.
         25    1    1    2    0    0  0.95649433065E+02  0.10032444401E+03 -0.61633597087E+02  0.19656426023E+03  0.12500000000E+03 0.  0.
</event>
<event>
 5    0  0.5626800E-005  0.3139875E+03  0.7546771E-02  0.1078450E+00
         21   -1    0    0  502  501  0.00000000000E+00  0.00000000000E+00  0.29183825376E+03  0.29183825376E+03  0.00000000000E+00 0.  1.
         21   -1    0    0  501  502 -0.00000000000E+00 -0.00000000000E+00 -0.33781780140E+03  0.33781780140E+03  0.00000000000E+00 0.  1.
         25    1    1    2    0    0 -0.38599092683E+02  0.10456817255E+03 -0.43914953181E+02  0.17314131737E+03  0.12500000000E+03 0.  0.
         25    1    1    2    0    0  0.51433462303E+02  0.12633610360E+03  0.42621563484E+02  0.18986260767E+03  0.12500000000E+03 0.  0.
         25    1    1    2    0    0 -0.12834369620E+02 -0.23090427615E+03 -0.44686157943E+02  0.26665213013E+03  0.12500000000E+03 0.  0.
</event>
<event>
 5    0  0.5626800E-005  0.3945800E+03  0.7546771E-02  0.1045673E+00
         21   -1    0    0  502  501  0.00000000000E+00  0.00000000000E+00  0.11196925135E+03  0.11196925135E+03  0.00000000000E+00 0. -1.
         21   -1    0    0  501  502 -0.00000000000E+00 -0.00000000000E+00 -0.13905012723E+04  0.13905012723E+04  0.00000000000E+00 0. -1.
         25    1    1    2    0    0  0.37953765912E+02 -0.16901031629E+03 -0.72312616853E+03  0.75401686385E+03  0.12500000000E+03 0.  0.
         25    1    1    2    0    0 -0.38815487406E+02 -0.15455020983E+02 -0.50240830505E+03  0.51940793671E+03  0.12500000000E+03 0.  0.
         25    1    1    2    0    0  0.86172149449E+00  0.18446533727E+03 -0.52997547318E+02  0.22904572304E+03  0.12500000000E+03 0.  0.
</event>
<event>
 5    0  0.5626800E-005  0.2969812E+03  0.7546771E-02  0.1086760E+00
         21   -1    0    0  502  501  0.00000000000E+00  0.00000000000E+00  0.14469052471E+03  0.14469052471E+03  0.00000000000E+00 0. -1.
         21   -1    0    0  501  502 -0.00000000000E+00 -0.00000000000E+00 -0.60956174134E+03  0.60956174134E+03  0.00000000000E+00 0. -1.
         25    1    1    2    0    0  0.14620174275E+03 -0.10766631049E+03 -0.25554557910E+03  0.33748411369E+03  0.12500000000E+03 0.  0.
         25    1    1    2    0    0 -0.47952919200E+02  0.45106651240E+02 -0.20103532556E+03  0.24571181203E+03  0.12500000000E+03 0.  0.
         25    1    1    2    0    0 -0.98248823553E+02  0.62559659247E+02 -0.82903119659E+01  0.17105634033E+03  0.12500000000E+03 0.  0.
</event>
<event>
 5    0  0.5626800E-005  0.3067760E+03  0.7546771E-02  0.1081902E+00
         21   -1    0    0  502  501  0.00000000000E+00  0.00000000000E+00  0.16193735366E+03  0.16193735366E+03  0.00000000000E+00 0. -1.
         21   -1    0    0  501  502 -0.00000000000E+00 -0.00000000000E+00 -0.58116010049E+03  0.58116010049E+03  0.00000000000E+00 0. -1.
         25    1    1    2    0    0  0.37664985846E+02  0.86687261018E+02 -0.41399052062E+03  0.44265842762E+03  0.12500000000E+03 0.  0.
         25    1    1    2    0    0  0.46041824508E+02 -0.40624083574E+02 -0.26217309486E+02  0.14171278378E+03  0.12500000000E+03 0.  0.
         25    1    1    2    0    0 -0.83706810354E+02 -0.46063177444E+02  0.20985083273E+02  0.15872624274E+03  0.12500000000E+03 0.  0.
</event>
<event>
 5    0  0.5626800E-005  0.3241053E+03  0.7546771E-02  0.1073775E+00
         21   -1    0    0  502  501  0.00000000000E+00  0.00000000000E+00  0.18055726287E+03  0.18055726287E+03  0.00000000000E+00 0.  1.
         21   -1    0    0  501  502 -0.00000000000E+00 -0.00000000000E+00 -0.58177787308E+03  0.58177787308E+03  0.00000000000E+00 0.  1.
         25    1    1    2    0    0 -0.76934261942E+02 -0.26993106149E+02 -0.69421350017E+02  0.16459596677E+03  0.12500000000E+03 0.  0.
         25    1    1    2    0    0  0.44186012556E+02  0.13478192499E+03 -0.37851285604E+03  0.42310229638E+03  0.12500000000E+03 0.  0.
         25    1    1    2    0    0  0.32748249386E+02 -0.10778881884E+03  0.46713595848E+02  0.17463687280E+03  0.12500000000E+03 0.  0.
</event>
<event>
 5    0  0.5626800E-005  0.2271473E+03  0.7546771E-02  0.1128664E+00
         21   -1    0    0  502  501  0.00000000000E+00  0.00000000000E+00  0.13045061636E+03  0.13045061636E+03  0.00000000000E+00 0. -1.
         21   -1    0    0  501  502 -0.00000000000E+00 -0.00000000000E+00 -0.39552066505E+03  0.39552066505E+03  0.00000000000E+00 0. -1.
         25    1    1    2    0    0  0.10418725774E+03 -0.14500502989E+02 -0.90590000495E+02  0.18680684530E+03  0.12500000000E+03 0.  0.
         25    1    1    2    0    0 -0.55598021145E+02 -0.29659725789E+02 -0.43541953918E+02  0.14660061746E+03  0.12500000000E+03 0.  0.
         25    1    1    2    0    0 -0.48589236593E+02  0.44160228778E+02 -0.13093809428E+03  0.19256381864E+03  0.12500000000E+03 0.  0.
</event>
<event>
 5    0  0.5626800E-005  0.4975755E+03  0.7546771E-02  0.1014414E+00
         21   -1    0    0  502  501  0.00000000000E+00  0.00000000000E+00  0.98550858713E+03  0.98550858713E+03  0.00000000000E+00 0. -1.
         21   -1    0    0  501  502 -0.00000000000E+00 -0.00000000000E+00 -0.25122192804E+03  0.25122192804E+03  0.00000000000E+00 0. -1.
         25    1    1    2    0    0 -0.13363717687E+02 -0.10948623841E+03  0.15592678184E+03  0.22826297695E+03  0.12500000000E+03 0.  0.
         25    1    1    2    0    0  0.23166313368E+02 -0.76573899533E+02  0.72526097170E+03  0.74028961713E+03  0.12500000000E+03 0.  0.
         25    1    1    2    0    0 -0.98025956806E+01  0.18606013794E+03 -0.14690109444E+03  0.26817792109E+03  0.12500000000E+03 0.  0.
</event>
<event>
 5    0  0.5626800E-005  0.3556608E+03  0.7546771E-02  0.1060315E+00
         21   -1    0    0  502  501  0.00000000000E+00  0.00000000000E+00  0.30999130568E+03  0.30999130568E+03  0.00000000000E+00 0.  1.
         21   -1    0    0  501  502 -0.00000000000E+00 -0.00000000000E+00 -0.40805847900E+03  0.40805847900E+03  0.00000000000E+00 0.  1.
         25    1    1    2    0    0  0.15855236455E+03  0.21228795428E+03 -0.82003863846E+02  0.30422797623E+03  0.12500000000E+03 0.  0.
         25    1    1    2    0    0 -0.36128796055E+02  0.89438903653E+01 -0.18669540381E+02  0.13175293096E+03  0.12500000000E+03 0.  0.
         25    1    1    2    0    0 -0.12242356850E+03 -0.22123184464E+03  0.26062309103E+01  0.28206887749E+03  0.12500000000E+03 0.  0.
</event>
<event>
 5    0  0.5626800E-005  0.2909911E+03  0.7546771E-02  0.1089833E+00
         21   -1    0    0  502  501  0.00000000000E+00  0.00000000000E+00  0.40392951694E+03  0.40392951694E+03  0.00000000000E+00 0.  1.
         21   -1    0    0  501  502 -0.00000000000E+00 -0.00000000000E+00 -0.20963020220E+03  0.20963020220E+03  0.00000000000E+00 0.  1.
         25    1    1    2    0    0 -0.69461887482E+02 -0.11441981062E+03  0.46505138500E+02  0.18895654205E+03  0.12500000000E+03 0.  0.
         25    1    1    2    0    0  0.96538355390E+02 -0.34120541775E+01  0.18855512052E+03  0.24598644200E+03  0.12500000000E+03 0.  0.
         25    1    1    2    0    0 -0.27076467908E+02  0.11783186480E+03 -0.40760944280E+02  0.17861673509E+03  0.12500000000E+03 0.  0.
</event>
<event>
 5    0  0.5704247E-005  0.2435646E+03  0.7546771E-02  0.1117441E+00
         21   -1    0    0  502  501  0.00000000000E+00  0.00000000000E+00  0.53834168146E+03  0.53834168146E+03  0.00000000000E+00 0. -1.
         21   -1    0    0  501  502 -0.00000000000E+00 -0.00000000000E+00 -0.11019715184E+03  0.11019715184E+03  0.00000000000E+00 0. -1.
         25    1    1    2    0    0  0.31390616154E+02  0.43696808281E+01  0.14300916492E+03  0.19256449866E+03  0.12500000000E+03 0.  0.
         25    1    1    2    0    0  0.10882652823E+03  0.17014139991E+02  0.12678149392E+03  0.20935912067E+03  0.12500000000E+03 0.  0.
         25    1    1    2    0    0 -0.14021714438E+03 -0.21383820819E+02  0.15835387078E+03  0.24661521397E+03  0.12500000000E+03 0.  0.
</event>
<event>
 5    0  0.5626800E-005  0.3292651E+03  0.7546771E-02  0.1071463E+00
         21   -1    0    0  502  501  0.00000000000E+00  0.00000000000E+00  0.25381574181E+03  0.25381574181E+03  0.00000000000E+00 0. -1.
         21   -1    0    0  501  502 -0.00000000000E+00 -0.00000000000E+00 -0.42714250729E+03  0.42714250729E+03  0.00000000000E+00 0. -1.
         25    1    1    2    0    0  0.10005901919E+03  0.12466633322E+03  0.83869791893E+02  0.21957377792E+03  0.12500000000E+03 0.  0.
         25    1    1    2    0    0  0.69551995119E+02 -0.39661528543E+02 -0.58488337484E+02  0.15955062674E+03  0.12500000000E+03 0.  0.
         25    1    1    2    0    0 -0.16961101431E+03 -0.85004804675E+02 -0.19870821989E+03  0.30183384443E+03  0.12500000000E+03 0.  0.
</event>
<event>
 5    0  0.5626800E-005  0.2646724E+03  0.7546771E-02  0.1104368E+00
         21   -1    0    0  502  501  0.00000000000E+00  0.00000000000E+00  0.14307188055E+04  0.14307188055E+04  0.00000000000E+00 0. -1.
         21   -1    0    0  501  502 -0.00000000000E+00 -0.00000000000E+00 -0.48962440510E+02  0.48962440510E+02  0.00000000000E+00 0. -1.
         25    1    1    2    0    0  0.12574501501E+02 -0.71436824782E+01  0.19677688207E+03  0.23357074218E+03  0.12500000000E+03 0.  0.
         25    1    1    2    0    0 -0.20913453871E+02  0.57250939941E+02  0.10352784582E+04  0.10445772009E+04  0.12500000000E+03 0.  0.
         25    1    1    2    0    0  0.83389523700E+01 -0.50107257463E+02  0.14970102473E+03  0.20153330291E+03  0.12500000000E+03 0.  0.
</event>
<event>
 5    0  0.5626800E-005  0.4276771E+03  0.7546771E-02  0.1034596E+00
         21   -1    0    0  502  501  0.00000000000E+00  0.00000000000E+00  0.24132299093E+04  0.24132299093E+04  0.00000000000E+00 0. -1.
         21   -1    0    0  501  502 -0.00000000000E+00 -0.00000000000E+00 -0.75793749299E+02  0.75793749299E+02  0.00000000000E+00 0. -1.
         25    1    1    2    0    0 -0.65934694118E+02  0.21323562636E+03  0.14869246732E+04  0.15087699626E+04  0.12500000000E+03 0.  0.
         25    1    1    2    0    0  0.19301620631E+03 -0.61451393393E+02  0.55008060131E+03  0.59937066794E+03  0.12500000000E+03 0.  0.
         25    1    1    2    0    0 -0.12708151219E+03 -0.15178423296E+03  0.30043088551E+03  0.38088302809E+03  0.12500000000E+03 0.  0.
</event>
<event>
 5    0  0.5626800E-005  0.2512669E+03  0.7546771E-02  0.1112507E+00
         21   -1    0    0  502  501  0.00000000000E+00  0.00000000000E+00  0.35039540608E+03  0.35039540608E+03  0.00000000000E+00 0. -1.
         21   -1    0    0  501  502 -0.00000000000E+00 -0.00000000000E+00 -0.18018238234E+03  0.18018238234E+03  0.00000000000E+00 0. -1.
         25    1    1    2    0    0  0.13300013022E+03  0.53518028456E+02  0.48162416708E+02  0.19620864505E+03  0.12500000000E+03 0.  0.
         25    1    1    2    0    0 -0.12617663430E+03 -0.52307507997E+02  0.59916908167E+02  0.19460640874E+03  0.12500000000E+03 0.  0.
         25    1    1    2    0    0 -0.68234959200E+01 -0.12105204591E+01  0.62133698871E+02  0.13976273463E+03  0.12500000000E+03 0.  0.
</event>
<event>
 5    0  0.5626800E-005  0.2806674E+03  0.7546771E-02  0.1095325E+00
         21   -1    0    0  502  501  0.00000000000E+00  0.00000000000E+00  0.14030553954E+03  0.14030553954E+03  0.00000000000E+00 0. -1.
         21   -1    0    0  501  502 -0.00000000000E+00 -0.00000000000E+00 -0.56144739430E+03  0.56144739430E+03  0.00000000000E+00 0. -1.
         25    1    1    2    0    0 -0.80809762868E+02  0.85810576548E+02 -0.28181624260E+03  0.33005918775E+03  0.12500000000E+03 0.  0.
         25    1    1    2    0    0 -0.40481655230E+02  0.79569021694E+01 -0.33858387967E+01  0.13167589228E+03  0.12500000000E+03 0.  0.
         25    1    1    2    0    0  0.12129141810E+03 -0.93767478718E+02 -0.13593977336E+03  0.24001785382E+03  0.12500000000E+03 0.  0.
</event>
<event>
 5    0  0.5626800E-005  0.2537228E+03  0.7546771E-02  0.1110974E+00
         21   -1    0    0  502  501  0.00000000000E+00  0.00000000000E+00  0.95764986747E+03  0.95764986747E+03  0.00000000000E+00 0.  1.
         21   -1    0    0  501  502 -0.00000000000E+00 -0.00000000000E+00 -0.67222104207E+02  0.67222104207E+02  0.00000000000E+00 0.  1.
         25    1    1    2    0    0 -0.87748745189E+02 -0.22271914136E+02  0.50632511339E+03  0.52932598736E+03  0.12500000000E+03 0.  0.
         25    1    1    2    0    0  0.25668867995E+02 -0.49218172927E+02  0.26645919636E+03  0.29951097251E+03  0.12500000000E+03 0.  0.
         25    1    1    2    0    0  0.62079877194E+02  0.71490087064E+02  0.11764345352E+03  0.19603501181E+03  0.12500000000E+03 0.  0.
</event>
<event>
 5    0  0.5626800E-005  0.2523780E+03  0.7546771E-02  0.1111811E+00
         21   -1    0    0  502  501  0.00000000000E+00  0.00000000000E+00  0.42833250946E+03  0.42833250946E+03  0.00000000000E+00 0.  1.
         21   -1    0    0  501  502 -0.00000000000E+00 -0.00000000000E+00 -0.14870381758E+03  0.14870381758E+03  0.00000000000E+00 0.  1.
         25    1    1    2    0    0  0.47556195311E+02  0.74917340986E+02  0.18769927845E+03  0.24234318399E+03  0.12500000000E+03 0.  0.
         25    1    1    2    0    0 -0.10483794174E+03 -0.73365275288E+02  0.82134061568E+02  0.19683612909E+03  0.12500000000E+03 0.  0.
         25    1    1    2    0    0  0.57281746425E+02 -0.15520656979E+01  0.97953518591E+01  0.13785701397E+03  0.12500000000E+03 0.  0.
</event>
<event>
 5    0  0.5626800E-005  0.3520099E+03  0.7546771E-02  0.1061793E+00
         21   -1    0    0  502  501  0.00000000000E+00  0.00000000000E+00  0.43039394270E+03  0.43039394270E+03  0.00000000000E+00 0. -1.
         21   -1    0    0  501  502 -0.00000000000E+00 -0.00000000000E+00 -0.28790123118E+03  0.28790123118E+03  0.00000000000E+00 0. -1.
         25    1    1    2    0    0  0.39597387400E+01  0.22830501959E+03 -0.11619084645E+02  0.26057410583E+03  0.12500000000E+03 0.  0.
         25    1    1    2    0    0  0.11567483581E+03 -0.41688836653E+02  0.46362895236E+02  0.18136467351E+03  0.12500000000E+03 0.  0.
         25    1    1    2    0    0 -0.11963457455E+03 -0.18661618293E+03  0.10774890093E+03  0.27635639455E+03  0.12500000000E+03 0.  0.
</event>
<event>
 5    0  0.5626800E-005  0.3806186E+03  0.7546771E-02  0.1050705E+00
         21   -1    0    0  502  501  0.00000000000E+00  0.00000000000E+00  0.10059688246E+04  0.10059688246E+04  0.00000000000E+00 0.  1.
         21   -1    0    0  501  502 -0.00000000000E+00 -0.00000000000E+00 -0.14401090827E+03  0.14401090827E+03  0.00000000000E+00 0.  1.
         25    1    1    2    0    0 -0.30173370775E+03  0.10718431992E+02  0.29309872351E+03  0.43896466475E+03  0.12500000000E+03 0.  0.
         25    1    1    2    0    0  0.14483380726E+03 -0.43147238944E+02  0.15506865498E+03  0.25001960665E+03  0.12500000000E+03 0.  0.
         25    1    1    2    0    0  0.15689990049E+03  0.32428806952E+02  0.41379053786E+03  0.46099546150E+03  0.12500000000E+03 0.  0.
</event>
<event>
 5    0  0.5626800E-005  0.2146737E+03  0.7546771E-02  0.1137917E+00
         21   -1    0    0  502  501  0.00000000000E+00  0.00000000000E+00  0.68549348646E+03  0.68549348646E+03  0.00000000000E+00 0.  1.
         21   -1    0    0  501  502 -0.00000000000E+00 -0.00000000000E+00 -0.67228660940E+02  0.67228660940E+02  0.00000000000E+00 0.  1.
         25    1    1    2    0    0 -0.17548321360E+02 -0.51905521357E+01  0.75328631580E+02  0.14708598896E+03  0.12500000000E+03 0.  0.
         25    1    1    2    0    0  0.57475042274E+01  0.15826344421E+02  0.37527499315E+03  0.39590381088E+03  0.12500000000E+03 0.  0.
         25    1    1    2    0    0  0.11800817133E+02 -0.10635792286E+02  0.16766120079E+03  0.20973234756E+03  0.12500000000E+03 0.  0.
</event>
<event>
 5    0  0.5626800E-005  0.3743485E+03  0.7546771E-02  0.1053043E+00
         21   -1    0    0  502  501  0.00000000000E+00  0.00000000000E+00  0.32240796184E+03  0.32240796184E+03  0.00000000000E+00 0.  1.
         21   -1    0    0  501  502 -0.00000000000E+00 -0.00000000000E+00 -0.43465664570E+03  0.43465664570E+03  0.00000000000E+00 0.  1.
         25    1    1    2    0    0  0.21270657552E+03  0.15252950349E+03  0.34683424632E+02  0.29212544677E+03  0.12500000000E+03 0.  0.
         25    1    1    2    0    0 -0.84083913552E+02 -0.12316944106E+03  0.45927606883E+02  0.19993789236E+03  0.12500000000E+03 0.  0.
         25    1    1    2    0    0 -0.12862266197E+03 -0.29360062428E+02 -0.19285971538E+03  0.26500126840E+03  0.12500000000E+03 0.  0.
</event>
<event>
 5    0  0.5694952E-005  0.3321942E+03  0.7546771E-02  0.1070170E+00
         21   -1    0    0  502  501  0.00000000000E+00  0.00000000000E+00  0.16821088941E+03  0.16821088941E+03  0.00000000000E+00 0. -1.
         21   -1    0    0  501  502 -0.00000000000E+00 -0.00000000000E+00 -0.65603951970E+03  0.65603951970E+03  0.00000000000E+00 0. -1.
         25    1    1    2    0    0  0.34660112001E+01 -0.99809790827E+02 -0.18822286478E+03  0.24703613988E+03  0.12500000000E+03 0.  0.
         25    1    1    2    0    0  0.66773470232E+02  0.24403721552E+03 -0.22380371718E+03  0.36017490572E+03  0.12500000000E+03 0.  0.
         25    1    1    2    0    0 -0.70239481432E+02 -0.14422742469E+03 -0.75802048321E+02  0.21703936351E+03  0.12500000000E+03 0.  0.
</event>
<event>
 5    0  0.5626800E-005  0.3367957E+03  0.7546771E-02  0.1068169E+00
         21   -1    0    0  502  501  0.00000000000E+00  0.00000000000E+00  0.67099801203E+03  0.67099801203E+03  0.00000000000E+00 0. -1.
         21   -1    0    0  501  502 -0.00000000000E+00 -0.00000000000E+00 -0.16904870138E+03  0.16904870138E+03  0.00000000000E+00 0. -1.
         25    1    1    2    0    0 -0.14007968922E+03  0.12771633780E+03  0.32793080900E+02  0.22942137744E+03  0.12500000000E+03 0.  0.
         25    1    1    2    0    0  0.46474805889E+02  0.59589121125E+02  0.19614327368E+03  0.24455664936E+03  0.12500000000E+03 0.  0.
         25    1    1    2    0    0  0.93604883332E+02 -0.18730545893E+03  0.27301295607E+03  0.36606868660E+03  0.12500000000E+03 0.  0.
</event>
<event>
 5    0  0.5626800E-005  0.3269977E+03  0.7546771E-02  0.1072473E+00
         21   -1    0    0  502  501  0.00000000000E+00  0.00000000000E+00  0.12144081830E+03  0.12144081830E+03  0.00000000000E+00 0. -1.
         21   -1    0    0  501  502 -0.00000000000E+00 -0.00000000000E+00 -0.88049044362E+03  0.88049044362E+03  0.00000000000E+00 0. -1.
         25    1    1    2    0    0 -0.98155512404E+02  0.25179354570E+02 -0.17615593809E+03  0.23858838831E+03  0.12500000000E+03 0.  0.
         25    1    1    2    0    0 -0.61973847727E+02  0.33858246248E+02 -0.52462989218E+03  0.54391972055E+03  0.12500000000E+03 0.  0.
         25    1    1    2    0    0  0.16012936013E+03 -0.59037600818E+02 -0.58263795054E+02  0.21942315306E+03  0.12500000000E+03 0.  0.
</event>
<event>
 5    0  0.5626800E-005  0.6378426E+03  0.7546771E-02  0.9829863E-01
         21   -1    0    0  502  501  0.00000000000E+00  0.00000000000E+00  0.10921546652E+04  0.10921546652E+04  0.00000000000E+00 0. -1.
         21   -1    0    0  501  502 -0.00000000000E+00 -0.00000000000E+00 -0.37251430589E+03  0.37251430589E+03  0.00000000000E+00 0. -1.
         25    1    1    2    0    0  0.56665430492E+03 -0.10844605356E+03  0.23892927121E+03  0.63684365778E+03  0.12500000000E+03 0.  0.
         25    1    1    2    0    0 -0.86783628126E+02  0.77159141727E+02  0.75068763310E+02  0.18640077920E+03  0.12500000000E+03 0.  0.
         25    1    1    2    0    0 -0.47987067679E+03  0.31286911828E+02  0.40564232480E+03  0.64142453411E+03  0.12500000000E+03 0.  0.
</event>
<event>
 5    0  0.5626800E-005  0.3201323E+03  0.7546771E-02  0.1075588E+00
         21   -1    0    0  502  501  0.00000000000E+00  0.00000000000E+00  0.25453979257E+04  0.25453979257E+04  0.00000000000E+00 0.  1.
         21   -1    0    0  501  502 -0.00000000000E+00 -0.00000000000E+00 -0.40262731429E+02  0.40262731429E+02  0.00000000000E+00 0.  1.
         25    1    1    2    0    0 -0.12052573058E+03 -0.42934853905E+02  0.37257517723E+03  0.41328817561E+03  0.12500000000E+03 0.  0.
         25    1    1    2    0    0 -0.93056391947E+02 -0.21308060740E+02  0.73900215943E+03  0.75555457591E+03  0.12500000000E+03 0.  0.
         25    1    1    2    0    0  0.21358212253E+03  0.64242914645E+02  0.13935578576E+04  0.14168179056E+04  0.12500000000E+03 0.  0.
</event>
<event>
 5    0  0.5626800E-005  0.2706670E+03  0.7546771E-02  0.1100898E+00
         21   -1    0    0  502  501  0.00000000000E+00  0.00000000000E+00  0.74419133225E+03  0.74419133225E+03  0.00000000000E+00 0.  1.
         21   -1    0    0  501  502 -0.00000000000E+00 -0.00000000000E+00 -0.98443274475E+02  0.98443274475E+02  0.00000000000E+00 0.  1.
         25    1    1    2    0    0  0.19802999227E+02 -0.27506178562E+02  0.50807119953E+03  0.52431869357E+03  0.12500000000E+03 0.  0.
         25    1    1    2    0    0  0.23870840397E+02 -0.17303503854E+02  0.97020063702E+01  0.12879579649E+03  0.12500000000E+03 0.  0.
         25    1    1    2    0    0 -0.43673839624E+02  0.44809682416E+02  0.12797485187E+03  0.18952011666E+03  0.12500000000E+03 0.  0.
</event>
<event>
 5    0  0.5626800E-005  0.3230182E+03  0.7546771E-02  0.1074269E+00
         21   -1    0    0  502  501  0.00000000000E+00  0.00000000000E+00  0.11472129847E+03  0.11472129847E+03  0.00000000000E+00 0. -1.
         21   -1    0    0  501  502 -0.00000000000E+00 -0.00000000000E+00 -0.90951506431E+03  0.90951506431E+03  0.00000000000E+00 0. -1.
         25    1    1    2    0    0  0.16996492020E+02 -0.14023750752E+03 -0.17803542128E+03  0.25937819971E+03  0.12500000000E+03 0.  0.
         25    1    1    2    0    0 -0.12193873926E+03  0.46960720611E+02 -0.52579522546E+03  0.55602156840E+03  0.12500000000E+03 0.  0.
         25    1    1    2    0    0  0.10494224724E+03  0.93276786909E+02 -0.90963119106E+02  0.20883659466E+03  0.12500000000E+03 0.  0.
</event>
<event>
 5    0  0.6297047E-005  0.3459703E+03  0.7546771E-02  0.1064281E+00
         21   -1    0    0  502  501  0.00000000000E+00  0.00000000000E+00  0.21405939289E+03  0.21405939289E+03  0.00000000000E+00 0. -1.
         21   -1    0    0  501  502 -0.00000000000E+00 -0.00000000000E+00 -0.55916923070E+03  0.55916923070E+03  0.00000000000E+00 0. -1.
         25    1    1    2    0    0  0.46028180901E+02 -0.18359690461E+03 -0.11497278109E+03  0.25430327802E+03  0.12500000000E+03 0.  0.
         25    1    1    2    0    0 -0.18777804256E+02  0.36547222684E+01  0.71383642496E+02  0.14521221486E+03  0.12500000000E+03 0.  0.
         25    1    1    2    0    0 -0.27250376645E+02  0.17994218234E+03 -0.30152069922E+03  0.37371313072E+03  0.12500000000E+03 0.  0.
</event>
<event>
 5    0  0.6458610E-005  0.4299961E+03  0.7546771E-02  0.1033861E+00
         21   -1    0    0  502  501  0.00000000000E+00  0.00000000000E+00  0.20919959035E+03  0.20919959035E+03  0.00000000000E+00 0.  1.
         21   -1    0    0  501  502 -0.00000000000E+00 -0.00000000000E+00 -0.88382892111E+03  0.88382892111E+03  0.00000000000E+00 0.  1.
         25    1    1    2    0    0 -0.25482735416E+03 -0.41640728131E+02 -0.13425026038E+03  0.31673184728E+03  0.12500000000E+03 0.  0.
         25    1    1    2    0    0 -0.15355627789E+02  0.11769677841E+03 -0.40572957241E+03  0.44082855271E+03  0.12500000000E+03 0.  0.
         25    1    1    2    0    0  0.27018298195E+03 -0.76056050276E+02 -0.13464949797E+03  0.33546811148E+03  0.12500000000E+03 0.  0.
</event>
<event>
 5    0  0.9306412E-005  0.6249962E+03  0.7546771E-02  0.9854862E-01
         21   -1    0    0  502  501  0.00000000000E+00  0.00000000000E+00  0.10468148419E+04  0.10468148419E+04  0.00000000000E+00 0.  1.
         21   -1    0    0  501  502 -0.00000000000E+00 -0.00000000000E+00 -0.37315121544E+03  0.37315121544E+03  0.00000000000E+00 0.  1.
         25    1    1    2    0    0  0.34271723271E+03  0.44641367709E+02 -0.61217497252E+02  0.37258627897E+03  0.12500000000E+03 0.  0.
         25    1    1    2    0    0 -0.28492913881E+03 -0.27357462360E+02  0.13357379788E+02  0.31262831683E+03  0.12500000000E+03 0.  0.
         25    1    1    2    0    0 -0.57788093895E+02 -0.17283905349E+02  0.72152374395E+03  0.73475146156E+03  0.12500000000E+03 0.  0.
</event>
<event>
 5    0  0.5626800E-005  0.4543249E+03  0.7546771E-02  0.1026440E+00
         21   -1    0    0  502  501  0.00000000000E+00  0.00000000000E+00  0.21322260935E+04  0.21322260935E+04  0.00000000000E+00 0.  1.
         21   -1    0    0  501  502 -0.00000000000E+00 -0.00000000000E+00 -0.96805472250E+02  0.96805472250E+02  0.00000000000E+00 0.  1.
         25    1    1    2    0    0  0.69792708902E+02 -0.11364709452E+03  0.10946913267E+04  0.11098471899E+04  0.12500000000E+03 0.  0.
         25    1    1    2    0    0  0.19374001450E+03  0.11872847426E+03  0.21448910459E+03  0.33654452872E+03  0.12500000000E+03 0.  0.
         25    1    1    2    0    0 -0.26353272340E+03 -0.50813797430E+01  0.72624018998E+03  0.78263984710E+03  0.12500000000E+03 0.  0.
</event>
<event>
 5    0  0.5920063E-005  0.3515777E+03  0.7546771E-02  0.1061969E+00
         21   -1    0    0  502  501  0.00000000000E+00  0.00000000000E+00  0.33637137895E+03  0.33637137895E+03  0.00000000000E+00 0. -1.
         21   -1    0    0  501  502 -0.00000000000E+00 -0.00000000000E+00 -0.36747137917E+03  0.36747137917E+03  0.00000000000E+00 0. -1.
         25    1    1    2    0    0  0.10311832065E+03  0.50463201622E+02 -0.20140337712E+03  0.26337851675E+03  0.12500000000E+03 0.  0.
         25    1    1    2    0    0 -0.59489642144E+02  0.12296167277E+03  0.52250839642E+02  0.19238955464E+03  0.12500000000E+03 0.  0.
         25    1    1    2    0    0 -0.43628678503E+02 -0.17342487439E+03  0.11805253725E+03  0.24807468673E+03  0.12500000000E+03 0.  0.
</event>
<event>
 5    0  0.5626800E-005  0.3077738E+03  0.7546771E-02  0.1081418E+00
         21   -1    0    0  502  501  0.00000000000E+00  0.00000000000E+00  0.37652920034E+02  0.37652920034E+02  0.00000000000E+00 0. -1.
         21   -1    0    0  501  502 -0.00000000000E+00 -0.00000000000E+00 -0.25157338311E+04  0.25157338311E+04  0.00000000000E+00 0. -1.
         25    1    1    2    0    0  0.57853626716E+02  0.33958414635E+02 -0.55335846268E+03  0.57125371269E+03  0.12500000000E+03 0.  0.
         25    1    1    2    0    0  0.47431527151E+02 -0.13884211258E+03 -0.38851282282E+03  0.43369816173E+03  0.12500000000E+03 0.  0.
         25    1    1    2    0    0 -0.10528515387E+03  0.10488369795E+03 -0.15362096256E+04  0.15484348767E+04  0.12500000000E+03 0.  0.
</event>
<event>
 5    0  0.5626800E-005  0.4964373E+03  0.7546771E-02  0.1014713E+00
         21   -1    0    0  502  501  0.00000000000E+00  0.00000000000E+00  0.93389218919E+02  0.93389218919E+02  0.00000000000E+00 0. -1.
         21   -1    0    0  501  502 -0.00000000000E+00 -0.00000000000E+00 -0.26389557997E+04  0.26389557997E+04  0.00000000000E+00 0. -1.
         25    1    1    2    0    0 -0.14904342646E+03 -0.33253563736E+03 -0.13341964421E+04  0.13887040862E+04  0.12500000000E+03 0.  0.
         25    1    1    2    0    0  0.21562055186E+03  0.37479782697E+02 -0.47211240724E+03  0.53517481403E+03  0.12500000000E+03 0.  0.
         25    1    1    2    0    0 -0.66577125400E+02  0.29505585466E+03 -0.73925773142E+03  0.80846611831E+03  0.12500000000E+03 0.  0.
</event>
<event>
 5    0  0.5626800E-005  0.4112198E+03  0.7546771E-02  0.1039962E+00
         21   -1    0    0  502  501  0.00000000000E+00  0.00000000000E+00  0.66542734747E+03  0.66542734747E+03  0.00000000000E+00 0. -1.
         21   -1    0    0  501  502 -0.00000000000E+00 -0.00000000000E+00 -0.25412501497E+03  0.25412501497E+03  0.00000000000E+00 0. -1.
         25    1    1    2    0    0 -0.29215748286E+02 -0.15456485086E+03 -0.27404299904E+02  0.20278029668E+03  0.12500000000E+03 0.  0.
         25    1    1    2    0    0  0.14592908887E+02  0.30833892837E+03  0.38871821115E+03  0.51187175681E+03  0.12500000000E+03 0.  0.
         25    1    1    2    0    0  0.14622839399E+02 -0.15377407751E+03  0.49988421259E+02  0.20490030895E+03  0.12500000000E+03 0.  0.
</event>
<event>
 5    0  0.5626800E-005  0.2589060E+03  0.7546771E-02  0.1107802E+00
         21   -1    0    0  502  501  0.00000000000E+00  0.00000000000E+00  0.21790449314E+03  0.21790449314E+03  0.00000000000E+00 0. -1.
         21   -1    0    0  501  502 -0.00000000000E+00 -0.00000000000E+00 -0.30762253472E+03  0.30762253472E+03  0.00000000000E+00 0. -1.
         25    1    1    2    0    0 -0.75626994601E+02  0.38232926396E+02 -0.10932005218E+02  0.15141237635E+03  0.12500000000E+03 0.  0.
         25    1    1    2    0    0  0.11241508602E+03  0.53296390268E+02 -0.11535298668E+03  0.21073435486E+03  0.12500000000E+03 0.  0.
         25    1    1    2    0    0 -0.36788091422E+02 -0.91529316664E+02  0.36566950315E+02  0.16338029665E+03  0.12500000000E+03 0.  0.
</event>
<event>
 5    0  0.5626800E-005  0.3076292E+03  0.7546771E-02  0.1081488E+00
         21   -1    0    0  502  501  0.00000000000E+00  0.00000000000E+00  0.27255163581E+03  0.27255163581E+03  0.00000000000E+00 0.  1.
         21   -1    0    0  501  502 -0.00000000000E+00 -0.00000000000E+00 -0.34722120757E+03  0.34722120757E+03  0.00000000000E+00 0.  1.
         25    1    1    2    0    0 -0.52587685053E+02  0.55752324145E+02 -0.20617063560E+03  0.25299232647E+03  0.12500000000E+03 0.  0.
         25    1    1    2    0    0 -0.58960798865E+02 -0.19581327751E+02  0.13660466483E+03  0.19530908492E+03  0.12500000000E+03 0.  0.
         25    1    1    2    0    0  0.11154848392E+03 -0.36170996394E+02 -0.51036009904E+01  0.17147143199E+03  0.12500000000E+03 0.  0.
</event>
<event>
 5    0  0.5626800E-005  0.6382796E+03  0.7546771E-02  0.9829024E-01
         21   -1    0    0  502  501  0.00000000000E+00  0.00000000000E+00  0.16531115213E+04  0.16531115213E+04  0.00000000000E+00 0.  1.
         21   -1    0    0  501  502 -0.00000000000E+00 -0.00000000000E+00 -0.24644489343E+03  0.24644489343E+03  0.00000000000E+00 0.  1.
         25    1    1    2    0    0 -0.17058290300E+03  0.25096123146E+03  0.10694058221E+04  0.11186303584E+04  0.12500000000E+03 0.  0.
         25    1    1    2    0    0  0.17067097513E+03  0.16582897898E+03  0.14184075108E+03  0.30392701540E+03  0.12500000000E+03 0.  0.
         25    1    1    2    0    0 -0.88072132697E-01 -0.41679021043E+03  0.19542005475E+03  0.47699904095E+03  0.12500000000E+03 0.  0.
</event>
<event>
 5    0  0.5626800E-005  0.3001486E+03  0.7546771E-02  0.1085166E+00
         21   -1    0    0  502  501  0.00000000000E+00  0.00000000000E+00  0.33872527746E+02  0.33872527746E+02  0.00000000000E+00 0. -1.
         21   -1    0    0  501  502 -0.00000000000E+00 -0.00000000000E+00 -0.26596540409E+04  0.26596540409E+04  0.00000000000E+00 0. -1.
         25    1    1    2    0    0 -0.19288699526E+03  0.49590678910E+02 -0.66694432517E+03  0.70718057188E+03  0.12500000000E+03 0.  0.
         25    1    1    2    0    0  0.67270291331E+02 -0.11807742701E+02 -0.10504298623E+04  0.10600436833E+04  0.12500000000E+03 0.  0.
         25    1    1    2    0    0  0.12561670393E+03 -0.37782936209E+02 -0.90840732563E+03  0.92630231341E+03  0.12500000000E+03 0.  0.
</event>
<event>
 5    0  0.5626800E-005  0.3770393E+03  0.7546771E-02  0.1052034E+00
         21   -1    0    0  502  501  0.00000000000E+00  0.00000000000E+00  0.11460708705E+04  0.11460708705E+04  0.00000000000E+00 0.  1.
         21   -1    0    0  501  502 -0.00000000000E+00 -0.00000000000E+00 -0.12403997592E+03  0.12403997592E+03  0.00000000000E+00 0.  1.
         25    1    1    2    0    0  0.48565760581E+02 -0.21791412708E+02  0.65707067163E+03  0.67096972084E+03  0.12500000000E+03 0.  0.
         25    1    1    2    0    0  0.46099617393E+02  0.17531117314E+03  0.69093368958E+02  0.23077711278E+03  0.12500000000E+03 0.  0.
         25    1    1    2    0    0 -0.94665377974E+02 -0.15351976043E+03  0.29586685398E+03  0.36836401278E+03  0.12500000000E+03 0.  0.
</event>
<event>
 5    0  0.5626800E-005  0.3394929E+03  0.7546771E-02  0.1067012E+00
         21   -1    0    0  502  501  0.00000000000E+00  0.00000000000E+00  0.29952893192E+03  0.29952893192E+03  0.00000000000E+00 0. -1.
         21   -1    0    0  501  502 -0.00000000000E+00 -0.00000000000E+00 -0.38478903298E+03  0.38478903298E+03  0.00000000000E+00 0. -1.
         25    1    1    2    0    0  0.16500373801E+03  0.63529167773E+02  0.67422736473E+02  0.22678847878E+03  0.12500000000E+03 0.  0.
         25    1    1    2    0    0 -0.38883021035E+02 -0.11094542652E+03  0.55002890248E+02  0.18019737769E+03  0.12500000000E+03 0.  0.
         25    1    1    2    0    0 -0.12612071697E+03  0.47416258746E+02 -0.20768572778E+03  0.27733210843E+03  0.12500000000E+03 0.  0.
</event>
<event>
 5    0  0.5626800E-005  0.3679833E+03  0.7546771E-02  0.1055467E+00
         21   -1    0    0  502  501  0.00000000000E+00  0.00000000000E+00  0.38424660134E+03  0.38424660134E+03  0.00000000000E+00 0. -1.
         21   -1    0    0  501  502 -0.00000000000E+00 -0.00000000000E+00 -0.35240839187E+03  0.35240839187E+03  0.00000000000E+00 0. -1.
         25    1    1    2    0    0  0.16560116072E+03  0.16881552795E+03 -0.77536233016E+01  0.26759586242E+03  0.12500000000E+03 0.  0.
         25    1    1    2    0    0 -0.22688191492E+03 -0.48165701423E+02  0.89389503460E+02  0.27822800262E+03  0.12500000000E+03 0.  0.
         25    1    1    2    0    0  0.61280754199E+02 -0.12064982652E+03 -0.49797670695E+02  0.19083112818E+03  0.12500000000E+03 0.  0.
</event>
<event>
 5    0  0.5626800E-005  0.3782468E+03  0.7546771E-02  0.1051584E+00
         21   -1    0    0  502  501  0.00000000000E+00  0.00000000000E+00  0.73746083182E+02  0.73746083182E+02  0.00000000000E+00 0.  1.
         21   -1    0    0  501  502 -0.00000000000E+00 -0.00000000000E+00 -0.19400443954E+04  0.19400443954E+04  0.00000000000E+00 0.  1.
         25    1    1    2    0    0 -0.27691372669E+03  0.32555808669E+02 -0.57364768986E+03  0.64995212500E+03  0.12500000000E+03 0.  0.
         25    1    1    2    0    0  0.74313370193E+02  0.65670417006E+02 -0.31865200258E+03  0.35636944230E+03  0.12500000000E+03 0.  0.
         25    1    1    2    0    0  0.20260035650E+03 -0.98226225676E+02 -0.97399861974E+03  0.10074689112E+04  0.12500000000E+03 0.  0.
</event>
<event>
 5    0  0.5626800E-005  0.3337085E+03  0.7546771E-02  0.1069508E+00
         21   -1    0    0  502  501  0.00000000000E+00  0.00000000000E+00  0.36657853048E+03  0.36657853048E+03  0.00000000000E+00 0. -1.
         21   -1    0    0  501  502 -0.00000000000E+00 -0.00000000000E+00 -0.30378591577E+03  0.30378591577E+03  0.00000000000E+00 0. -1.
         25    1    1    2    0    0 -0.30649691289E+02 -0.24769300223E+02 -0.46943335785E+02  0.13921780987E+03  0.12500000000E+03 0.  0.
         25    1    1    2    0    0  0.14204180958E+03  0.77843669613E+02  0.23785358850E+03  0.31374327424E+03  0.12500000000E+03 0.  0.
         25    1    1    2    0    0 -0.11139211829E+03 -0.53074369390E+02 -0.12811763801E+03  0.21740336215E+03  0.12500000000E+03 0.  0.
</event>
<event>
 5    0  0.5626800E-005  0.2465481E+03  0.7546771E-02  0.1115506E+00
         21   -1    0    0  502  501  0.00000000000E+00  0.00000000000E+00  0.10943104049E+03  0.10943104049E+03  0.00000000000E+00 0. -1.
         21   -1    0    0  501  502 -0.00000000000E+00 -0.00000000000E+00 -0.55547270130E+03  0.55547270130E+03  0.00000000000E+00 0. -1.
         25    1    1    2    0    0  0.27300951774E+02 -0.79566552399E+02 -0.86147878429E+02  0.17355873699E+03  0.12500000000E+03 0.  0.
         25    1    1    2    0    0 -0.78985747632E+00  0.10372740000E+02 -0.31531672486E+03  0.33934916323E+03  0.12500000000E+03 0.  0.
         25    1    1    2    0    0 -0.26511094298E+02  0.69193812399E+02 -0.44577057523E+02  0.15199584156E+03  0.12500000000E+03 0.  0.
</event>
<event>
 5    0  0.5626800E-005  0.2865066E+03  0.7546771E-02  0.1092187E+00
         21   -1    0    0  502  501  0.00000000000E+00  0.00000000000E+00  0.14550165134E+03  0.14550165134E+03  0.00000000000E+00 0.  1.
         21   -1    0    0  501  502 -0.00000000000E+00 -0.00000000000E+00 -0.56415866836E+03  0.56415866836E+03  0.00000000000E+00 0.  1.
         25    1    1    2    0    0 -0.29290495623E+02 -0.81017096385E+02 -0.13429357819E+03  0.20268563882E+03  0.12500000000E+03 0.  0.
         25    1    1    2    0    0  0.69362199756E+02  0.17874312126E+03 -0.74188610122E+02  0.24060167918E+03  0.12500000000E+03 0.  0.
         25    1    1    2    0    0 -0.40071704133E+02 -0.97726024873E+02 -0.21017482872E+03  0.26637300170E+03  0.12500000000E+03 0.  0.
</event>
<event>
 5    0  0.5739797E-005  0.3146105E+03  0.7546771E-02  0.1078157E+00
         21   -1    0    0  502  501  0.00000000000E+00  0.00000000000E+00  0.10058200277E+04  0.10058200277E+04  0.00000000000E+00 0. -1.
         21   -1    0    0  501  502 -0.00000000000E+00 -0.00000000000E+00 -0.98407057699E+02  0.98407057699E+02  0.00000000000E+00 0. -1.
         25    1    1    2    0    0 -0.10695513857E+03  0.16637734927E+03  0.41537659013E+03  0.47674263040E+03  0.12500000000E+03 0.  0.
         25    1    1    2    0    0 -0.15564217711E+02 -0.13121763093E+03  0.36675905310E+03  0.40938675427E+03  0.12500000000E+03 0.  0.
         25    1    1    2    0    0  0.12251935628E+03 -0.35159718334E+02  0.12527732677E+03  0.21809770072E+03  0.12500000000E+03 0.  0.
</event>
<event>
 5    0  0.5626800E-005  0.5143662E+03  0.7546771E-02  0.1010096E+00
         21   -1    0    0  502  501  0.00000000000E+00  0.00000000000E+00  0.32543752205E+03  0.32543752205E+03  0.00000000000E+00 0. -1.
         21   -1    0    0  501  502 -0.00000000000E+00 -0.00000000000E+00 -0.81297515786E+03  0.81297515786E+03  0.00000000000E+00 0. -1.
         25    1    1    2    0    0  0.24558421786E+03 -0.24252078188E+03 -0.35808748805E+03  0.51281535352E+03  0.12500000000E+03 0.  0.
         25    1    1    2    0    0  0.29486585571E+02 -0.94476616813E+02 -0.32160879600E+02  0.16264873817E+03  0.12500000000E+03 0.  0.
         25    1    1    2    0    0 -0.27507080343E+03  0.33699739869E+03 -0.97289268159E+02  0.46294858821E+03  0.12500000000E+03 0.  0.
</event>
<event>
 5    0  0.5626800E-005  0.4893306E+03  0.7546771E-02  0.1016602E+00
         21   -1    0    0  502  501  0.00000000000E+00  0.00000000000E+00  0.15648466096E+04  0.15648466096E+04  0.00000000000E+00 0.  1.
         21   -1    0    0  501  502 -0.00000000000E+00 -0.00000000000E+00 -0.15301466431E+03  0.15301466431E+03  0.00000000000E+00 0.  1.
         25    1    1    2    0    0  0.38269068989E+03 -0.14637931194E+03  0.49995831827E+03  0.65837860468E+03  0.12500000000E+03 0.  0.
         25    1    1    2    0    0 -0.19549072053E+03 -0.36404765477E+01  0.61763532096E+03  0.65979410772E+03  0.12500000000E+03 0.  0.
         25    1    1    2    0    0 -0.18719996936E+03  0.15001978849E+03  0.29423830610E+03  0.39968856156E+03  0.12500000000E+03 0.  0.
</event>
<event>
 5    0  0.5626800E-005  0.2094769E+03  0.7546771E-02  0.1141981E+00
         21   -1    0    0  502  501  0.00000000000E+00  0.00000000000E+00  0.21169860732E+04  0.21169860732E+04  0.00000000000E+00 0. -1.
         21   -1    0    0  501  502 -0.00000000000E+00 -0.00000000000E+00 -0.20727856811E+02  0.20727856811E+02  0.00000000000E+00 0. -1.
         25    1    1    2    0    0 -0.50333875702E+01 -0.41083611080E+02  0.62586083821E+03  0.63956234012E+03  0.12500000000E+03 0.  0.
         25    1    1    2    0    0 -0.17123666687E+02  0.77523147216E+02  0.61244482340E+03  0.63009262813E+03  0.12500000000E+03 0.  0.
         25    1    1    2    0    0  0.22157054257E+02 -0.36439536135E+02  0.85795255479E+03  0.86805896177E+03  0.12500000000E+03 0.  0.
</event>
<event>
 5    0  0.5626800E-005  0.2691807E+03  0.7546771E-02  0.1101749E+00
         21   -1    0    0  502  501  0.00000000000E+00  0.00000000000E+00  0.76177253793E+02  0.76177253793E+02  0.00000000000E+00 0. -1.
         21   -1    0    0  501  502 -0.00000000000E+00 -0.00000000000E+00 -0.95117950242E+03  0.95117950242E+03  0.00000000000E+00 0. -1.
         25    1    1    2    0    0 -0.33912510122E+02  0.82087928970E+00 -0.38760003045E+03  0.40866797745E+03  0.12500000000E+03 0.  0.
         25    1    1    2    0    0 -0.62009462812E+02  0.47502546205E+01 -0.42801993504E+03  0.45021528538E+03  0.12500000000E+03 0.  0.
         25    1    1    2    0    0  0.95921972934E+02 -0.55711339102E+01 -0.59382283143E+02  0.16847349339E+03  0.12500000000E+03 0.  0.
</event>
<event>
 5    0  0.5626800E-005  0.4768051E+03  0.7546771E-02  0.1020017E+00
         21   -1    0    0  502  501  0.00000000000E+00  0.00000000000E+00  0.44351138236E+03  0.44351138236E+03  0.00000000000E+00 0. -1.
         21   -1    0    0  501  502 -0.00000000000E+00 -0.00000000000E+00 -0.51259816230E+03  0.51259816230E+03  0.00000000000E+00 0. -1.
         25    1    1    2    0    0  0.26270501577E+03 -0.13689515960E+03 -0.14258980324E+03  0.35172583360E+03  0.12500000000E+03 0.  0.
         25    1    1    2    0    0 -0.10428697738E+03  0.27666540802E+02  0.26046688717E+03  0.30839781199E+03  0.12500000000E+03 0.  0.
         25    1    1    2    0    0 -0.15841803839E+03  0.10922861880E+03 -0.18696386387E+03  0.29598589906E+03  0.12500000000E+03 0.  0.
</event>
<event>
 5    0  0.5626800E-005  0.2193042E+03  0.7546771E-02  0.1134403E+00
         21   -1    0    0  502  501  0.00000000000E+00  0.00000000000E+00  0.68997060707E+02  0.68997060707E+02  0.00000000000E+00 0.  1.
         21   -1    0    0  501  502 -0.00000000000E+00 -0.00000000000E+00 -0.69704884939E+03  0.69704884939E+03  0.00000000000E+00 0.  1.
         25    1    1    2    0    0 -0.64320996234E+02 -0.20629653074E+02 -0.20433648085E+03  0.24887983154E+03  0.12500000000E+03 0.  0.
         25    1    1    2    0    0 -0.29437476388E+02 -0.15814053257E+02 -0.24446475213E+03  0.27659476555E+03  0.12500000000E+03 0.  0.
         25    1    1    2    0    0  0.93758472621E+02  0.36443706331E+02 -0.17925055570E+03  0.24057131300E+03  0.12500000000E+03 0.  0.
</event>
<event>
 5    0  0.5626800E-005  0.2910011E+03  0.7546771E-02  0.1089828E+00
         21   -1    0    0  502  501  0.00000000000E+00  0.00000000000E+00  0.17697923772E+04  0.17697923772E+04  0.00000000000E+00 0. -1.
         21   -1    0    0  501  502 -0.00000000000E+00 -0.00000000000E+00 -0.47848357333E+02  0.47848357333E+02  0.00000000000E+00 0. -1.
         25    1    1    2    0    0  0.11983960156E+03  0.20610769435E+02  0.33121866665E+03  0.37432223960E+03  0.12500000000E+03 0.  0.
         25    1    1    2    0    0 -0.10409509811E+03 -0.70212366056E+02  0.11773658285E+04  0.11906220475E+04  0.12500000000E+03 0.  0.
         25    1    1    2    0    0 -0.15744503448E+02  0.49601596622E+02  0.21335952472E+03  0.25269644747E+03  0.12500000000E+03 0.  0.
</event>
<event>
 5    0  0.5626800E-005  0.2681503E+03  0.7546771E-02  0.1102343E+00
         21   -1    0    0  502  501  0.00000000000E+00  0.00000000000E+00  0.26337143077E+03  0.26337143077E+03  0.00000000000E+00 0. -1.
         21   -1    0    0  501  502 -0.00000000000E+00 -0.00000000000E+00 -0.27301583998E+03  0.27301583998E+03  0.00000000000E+00 0. -1.
         25    1    1    2    0    0 -0.46911152063E+02 -0.55002764745E+02  0.92942375894E+02  0.17172433012E+03  0.12500000000E+03 0.  0.
         25    1    1    2    0    0 -0.41617654276E+02 -0.10374955818E+02  0.47538144510E+02  0.14044409578E+03  0.12500000000E+03 0.  0.
         25    1    1    2    0    0  0.88528806339E+02  0.65377720564E+02 -0.15012492961E+03  0.22421884485E+03  0.12500000000E+03 0.  0.
</event>
<event>
 5    0  0.5626800E-005  0.3980654E+03  0.7546771E-02  0.1044452E+00
         21   -1    0    0  502  501  0.00000000000E+00  0.00000000000E+00  0.41745946205E+03  0.41745946205E+03  0.00000000000E+00 0. -1.
         21   -1    0    0  501  502 -0.00000000000E+00 -0.00000000000E+00 -0.37957237490E+03  0.37957237490E+03  0.00000000000E+00 0. -1.
         25    1    1    2    0    0 -0.18806980782E+03 -0.72004086930E+02  0.24605173926E+03  0.34164499051E+03  0.12500000000E+03 0.  0.
         25    1    1    2    0    0  0.15499569066E+02  0.47824744047E+02 -0.19953187455E+03  0.24076007091E+03  0.12500000000E+03 0.  0.
         25    1    1    2    0    0  0.17257023876E+03  0.24179342883E+02 -0.86327775506E+01  0.21462677553E+03  0.12500000000E+03 0.  0.
</event>
<event>
 5    0  0.5626800E-005  0.4438143E+03  0.7546771E-02  0.1029583E+00
         21   -1    0    0  502  501  0.00000000000E+00  0.00000000000E+00  0.19581618024E+03  0.19581618024E+03  0.00000000000E+00 0. -1.
         21   -1    0    0  501  502 -0.00000000000E+00 -0.00000000000E+00 -0.10058980472E+04  0.10058980472E+04  0.00000000000E+00 0. -1.
         25    1    1    2    0    0  0.21756214812E+03  0.26459987900E+02 -0.21752912966E+03  0.33313261850E+03  0.12500000000E+03 0.  0.
         25    1    1    2    0    0  0.67821282349E+02  0.19942535727E+03 -0.28619284229E+03  0.37669821136E+03  0.12500000000E+03 0.  0.
         25    1    1    2    0    0 -0.28538343047E+03 -0.22588534517E+03 -0.30635989502E+03  0.49188339759E+03  0.12500000000E+03 0.  0.
</event>
<event>
 5    0  0.5626800E-005  0.3156910E+03  0.7546771E-02  0.1077650E+00
         21   -1    0    0  502  501  0.00000000000E+00  0.00000000000E+00  0.25592444184E+02  0.25592444184E+02  0.00000000000E+00 0. -1.
         21   -1    0    0  501  502 -0.00000000000E+00 -0.00000000000E+00 -0.38941493969E+04  0.38941493969E+04  0.00000000000E+00 0. -1.
         25    1    1    2    0    0  0.14144777669E+03  0.16037765976E+03 -0.13126215682E+04  0.13357877259E+04  0.12500000000E+03 0.  0.
         25    1    1    2    0    0 -0.81180471557E+02 -0.17813117115E+03 -0.13379453024E+04  0.13579556750E+04  0.12500000000E+03 0.  0.
         25    1    1    2    0    0 -0.60267305132E+02  0.17753511389E+02 -0.12179900821E+04  0.12259984402E+04  0.12500000000E+03 0.  0.
</event>
<event>
 5    0  0.5626800E-005  0.2831547E+03  0.7546771E-02  0.1093978E+00
         21   -1    0    0  502  501  0.00000000000E+00  0.00000000000E+00  0.81643042789E+03  0.81643042789E+03  0.00000000000E+00 0.  1.
         21   -1    0    0  501  502 -0.00000000000E+00 -0.00000000000E+00 -0.98203843643E+02  0.98203843643E+02  0.00000000000E+00 0.  1.
         25    1    1    2    0    0  0.28893792876E+01  0.81443116199E+02  0.15884371889E+03  0.21793957126E+03  0.12500000000E+03 0.  0.
         25    1    1    2    0    0  0.90019416301E+02  0.85521276147E+02  0.32372717612E+03  0.36856704755E+03  0.12500000000E+03 0.  0.
         25    1    1    2    0    0 -0.92908795588E+02 -0.16696439235E+03  0.23565568923E+03  0.32812765271E+03  0.12500000000E+03 0.  0.
</event>
<event>
 5    0  0.5626800E-005  0.2260096E+03  0.7546771E-02  0.1129480E+00
         21   -1    0    0  502  501  0.00000000000E+00  0.00000000000E+00  0.18580885686E+03  0.18580885686E+03  0.00000000000E+00 0. -1.
         21   -1    0    0  501  502 -0.00000000000E+00 -0.00000000000E+00 -0.27490787337E+03  0.27490787337E+03  0.00000000000E+00 0. -1.
         25    1    1    2    0    0 -0.61264774545E+01  0.89131842656E+02 -0.91883050333E+02  0.17902378065E+03  0.12500000000E+03 0.  0.
         25    1    1    2    0    0  0.24122844660E+02 -0.37125625612E+02  0.42848398628E+02  0.13935999776E+03  0.12500000000E+03 0.  0.
         25    1    1    2    0    0 -0.17996367205E+02 -0.52006217044E+02 -0.40064364801E+02  0.14233295181E+03  0.12500000000E+03 0.  0.
</event>
<event>
 5    0  0.5626800E-005  0.2681032E+03  0.7546771E-02  0.1102370E+00
         21   -1    0    0  502  501  0.00000000000E+00  0.00000000000E+00  0.40037491896E+02  0.40037491896E+02  0.00000000000E+00 0. -1.
         21   -1    0    0  501  502 -0.00000000000E+00 -0.00000000000E+00 -0.17953010791E+04  0.17953010791E+04  0.00000000000E+00 0. -1.
         25    1    1    2    0    0  0.11063105683E+03  0.94034210359E+02 -0.11177677954E+04  0.11340685641E+04  0.12500000000E+03 0.  0.
         25    1    1    2    0    0 -0.33342693714E+02 -0.42730385797E+02 -0.28200500425E+03  0.31319234268E+03  0.12500000000E+03 0.  0.
         25    1    1    2    0    0 -0.77288363113E+02 -0.51303824562E+02 -0.35549078750E+03  0.38807766425E+03  0.12500000000E+03 0.  0.
</event>
<event>
 5    0  0.5626800E-005  0.4123194E+03  0.7546771E-02  0.1039595E+00
         21   -1    0    0  502  501  0.00000000000E+00  0.00000000000E+00  0.10622852210E+04  0.10622852210E+04  0.00000000000E+00 0.  1.
         21   -1    0    0  501  502 -0.00000000000E+00 -0.00000000000E+00 -0.16003924095E+03  0.16003924095E+03  0.00000000000E+00 0.  1.
         25    1    1    2    0    0  0.16051368981E+03 -0.14111094954E+02  0.14149789946E+03  0.24821447010E+03  0.12500000000E+03 0.  0.
         25    1    1    2    0    0 -0.25735113357E+02 -0.18899376277E+03  0.63110527631E+03  0.67104381989E+03  0.12500000000E+03 0.  0.
         25    1    1    2    0    0 -0.13477857645E+03  0.20310485772E+03  0.12964280432E+03  0.30306617200E+03  0.12500000000E+03 0.  0.
</event>
<event>
 5    0  0.5626800E-005  0.3197483E+03  0.7546771E-02  0.1075765E+00
         21   -1    0    0  502  501  0.00000000000E+00  0.00000000000E+00  0.65928429749E+03  0.65928429749E+03  0.00000000000E+00 0. -1.
         21   -1    0    0  501  502 -0.00000000000E+00 -0.00000000000E+00 -0.15507569448E+03  0.15507569448E+03  0.00000000000E+00 0. -1.
         25    1    1    2    0    0 -0.15704527318E+02 -0.24391411641E+02 -0.27422133645E+02  0.13121945951E+03  0.12500000000E+03 0.  0.
         25    1    1    2    0    0 -0.16019798142E+02 -0.38545382378E+02  0.52303554602E+03  0.53938257558E+03  0.12500000000E+03 0.  0.
         25    1    1    2    0    0  0.31724325460E+02  0.62936794019E+02  0.85951906397E+01  0.14375795689E+03  0.12500000000E+03 0.  0.
</event>
<event>
 5    0  0.5626800E-005  0.2322721E+03  0.7546771E-02  0.1125051E+00
         21   -1    0    0  502  501  0.00000000000E+00  0.00000000000E+00  0.48097253760E+03  0.48097253760E+03  0.00000000000E+00 0.  1.
         21   -1    0    0  501  502 -0.00000000000E+00 -0.00000000000E+00 -0.11216921900E+03  0.11216921900E+03  0.00000000000E+00 0.  1.
         25    1    1    2    0    0  0.26667328891E+02 -0.34051650810E+01  0.14696364614E+03  0.19479747141E+03  0.12500000000E+03 0.  0.
         25    1    1    2    0    0 -0.88207189594E+02  0.16616966790E+02  0.23610373588E+02  0.15568905428E+03  0.12500000000E+03 0.  0.
         25    1    1    2    0    0  0.61539860703E+02 -0.13211801709E+02  0.19822929886E+03  0.24265523091E+03  0.12500000000E+03 0.  0.
</event>
<event>
 5    0  0.5626800E-005  0.3108189E+03  0.7546771E-02  0.1079954E+00
         21   -1    0    0  502  501  0.00000000000E+00  0.00000000000E+00  0.40123250589E+03  0.40123250589E+03  0.00000000000E+00 0. -1.
         21   -1    0    0  501  502 -0.00000000000E+00 -0.00000000000E+00 -0.24077902829E+03  0.24077902829E+03  0.00000000000E+00 0. -1.
         25    1    1    2    0    0 -0.37317134514E+02  0.38622404033E+02  0.61141605804E+02  0.14915614162E+03  0.12500000000E+03 0.  0.
         25    1    1    2    0    0 -0.11265918710E+03  0.13866965470E+03  0.60515738547E+02  0.22629299632E+03  0.12500000000E+03 0.  0.
         25    1    1    2    0    0  0.14997632162E+03 -0.17729205873E+03  0.38796133247E+02  0.26656239624E+03  0.12500000000E+03 0.  0.
</event>
<event>
 5    0  0.5626800E-005  0.2438561E+03  0.7546771E-02  0.1117250E+00
         21   -1    0    0  502  501  0.00000000000E+00  0.00000000000E+00  0.61696693918E+02  0.61696693918E+02  0.00000000000E+00 0. -1.
         21   -1    0    0  501  502 -0.00000000000E+00 -0.00000000000E+00 -0.96384099802E+03  0.96384099802E+03  0.00000000000E+00 0. -1.
         25    1    1    2    0    0 -0.58557489575E+01 -0.30854716077E+02 -0.11067607561E+03  0.16988377501E+03  0.12500000000E+03 0.  0.
         25    1    1    2    0    0 -0.78584896439E+02 -0.47171055256E+02 -0.39646308659E+03  0.42568612079E+03  0.12500000000E+03 0.  0.
         25    1    1    2    0    0  0.84440645396E+02  0.78025771333E+02 -0.39500514191E+03  0.42996779614E+03  0.12500000000E+03 0.  0.
</event>
<event>
 5    0  0.5626800E-005  0.4271727E+03  0.7546771E-02  0.1034757E+00
         21   -1    0    0  502  501  0.00000000000E+00  0.00000000000E+00  0.39540918723E+03  0.39540918723E+03  0.00000000000E+00 0. -1.
         21   -1    0    0  501  502 -0.00000000000E+00 -0.00000000000E+00 -0.46148775288E+03  0.46148775288E+03  0.00000000000E+00 0. -1.
         25    1    1    2    0    0  0.20939049368E+03  0.61077276562E+02 -0.17585186837E+03  0.30679584770E+03  0.12500000000E+03 0.  0.
         25    1    1    2    0    0 -0.31257486995E+03 -0.75193647109E+02 -0.14695071455E+02  0.34525074803E+03  0.12500000000E+03 0.  0.
         25    1    1    2    0    0  0.10318437627E+03  0.14116370547E+02  0.12446837417E+03  0.20485034438E+03  0.12500000000E+03 0.  0.
</event>
<event>
 5    0  0.5887473E-005  0.3394191E+03  0.7546771E-02  0.1067044E+00
         21   -1    0    0  502  501  0.00000000000E+00  0.00000000000E+00  0.56135693583E+03  0.56135693583E+03  0.00000000000E+00 0. -1.
         21   -1    0    0  501  502 -0.00000000000E+00 -0.00000000000E+00 -0.20522648382E+03  0.20522648382E+03  0.00000000000E+00 0. -1.
         25    1    1    2    0    0  0.13189614032E+03  0.21525648928E+03  0.22033874597E+03  0.35763963844E+03  0.12500000000E+03 0.  0.
         25    1    1    2    0    0 -0.11299870444E+03 -0.13416436330E+03  0.14306290912E+03  0.25857451450E+03  0.12500000000E+03 0.  0.
         25    1    1    2    0    0 -0.18897435883E+02 -0.81092125977E+02 -0.72712030801E+01  0.15036926672E+03  0.12500000000E+03 0.  0.
</event>
<event>
 5    0  0.5626800E-005  0.4093193E+03  0.7546771E-02  0.1040600E+00
         21   -1    0    0  502  501  0.00000000000E+00  0.00000000000E+00  0.24409418833E+04  0.24409418833E+04  0.00000000000E+00 0.  1.
         21   -1    0    0  501  502 -0.00000000000E+00 -0.00000000000E+00 -0.68638387791E+02  0.68638387791E+02  0.00000000000E+00 0.  1.
         25    1    1    2    0    0 -0.81960322629E+02 -0.94350428393E+02  0.12137840780E+04  0.12265872516E+04  0.12500000000E+03 0.  0.
         25    1    1    2    0    0 -0.11151392966E+02 -0.10538070170E+03  0.94376821365E+02  0.18910692813E+03  0.12500000000E+03 0.  0.
         25    1    1    2    0    0  0.93111715595E+02  0.19973113009E+03  0.10641425961E+04  0.10938860913E+04  0.12500000000E+03 0.  0.
</event>
<event>
 5    0  0.5626800E-005  0.3340232E+03  0.7546771E-02  0.1069370E+00
         21   -1    0    0  502  501  0.00000000000E+00  0.00000000000E+00  0.87007484516E+03  0.87007484516E+03  0.00000000000E+00 0.  1.
         21   -1    0    0  501  502 -0.00000000000E+00 -0.00000000000E+00 -0.12823204630E+03  0.12823204630E+03  0.00000000000E+00 0.  1.
         25    1    1    2    0    0 -0.15444822121E+03  0.15167440313E+03  0.21104595913E+03  0.32714641135E+03  0.12500000000E+03 0.  0.
         25    1    1    2    0    0  0.20139147394E+03 -0.48633721456E+02  0.32061594368E+03  0.40167567512E+03  0.12500000000E+03 0.  0.
         25    1    1    2    0    0 -0.46943252734E+02 -0.10304068167E+03  0.21018089605E+03  0.26948480499E+03  0.12500000000E+03 0.  0.
</event>
<event>
 5    0  0.5626800E-005  0.3521109E+03  0.7546771E-02  0.1061752E+00
         21   -1    0    0  502  501  0.00000000000E+00  0.00000000000E+00  0.13124221927E+03  0.13124221927E+03  0.00000000000E+00 0. -1.
         21   -1    0    0  501  502 -0.00000000000E+00 -0.00000000000E+00 -0.94468161061E+03  0.94468161061E+03  0.00000000000E+00 0. -1.
         25    1    1    2    0    0 -0.28195977925E+02  0.12200484634E+03  0.70569585491E+01  0.17707342083E+03  0.12500000000E+03 0.  0.
         25    1    1    2    0    0  0.10192230634E+03  0.16916606832E+02 -0.43299536206E+03  0.46236815600E+03  0.12500000000E+03 0.  0.
         25    1    1    2    0    0 -0.73726328418E+02 -0.13892145317E+03 -0.38750098783E+03  0.43648225304E+03  0.12500000000E+03 0.  0.
</event>
<event>
 5    0  0.5626800E-005  0.2542279E+03  0.7546771E-02  0.1110662E+00
         21   -1    0    0  502  501  0.00000000000E+00  0.00000000000E+00  0.27549416941E+03  0.27549416941E+03  0.00000000000E+00 0. -1.
         21   -1    0    0  501  502 -0.00000000000E+00 -0.00000000000E+00 -0.23460332475E+03  0.23460332475E+03  0.00000000000E+00 0. -1.
         25    1    1    2    0    0  0.17143464170E+01 -0.66510622623E+02  0.13845843600E+03  0.19804630874E+03  0.12500000000E+03 0.  0.
         25    1    1    2    0    0  0.14260911474E+02  0.97361536321E+02 -0.88386692793E+02  0.18198859803E+03  0.12500000000E+03 0.  0.
         25    1    1    2    0    0 -0.15975257891E+02 -0.30850913698E+02 -0.91808985549E+01  0.13006258739E+03  0.12500000000E+03 0.  0.
</event>
<event>
 5    0  0.5626800E-005  0.2947622E+03  0.7546771E-02  0.1087889E+00
         21   -1    0    0  502  501  0.00000000000E+00  0.00000000000E+00  0.96905925659E+03  0.96905925659E+03  0.00000000000E+00 0. -1.
         21   -1    0    0  501  502 -0.00000000000E+00 -0.00000000000E+00 -0.89658866412E+02  0.89658866412E+02  0.00000000000E+00 0. -1.
         25    1    1    2    0    0 -0.23576356225E+02 -0.55112166323E+02  0.26858702666E+03  0.30225351336E+03  0.12500000000E+03 0.  0.
         25    1    1    2    0    0 -0.89282960043E+02  0.16407010594E+03  0.20690185366E+03  0.30548948209E+03  0.12500000000E+03 0.  0.
         25    1    1    2    0    0  0.11285931627E+03 -0.10895793962E+03  0.40391150986E+03  0.45097512755E+03  0.12500000000E+03 0.  0.
</event>
<event>
 5    0  0.5626800E-005  0.3070281E+03  0.7546771E-02  0.1081779E+00
         21   -1    0    0  502  501  0.00000000000E+00  0.00000000000E+00  0.26122707700E+03  0.26122707700E+03  0.00000000000E+00 0. -1.
         21   -1    0    0  501  502 -0.00000000000E+00 -0.00000000000E+00 -0.36085935383E+03  0.36085935383E+03  0.00000000000E+00 0. -1.
         25    1    1    2    0    0  0.90467575182E+02 -0.84453678526E+02 -0.92046869168E+02  0.19853068302E+03  0.12500000000E+03 0.  0.
         25    1    1    2    0    0 -0.60354484909E+02  0.93833197035E+02  0.14656237867E+03  0.22260472492E+03  0.12500000000E+03 0.  0.
         25    1    1    2    0    0 -0.30113090273E+02 -0.93795185093E+01 -0.15414778633E+03  0.20095102290E+03  0.12500000000E+03 0.  0.
</event>
<event>
 5    0  0.5626800E-005  0.4165088E+03  0.7546771E-02  0.1038209E+00
         21   -1    0    0  502  501  0.00000000000E+00  0.00000000000E+00  0.23803987846E+03  0.23803987846E+03  0.00000000000E+00 0.  1.
         21   -1    0    0  501  502 -0.00000000000E+00 -0.00000000000E+00 -0.72878383881E+03  0.72878383881E+03  0.00000000000E+00 0.  1.
         25    1    1    2    0    0  0.21168982074E+03 -0.19232441534E+03  0.29698308587E+01  0.31214592875E+03  0.12500000000E+03 0.  0.
         25    1    1    2    0    0 -0.17024893964E+03  0.20410326827E+03 -0.29737309363E+03  0.41796961898E+03  0.12500000000E+03 0.  0.
         25    1    1    2    0    0 -0.41440881093E+02 -0.11778852933E+02 -0.19634069757E+03  0.23670816954E+03  0.12500000000E+03 0.  0.
</event>
<event>
 5    0  0.5626800E-005  0.2381568E+03  0.7546771E-02  0.1121027E+00
         21   -1    0    0  502  501  0.00000000000E+00  0.00000000000E+00  0.98910062666E+02  0.98910062666E+02  0.00000000000E+00 0.  1.
         21   -1    0    0  501  502 -0.00000000000E+00 -0.00000000000E+00 -0.57343655614E+03  0.57343655614E+03  0.00000000000E+00 0.  1.
         25    1    1    2    0    0  0.17606289620E+01 -0.54284355670E+02 -0.14812633599E+03  0.20128661779E+03  0.12500000000E+03 0.  0.
         25    1    1    2    0    0  0.10747315462E+03  0.45043013183E+02 -0.13691845932E+03  0.21897720545E+03  0.12500000000E+03 0.  0.
         25    1    1    2    0    0 -0.10923378359E+03  0.92413424871E+01 -0.18948169816E+03  0.25208279557E+03  0.12500000000E+03 0.  0.
</event>
<event>
 5    0  0.5626800E-005  0.3026205E+03  0.7546771E-02  0.1083938E+00
         21   -1    0    0  502  501  0.00000000000E+00  0.00000000000E+00  0.11457017864E+03  0.11457017864E+03  0.00000000000E+00 0.  1.
         21   -1    0    0  501  502 -0.00000000000E+00 -0.00000000000E+00 -0.79932822534E+03  0.79932822534E+03  0.00000000000E+00 0.  1.
         25    1    1    2    0    0  0.76955511610E+02 -0.20179467362E+03 -0.36474215904E+03  0.44193334752E+03  0.12500000000E+03 0.  0.
         25    1    1    2    0    0 -0.57079748360E+02  0.13752418252E+03 -0.12641440044E+03  0.23189782037E+03  0.12500000000E+03 0.  0.
         25    1    1    2    0    0 -0.19875763250E+02  0.64270491104E+02 -0.19360148722E+03  0.24006723609E+03  0.12500000000E+03 0.  0.
</event>
<event>
 5    0  0.5626800E-005  0.2726459E+03  0.7546771E-02  0.1099775E+00
         21   -1    0    0  502  501  0.00000000000E+00  0.00000000000E+00  0.17030821419E+03  0.17030821419E+03  0.00000000000E+00 0.  1.
         21   -1    0    0  501  502 -0.00000000000E+00 -0.00000000000E+00 -0.43647806073E+03  0.43647806073E+03  0.00000000000E+00 0.  1.
         25    1    1    2    0    0 -0.76924889715E+02 -0.14078931194E+03 -0.21237138531E+03  0.29405046219E+03  0.12500000000E+03 0.  0.
         25    1    1    2    0    0  0.41062862061E+02  0.41871786826E+02 -0.56848480138E+02  0.14931897022E+03  0.12500000000E+03 0.  0.
         25    1    1    2    0    0  0.35862027654E+02  0.98917525118E+02  0.30500189087E+01  0.16341684252E+03  0.12500000000E+03 0.  0.
</event>
<event>
 5    0  0.5626800E-005  0.2959992E+03  0.7546771E-02  0.1087258E+00
         21   -1    0    0  502  501  0.00000000000E+00  0.00000000000E+00  0.17347689769E+03  0.17347689769E+03  0.00000000000E+00 0.  1.
         21   -1    0    0  501  502 -0.00000000000E+00 -0.00000000000E+00 -0.50505589547E+03  0.50505589547E+03  0.00000000000E+00 0.  1.
         25    1    1    2    0    0  0.25873990284E+02  0.39682441338E+02 -0.62792707253E+02  0.14768914519E+03  0.12500000000E+03 0.  0.
         25    1    1    2    0    0  0.92315427842E+02 -0.11591451370E+03  0.10429147895E+02  0.19414448184E+03  0.12500000000E+03 0.  0.
         25    1    1    2    0    0 -0.11818941813E+03  0.76232072362E+02 -0.27921543842E+03  0.33669916612E+03  0.12500000000E+03 0.  0.
</event>
<event>
 5    0  0.5626800E-005  0.2805936E+03  0.7546771E-02  0.1095365E+00
         21   -1    0    0  502  501  0.00000000000E+00  0.00000000000E+00  0.69372963827E+03  0.69372963827E+03  0.00000000000E+00 0.  1.
         21   -1    0    0  501  502 -0.00000000000E+00 -0.00000000000E+00 -0.11349198228E+03  0.11349198228E+03  0.00000000000E+00 0.  1.
         25    1    1    2    0    0  0.71300948254E+02 -0.81019370358E+02  0.19473915492E+03  0.25533566546E+03  0.12500000000E+03 0.  0.
         25    1    1    2    0    0 -0.91184987871E+02  0.19950314300E+00  0.36983649790E+03  0.40089746443E+03  0.12500000000E+03 0.  0.
         25    1    1    2    0    0  0.19884039617E+02  0.80819867215E+02  0.15662003182E+02  0.15098849066E+03  0.12500000000E+03 0.  0.
</event>
<event>
 5    0  0.6310749E-005  0.2863021E+03  0.7546771E-02  0.1092296E+00
         21   -1    0    0  502  501  0.00000000000E+00  0.00000000000E+00  0.14034398945E+03  0.14034398945E+03  0.00000000000E+00 0. -1.
         21   -1    0    0  501  502 -0.00000000000E+00 -0.00000000000E+00 -0.58405706745E+03  0.58405706745E+03  0.00000000000E+00 0. -1.
         25    1    1    2    0    0  0.84756336456E+02  0.60705596559E+02 -0.12163283145E+03  0.20319535356E+03  0.12500000000E+03 0.  0.
         25    1    1    2    0    0 -0.18955208334E+02  0.11143973730E+03 -0.63856253020E+02  0.18022412719E+03  0.12500000000E+03 0.  0.
         25    1    1    2    0    0 -0.65801128121E+02 -0.17214533386E+03 -0.25822399354E+03  0.34098157615E+03  0.12500000000E+03 0.  0.
</event>
<event>
 5    0  0.5626800E-005  0.2511293E+03  0.7546771E-02  0.1112593E+00
         21   -1    0    0  502  501  0.00000000000E+00  0.00000000000E+00  0.25953386212E+03  0.25953386212E+03  0.00000000000E+00 0. -1.
         21   -1    0    0  501  502 -0.00000000000E+00 -0.00000000000E+00 -0.24299695806E+03  0.24299695806E+03  0.00000000000E+00 0. -1.
         25    1    1    2    0    0  0.72326216123E+02 -0.76963033969E+02 -0.39797780054E+02  0.16841393480E+03  0.12500000000E+03 0.  0.
         25    1    1    2    0    0 -0.27745913452E+02 -0.53390264478E+02  0.51664507470E+02  0.14803573010E+03  0.12500000000E+03 0.  0.
         25    1    1    2    0    0 -0.44580302670E+02  0.13035329845E+03  0.46701766379E+01  0.18608115528E+03  0.12500000000E+03 0.  0.
</event>
<event>
 5    0  0.5626800E-005  0.2750548E+03  0.7546771E-02  0.1098421E+00
         21   -1    0    0  502  501  0.00000000000E+00  0.00000000000E+00  0.63730504686E+03  0.63730504686E+03  0.00000000000E+00 0. -1.
         21   -1    0    0  501  502 -0.00000000000E+00 -0.00000000000E+00 -0.11871105386E+03  0.11871105386E+03  0.00000000000E+00 0. -1.
         25    1    1    2    0    0 -0.35645096325E+02  0.13148360046E+03  0.31324449440E+03  0.36373839962E+03  0.12500000000E+03 0.  0.
         25    1    1    2    0    0 -0.25962184970E+01 -0.13348158044E+03  0.50729152789E+02  0.18979599472E+03  0.12500000000E+03 0.  0.
         25    1    1    2    0    0  0.38241314822E+02  0.19979799832E+01  0.15462034581E+03  0.20248170638E+03  0.12500000000E+03 0.  0.
</event>
<event>
 5    0  0.5626800E-005  0.2374175E+03  0.7546771E-02  0.1121525E+00
         21   -1    0    0  502  501  0.00000000000E+00  0.00000000000E+00  0.31722590048E+03  0.31722590048E+03  0.00000000000E+00 0. -1.
         21   -1    0    0  501  502 -0.00000000000E+00 -0.00000000000E+00 -0.17768749160E+03  0.17768749160E+03  0.00000000000E+00 0. -1.
         25    1    1    2    0    0  0.15961429326E+01 -0.36644839776E+02  0.78136320465E+02  0.15190680212E+03  0.12500000000E+03 0.  0.
         25    1    1    2    0    0  0.10985910423E+03  0.91118642843E+01  0.44134348184E+02  0.17240907616E+03  0.12500000000E+03 0.  0.
         25    1    1    2    0    0 -0.11145524716E+03  0.27532975492E+02  0.17267740228E+02  0.17059751379E+03  0.12500000000E+03 0.  0.
</event>
<event>
 5    0  0.5626800E-005  0.3124369E+03  0.7546771E-02  0.1079184E+00
         21   -1    0    0  502  501  0.00000000000E+00  0.00000000000E+00  0.76202884509E+02  0.76202884509E+02  0.00000000000E+00 0. -1.
         21   -1    0    0  501  502 -0.00000000000E+00 -0.00000000000E+00 -0.12810117564E+04  0.12810117564E+04  0.00000000000E+00 0. -1.
         25    1    1    2    0    0  0.59443859359E+02 -0.56739472739E+02 -0.13155319507E+03  0.19920889366E+03  0.12500000000E+03 0.  0.
         25    1    1    2    0    0 -0.19671066671E+03  0.13046660507E+02 -0.46100518701E+03  0.51673599081E+03  0.12500000000E+03 0.  0.
         25    1    1    2    0    0  0.13726680735E+03  0.43692812233E+02 -0.61225048979E+03  0.64126975641E+03  0.12500000000E+03 0.  0.
</event>
<event>
 5    0  0.5626800E-005  0.3340409E+03  0.7546771E-02  0.1069363E+00
         21   -1    0    0  502  501  0.00000000000E+00  0.00000000000E+00  0.24159385490E+03  0.24159385490E+03  0.00000000000E+00 0. -1.
         21   -1    0    0  501  502 -0.00000000000E+00 -0.00000000000E+00 -0.46186314056E+03  0.46186314056E+03  0.00000000000E+00 0. -1.
         25    1    1    2    0    0 -0.26754242756E+01 -0.39263326410E+02 -0.14910613126E+03  0.19851046591E+03  0.12500000000E+03 0.  0.
         25    1    1    2    0    0  0.17496238613E+02 -0.18633539697E+03  0.30909792670E+02  0.22717265199E+03  0.12500000000E+03 0.  0.
         25    1    1    2    0    0 -0.14820814338E+02  0.22559872338E+03 -0.10207294707E+03  0.27777387756E+03  0.12500000000E+03 0.  0.
</event>
<event>
 5    0  0.6144803E-005  0.3148609E+03  0.7546771E-02  0.1078039E+00
         21   -1    0    0  502  501  0.00000000000E+00  0.00000000000E+00  0.39883569738E+03  0.39883569738E+03  0.00000000000E+00 0. -1.
         21   -1    0    0  501  502 -0.00000000000E+00 -0.00000000000E+00 -0.24856696538E+03  0.24856696538E+03  0.00000000000E+00 0. -1.
         25    1    1    2    0    0  0.13276781963E+03 -0.10587617570E+03  0.48400408892E+02  0.21634384228E+03  0.12500000000E+03 0.  0.
         25    1    1    2    0    0 -0.16165474417E+02 -0.41611285001E+02  0.14991383446E+03  0.20022981637E+03  0.12500000000E+03 0.  0.
         25    1    1    2    0    0 -0.11660234521E+03  0.14748746071E+03 -0.48045511346E+02  0.23082900410E+03  0.12500000000E+03 0.  0.
</event>
<event>
 5    0  0.5626800E-005  0.3718058E+03  0.7546771E-02  0.1054005E+00
         21   -1    0    0  502  501  0.00000000000E+00  0.00000000000E+00  0.55305837985E+02  0.55305837985E+02  0.00000000000E+00 0. -1.
         21   -1    0    0  501  502 -0.00000000000E+00 -0.00000000000E+00 -0.24995473801E+04  0.24995473801E+04  0.00000000000E+00 0. -1.
         25    1    1    2    0    0  0.55391202836E+02 -0.22085656886E+03 -0.41339361486E+03  0.48822647426E+03  0.12500000000E+03 0.  0.
         25    1    1    2    0    0 -0.73185205872E+02  0.22233622329E+02 -0.70841279669E+03  0.72341143123E+03  0.12500000000E+03 0.  0.
         25    1    1    2    0    0  0.17794003036E+02  0.19862294654E+03 -0.13224351306E+04  0.13432153126E+04  0.12500000000E+03 0.  0.
</event>
<event>
 5    0  0.5626800E-005  0.2396892E+03  0.7546771E-02  0.1120000E+00
         21   -1    0    0  502  501  0.00000000000E+00  0.00000000000E+00  0.36005370107E+02  0.36005370107E+02  0.00000000000E+00 0.  1.
         21   -1    0    0  501  502 -0.00000000000E+00 -0.00000000000E+00 -0.15956206873E+04  0.15956206873E+04  0.00000000000E+00 0.  1.
         25    1    1    2    0    0 -0.75588054723E+01  0.10202917096E+03 -0.61988435452E+03  0.64058465502E+03  0.12500000000E+03 0.  0.
         25    1    1    2    0    0 -0.51761047842E+02 -0.65329384164E+02 -0.65914637315E+03  0.67605182918E+03  0.12500000000E+03 0.  0.
         25    1    1    2    0    0  0.59319853314E+02 -0.36699786795E+02 -0.28058458951E+03  0.31498957319E+03  0.12500000000E+03 0.  0.
</event>
<event>
 5    0  0.5626800E-005  0.2571366E+03  0.7546771E-02  0.1108876E+00
         21   -1    0    0  502  501  0.00000000000E+00  0.00000000000E+00  0.34656502597E+03  0.34656502597E+03  0.00000000000E+00 0. -1.
         21   -1    0    0  501  502 -0.00000000000E+00 -0.00000000000E+00 -0.19078451485E+03  0.19078451485E+03  0.00000000000E+00 0. -1.
         25    1    1    2    0    0 -0.86703337491E+02 -0.21753131680E+02  0.86832769363E+02  0.17650948220E+03  0.12500000000E+03 0.  0.
         25    1    1    2    0    0  0.12450478779E+03  0.43023206224E+02  0.12147819013E+03  0.21848201101E+03  0.12500000000E+03 0.  0.
         25    1    1    2    0    0 -0.37801450304E+02 -0.21270074544E+02 -0.52530448370E+02  0.14235804762E+03  0.12500000000E+03 0.  0.
</event>
<event>
 5    0  0.5626800E-005  0.2775443E+03  0.7546771E-02  0.1097038E+00
         21   -1    0    0  502  501  0.00000000000E+00  0.00000000000E+00  0.92829664971E+03  0.92829664971E+03  0.00000000000E+00 0. -1.
         21   -1    0    0  501  502 -0.00000000000E+00 -0.00000000000E+00 -0.82980833648E+02  0.82980833648E+02  0.00000000000E+00 0. -1.
         25    1    1    2    0    0  0.40152465090E+02  0.51525940803E+02  0.70885862716E+02  0.15785103282E+03  0.12500000000E+03 0.  0.
         25    1    1    2    0    0 -0.42739815204E+02 -0.21703563362E+02  0.10063612423E+03  0.16748243480E+03  0.12500000000E+03 0.  0.
         25    1    1    2    0    0  0.25873501140E+01 -0.29822377442E+02  0.67379382911E+03  0.68594401574E+03  0.12500000000E+03 0.  0.
</event>
<event>
 5    0  0.5626800E-005  0.3576579E+03  0.7546771E-02  0.1059515E+00
         21   -1    0    0  502  501  0.00000000000E+00  0.00000000000E+00  0.79493848254E+02  0.79493848254E+02  0.00000000000E+00 0.  1.
         21   -1    0    0  501  502 -0.00000000000E+00 -0.00000000000E+00 -0.16091707362E+04  0.16091707362E+04  0.00000000000E+00 0.  1.
         25    1    1    2    0    0  0.36920344537E+02 -0.85975634210E+02 -0.23340449346E+03  0.28081591673E+03  0.12500000000E+03 0.  0.
         25    1    1    2    0    0 -0.43674254302E+02  0.27149251400E+03 -0.93784021447E+03  0.98528416892E+03  0.12500000000E+03 0.  0.
         25    1    1    2    0    0  0.67539097647E+01 -0.18551687979E+03 -0.35843218000E+03  0.42256449880E+03  0.12500000000E+03 0.  0.
</event>
<event>
 5    0  0.5626800E-005  0.3608002E+03  0.7546771E-02  0.1058267E+00
         21   -1    0    0  502  501  0.00000000000E+00  0.00000000000E+00  0.38882432775E+03  0.38882432775E+03  0.00000000000E+00 0. -1.
         21   -1    0    0  501  502 -0.00000000000E+00 -0.00000000000E+00 -0.33479579638E+03  0.33479579638E+03  0.00000000000E+00 0. -1.
         25    1    1    2    0    0 -0.75153363836E+02 -0.97257753196E+02  0.50566220943E+02  0.18245284693E+03  0.12500000000E+03 0.  0.
         25    1    1    2    0    0  0.94219086054E+02 -0.55419441537E+02  0.20139996619E+03  0.26102777067E+03  0.12500000000E+03 0.  0.
         25    1    1    2    0    0 -0.19065722218E+02  0.15267719473E+03 -0.19793765576E+03  0.28013950654E+03  0.12500000000E+03 0.  0.
</event>
<event>
 5    0  0.5626800E-005  0.4096364E+03  0.7546771E-02  0.1040493E+00
         21   -1    0    0  502  501  0.00000000000E+00  0.00000000000E+00  0.20316252526E+03  0.20316252526E+03  0.00000000000E+00 0. -1.
         21   -1    0    0  501  502 -0.00000000000E+00 -0.00000000000E+00 -0.82594965117E+03  0.82594965117E+03  0.00000000000E+00 0. -1.
         25    1    1    2    0    0  0.10934897330E+03 -0.19910717195E+03 -0.24943666405E+03  0.35978398138E+03  0.12500000000E+03 0.  0.
         25    1    1    2    0    0 -0.21087099277E+03  0.27173722075E+03 -0.31623278303E+03  0.48366916978E+03  0.12500000000E+03 0.  0.
         25    1    1    2    0    0  0.10152201947E+03 -0.72630048802E+02 -0.57117678833E+02  0.18565902526E+03  0.12500000000E+03 0.  0.
</event>
<event>
 5    0  0.5626800E-005  0.2414384E+03  0.7546771E-02  0.1118838E+00
         21   -1    0    0  502  501  0.00000000000E+00  0.00000000000E+00  0.18658924667E+04  0.18658924667E+04  0.00000000000E+00 0.  1.
         21   -1    0    0  501  502 -0.00000000000E+00 -0.00000000000E+00 -0.31241095179E+02  0.31241095179E+02  0.00000000000E+00 0.  1.
         25    1    1    2    0    0 -0.35422997024E+02 -0.65844409290E+02  0.37591619087E+03  0.40314793502E+03  0.12500000000E+03 0.  0.
         25    1    1    2    0    0  0.86418709498E+02 -0.28894783603E+02  0.60473231036E+03  0.62420290696E+03  0.12500000000E+03 0.  0.
         25    1    1    2    0    0 -0.50995712474E+02  0.94739192893E+02  0.85400287032E+03  0.86978271993E+03  0.12500000000E+03 0.  0.
</event>
<event>
 5    0  0.5626800E-005  0.2772831E+03  0.7546771E-02  0.1097182E+00
         21   -1    0    0  502  501  0.00000000000E+00  0.00000000000E+00  0.12529659839E+04  0.12529659839E+04  0.00000000000E+00 0.  1.
         21   -1    0    0  501  502 -0.00000000000E+00 -0.00000000000E+00 -0.61363131847E+02  0.61363131847E+02  0.00000000000E+00 0.  1.
         25    1    1    2    0    0 -0.27985578580E+02 -0.13919079522E+03  0.23835186990E+03  0.30429243167E+03  0.12500000000E+03 0.  0.
         25    1    1    2    0    0  0.30272744125E+02  0.58200861230E+02  0.71684683295E+03  0.73061491991E+03  0.12500000000E+03 0.  0.
         25    1    1    2    0    0 -0.22871655445E+01  0.80989933991E+02  0.23640414920E+03  0.27942176418E+03  0.12500000000E+03 0.  0.
</event>
<event>
 5    0  0.5626800E-005  0.3005869E+03  0.7546771E-02  0.1084948E+00
         21   -1    0    0  502  501  0.00000000000E+00  0.00000000000E+00  0.42041977160E+03  0.42041977160E+03  0.00000000000E+00 0. -1.
         21   -1    0    0  501  502 -0.00000000000E+00 -0.00000000000E+00 -0.21491010599E+03  0.21491010599E+03  0.00000000000E+00 0. -1.
         25    1    1    2    0    0  0.21596528171E+03 -0.27969168807E+02  0.11156890495E+03  0.27476516857E+03  0.12500000000E+03 0.  0.
         25    1    1    2    0    0 -0.13703124329E+03  0.97664882069E+01  0.24395205328E+01  0.18575224679E+03  0.12500000000E+03 0.  0.
         25    1    1    2    0    0 -0.78934038426E+02  0.18202680600E+02  0.91501240129E+02  0.17481246222E+03  0.12500000000E+03 0.  0.
</event>
<event>
 5    0  0.5626800E-005  0.3146762E+03  0.7546771E-02  0.1078126E+00
         21   -1    0    0  502  501  0.00000000000E+00  0.00000000000E+00  0.95770415596E+03  0.95770415596E+03  0.00000000000E+00 0.  1.
         21   -1    0    0  501  502 -0.00000000000E+00 -0.00000000000E+00 -0.10339424829E+03  0.10339424829E+03  0.00000000000E+00 0.  1.
         25    1    1    2    0    0  0.12146964099E+03 -0.77602008834E+02  0.21884242067E+03  0.29033420491E+03  0.12500000000E+03 0.  0.
         25    1    1    2    0    0 -0.68968626106E+02  0.16427507544E+03  0.54341917872E+03  0.58538224742E+03  0.12500000000E+03 0.  0.
         25    1    1    2    0    0 -0.52501014887E+02 -0.86673066607E+02  0.92048308283E+02  0.18538195192E+03  0.12500000000E+03 0.  0.
</event>
<event>
 5    0  0.5626800E-005  0.4861817E+03  0.7546771E-02  0.1017450E+00
         21   -1    0    0  502  501  0.00000000000E+00  0.00000000000E+00  0.10226930941E+03  0.10226930941E+03  0.00000000000E+00 0.  1.
         21   -1    0    0  501  502 -0.00000000000E+00 -0.00000000000E+00 -0.23112764920E+04  0.23112764920E+04  0.00000000000E+00 0.  1.
         25    1    1    2    0    0 -0.11931981590E+03  0.18013852185E+03 -0.11126914294E+04  0.11403483338E+04  0.12500000000E+03 0.  0.
         25    1    1    2    0    0  0.16544755576E+03  0.22344111579E+02 -0.98434453152E+03  0.10061964568E+04  0.12500000000E+03 0.  0.
         25    1    1    2    0    0 -0.46127739860E+02 -0.20248263343E+03 -0.11197122169E+03  0.26700101069E+03  0.12500000000E+03 0.  0.
</event>
<event>
 5    0  0.5626800E-005  0.2767001E+03  0.7546771E-02  0.1097505E+00
         21   -1    0    0  502  501  0.00000000000E+00  0.00000000000E+00  0.26626285029E+02  0.26626285029E+02  0.00000000000E+00 0.  1.
         21   -1    0    0  501  502 -0.00000000000E+00 -0.00000000000E+00 -0.28754652238E+04  0.28754652238E+04  0.00000000000E+00 0.  1.
         25    1    1    2    0    0  0.46615296867E+02  0.21830787765E+02 -0.14698205772E+04  0.14760240846E+04  0.12500000000E+03 0.  0.
         25    1    1    2    0    0  0.73651424766E+02 -0.28369780564E+02 -0.31478021611E+03  0.34776567007E+03  0.12500000000E+03 0.  0.
         25    1    1    2    0    0 -0.12026672163E+03  0.65389927987E+01 -0.10642381455E+04  0.10783017542E+04  0.12500000000E+03 0.  0.
</event>
<event>
 5    0  0.5626800E-005  0.3020449E+03  0.7546771E-02  0.1084223E+00
         21   -1    0    0  502  501  0.00000000000E+00  0.00000000000E+00  0.24697131962E+03  0.24697131962E+03  0.00000000000E+00 0. -1.
         21   -1    0    0  501  502 -0.00000000000E+00 -0.00000000000E+00 -0.36939965813E+03  0.36939965813E+03  0.00000000000E+00 0. -1.
         25    1    1    2    0    0  0.16721770576E+03 -0.54939826789E+02  0.66037065402E+01  0.21598322765E+03  0.12500000000E+03 0.  0.
         25    1    1    2    0    0 -0.99705722834E+01 -0.84162986862E+01  0.38293010249E+02  0.13138341231E+03  0.12500000000E+03 0.  0.
         25    1    1    2    0    0 -0.15724713348E+03  0.63356125476E+02 -0.16732505530E+03  0.26900433780E+03  0.12500000000E+03 0.  0.
</event>
<event>
 5    0  0.5626800E-005  0.2397059E+03  0.7546771E-02  0.1119989E+00
         21   -1    0    0  502  501  0.00000000000E+00  0.00000000000E+00  0.95615401233E+03  0.95615401233E+03  0.00000000000E+00 0.  1.
         21   -1    0    0  501  502 -0.00000000000E+00 -0.00000000000E+00 -0.60093799974E+02  0.60093799974E+02  0.00000000000E+00 0.  1.
         25    1    1    2    0    0  0.37059485165E+02  0.11223004850E+02  0.40660036439E+03  0.42713957625E+03  0.12500000000E+03 0.  0.
         25    1    1    2    0    0 -0.89391867576E+02  0.27918774947E+02  0.37909446966E+03  0.41000973270E+03  0.12500000000E+03 0.  0.
         25    1    1    2    0    0  0.52332382410E+02 -0.39141779797E+02  0.11036537831E+03  0.17909850336E+03  0.12500000000E+03 0.  0.
</event>
<event>
 5    0  0.5626800E-005  0.3141284E+03  0.7546771E-02  0.1078384E+00
         21   -1    0    0  502  501  0.00000000000E+00  0.00000000000E+00  0.27876224640E+04  0.27876224640E+04  0.00000000000E+00 0.  1.
         21   -1    0    0  501  502 -0.00000000000E+00 -0.00000000000E+00 -0.35398140558E+02  0.35398140558E+02  0.00000000000E+00 0.  1.
         25    1    1    2    0    0 -0.10858520127E+03  0.51988017137E+02  0.51363719323E+03  0.54216387387E+03  0.12500000000E+03 0.  0.
         25    1    1    2    0    0  0.61491020441E+02 -0.16308382270E+03  0.69032306290E+03  0.72287509986E+03  0.12500000000E+03 0.  0.
         25    1    1    2    0    0  0.47094180827E+02  0.11109580556E+03  0.15482640673E+04  0.15579816308E+04  0.12500000000E+03 0.  0.
</event>
<event>
 5    0  0.5626800E-005  0.2683440E+03  0.7546771E-02  0.1102231E+00
         21   -1    0    0  502  501  0.00000000000E+00  0.00000000000E+00  0.32410301227E+02  0.32410301227E+02  0.00000000000E+00 0.  1.
         21   -1    0    0  501  502 -0.00000000000E+00 -0.00000000000E+00 -0.22217787605E+04  0.22217787605E+04  0.00000000000E+00 0.  1.
         25    1    1    2    0    0  0.48101624490E+02  0.10628503481E+03 -0.54904872968E+03  0.57505632982E+03  0.12500000000E+03 0.  0.
         25    1    1    2    0    0  0.66926903276E+02  0.31759489756E+01 -0.45123913774E+03  0.47300217384E+03  0.12500000000E+03 0.  0.
         25    1    1    2    0    0 -0.11502852777E+03 -0.10946098378E+03 -0.11890805919E+04  0.12061305581E+04  0.12500000000E+03 0.  0.
</event>
<event>
 5    0  0.5626800E-005  0.3205916E+03  0.7546771E-02  0.1075377E+00
         21   -1    0    0  502  501  0.00000000000E+00  0.00000000000E+00  0.11715523218E+03  0.11715523218E+03  0.00000000000E+00 0.  1.
         21   -1    0    0  501  502 -0.00000000000E+00 -0.00000000000E+00 -0.87728901446E+03  0.87728901446E+03  0.00000000000E+00 0.  1.
         25    1    1    2    0    0 -0.82621277780E+02 -0.94648219600E+02 -0.24125062449E+03  0.29935167418E+03  0.12500000000E+03 0.  0.
         25    1    1    2    0    0  0.25555803839E+02  0.20881283433E+03 -0.15484560133E+03  0.28958256015E+03  0.12500000000E+03 0.  0.
         25    1    1    2    0    0  0.57065473941E+02 -0.11416461473E+03 -0.36403755646E+03  0.40551001231E+03  0.12500000000E+03 0.  0.
</event>
<event>
 5    0  0.5626800E-005  0.4522281E+03  0.7546771E-02  0.1027060E+00
         21   -1    0    0  502  501  0.00000000000E+00  0.00000000000E+00  0.55233122284E+03  0.55233122284E+03  0.00000000000E+00 0. -1.
         21   -1    0    0  501  502 -0.00000000000E+00 -0.00000000000E+00 -0.37026736840E+03  0.37026736840E+03  0.00000000000E+00 0. -1.
         25    1    1    2    0    0  0.62426438137E+02  0.65266167528E+02  0.18651705713E+03  0.24201310998E+03  0.12500000000E+03 0.  0.
         25    1    1    2    0    0  0.27206409044E+03 -0.78239274720E+02  0.65918151463E+02  0.31640236426E+03  0.12500000000E+03 0.  0.
         25    1    1    2    0    0 -0.33449052858E+03  0.12973107192E+02 -0.70371354157E+02  0.36418311699E+03  0.12500000000E+03 0.  0.
</event>
<event>
 5    0  0.5626800E-005  0.2432158E+03  0.7546771E-02  0.1117669E+00
         21   -1    0    0  502  501  0.00000000000E+00  0.00000000000E+00  0.37194510714E+03  0.37194510714E+03  0.00000000000E+00 0. -1.
         21   -1    0    0  501  502 -0.00000000000E+00 -0.00000000000E+00 -0.15903946068E+03  0.15903946068E+03  0.00000000000E+00 0. -1.
         25    1    1    2    0    0 -0.41613516689E+02 -0.32477626559E+02 -0.27472103294E+02  0.13844203645E+03  0.12500000000E+03 0.  0.
         25    1    1    2    0    0  0.95664830032E+01  0.99940562877E+02  0.15868631233E+03  0.22557920877E+03  0.12500000000E+03 0.  0.
         25    1    1    2    0    0  0.32047033685E+02 -0.67462936318E+02  0.81691437418E+02  0.16696332260E+03  0.12500000000E+03 0.  0.
</event>
<event>
 5    0  0.5626800E-005  0.2524989E+03  0.7546771E-02  0.1111736E+00
         21   -1    0    0  502  501  0.00000000000E+00  0.00000000000E+00  0.29203039528E+03  0.29203039528E+03  0.00000000000E+00 0. -1.
         21   -1    0    0  501  502 -0.00000000000E+00 -0.00000000000E+00 -0.21831876263E+03  0.21831876263E+03  0.00000000000E+00 0. -1.
         25    1    1    2    0    0 -0.31895112892E+02 -0.25056253389E+02 -0.10075012917E+03  0.16559197622E+03  0.12500000000E+03 0.  0.
         25    1    1    2    0    0 -0.24684732408E+02  0.76212671128E+02  0.65726921230E+02  0.16236605381E+03  0.12500000000E+03 0.  0.
         25    1    1    2    0    0  0.56579845299E+02 -0.51156417738E+02  0.10873484059E+03  0.18239112788E+03  0.12500000000E+03 0.  0.
</event>
<event>
 5    0  0.5945738E-005  0.3191910E+03  0.7546771E-02  0.1076022E+00
         21   -1    0    0  502  501  0.00000000000E+00  0.00000000000E+00  0.17820399026E+03  0.17820399026E+03  0.00000000000E+00 0. -1.
         21   -1    0    0  501  502 -0.00000000000E+00 -0.00000000000E+00 -0.57172074097E+03  0.57172074097E+03  0.00000000000E+00 0. -1.
         25    1    1    2    0    0 -0.54291851865E+02 -0.13697792430E+02 -0.38441810748E+03  0.40809008326E+03  0.12500000000E+03 0.  0.
         25    1    1    2    0    0 -0.83259732333E+02 -0.10581990226E+02  0.20898811194E+02  0.15200632176E+03  0.12500000000E+03 0.  0.
         25    1    1    2    0    0  0.13755158420E+03  0.24279782656E+02 -0.29997454416E+02  0.18982832621E+03  0.12500000000E+03 0.  0.
</event>
<event>
 5    0  0.5626800E-005  0.3997823E+03  0.7546771E-02  0.1043855E+00
         21   -1    0    0  502  501  0.00000000000E+00  0.00000000000E+00  0.38579255060E+03  0.38579255060E+03  0.00000000000E+00 0.  1.
         21   -1    0    0  501  502 -0.00000000000E+00 -0.00000000000E+00 -0.41427927898E+03  0.41427927898E+03  0.00000000000E+00 0.  1.
         25    1    1    2    0    0  0.60232222464E+02 -0.19733255296E+01 -0.27432438279E+03  0.30742589616E+03  0.12500000000E+03 0.  0.
         25    1    1    2    0    0 -0.17136416214E+03  0.96708330837E+02  0.15574773142E+03  0.28035786624E+03  0.12500000000E+03 0.  0.
         25    1    1    2    0    0  0.11113193967E+03 -0.94735005308E+02  0.90089922986E+02  0.21228806719E+03  0.12500000000E+03 0.  0.
</event>
<event>
 5    0  0.5626800E-005  0.4547790E+03  0.7546771E-02  0.1026306E+00
         21   -1    0    0  502  501  0.00000000000E+00  0.00000000000E+00  0.32327657139E+03  0.32327657139E+03  0.00000000000E+00 0.  1.
         21   -1    0    0  501  502 -0.00000000000E+00 -0.00000000000E+00 -0.63977388950E+03  0.63977388950E+03  0.00000000000E+00 0.  1.
         25    1    1    2    0    0  0.17111411822E+03 -0.39875985733E+01 -0.12932115784E+03  0.24828391865E+03  0.12500000000E+03 0.  0.
         25    1    1    2    0    0  0.18623458336E+03  0.73416477370E+02 -0.22745404237E+03  0.32777071343E+03  0.12500000000E+03 0.  0.
         25    1    1    2    0    0 -0.35734870158E+03 -0.69428878796E+02  0.40277882109E+02  0.38699582881E+03  0.12500000000E+03 0.  0.
</event>
<event>
 5    0  0.5626800E-005  0.2750628E+03  0.7546771E-02  0.1098417E+00
         21   -1    0    0  502  501  0.00000000000E+00  0.00000000000E+00  0.17428857673E+03  0.17428857673E+03  0.00000000000E+00 0.  1.
         21   -1    0    0  501  502 -0.00000000000E+00 -0.00000000000E+00 -0.43410486266E+03  0.43410486266E+03  0.00000000000E+00 0.  1.
         25    1    1    2    0    0  0.17692152650E+03 -0.19705505237E+02 -0.67325521772E+02  0.22769993271E+03  0.12500000000E+03 0.  0.
         25    1    1    2    0    0 -0.63204877607E+02 -0.27074530603E+02 -0.13434216773E+03  0.19596097773E+03  0.12500000000E+03 0.  0.
         25    1    1    2    0    0 -0.11371664889E+03  0.46780035840E+02 -0.58148596424E+02  0.18473252895E+03  0.12500000000E+03 0.  0.
</event>
<event>
 5    0  0.5626800E-005  0.3249981E+03  0.7546771E-02  0.1073372E+00
         21   -1    0    0  502  501  0.00000000000E+00  0.00000000000E+00  0.70892022233E+02  0.70892022233E+02  0.00000000000E+00 0.  1.
         21   -1    0    0  501  502 -0.00000000000E+00 -0.00000000000E+00 -0.14899242172E+04  0.14899242172E+04  0.00000000000E+00 0.  1.
         25    1    1    2    0    0 -0.32359091835E+02  0.13092882651E+03 -0.25806781285E+03  0.31688083638E+03  0.12500000000E+03 0.  0.
         25    1    1    2    0    0  0.13757867829E+03 -0.86881557566E+02 -0.28153203228E+03  0.34836989389E+03  0.12500000000E+03 0.  0.
         25    1    1    2    0    0 -0.10521958645E+03 -0.44047268944E+02 -0.87943234979E+03  0.89556550913E+03  0.12500000000E+03 0.  0.
</event>
<event>
 5    0  0.5626800E-005  0.3019916E+03  0.7546771E-02  0.1084249E+00
         21   -1    0    0  502  501  0.00000000000E+00  0.00000000000E+00  0.63566177952E+03  0.63566177952E+03  0.00000000000E+00 0.  1.
         21   -1    0    0  501  502 -0.00000000000E+00 -0.00000000000E+00 -0.14347087863E+03  0.14347087863E+03  0.00000000000E+00 0.  1.
         25    1    1    2    0    0  0.31920818401E+02 -0.20939213819E+03  0.32904390877E+03  0.41080275082E+03  0.12500000000E+03 0.  0.
         25    1    1    2    0    0 -0.22322586101E+02  0.80713313782E+02  0.69531560306E+02  0.16574852865E+03  0.12500000000E+03 0.  0.
         25    1    1    2    0    0 -0.95982322994E+01  0.12867882441E+03  0.93615431803E+02  0.20258137868E+03  0.12500000000E+03 0.  0.
</event>
<event>
 5    0  0.5626800E-005  0.2549522E+03  0.7546771E-02  0.1110215E+00
         21   -1    0    0  502  501  0.00000000000E+00  0.00000000000E+00  0.37241254145E+03  0.37241254145E+03  0.00000000000E+00 0. -1.
         21   -1    0    0  501  502 -0.00000000000E+00 -0.00000000000E+00 -0.17453923530E+03  0.17453923530E+03  0.00000000000E+00 0. -1.
         25    1    1    2    0    0 -0.14499923378E+03 -0.20180714468E+02  0.81398785381E+00  0.19250377038E+03  0.12500000000E+03 0.  0.
         25    1    1    2    0    0  0.78716961521E+02 -0.32054565598E+01  0.12704096239E+03  0.19486159475E+03  0.12500000000E+03 0.  0.
         25    1    1    2    0    0  0.66282272264E+02  0.23386171028E+02  0.70018355899E+02  0.15958641162E+03  0.12500000000E+03 0.  0.
</event>
<event>
 5    0  0.5626800E-005  0.2140808E+03  0.7546771E-02  0.1138375E+00
         21   -1    0    0  502  501  0.00000000000E+00  0.00000000000E+00  0.26776713086E+03  0.26776713086E+03  0.00000000000E+00 0. -1.
         21   -1    0    0  501  502 -0.00000000000E+00 -0.00000000000E+00 -0.17115836526E+03  0.17115836526E+03  0.00000000000E+00 0. -1.
         25    1    1    2    0    0  0.19050763087E+02 -0.54701357743E+02  0.11310253300E+03  0.17824801004E+03  0.12500000000E+03 0.  0.
         25    1    1    2    0    0  0.26524569197E+01  0.43816352054E+02 -0.15024085057E+02  0.13333278429E+03  0.12500000000E+03 0.  0.
         25    1    1    2    0    0 -0.21703220006E+02  0.10885005688E+02 -0.14696823432E+01  0.12734470179E+03  0.12500000000E+03 0.  0.
</event>
<event>
 5    0  0.5626800E-005  0.2539064E+03  0.7546771E-02  0.1110861E+00
         21   -1    0    0  502  501  0.00000000000E+00  0.00000000000E+00  0.93836567418E+02  0.93836567418E+02  0.00000000000E+00 0. -1.
         21   -1    0    0  501  502 -0.00000000000E+00 -0.00000000000E+00 -0.68702902142E+03  0.68702902142E+03  0.00000000000E+00 0. -1.
         25    1    1    2    0    0  0.46432809213E+02 -0.16017468901E+02 -0.44958069548E+03  0.46921249646E+03  0.12500000000E+03 0.  0.
         25    1    1    2    0    0 -0.19318519975E+02 -0.23596651673E+02 -0.21533945530E+02  0.13045580859E+03  0.12500000000E+03 0.  0.
         25    1    1    2    0    0 -0.27114289238E+02  0.39614120574E+02 -0.12207781299E+03  0.18119728380E+03  0.12500000000E+03 0.  0.
</event>
<event>
 5    0  0.5626800E-005  0.3897136E+03  0.7546771E-02  0.1047401E+00
         21   -1    0    0  502  501  0.00000000000E+00  0.00000000000E+00  0.26229579382E+03  0.26229579382E+03  0.00000000000E+00 0. -1.
         21   -1    0    0  501  502 -0.00000000000E+00 -0.00000000000E+00 -0.57902835126E+03  0.57902835126E+03  0.00000000000E+00 0. -1.
         25    1    1    2    0    0  0.90794976471E+02 -0.27689401387E+02 -0.14577970572E+03  0.21421286913E+03  0.12500000000E+03 0.  0.
         25    1    1    2    0    0 -0.25947973918E+02  0.20224941479E+03 -0.28780843397E+03  0.37421493529E+03  0.12500000000E+03 0.  0.
         25    1    1    2    0    0 -0.64847002552E+02 -0.17456001340E+03  0.11685558225E+03  0.25289634066E+03  0.12500000000E+03 0.  0.
</event>
<event>
 5    0  0.5626800E-005  0.2131186E+03  0.7546771E-02  0.1139120E+00
         21   -1    0    0  502  501  0.00000000000E+00  0.00000000000E+00  0.12355319340E+03  0.12355319340E+03  0.00000000000E+00 0.  1.
         21   -1    0    0  501  502 -0.00000000000E+00 -0.00000000000E+00 -0.36761122698E+03  0.36761122698E+03  0.00000000000E+00 0.  1.
         25    1    1    2    0    0  0.46801655119E+01 -0.84609840280E+02 -0.77282839171E+02  0.16964187647E+03  0.12500000000E+03 0.  0.
         25    1    1    2    0    0 -0.15596106091E+02  0.72770081162E+02 -0.64157978020E+02  0.15899675903E+03  0.12500000000E+03 0.  0.
         25    1    1    2    0    0  0.10915940579E+02  0.11839759118E+02 -0.10261721639E+03  0.16252578489E+03  0.12500000000E+03 0.  0.
</event>
<event>
 5    0  0.5626800E-005  0.3425291E+03  0.7546771E-02  0.1065724E+00
         21   -1    0    0  502  501  0.00000000000E+00  0.00000000000E+00  0.18645460662E+03  0.18645460662E+03  0.00000000000E+00 0.  1.
         21   -1    0    0  501  502 -0.00000000000E+00 -0.00000000000E+00 -0.62924787572E+03  0.62924787572E+03  0.00000000000E+00 0.  1.
         25    1    1    2    0    0  0.16265340075E+03  0.48747056561E+02 -0.69277420329E+02  0.22193865203E+03  0.12500000000E+03 0.  0.
         25    1    1    2    0    0 -0.21237896180E+03 -0.15361080055E+03 -0.22050401121E+03  0.36462051563E+03  0.12500000000E+03 0.  0.
         25    1    1    2    0    0  0.49725561050E+02  0.10486374399E+03 -0.15301183756E+03  0.22914331467E+03  0.12500000000E+03 0.  0.
</event>
<event>
 5    0  0.5626800E-005  0.2489366E+03  0.7546771E-02  0.1113979E+00
         21   -1    0    0  502  501  0.00000000000E+00  0.00000000000E+00  0.37378873369E+03  0.37378873369E+03  0.00000000000E+00 0.  1.
         21   -1    0    0  501  502 -0.00000000000E+00 -0.00000000000E+00 -0.16578736320E+03  0.16578736320E+03  0.00000000000E+00 0.  1.
         25    1    1    2    0    0  0.41853782619E+02 -0.49927786127E+02  0.83562357003E+02  0.16386637988E+03  0.12500000000E+03 0.  0.
         25    1    1    2    0    0  0.68158519214E+02  0.88791312103E+02  0.63665774997E+01  0.16791371045E+03  0.12500000000E+03 0.  0.
         25    1    1    2    0    0 -0.11001230183E+03 -0.38863525976E+02  0.11807243599E+03  0.20779600657E+03  0.12500000000E+03 0.  0.
</event>
<event>
 5    0  0.5626800E-005  0.2696980E+03  0.7546771E-02  0.1101453E+00
         21   -1    0    0  502  501  0.00000000000E+00  0.00000000000E+00  0.24496184008E+03  0.24496184008E+03  0.00000000000E+00 0.  1.
         21   -1    0    0  501  502 -0.00000000000E+00 -0.00000000000E+00 -0.29693203744E+03  0.29693203744E+03  0.00000000000E+00 0.  1.
         25    1    1    2    0    0  0.98618219878E+01  0.14424147935E+03 -0.26322950656E+02  0.19292681936E+03  0.12500000000E+03 0.  0.
         25    1    1    2    0    0 -0.36703293761E+02 -0.37732770247E+02 -0.98187067853E+02  0.16744131514E+03  0.12500000000E+03 0.  0.
         25    1    1    2    0    0  0.26841471774E+02 -0.10650870910E+03  0.72539821149E+02  0.18152574301E+03  0.12500000000E+03 0.  0.
</event>
<event>
 5    0  0.5626800E-005  0.3056147E+03  0.7546771E-02  0.1082467E+00
         21   -1    0    0  502  501  0.00000000000E+00  0.00000000000E+00  0.13892257896E+03  0.13892257896E+03  0.00000000000E+00 0. -1.
         21   -1    0    0  501  502 -0.00000000000E+00 -0.00000000000E+00 -0.67231950642E+03  0.67231950642E+03  0.00000000000E+00 0. -1.
         25    1    1    2    0    0 -0.28078472174E+02  0.15831566162E+03 -0.12145447881E+03  0.23712536713E+03  0.12500000000E+03 0.  0.
         25    1    1    2    0    0 -0.23035131771E+02  0.18804593175E+02 -0.29951231975E+02  0.13193296145E+03  0.12500000000E+03 0.  0.
         25    1    1    2    0    0  0.51113603944E+02 -0.17712025480E+03 -0.38199121668E+03  0.44218375681E+03  0.12500000000E+03 0.  0.
</event>
<event>
 5    0  0.5626800E-005  0.5145602E+03  0.7546771E-02  0.1010047E+00
         21   -1    0    0  502  501  0.00000000000E+00  0.00000000000E+00  0.11750177419E+04  0.11750177419E+04  0.00000000000E+00 0. -1.
         21   -1    0    0  501  502 -0.00000000000E+00 -0.00000000000E+00 -0.22533460371E+03  0.22533460371E+03  0.00000000000E+00 0. -1.
         25    1    1    2    0    0 -0.10519752868E+03  0.40293203867E+03  0.28247835039E+03  0.51849760488E+03  0.12500000000E+03 0.  0.
         25    1    1    2    0    0  0.21125560005E+03 -0.22131188096E+03  0.35205111916E+03  0.48287976527E+03  0.12500000000E+03 0.  0.
         25    1    1    2    0    0 -0.10605807136E+03 -0.18162015770E+03  0.31515366863E+03  0.39897497545E+03  0.12500000000E+03 0.  0.
</event>
<event>
 5    0  0.5626800E-005  0.3016298E+03  0.7546771E-02  0.1084429E+00
         21   -1    0    0  502  501  0.00000000000E+00  0.00000000000E+00  0.39452660517E+03  0.39452660517E+03  0.00000000000E+00 0.  1.
         21   -1    0    0  501  502 -0.00000000000E+00 -0.00000000000E+00 -0.23060679439E+03  0.23060679439E+03  0.00000000000E+00 0.  1.
         25    1    1    2    0    0  0.10477558794E+03  0.14192821000E+02  0.45584677391E+02  0.16994800031E+03  0.12500000000E+03 0.  0.
         25    1    1    2    0    0 -0.22622190661E+02 -0.37416437036E+02  0.23115099612E+03  0.26639732783E+03  0.12500000000E+03 0.  0.
         25    1    1    2    0    0 -0.82153397277E+02  0.23223616036E+02 -0.11281586273E+03  0.18878807142E+03  0.12500000000E+03 0.  0.
</event>
<event>
 5    0  0.5626800E-005  0.2748306E+03  0.7546771E-02  0.1098546E+00
         21   -1    0    0  502  501  0.00000000000E+00  0.00000000000E+00  0.49393993183E+02  0.49393993183E+02  0.00000000000E+00 0.  1.
         21   -1    0    0  501  502 -0.00000000000E+00 -0.00000000000E+00 -0.15291709912E+04  0.15291709912E+04  0.00000000000E+00 0.  1.
         25    1    1    2    0    0 -0.17835873007E+02 -0.10636065684E+02 -0.38917582801E+03  0.40928482670E+03  0.12500000000E+03 0.  0.
         25    1    1    2    0    0 -0.28479746778E+02 -0.76879112092E+02 -0.13807306365E+03  0.20349610502E+03  0.12500000000E+03 0.  0.
         25    1    1    2    0    0  0.46315619785E+02  0.87515177776E+02 -0.95252810638E+03  0.96578405269E+03  0.12500000000E+03 0.  0.
</event>
<event>
 5    0  0.5626800E-005  0.2406004E+03  0.7546771E-02  0.1119394E+00
         21   -1    0    0  502  501  0.00000000000E+00  0.00000000000E+00  0.90483681383E+03  0.90483681383E+03  0.00000000000E+00 0. -1.
         21   -1    0    0  501  502 -0.00000000000E+00 -0.00000000000E+00 -0.63976764512E+02  0.63976764512E+02  0.00000000000E+00 0. -1.
         25    1    1    2    0    0  0.71919296440E+02 -0.68712552979E+02  0.16853293404E+03  0.23221143381E+03  0.12500000000E+03 0.  0.
         25    1    1    2    0    0 -0.56291178125E+02  0.22521231729E+02  0.18631770717E+03  0.23241168348E+03  0.12500000000E+03 0.  0.
         25    1    1    2    0    0 -0.15628118315E+02  0.46191321250E+02  0.48600940812E+03  0.50419046105E+03  0.12500000000E+03 0.  0.
</event>
<event>
 5    0  0.5994033E-005  0.3446245E+03  0.7546771E-02  0.1064843E+00
         21   -1    0    0  502  501  0.00000000000E+00  0.00000000000E+00  0.23556836339E+03  0.23556836339E+03  0.00000000000E+00 0. -1.
         21   -1    0    0  501  502 -0.00000000000E+00 -0.00000000000E+00 -0.50416809311E+03  0.50416809311E+03  0.00000000000E+00 0. -1.
         25    1    1    2    0    0  0.10554990117E+03 -0.16977185641E+03  0.49582154823E+02  0.24092873416E+03  0.12500000000E+03 0.  0.
         25    1    1    2    0    0 -0.15427317931E+03  0.58577649159E+02 -0.14219221664E+03  0.25114772805E+03  0.12500000000E+03 0.  0.
         25    1    1    2    0    0  0.48723278132E+02  0.11119420725E+03 -0.17598966791E+03  0.24765999429E+03  0.12500000000E+03 0.  0.
</event>
<event>
 5    0  0.5626800E-005  0.2643240E+03  0.7546771E-02  0.1104573E+00
         21   -1    0    0  502  501  0.00000000000E+00  0.00000000000E+00  0.79179435104E+02  0.79179435104E+02  0.00000000000E+00 0. -1.
         21   -1    0    0  501  502 -0.00000000000E+00 -0.00000000000E+00 -0.88239054967E+03  0.88239054967E+03  0.00000000000E+00 0. -1.
         25    1    1    2    0    0  0.12932912117E+03  0.61018558581E+01 -0.15352017676E+03  0.23655168336E+03  0.12500000000E+03 0.  0.
         25    1    1    2    0    0 -0.30870451794E+01 -0.51549258601E+02 -0.22654019462E+03  0.26384145938E+03  0.12500000000E+03 0.  0.
         25    1    1    2    0    0 -0.12624207599E+03  0.45447402743E+02 -0.42315074318E+03  0.46117684203E+03  0.12500000000E+03 0.  0.
</event>
<event>
 5    0  0.5626800E-005  0.3871780E+03  0.7546771E-02  0.1048312E+00
         21   -1    0    0  502  501  0.00000000000E+00  0.00000000000E+00  0.50581648786E+03  0.50581648786E+03  0.00000000000E+00 0.  1.
         21   -1    0    0  501  502 -0.00000000000E+00 -0.00000000000E+00 -0.29636599510E+03  0.29636599510E+03  0.00000000000E+00 0.  1.
         25    1    1    2    0    0 -0.14632901591E+03 -0.53491518205E+02  0.73052081227E+02  0.21268551899E+03  0.12500000000E+03 0.  0.
         25    1    1    2    0    0  0.67742123478E+02 -0.15757896749E+03  0.23228121737E+03  0.31464216220E+03  0.12500000000E+03 0.  0.
         25    1    1    2    0    0  0.78586892436E+02  0.21107048570E+03 -0.95882805841E+02  0.27485480176E+03  0.12500000000E+03 0.  0.
</event>
<event>
 5    0  0.5626800E-005  0.2226823E+03  0.7546771E-02  0.1131899E+00
         21   -1    0    0  502  501  0.00000000000E+00  0.00000000000E+00  0.30758375568E+03  0.30758375568E+03  0.00000000000E+00 0. -1.
         21   -1    0    0  501  502 -0.00000000000E+00 -0.00000000000E+00 -0.16121588324E+03  0.16121588324E+03  0.00000000000E+00 0. -1.
         25    1    1    2    0    0 -0.55971617086E+01  0.41794874734E+02  0.22948121684E+02  0.13390203905E+03  0.12500000000E+03 0.  0.
         25    1    1    2    0    0 -0.28123643314E+02 -0.47738625370E+02  0.14960543918E+03  0.20267388361E+03  0.12500000000E+03 0.  0.
         25    1    1    2    0    0  0.33720805023E+02  0.59437506362E+01 -0.26185688430E+02  0.13222371626E+03  0.12500000000E+03 0.  0.
</event>
<event>
 5    0  0.5626800E-005  0.2685400E+03  0.7546771E-02  0.1102118E+00
         21   -1    0    0  502  501  0.00000000000E+00  0.00000000000E+00  0.64769553896E+03  0.64769553896E+03  0.00000000000E+00 0.  1.
         21   -1    0    0  501  502 -0.00000000000E+00 -0.00000000000E+00 -0.11133891316E+03  0.11133891316E+03  0.00000000000E+00 0.  1.
         25    1    1    2    0    0  0.10064508912E+03  0.29116734988E+02  0.31867925607E+02  0.16618598889E+03  0.12500000000E+03 0.  0.
         25    1    1    2    0    0 -0.28876830098E+00 -0.24210906760E+01  0.11125252512E+03  0.16735611555E+03  0.12500000000E+03 0.  0.
         25    1    1    2    0    0 -0.10035632082E+03 -0.26695644312E+02  0.39323617508E+03  0.42549234769E+03  0.12500000000E+03 0.  0.
</event>
<event>
 5    0  0.5626800E-005  0.2726734E+03  0.7546771E-02  0.1099759E+00
         21   -1    0    0  502  501  0.00000000000E+00  0.00000000000E+00  0.32455520740E+03  0.32455520740E+03  0.00000000000E+00 0. -1.
         21   -1    0    0  501  502 -0.00000000000E+00 -0.00000000000E+00 -0.22908511003E+03  0.22908511003E+03  0.00000000000E+00 0. -1.
         25    1    1    2    0    0 -0.12860882911E+03  0.99013523432E+02  0.39309298939E+02  0.20860040683E+03  0.12500000000E+03 0.  0.
         25    1    1    2    0    0  0.82216882111E+02 -0.52663750330E+02  0.11100938748E+03  0.19360054342E+03  0.12500000000E+03 0.  0.
         25    1    1    2    0    0  0.46391947002E+02 -0.46349773102E+02 -0.54848589042E+02  0.15143936718E+03  0.12500000000E+03 0.  0.
</event>
<event>
 5    0  0.7134653E-005  0.3040085E+03  0.7546771E-02  0.1083254E+00
         21   -1    0    0  502  501  0.00000000000E+00  0.00000000000E+00  0.43594109320E+03  0.43594109320E+03  0.00000000000E+00 0. -1.
         21   -1    0    0  501  502 -0.00000000000E+00 -0.00000000000E+00 -0.21200386591E+03  0.21200386591E+03  0.00000000000E+00 0. -1.
         25    1    1    2    0    0  0.23167869642E+02 -0.15034780798E+03  0.10051824157E+03  0.22106589615E+03  0.12500000000E+03 0.  0.
         25    1    1    2    0    0 -0.47576591795E+02 -0.57193419517E+02 -0.15911559300E+02  0.14633112124E+03  0.12500000000E+03 0.  0.
         25    1    1    2    0    0  0.24408722153E+02  0.20754122750E+03  0.13933054502E+03  0.28054794172E+03  0.12500000000E+03 0.  0.
</event>
<event>
 5    0  0.5626800E-005  0.2399578E+03  0.7546771E-02  0.1119821E+00
         21   -1    0    0  502  501  0.00000000000E+00  0.00000000000E+00  0.27850264990E+03  0.27850264990E+03  0.00000000000E+00 0. -1.
         21   -1    0    0  501  502 -0.00000000000E+00 -0.00000000000E+00 -0.20674762609E+03  0.20674762609E+03  0.00000000000E+00 0. -1.
         25    1    1    2    0    0 -0.12227511582E+02  0.33846829161E+02 -0.67005656298E+02  0.14632114632E+03  0.12500000000E+03 0.  0.
         25    1    1    2    0    0 -0.63980500074E+02  0.21772649434E+02  0.22470714147E+02  0.14386620745E+03  0.12500000000E+03 0.  0.
         25    1    1    2    0    0  0.76208011656E+02 -0.55619478595E+02  0.11628996597E+03  0.19506292222E+03  0.12500000000E+03 0.  0.
</event>
<event>
 5    0  0.6537210E-005  0.2836641E+03  0.7546771E-02  0.1093704E+00
         21   -1    0    0  502  501  0.00000000000E+00  0.00000000000E+00  0.29997436831E+03  0.29997436831E+03  0.00000000000E+00 0.  1.
         21   -1    0    0  501  502 -0.00000000000E+00 -0.00000000000E+00 -0.26824059165E+03  0.26824059165E+03  0.00000000000E+00 0.  1.
         25    1    1    2    0    0  0.53007338904E+02  0.14015545474E+03 -0.58817812613E+02  0.20380840158E+03  0.12500000000E+03 0.  0.
         25    1    1    2    0    0 -0.90679608942E+02 -0.97397439334E+02 -0.25785165466E+02  0.18438798070E+03  0.12500000000E+03 0.  0.
         25    1    1    2    0    0  0.37672270037E+02 -0.42758015410E+02  0.11633675473E+03  0.18001857769E+03  0.12500000000E+03 0.  0.
</event>
<event>
 5    0  0.5626800E-005  0.2303556E+03  0.7546771E-02  0.1126390E+00
         21   -1    0    0  502  501  0.00000000000E+00  0.00000000000E+00  0.74638902239E+03  0.74638902239E+03  0.00000000000E+00 0.  1.
         21   -1    0    0  501  502 -0.00000000000E+00 -0.00000000000E+00 -0.71093916984E+02  0.71093916984E+02  0.00000000000E+00 0.  1.
         25    1    1    2    0    0 -0.32905248429E+02 -0.11068531238E+03  0.29056988101E+03  0.33673409317E+03  0.12500000000E+03 0.  0.
         25    1    1    2    0    0 -0.18536504382E+02  0.76983087912E+02  0.21813730993E+03  0.26358847433E+03  0.12500000000E+03 0.  0.
         25    1    1    2    0    0  0.51441752811E+02  0.33702224465E+02  0.16658791447E+03  0.21716037188E+03  0.12500000000E+03 0.  0.
</event>
<event>
 5    0  0.5626800E-005  0.2700545E+03  0.7546771E-02  0.1101248E+00
         21   -1    0    0  502  501  0.00000000000E+00  0.00000000000E+00  0.59053267875E+03  0.59053267875E+03  0.00000000000E+00 0. -1.
         21   -1    0    0  501  502 -0.00000000000E+00 -0.00000000000E+00 -0.12349772302E+03  0.12349772302E+03  0.00000000000E+00 0. -1.
         25    1    1    2    0    0 -0.99991894027E+02 -0.13968626598E+03  0.92855391395E+02  0.23185718770E+03  0.12500000000E+03 0.  0.
         25    1    1    2    0    0  0.49792839167E+02  0.58408020020E+02  0.18668546740E+03  0.23741795925E+03  0.12500000000E+03 0.  0.
         25    1    1    2    0    0  0.50199054860E+02  0.81278245963E+02  0.18749409694E+03  0.24475525482E+03  0.12500000000E+03 0.  0.
</event>
<event>
 5    0  0.5626800E-005  0.2863054E+03  0.7546771E-02  0.1092294E+00
         21   -1    0    0  502  501  0.00000000000E+00  0.00000000000E+00  0.59906440165E+03  0.59906440165E+03  0.00000000000E+00 0. -1.
         21   -1    0    0  501  502 -0.00000000000E+00 -0.00000000000E+00 -0.13683132141E+03  0.13683132141E+03  0.00000000000E+00 0. -1.
         25    1    1    2    0    0 -0.58278935101E+02  0.15138878715E+02  0.12150448956E+03  0.18442874209E+03  0.12500000000E+03 0.  0.
         25    1    1    2    0    0  0.50409231174E+02  0.92385598977E+02  0.34986491966E+03  0.38614330435E+03  0.12500000000E+03 0.  0.
         25    1    1    2    0    0  0.78697039266E+01 -0.10752447769E+03 -0.91363289820E+01  0.16532367662E+03  0.12500000000E+03 0.  0.
</event>
<event>
 5    0  0.6139795E-005  0.2998723E+03  0.7546771E-02  0.1085304E+00
         21   -1    0    0  502  501  0.00000000000E+00  0.00000000000E+00  0.24788048166E+03  0.24788048166E+03  0.00000000000E+00 0. -1.
         21   -1    0    0  501  502 -0.00000000000E+00 -0.00000000000E+00 -0.36276910493E+03  0.36276910493E+03  0.00000000000E+00 0. -1.
         25    1    1    2    0    0 -0.36925989174E+02 -0.59572620710E+01 -0.15570334700E+03  0.20314416043E+03  0.12500000000E+03 0.  0.
         25    1    1    2    0    0 -0.10774642359E+03  0.96512581670E+02 -0.41594346373E+01  0.19122309252E+03  0.12500000000E+03 0.  0.
         25    1    1    2    0    0  0.14467241277E+03 -0.90555319599E+02  0.44974158368E+02  0.21628233364E+03  0.12500000000E+03 0.  0.
</event>
<event>
 5    0  0.6096891E-005  0.5293632E+03  0.7546771E-02  0.1006387E+00
         21   -1    0    0  502  501  0.00000000000E+00  0.00000000000E+00  0.53874987241E+03  0.53874987241E+03  0.00000000000E+00 0.  1.
         21   -1    0    0  501  502 -0.00000000000E+00 -0.00000000000E+00 -0.52014006103E+03  0.52014006103E+03  0.00000000000E+00 0.  1.
         25    1    1    2    0    0  0.81147942954E+02 -0.14271727365E+03  0.26055883842E+03  0.33236894729E+03  0.12500000000E+03 0.  0.
         25    1    1    2    0    0 -0.34315439985E+03  0.14776484995E+03 -0.12261016867E+03  0.41261076873E+03  0.12500000000E+03 0.  0.
         25    1    1    2    0    0  0.26200645689E+03 -0.50475763045E+01 -0.11933885837E+03  0.31391021741E+03  0.12500000000E+03 0.  0.
</event>
<event>
 5    0  0.5626800E-005  0.2728122E+03  0.7546771E-02  0.1099681E+00
         21   -1    0    0  502  501  0.00000000000E+00  0.00000000000E+00  0.15216839472E+03  0.15216839472E+03  0.00000000000E+00 0. -1.
         21   -1    0    0  501  502 -0.00000000000E+00 -0.00000000000E+00 -0.48910630667E+03  0.48910630667E+03  0.00000000000E+00 0. -1.
         25    1    1    2    0    0 -0.10356363769E+03  0.55905514467E+02 -0.16506918691E+03  0.23816735726E+03  0.12500000000E+03 0.  0.
         25    1    1    2    0    0  0.43328930492E+02  0.58468238307E+02  0.12983020312E+02  0.14522220879E+03  0.12500000000E+03 0.  0.
         25    1    1    2    0    0  0.60234707194E+02 -0.11437375277E+03 -0.18485174535E+03  0.25788513535E+03  0.12500000000E+03 0.  0.
</event>
<event>
 5    0  0.5626800E-005  0.2407165E+03  0.7546771E-02  0.1119316E+00
         21   -1    0    0  502  501  0.00000000000E+00  0.00000000000E+00  0.41248728097E+03  0.41248728097E+03  0.00000000000E+00 0.  1.
         21   -1    0    0  501  502 -0.00000000000E+00 -0.00000000000E+00 -0.14047563080E+03  0.14047563080E+03  0.00000000000E+00 0.  1.
         25    1    1    2    0    0  0.80034962510E+02  0.62920806140E+02  0.13778950093E+03  0.21207444362E+03  0.12500000000E+03 0.  0.
         25    1    1    2    0    0 -0.10474700928E+03  0.42928802240E+01  0.10465656426E+03  0.19382559485E+03  0.12500000000E+03 0.  0.
         25    1    1    2    0    0  0.24712046771E+02 -0.67213686364E+02  0.29565584986E+02  0.14706287331E+03  0.12500000000E+03 0.  0.
</event>
<event>
 5    0  0.5626800E-005  0.2663574E+03  0.7546771E-02  0.1103383E+00
         21   -1    0    0  502  501  0.00000000000E+00  0.00000000000E+00  0.23611980464E+03  0.23611980464E+03  0.00000000000E+00 0. -1.
         21   -1    0    0  501  502 -0.00000000000E+00 -0.00000000000E+00 -0.30046732309E+03  0.30046732309E+03  0.00000000000E+00 0. -1.
         25    1    1    2    0    0  0.81119817869E+02  0.96106641206E+02  0.28384734745E+01  0.17734138904E+03  0.12500000000E+03 0.  0.
         25    1    1    2    0    0 -0.10279863779E+03 -0.11591251399E+03  0.25766967184E+02  0.20072918928E+03  0.12500000000E+03 0.  0.
         25    1    1    2    0    0  0.21678819921E+02  0.19805872787E+02 -0.92952959110E+02  0.15851654941E+03  0.12500000000E+03 0.  0.
</event>
<event>
 5    0  0.5626800E-005  0.3683093E+03  0.7546771E-02  0.1055341E+00
         21   -1    0    0  502  501  0.00000000000E+00  0.00000000000E+00  0.15000417145E+03  0.15000417145E+03  0.00000000000E+00 0.  1.
         21   -1    0    0  501  502 -0.00000000000E+00 -0.00000000000E+00 -0.90431982350E+03  0.90431982350E+03  0.00000000000E+00 0.  1.
         25    1    1    2    0    0  0.16240422213E+03  0.23935583341E+03 -0.28508111897E+03  0.42492657100E+03  0.12500000000E+03 0.  0.
         25    1    1    2    0    0 -0.14387093370E+03 -0.11966135863E+03 -0.35793112984E+03  0.42279709084E+03  0.12500000000E+03 0.  0.
         25    1    1    2    0    0 -0.18533288427E+02 -0.11969447477E+03 -0.11130340324E+03  0.20660033312E+03  0.12500000000E+03 0.  0.
</event>
<event>
 5    0  0.5626800E-005  0.2593184E+03  0.7546771E-02  0.1107553E+00
         21   -1    0    0  502  501  0.00000000000E+00  0.00000000000E+00  0.42035030337E+03  0.42035030337E+03  0.00000000000E+00 0. -1.
         21   -1    0    0  501  502 -0.00000000000E+00 -0.00000000000E+00 -0.15997622870E+03  0.15997622870E+03  0.00000000000E+00 0. -1.
         25    1    1    2    0    0  0.12488896950E+02  0.18062109206E+02  0.17574385195E+03  0.21677895155E+03  0.12500000000E+03 0.  0.
         25    1    1    2    0    0  0.62139951863E+02  0.95298937447E+02  0.38302536865E+02  0.17330708418E+03  0.12500000000E+03 0.  0.
         25    1    1    2    0    0 -0.74628848812E+02 -0.11336104665E+03  0.46327685850E+02  0.19024049634E+03  0.12500000000E+03 0.  0.
</event>
<event>
 5    0  0.5626800E-005  0.2578008E+03  0.7546771E-02  0.1108472E+00
         21   -1    0    0  502  501  0.00000000000E+00  0.00000000000E+00  0.23897573070E+03  0.23897573070E+03  0.00000000000E+00 0. -1.
         21   -1    0    0  501  502 -0.00000000000E+00 -0.00000000000E+00 -0.27810886075E+03  0.27810886075E+03  0.00000000000E+00 0. -1.
         25    1    1    2    0    0  0.26020440512E+02 -0.14282301923E+03 -0.48874004779E+02  0.19770975314E+03  0.12500000000E+03 0.  0.
         25    1    1    2    0    0 -0.40598747743E+02  0.79753120394E+02  0.66624592563E+02  0.16754896259E+03  0.12500000000E+03 0.  0.
         25    1    1    2    0    0  0.14578307231E+02  0.63069898831E+02 -0.56883717838E+02  0.15182587571E+03  0.12500000000E+03 0.  0.
</event>
<event>
 5    0  0.5626800E-005  0.4120958E+03  0.7546771E-02  0.1039670E+00
         21   -1    0    0  502  501  0.00000000000E+00  0.00000000000E+00  0.10211081105E+04  0.10211081105E+04  0.00000000000E+00 0.  1.
         21   -1    0    0  501  502 -0.00000000000E+00 -0.00000000000E+00 -0.16631242523E+03  0.16631242523E+03  0.00000000000E+00 0.  1.
         25    1    1    2    0    0 -0.19418745697E+03  0.22007203596E+03  0.27966506019E+03  0.42423815876E+03  0.12500000000E+03 0.  0.
         25    1    1    2    0    0  0.90002187080E+02 -0.28143273177E+03  0.31016963191E+03  0.44624542211E+03  0.12500000000E+03 0.  0.
         25    1    1    2    0    0  0.10418526989E+03  0.61360695810E+02  0.26496099315E+03  0.31693695484E+03  0.12500000000E+03 0.  0.
</event>
<event>
 5    0  0.5626800E-005  0.3445649E+03  0.7546771E-02  0.1064868E+00
         21   -1    0    0  502  501  0.00000000000E+00  0.00000000000E+00  0.14772927491E+03  0.14772927491E+03  0.00000000000E+00 0.  1.
         21   -1    0    0  501  502 -0.00000000000E+00 -0.00000000000E+00 -0.80366602491E+03  0.80366602491E+03  0.00000000000E+00 0.  1.
         25    1    1    2    0    0  0.10971750965E+03  0.53258495801E+02 -0.84083837740E+02  0.19382850943E+03  0.12500000000E+03 0.  0.
         25    1    1    2    0    0  0.10779135736E+03  0.10910192005E+03 -0.21729926498E+03  0.29388122812E+03  0.12500000000E+03 0.  0.
         25    1    1    2    0    0 -0.21750886701E+03 -0.16236041585E+03 -0.35455364727E+03  0.46368556227E+03  0.12500000000E+03 0.  0.
</event>
<event>
 5    0  0.5626800E-005  0.3898690E+03  0.7546771E-02  0.1047345E+00
         21   -1    0    0  502  501  0.00000000000E+00  0.00000000000E+00  0.19481328600E+04  0.19481328600E+04  0.00000000000E+00 0. -1.
         21   -1    0    0  501  502 -0.00000000000E+00 -0.00000000000E+00 -0.78022310049E+02  0.78022310049E+02  0.00000000000E+00 0. -1.
         25    1    1    2    0    0 -0.56914416317E+02 -0.20956545854E+03  0.97834057124E+03  0.10099169300E+04  0.12500000000E+03 0.  0.
         25    1    1    2    0    0 -0.13204111177E+02 -0.90345610490E+02  0.29446272839E+03  0.33267097304E+03  0.12500000000E+03 0.  0.
         25    1    1    2    0    0  0.70118527493E+02  0.29991106903E+03  0.59730725027E+03  0.68356726695E+03  0.12500000000E+03 0.  0.
</event>
<event>
 5    0  0.5626800E-005  0.2273507E+03  0.7546771E-02  0.1128518E+00
         21   -1    0    0  502  501  0.00000000000E+00  0.00000000000E+00  0.92956961598E+03  0.92956961598E+03  0.00000000000E+00 0. -1.
         21   -1    0    0  501  502 -0.00000000000E+00 -0.00000000000E+00 -0.55604589158E+02  0.55604589158E+02  0.00000000000E+00 0. -1.
         25    1    1    2    0    0  0.27132660459E+02 -0.58955194221E+02  0.22024395041E+03  0.26142741609E+03  0.12500000000E+03 0.  0.
         25    1    1    2    0    0 -0.11405422692E+01  0.23148190408E+01  0.50279988988E+03  0.51811136688E+03  0.12500000000E+03 0.  0.
         25    1    1    2    0    0 -0.25992118190E+02  0.56640375180E+02  0.15092118653E+03  0.20563542217E+03  0.12500000000E+03 0.  0.
</event>
<event>
 5    0  0.5626800E-005  0.3628137E+03  0.7546771E-02  0.1057475E+00
         21   -1    0    0  502  501  0.00000000000E+00  0.00000000000E+00  0.30928692243E+03  0.30928692243E+03  0.00000000000E+00 0. -1.
         21   -1    0    0  501  502 -0.00000000000E+00 -0.00000000000E+00 -0.42560404648E+03  0.42560404648E+03  0.00000000000E+00 0. -1.
         25    1    1    2    0    0  0.10632764866E+03 -0.10555079798E+02  0.11216755361E+03  0.19905662175E+03  0.12500000000E+03 0.  0.
         25    1    1    2    0    0 -0.18896649356E+03  0.11568583479E+03 -0.15311436943E+02  0.25485483743E+03  0.12500000000E+03 0.  0.
         25    1    1    2    0    0  0.82638844894E+02 -0.10513075499E+03 -0.21317324072E+03  0.28097950973E+03  0.12500000000E+03 0.  0.
</event>
<event>
 5    0  0.5626800E-005  0.4013607E+03  0.7546771E-02  0.1043310E+00
         21   -1    0    0  502  501  0.00000000000E+00  0.00000000000E+00  0.55372562506E+03  0.55372562506E+03  0.00000000000E+00 0. -1.
         21   -1    0    0  501  502 -0.00000000000E+00 -0.00000000000E+00 -0.29092097705E+03  0.29092097705E+03  0.00000000000E+00 0. -1.
         25    1    1    2    0    0  0.24368457828E+03  0.23449872325E+03  0.19723837599E+03  0.41097421070E+03  0.12500000000E+03 0.  0.
         25    1    1    2    0    0 -0.11245815073E+03 -0.13915492004E+03 -0.12662088367E+01  0.21826023624E+03  0.12500000000E+03 0.  0.
         25    1    1    2    0    0 -0.13122642755E+03 -0.95343803214E+02  0.66832480854E+02  0.21541215517E+03  0.12500000000E+03 0.  0.
</event>
<event>
 5    0  0.5626800E-005  0.3234042E+03  0.7546771E-02  0.1074093E+00
         21   -1    0    0  502  501  0.00000000000E+00  0.00000000000E+00  0.90036152345E+03  0.90036152345E+03  0.00000000000E+00 0.  1.
         21   -1    0    0  501  502 -0.00000000000E+00 -0.00000000000E+00 -0.11616474337E+03  0.11616474337E+03  0.00000000000E+00 0.  1.
         25    1    1    2    0    0  0.97302634740E+02  0.10650315738E+02  0.16014130851E+02  0.15957031159E+03  0.12500000000E+03 0.  0.
         25    1    1    2    0    0 -0.60515862627E+02  0.12829566021E+03  0.39895119495E+03  0.44148499636E+03  0.12500000000E+03 0.  0.
         25    1    1    2    0    0 -0.36786772113E+02 -0.13894597595E+03  0.36923145428E+03  0.41547095887E+03  0.12500000000E+03 0.  0.
</event>
<event>
 5    0  0.5626800E-005  0.2334502E+03  0.7546771E-02  0.1124235E+00
         21   -1    0    0  502  501  0.00000000000E+00  0.00000000000E+00  0.76597961615E+02  0.76597961615E+02  0.00000000000E+00 0.  1.
         21   -1    0    0  501  502 -0.00000000000E+00 -0.00000000000E+00 -0.71149419685E+03  0.71149419685E+03  0.00000000000E+00 0.  1.
         25    1    1    2    0    0  0.73426355448E+02  0.62544290950E+02 -0.21642989327E+03  0.26789945261E+03  0.12500000000E+03 0.  0.
         25    1    1    2    0    0 -0.34192524094E+02 -0.10595962857E+03 -0.18952226162E+03  0.25286411220E+03  0.12500000000E+03 0.  0.
         25    1    1    2    0    0 -0.39233831354E+02  0.43415337616E+02 -0.22894408035E+03  0.26732859366E+03  0.12500000000E+03 0.  0.
</event>
<event>
 5    0  0.5626800E-005  0.3090411E+03  0.7546771E-02  0.1080806E+00
         21   -1    0    0  502  501  0.00000000000E+00  0.00000000000E+00  0.45634520482E+03  0.45634520482E+03  0.00000000000E+00 0. -1.
         21   -1    0    0  501  502 -0.00000000000E+00 -0.00000000000E+00 -0.20928549018E+03  0.20928549018E+03  0.00000000000E+00 0. -1.
         25    1    1    2    0    0  0.13356558324E+03 -0.39935891930E+02  0.15784306184E+03  0.24489604460E+03  0.12500000000E+03 0.  0.
         25    1    1    2    0    0 -0.19737683564E+03 -0.57129424327E+02  0.53794037898E+02  0.24645523911E+03  0.12500000000E+03 0.  0.
         25    1    1    2    0    0  0.63811252399E+02  0.97065316257E+02  0.35422614893E+02  0.17427941129E+03  0.12500000000E+03 0.  0.
</event>
<event>
 5    0  0.5626800E-005  0.2821304E+03  0.7546771E-02  0.1094531E+00
         21   -1    0    0  502  501  0.00000000000E+00  0.00000000000E+00  0.69391488658E+02  0.69391488658E+02  0.00000000000E+00 0.  1.
         21   -1    0    0  501  502 -0.00000000000E+00 -0.00000000000E+00 -0.11470798656E+04  0.11470798656E+04  0.00000000000E+00 0.  1.
         25    1    1    2    0    0 -0.97820670075E+02 -0.13534332355E+03 -0.42357391145E+03  0.47215098982E+03  0.12500000000E+03 0.  0.
         25    1    1    2    0    0 -0.36987952145E+02  0.99864672717E+02 -0.25244865945E+03  0.30115840868E+03  0.12500000000E+03 0.  0.
         25    1    1    2    0    0  0.13480862222E+03  0.35478650836E+02 -0.40166580604E+03  0.44316195576E+03  0.12500000000E+03 0.  0.
</event>
<event>
 5    0  0.5626800E-005  0.4868114E+03  0.7546771E-02  0.1017280E+00
         21   -1    0    0  502  501  0.00000000000E+00  0.00000000000E+00  0.17076635678E+03  0.17076635678E+03  0.00000000000E+00 0. -1.
         21   -1    0    0  501  502 -0.00000000000E+00 -0.00000000000E+00 -0.13877754679E+04  0.13877754679E+04  0.00000000000E+00 0. -1.
         25    1    1    2    0    0 -0.33599638145E+02  0.10360614373E+03 -0.44379746618E+03  0.47375559067E+03  0.12500000000E+03 0.  0.
         25    1    1    2    0    0 -0.46963893300E+02 -0.25088065929E+03 -0.47198183787E+00  0.28420403806E+03  0.12500000000E+03 0.  0.
         25    1    1    2    0    0  0.80563531446E+02  0.14727451556E+03 -0.77273966310E+03  0.80058219594E+03  0.12500000000E+03 0.  0.
</event>
<event>
 5    0  0.5626800E-005  0.2703799E+03  0.7546771E-02  0.1101062E+00
         21   -1    0    0  502  501  0.00000000000E+00  0.00000000000E+00  0.24116785792E+03  0.24116785792E+03  0.00000000000E+00 0. -1.
         21   -1    0    0  501  502 -0.00000000000E+00 -0.00000000000E+00 -0.30313037355E+03  0.30313037355E+03  0.00000000000E+00 0. -1.
         25    1    1    2    0    0 -0.97840319235E+02 -0.50084552578E+02 -0.12638508968E+03  0.20899612764E+03  0.12500000000E+03 0.  0.
         25    1    1    2    0    0  0.12789778689E+02 -0.56124808286E+02 -0.55487645840E+01  0.13772930455E+03  0.12500000000E+03 0.  0.
         25    1    1    2    0    0  0.85050540546E+02  0.10620936086E+03  0.69971338635E+02  0.19757279927E+03  0.12500000000E+03 0.  0.
</event>
<event>
 5    0  0.5626800E-005  0.4040911E+03  0.7546771E-02  0.1042372E+00
         21   -1    0    0  502  501  0.00000000000E+00  0.00000000000E+00  0.69481326532E+02  0.69481326532E+02  0.00000000000E+00 0. -1.
         21   -1    0    0  501  502 -0.00000000000E+00 -0.00000000000E+00 -0.23501226028E+04  0.23501226028E+04  0.00000000000E+00 0. -1.
         25    1    1    2    0    0  0.59711877065E+02  0.10899324879E+03 -0.38914795790E+03  0.42720740827E+03  0.12500000000E+03 0.  0.
         25    1    1    2    0    0  0.19582410638E+03 -0.14569719921E+03 -0.48686767452E+03  0.55878429379E+03  0.12500000000E+03 0.  0.
         25    1    1    2    0    0 -0.25553598345E+03  0.36703950419E+02 -0.14046256438E+04  0.14336122273E+04  0.12500000000E+03 0.  0.
</event>
<event>
 5    0  0.5626800E-005  0.2286629E+03  0.7546771E-02  0.1127584E+00
         21   -1    0    0  502  501  0.00000000000E+00  0.00000000000E+00  0.42896951422E+02  0.42896951422E+02  0.00000000000E+00 0. -1.
         21   -1    0    0  501  502 -0.00000000000E+00 -0.00000000000E+00 -0.12188913044E+04  0.12188913044E+04  0.00000000000E+00 0. -1.
         25    1    1    2    0    0  0.29017874991E+02 -0.45118255654E+02 -0.61185046524E+03  0.62678839003E+03  0.12500000000E+03 0.  0.
         25    1    1    2    0    0 -0.83117181209E+02  0.15163549146E+02 -0.26486092636E+03  0.30481914203E+03  0.12500000000E+03 0.  0.
         25    1    1    2    0    0  0.54099306217E+02  0.29954706508E+02 -0.29928296139E+03  0.33018072378E+03  0.12500000000E+03 0.  0.
</event>
<event>
 5    0  0.5626800E-005  0.2964320E+03  0.7546771E-02  0.1087038E+00
         21   -1    0    0  502  501  0.00000000000E+00  0.00000000000E+00  0.79896235547E+03  0.79896235547E+03  0.00000000000E+00 0. -1.
         21   -1    0    0  501  502 -0.00000000000E+00 -0.00000000000E+00 -0.10998258662E+03  0.10998258662E+03  0.00000000000E+00 0. -1.
         25    1    1    2    0    0 -0.98795284100E+02 -0.10947766551E+03  0.29557925835E+03  0.35318262326E+03  0.12500000000E+03 0.  0.
         25    1    1    2    0    0  0.22522733821E+02  0.93890492560E+02  0.37556414604E+03  0.40742622145E+03  0.12500000000E+03 0.  0.
         25    1    1    2    0    0  0.76272550279E+02  0.15587172952E+02  0.17836364453E+02  0.14833609737E+03  0.12500000000E+03 0.  0.
</event>
<event>
 5    0  0.5626800E-005  0.3627865E+03  0.7546771E-02  0.1057486E+00
         21   -1    0    0  502  501  0.00000000000E+00  0.00000000000E+00  0.70257803010E+03  0.70257803010E+03  0.00000000000E+00 0. -1.
         21   -1    0    0  501  502 -0.00000000000E+00 -0.00000000000E+00 -0.18733016074E+03  0.18733016074E+03  0.00000000000E+00 0. -1.
         25    1    1    2    0    0  0.74450087455E+02  0.82295116429E+02  0.21560786222E+03  0.27281321809E+03  0.12500000000E+03 0.  0.
         25    1    1    2    0    0  0.17571715222E+03 -0.12419622972E+03  0.88241849185E+02  0.26403190150E+03  0.12500000000E+03 0.  0.
         25    1    1    2    0    0 -0.25016723967E+03  0.41901113291E+02  0.21139815796E+03  0.35306307126E+03  0.12500000000E+03 0.  0.
</event>
<event>
 5    0  0.5626800E-005  0.3029153E+03  0.7546771E-02  0.1083792E+00
         21   -1    0    0  502  501  0.00000000000E+00  0.00000000000E+00  0.33951805241E+03  0.33951805241E+03  0.00000000000E+00 0. -1.
         21   -1    0    0  501  502 -0.00000000000E+00 -0.00000000000E+00 -0.27025855474E+03  0.27025855474E+03  0.00000000000E+00 0. -1.
         25    1    1    2    0    0  0.23320959011E+02  0.19301536960E+03  0.10956938804E+02  0.23139545055E+03  0.12500000000E+03 0.  0.
         25    1    1    2    0    0 -0.22731943068E+01 -0.20767717641E+01  0.79574925594E+02  0.14821150150E+03  0.12500000000E+03 0.  0.
         25    1    1    2    0    0 -0.21047764704E+02 -0.19093859783E+03 -0.21272366727E+02  0.23016965510E+03  0.12500000000E+03 0.  0.
</event>
<event>
 5    0  0.5626800E-005  0.4084176E+03  0.7546771E-02  0.1040903E+00
         21   -1    0    0  502  501  0.00000000000E+00  0.00000000000E+00  0.11514253851E+04  0.11514253851E+04  0.00000000000E+00 0. -1.
         21   -1    0    0  501  502 -0.00000000000E+00 -0.00000000000E+00 -0.14486824632E+03  0.14486824632E+03  0.00000000000E+00 0. -1.
         25    1    1    2    0    0  0.77332579834E+02  0.19139204397E+03  0.13984198552E+02  0.24172670561E+03  0.12500000000E+03 0.  0.
         25    1    1    2    0    0  0.28564890163E+01 -0.22190813953E+02  0.43806861957E+03  0.45610273755E+03  0.12500000000E+03 0.  0.
         25    1    1    2    0    0 -0.80189068850E+02 -0.16920123002E+03  0.55450432069E+03  0.59846418829E+03  0.12500000000E+03 0.  0.
</event>
<event>
 5    0  0.5626800E-005  0.3975631E+03  0.7546771E-02  0.1044627E+00
         21   -1    0    0  502  501  0.00000000000E+00  0.00000000000E+00  0.22675954620E+03  0.22675954620E+03  0.00000000000E+00 0.  1.
         21   -1    0    0  501  502 -0.00000000000E+00 -0.00000000000E+00 -0.69702215611E+03  0.69702215611E+03  0.00000000000E+00 0.  1.
         25    1    1    2    0    0  0.32260938651E+02  0.16706528199E+03 -0.94696308915E+02  0.23139569472E+03  0.12500000000E+03 0.  0.
         25    1    1    2    0    0  0.16080949867E+03 -0.14734070642E+03 -0.38674882313E+03  0.46126850188E+03  0.12500000000E+03 0.  0.
         25    1    1    2    0    0 -0.19307043732E+03 -0.19724575570E+02  0.11182522139E+02  0.23111750572E+03  0.12500000000E+03 0.  0.
</event>
<event>
 5    0  0.5626800E-005  0.2466576E+03  0.7546771E-02  0.1115436E+00
         21   -1    0    0  502  501  0.00000000000E+00  0.00000000000E+00  0.56846410555E+03  0.56846410555E+03  0.00000000000E+00 0. -1.
         21   -1    0    0  501  502 -0.00000000000E+00 -0.00000000000E+00 -0.10702514507E+03  0.10702514507E+03  0.00000000000E+00 0. -1.
         25    1    1    2    0    0 -0.10539223497E+03 -0.83823535303E+02  0.24753185985E+03  0.30827087100E+03  0.12500000000E+03 0.  0.
         25    1    1    2    0    0  0.68903879469E+02  0.74009538229E+02  0.15717094975E+03  0.22483964019E+03  0.12500000000E+03 0.  0.
         25    1    1    2    0    0  0.36488355504E+02  0.98139970738E+01  0.56736150875E+02  0.14237873943E+03  0.12500000000E+03 0.  0.
</event>
<event>
 5    0  0.7824487E-005  0.5795340E+03  0.7546771E-02  0.9948800E-01
         21   -1    0    0  502  501  0.00000000000E+00  0.00000000000E+00  0.10291455755E+04  0.10291455755E+04  0.00000000000E+00 0. -1.
         21   -1    0    0  501  502 -0.00000000000E+00 -0.00000000000E+00 -0.32634806402E+03  0.32634806402E+03  0.00000000000E+00 0. -1.
         25    1    1    2    0    0 -0.21583393214E+03 -0.12586570765E+03 -0.76127719106E+02  0.28956327848E+03  0.12500000000E+03 0.  0.
         25    1    1    2    0    0 -0.30210460142E+02  0.34238652131E+03  0.30447200489E+03  0.47588801586E+03  0.12500000000E+03 0.  0.
         25    1    1    2    0    0  0.24604439229E+03 -0.21652081365E+03  0.47445322567E+03  0.59004234515E+03  0.12500000000E+03 0.  0.
</event>
<event>
 5    0  0.5626800E-005  0.3110883E+03  0.7546771E-02  0.1079825E+00
         21   -1    0    0  502  501  0.00000000000E+00  0.00000000000E+00  0.28868688876E+03  0.28868688876E+03  0.00000000000E+00 0.  1.
         21   -1    0    0  501  502 -0.00000000000E+00 -0.00000000000E+00 -0.33522795178E+03  0.33522795178E+03  0.00000000000E+00 0.  1.
         25    1    1    2    0    0 -0.17082771724E+03  0.21126483164E+01  0.37066412859E+02  0.21490809948E+03  0.12500000000E+03 0.  0.
         25    1    1    2    0    0  0.12263306086E+03  0.47687710378E+02 -0.16435532327E+03  0.24484823386E+03  0.12500000000E+03 0.  0.
         25    1    1    2    0    0  0.48194656384E+02 -0.49800358694E+02  0.80747847390E+02  0.16415850721E+03  0.12500000000E+03 0.  0.
</event>
<event>
 5    0  0.5626800E-005  0.5909559E+03  0.7546771E-02  0.9924349E-01
         21   -1    0    0  502  501  0.00000000000E+00  0.00000000000E+00  0.30023251252E+03  0.30023251252E+03  0.00000000000E+00 0. -1.
         21   -1    0    0  501  502 -0.00000000000E+00 -0.00000000000E+00 -0.11631946093E+04  0.11631946093E+04  0.00000000000E+00 0. -1.
         25    1    1    2    0    0  0.30794792416E+03 -0.10402964028E+03  0.77570807241E+02  0.35678609864E+03  0.12500000000E+03 0.  0.
         25    1    1    2    0    0 -0.26092622193E+03  0.13860352075E+03 -0.91062438200E+03  0.96548184568E+03  0.12500000000E+03 0.  0.
         25    1    1    2    0    0 -0.47021702227E+02 -0.34573880470E+02 -0.29908521982E+02  0.14115917745E+03  0.12500000000E+03 0.  0.
</event>
<event>
 5    0  0.5626800E-005  0.2989517E+03  0.7546771E-02  0.1085766E+00
         21   -1    0    0  502  501  0.00000000000E+00  0.00000000000E+00  0.95725987205E+02  0.95725987205E+02  0.00000000000E+00 0. -1.
         21   -1    0    0  501  502 -0.00000000000E+00 -0.00000000000E+00 -0.93362469506E+03  0.93362469506E+03  0.00000000000E+00 0. -1.
         25    1    1    2    0    0  0.69675373850E+01 -0.47905450580E+02 -0.34107002340E+03  0.36646587786E+03  0.12500000000E+03 0.  0.
         25    1    1    2    0    0  0.92272588639E+02 -0.12217042400E+03 -0.16603187648E+03  0.25813063964E+03  0.12500000000E+03 0.  0.
         25    1    1    2    0    0 -0.99240126024E+02  0.17007587458E+03 -0.33079680797E+03  0.40475416476E+03  0.12500000000E+03 0.  0.
</event>
<event>
 5    0  0.5626800E-005  0.3045919E+03  0.7546771E-02  0.1082967E+00
         21   -1    0    0  502  501  0.00000000000E+00  0.00000000000E+00  0.88844965048E+03  0.88844965048E+03  0.00000000000E+00 0.  1.
         21   -1    0    0  501  502 -0.00000000000E+00 -0.00000000000E+00 -0.10442485307E+03  0.10442485307E+03  0.00000000000E+00 0.  1.
         25    1    1    2    0    0 -0.48778323013E+02  0.17809577746E+03  0.23017949068E+03  0.32047625291E+03  0.12500000000E+03 0.  0.
         25    1    1    2    0    0  0.65266726667E+02  0.35288186318E+01  0.32450395860E+03  0.35383614474E+03  0.12500000000E+03 0.  0.
         25    1    1    2    0    0 -0.16488403655E+02 -0.18162459610E+03  0.22934134813E+03  0.31856210591E+03  0.12500000000E+03 0.  0.
</event>
<event>
 5    0  0.5626800E-005  0.3335943E+03  0.7546771E-02  0.1069557E+00
         21   -1    0    0  502  501  0.00000000000E+00  0.00000000000E+00  0.52708723273E+03  0.52708723273E+03  0.00000000000E+00 0. -1.
         21   -1    0    0  501  502 -0.00000000000E+00 -0.00000000000E+00 -0.21113237090E+03  0.21113237090E+03  0.00000000000E+00 0. -1.
         25    1    1    2    0    0 -0.31759067114E+02  0.22407254829E+03  0.10938459813E+03  0.28072608633E+03  0.12500000000E+03 0.  0.
         25    1    1    2    0    0 -0.28828248593E+02 -0.32034335659E+02  0.17357170132E+03  0.21819578840E+03  0.12500000000E+03 0.  0.
         25    1    1    2    0    0  0.60587315706E+02 -0.19203821263E+03  0.32998562391E+02  0.23929772890E+03  0.12500000000E+03 0.  0.
</event>
<event>
 5    0  0.5626800E-005  0.4687122E+03  0.7546771E-02  0.1022284E+00
         21   -1    0    0  502  501  0.00000000000E+00  0.00000000000E+00  0.13501251616E+04  0.13501251616E+04  0.00000000000E+00 0. -1.
         21   -1    0    0  501  502 -0.00000000000E+00 -0.00000000000E+00 -0.16271911356E+03  0.16271911356E+03  0.00000000000E+00 0. -1.
         25    1    1    2    0    0 -0.28913435425E+03 -0.12447891665E+03  0.78821766154E+03  0.85790777911E+03  0.12500000000E+03 0.  0.
         25    1    1    2    0    0  0.78614615891E+02 -0.39406843580E+02 -0.71806397706E+01  0.15300234881E+03  0.12500000000E+03 0.  0.
         25    1    1    2    0    0  0.21051973836E+03  0.16388576023E+03  0.40636902629E+03  0.50193414725E+03  0.12500000000E+03 0.  0.
</event>
<event>
 5    0  0.5626800E-005  0.3456368E+03  0.7546771E-02  0.1064420E+00
         21   -1    0    0  502  501  0.00000000000E+00  0.00000000000E+00  0.24188622822E+03  0.24188622822E+03  0.00000000000E+00 0.  1.
         21   -1    0    0  501  502 -0.00000000000E+00 -0.00000000000E+00 -0.49388826184E+03  0.49388826184E+03  0.00000000000E+00 0.  1.
         25    1    1    2    0    0  0.18900381928E+03 -0.92532925084E+01 -0.19697945678E+03  0.30038970275E+03  0.12500000000E+03 0.  0.
         25    1    1    2    0    0  0.14639019145E+02  0.98986366126E+02  0.36512570376E+02  0.16422779715E+03  0.12500000000E+03 0.  0.
         25    1    1    2    0    0 -0.20364283842E+03 -0.89733073618E+02 -0.91535147214E+02  0.27115699017E+03  0.12500000000E+03 0.  0.
</event>
<event>
 5    0  0.5626800E-005  0.2919724E+03  0.7546771E-02  0.1089324E+00
         21   -1    0    0  502  501  0.00000000000E+00  0.00000000000E+00  0.83993368421E+02  0.83993368421E+02  0.00000000000E+00 0.  1.
         21   -1    0    0  501  502 -0.00000000000E+00 -0.00000000000E+00 -0.10149361470E+04  0.10149361470E+04  0.00000000000E+00 0.  1.
         25    1    1    2    0    0  0.19986359883E+02  0.23527605802E+02 -0.29545888400E+03  0.32229482613E+03  0.12500000000E+03 0.  0.
         25    1    1    2    0    0 -0.10666424743E+03  0.11411666137E+03 -0.15144773564E+03  0.25092088536E+03  0.12500000000E+03 0.  0.
         25    1    1    2    0    0  0.86677887546E+02 -0.13764426717E+03 -0.48403615893E+03  0.52571380391E+03  0.12500000000E+03 0.  0.
</event>
<event>
 5    0  0.5626800E-005  0.3233240E+03  0.7546771E-02  0.1074130E+00
         21   -1    0    0  502  501  0.00000000000E+00  0.00000000000E+00  0.44489735543E+03  0.44489735543E+03  0.00000000000E+00 0. -1.
         21   -1    0    0  501  502 -0.00000000000E+00 -0.00000000000E+00 -0.23497194130E+03  0.23497194130E+03  0.00000000000E+00 0. -1.
         25    1    1    2    0    0 -0.63894303415E+02  0.10622594360E+03  0.42930526224E+02  0.18120282333E+03  0.12500000000E+03 0.  0.
         25    1    1    2    0    0  0.18875225533E+01 -0.23334704736E+03  0.16094645311E+03  0.30981150402E+03  0.12500000000E+03 0.  0.
         25    1    1    2    0    0  0.62006780862E+02  0.12712110376E+03  0.60484347874E+01  0.18885496938E+03  0.12500000000E+03 0.  0.
</event>
<event>
 5    0  0.5626800E-005  0.2553688E+03  0.7546771E-02  0.1109958E+00
         21   -1    0    0  502  501  0.00000000000E+00  0.00000000000E+00  0.75108296573E+03  0.75108296573E+03  0.00000000000E+00 0.  1.
         21   -1    0    0  501  502 -0.00000000000E+00 -0.00000000000E+00 -0.86825617479E+02  0.86825617479E+02  0.00000000000E+00 0.  1.
         25    1    1    2    0    0  0.99072989111E+01  0.50346240077E+02  0.48344400977E+02  0.14350985878E+03  0.12500000000E+03 0.  0.
         25    1    1    2    0    0  0.20286494131E+02 -0.11790689861E+03  0.37664287928E+03  0.41448575018E+03  0.12500000000E+03 0.  0.
         25    1    1    2    0    0 -0.30193793042E+02  0.67560658529E+02  0.23927006799E+03  0.27991297425E+03  0.12500000000E+03 0.  0.
</event>
<event>
 5    0  0.5626800E-005  0.3148450E+03  0.7546771E-02  0.1078047E+00
         21   -1    0    0  502  501  0.00000000000E+00  0.00000000000E+00  0.87408595546E+02  0.87408595546E+02  0.00000000000E+00 0. -1.
         21   -1    0    0  501  502 -0.00000000000E+00 -0.00000000000E+00 -0.11340688871E+04  0.11340688871E+04  0.00000000000E+00 0. -1.
         25    1    1    2    0    0 -0.10486442996E+03  0.56060577115E+02 -0.61055477617E+03  0.63446156044E+03  0.12500000000E+03 0.  0.
         25    1    1    2    0    0  0.12895979382E+03 -0.91610548302E+02 -0.40321858793E+03  0.45081409764E+03  0.12500000000E+03 0.  0.
         25    1    1    2    0    0 -0.24095363858E+02  0.35549971187E+02 -0.32886927434E+02  0.13620182454E+03  0.12500000000E+03 0.  0.
</event>
<event>
 5    0  0.6794439E-005  0.3210832E+03  0.7546771E-02  0.1075152E+00
         21   -1    0    0  502  501  0.00000000000E+00  0.00000000000E+00  0.50490479263E+03  0.50490479263E+03  0.00000000000E+00 0.  1.
         21   -1    0    0  501  502 -0.00000000000E+00 -0.00000000000E+00 -0.20418585008E+03  0.20418585008E+03  0.00000000000E+00 0.  1.
         25    1    1    2    0    0 -0.33523603223E+02  0.50453014497E+02  0.29463938024E+03  0.32574023858E+03  0.12500000000E+03 0.  0.
         25    1    1    2    0    0 -0.67594739992E+02  0.83598728221E+02  0.43929805233E+02  0.17062421875E+03  0.12500000000E+03 0.  0.
         25    1    1    2    0    0  0.10111834321E+03 -0.13405174272E+03 -0.37850242924E+02  0.21272618539E+03  0.12500000000E+03 0.  0.
</event>
<event>
 5    0  0.5626800E-005  0.5271165E+03  0.7546771E-02  0.1006934E+00
         21   -1    0    0  502  501  0.00000000000E+00  0.00000000000E+00  0.40001875916E+03  0.40001875916E+03  0.00000000000E+00 0.  1.
         21   -1    0    0  501  502 -0.00000000000E+00 -0.00000000000E+00 -0.69459698840E+03  0.69459698840E+03  0.00000000000E+00 0.  1.
         25    1    1    2    0    0 -0.18156754529E+03  0.37969116912E+01 -0.98210811140E+02  0.24135358598E+03  0.12500000000E+03 0.  0.
         25    1    1    2    0    0  0.23168985708E+03  0.33583635588E+02  0.26268034484E+03  0.37340864213E+03  0.12500000000E+03 0.  0.
         25    1    1    2    0    0 -0.50122311793E+02 -0.37380547279E+02 -0.45904776295E+03  0.47985351944E+03  0.12500000000E+03 0.  0.
</event>
<event>
 5    0  0.5626800E-005  0.3277678E+03  0.7546771E-02  0.1072129E+00
         21   -1    0    0  502  501  0.00000000000E+00  0.00000000000E+00  0.50164930583E+03  0.50164930583E+03  0.00000000000E+00 0.  1.
         21   -1    0    0  501  502 -0.00000000000E+00 -0.00000000000E+00 -0.21415700691E+03  0.21415700691E+03  0.00000000000E+00 0.  1.
         25    1    1    2    0    0 -0.79034327748E+02  0.12381039581E+03 -0.58799785219E+02  0.20163792752E+03  0.12500000000E+03 0.  0.
         25    1    1    2    0    0  0.31393430974E+02 -0.18028674939E+02  0.31494130366E+03  0.34076913795E+03  0.12500000000E+03 0.  0.
         25    1    1    2    0    0  0.47640896774E+02 -0.10578172087E+03  0.31350780485E+02  0.17339924727E+03  0.12500000000E+03 0.  0.
</event>
<event>
 5    0  0.5626800E-005  0.4674620E+03  0.7546771E-02  0.1022639E+00
         21   -1    0    0  502  501  0.00000000000E+00  0.00000000000E+00  0.11682302918E+03  0.11682302918E+03  0.00000000000E+00 0.  1.
         21   -1    0    0  501  502 -0.00000000000E+00 -0.00000000000E+00 -0.18705279587E+04  0.18705279587E+04  0.00000000000E+00 0.  1.
         25    1    1    2    0    0  0.35922590355E+02 -0.28632256500E+03 -0.81541379080E+03  0.87395405712E+03  0.12500000000E+03 0.  0.
         25    1    1    2    0    0 -0.37514613973E+02 -0.32935053609E+02 -0.65486951551E+03  0.66855900739E+03  0.12500000000E+03 0.  0.
         25    1    1    2    0    0  0.15920236182E+01  0.31925761861E+03 -0.28342162327E+03  0.44483792342E+03  0.12500000000E+03 0.  0.
</event>
<event>
 5    0  0.5626800E-005  0.4076184E+03  0.7546771E-02  0.1041173E+00
         21   -1    0    0  502  501  0.00000000000E+00  0.00000000000E+00  0.50909667136E+03  0.50909667136E+03  0.00000000000E+00 0. -1.
         21   -1    0    0  501  502 -0.00000000000E+00 -0.00000000000E+00 -0.32636782455E+03  0.32636782455E+03  0.00000000000E+00 0. -1.
         25    1    1    2    0    0 -0.25023238004E+03  0.15775726630E+02 -0.48655414390E+02  0.28435447406E+03  0.12500000000E+03 0.  0.
         25    1    1    2    0    0 -0.76189552599E+02 -0.22761479555E+02  0.44499232338E+02  0.15468715058E+03  0.12500000000E+03 0.  0.
         25    1    1    2    0    0  0.32642193263E+03  0.69857529248E+01  0.18688502886E+03  0.39642287126E+03  0.12500000000E+03 0.  0.
</event>
<event>
 5    0  0.5626800E-005  0.2915669E+03  0.7546771E-02  0.1089534E+00
         21   -1    0    0  502  501  0.00000000000E+00  0.00000000000E+00  0.20473529002E+04  0.20473529002E+04  0.00000000000E+00 0. -1.
         21   -1    0    0  501  502 -0.00000000000E+00 -0.00000000000E+00 -0.41522531588E+02  0.41522531588E+02  0.00000000000E+00 0. -1.
         25    1    1    2    0    0 -0.36710420845E+02 -0.92162426100E+02  0.47495092080E+03  0.50104385532E+03  0.12500000000E+03 0.  0.
         25    1    1    2    0    0  0.16668920683E+03  0.52487957973E+02  0.56528814674E+03  0.60474454627E+03  0.12500000000E+03 0.  0.
         25    1    1    2    0    0 -0.12997878599E+03  0.39674468128E+02  0.96559130111E+03  0.98308703023E+03  0.12500000000E+03 0.  0.
</event>
<event>
 5    0  0.5626800E-005  0.2556047E+03  0.7546771E-02  0.1109813E+00
         21   -1    0    0  502  501  0.00000000000E+00  0.00000000000E+00  0.20428423142E+03  0.20428423142E+03  0.00000000000E+00 0.  1.
         21   -1    0    0  501  502 -0.00000000000E+00 -0.00000000000E+00 -0.31981783031E+03  0.31981783031E+03  0.00000000000E+00 0.  1.
         25    1    1    2    0    0  0.38956451543E+02  0.89525841519E+01 -0.82785526060E+02  0.15516506438E+03  0.12500000000E+03 0.  0.
         25    1    1    2    0    0 -0.11271204311E+03 -0.78676057447E+02  0.43442932582E+02  0.19080412750E+03  0.12500000000E+03 0.  0.
         25    1    1    2    0    0  0.73755591568E+02  0.69723473296E+02 -0.76191005412E+02  0.17813286985E+03  0.12500000000E+03 0.  0.
</event>
<event>
 5    0  0.5626800E-005  0.3333327E+03  0.7546771E-02  0.1069672E+00
         21   -1    0    0  502  501  0.00000000000E+00  0.00000000000E+00  0.27286369049E+03  0.27286369049E+03  0.00000000000E+00 0. -1.
         21   -1    0    0  501  502 -0.00000000000E+00 -0.00000000000E+00 -0.40720208485E+03  0.40720208485E+03  0.00000000000E+00 0. -1.
         25    1    1    2    0    0  0.33304742038E+02  0.11123585332E+02 -0.12202287499E+03  0.17817834328E+03  0.12500000000E+03 0.  0.
         25    1    1    2    0    0  0.13969512159E+03 -0.11640561455E+03 -0.10764749930E+03  0.24551573921E+03  0.12500000000E+03 0.  0.
         25    1    1    2    0    0 -0.17299986363E+03  0.10528202922E+03  0.95331979933E+02  0.25637169284E+03  0.12500000000E+03 0.  0.
</event>
<event>
 5    0  0.5626800E-005  0.2352038E+03  0.7546771E-02  0.1123030E+00
         21   -1    0    0  502  501  0.00000000000E+00  0.00000000000E+00  0.19763742969E+03  0.19763742969E+03  0.00000000000E+00 0. -1.
         21   -1    0    0  501  502 -0.00000000000E+00 -0.00000000000E+00 -0.27991060839E+03  0.27991060839E+03  0.00000000000E+00 0. -1.
         25    1    1    2    0    0 -0.38079782904E+01 -0.10324695817E+03 -0.62336242391E+02  0.17373900594E+03  0.12500000000E+03 0.  0.
         25    1    1    2    0    0  0.65267359289E+02  0.63723664735E+02  0.13100573104E+02  0.15529700142E+03  0.12500000000E+03 0.  0.
         25    1    1    2    0    0 -0.61459380999E+02  0.39523293440E+02 -0.33037509417E+02  0.14851203071E+03  0.12500000000E+03 0.  0.
</event>
<event>
 5    0  0.5626800E-005  0.2550599E+03  0.7546771E-02  0.1110148E+00
         21   -1    0    0  502  501  0.00000000000E+00  0.00000000000E+00  0.62395976232E+03  0.62395976232E+03  0.00000000000E+00 0. -1.
         21   -1    0    0  501  502 -0.00000000000E+00 -0.00000000000E+00 -0.10426242480E+03  0.10426242480E+03  0.00000000000E+00 0. -1.
         25    1    1    2    0    0 -0.55288805109E+00 -0.20350070019E+02  0.16341940316E+02  0.12769686781E+03  0.12500000000E+03 0.  0.
         25    1    1    2    0    0 -0.56165684433E+02  0.57678447973E+02  0.39393263386E+03  0.42105736841E+03  0.12500000000E+03 0.  0.
         25    1    1    2    0    0  0.56718572484E+02 -0.37328377954E+02  0.10942276334E+03  0.17946795091E+03  0.12500000000E+03 0.  0.
</event>
<event>
 5    0  0.5626800E-005  0.4167267E+03  0.7546771E-02  0.1038137E+00
         21   -1    0    0  502  501  0.00000000000E+00  0.00000000000E+00  0.16214117612E+04  0.16214117612E+04  0.00000000000E+00 0.  1.
         21   -1    0    0  501  502 -0.00000000000E+00 -0.00000000000E+00 -0.10710487550E+03  0.10710487550E+03  0.00000000000E+00 0.  1.
         25    1    1    2    0    0  0.66448297060E+02  0.12041783689E+03  0.74512645731E+02  0.20023228011E+03  0.12500000000E+03 0.  0.
         25    1    1    2    0    0  0.14629047236E+03 -0.68784964820E+02  0.10061456446E+04  0.10266870661E+04  0.12500000000E+03 0.  0.
         25    1    1    2    0    0 -0.21273876942E+03 -0.51632872065E+02  0.43364859538E+03  0.50159729043E+03  0.12500000000E+03 0.  0.
</event>
<event>
 5    0  0.5626800E-005  0.3705453E+03  0.7546771E-02  0.1054485E+00
         21   -1    0    0  502  501  0.00000000000E+00  0.00000000000E+00  0.43118493615E+03  0.43118493615E+03  0.00000000000E+00 0. -1.
         21   -1    0    0  501  502 -0.00000000000E+00 -0.00000000000E+00 -0.31843364407E+03  0.31843364407E+03  0.00000000000E+00 0. -1.
         25    1    1    2    0    0 -0.15825839986E+03  0.17942474671E+02 -0.15891360836E+03  0.25738334920E+03  0.12500000000E+03 0.  0.
         25    1    1    2    0    0 -0.54921308170E+02 -0.60072986795E+02  0.49199892544E+02  0.15706923079E+03  0.12500000000E+03 0.  0.
         25    1    1    2    0    0  0.21317970803E+03  0.42130512124E+02  0.22246500790E+03  0.33516600023E+03  0.12500000000E+03 0.  0.
</event>
<event>
 5    0  0.5626800E-005  0.3850764E+03  0.7546771E-02  0.1049073E+00
         21   -1    0    0  502  501  0.00000000000E+00  0.00000000000E+00  0.56057336893E+03  0.56057336893E+03  0.00000000000E+00 0. -1.
         21   -1    0    0  501  502 -0.00000000000E+00 -0.00000000000E+00 -0.26452167821E+03  0.26452167821E+03  0.00000000000E+00 0. -1.
         25    1    1    2    0    0 -0.75297346718E+02  0.63137794833E+02  0.16854067202E+03  0.23170461731E+03  0.12500000000E+03 0.  0.
         25    1    1    2    0    0  0.29646326639E+03 -0.32884491224E+02  0.80229403385E+02  0.33321706926E+03  0.12500000000E+03 0.  0.
         25    1    1    2    0    0 -0.22116591967E+03 -0.30253303609E+02  0.47281615316E+02  0.26017336057E+03  0.12500000000E+03 0.  0.
</event>
<event>
 5    0  0.5626800E-005  0.3690760E+03  0.7546771E-02  0.1055047E+00
         21   -1    0    0  502  501  0.00000000000E+00  0.00000000000E+00  0.16206090845E+03  0.16206090845E+03  0.00000000000E+00 0.  1.
         21   -1    0    0  501  502 -0.00000000000E+00 -0.00000000000E+00 -0.84053033968E+03  0.84053033968E+03  0.00000000000E+00 0.  1.
         25    1    1    2    0    0 -0.19536061180E+02 -0.90965623798E+02 -0.46117266190E+02  0.16250601417E+03  0.12500000000E+03 0.  0.
         25    1    1    2    0    0  0.79424339061E+01  0.10507631888E+01 -0.66962166186E+03  0.68123590363E+03  0.12500000000E+03 0.  0.
         25    1    1    2    0    0  0.11593627273E+02  0.89914860610E+02  0.37269496820E+02  0.15884933033E+03  0.12500000000E+03 0.  0.
</event>
<event>
 5    0  0.5626800E-005  0.3042781E+03  0.7546771E-02  0.1083121E+00
         21   -1    0    0  502  501  0.00000000000E+00  0.00000000000E+00  0.83162253442E+02  0.83162253442E+02  0.00000000000E+00 0. -1.
         21   -1    0    0  501  502 -0.00000000000E+00 -0.00000000000E+00 -0.11133075462E+04  0.11133075462E+04  0.00000000000E+00 0. -1.
         25    1    1    2    0    0 -0.73073900106E+02  0.43553642432E+02 -0.17599472967E+03  0.23202555790E+03  0.12500000000E+03 0.  0.
         25    1    1    2    0    0  0.12628557634E+03  0.10365105903E+03 -0.63523457927E+03  0.66771218315E+03  0.12500000000E+03 0.  0.
         25    1    1    2    0    0 -0.53211676237E+02 -0.14720470146E+03 -0.21891598377E+03  0.29673205855E+03  0.12500000000E+03 0.  0.
</event>
<event>
 5    0  0.5626800E-005  0.2275757E+03  0.7546771E-02  0.1128358E+00
         21   -1    0    0  502  501  0.00000000000E+00  0.00000000000E+00  0.15502745076E+04  0.15502745076E+04  0.00000000000E+00 0.  1.
         21   -1    0    0  501  502 -0.00000000000E+00 -0.00000000000E+00 -0.33407429483E+02  0.33407429483E+02  0.00000000000E+00 0.  1.
         25    1    1    2    0    0 -0.22461235765E+02  0.30804875112E+02  0.92185640210E+03  0.93107339858E+03  0.12500000000E+03 0.  0.
         25    1    1    2    0    0  0.84509777349E+01 -0.47629019830E+02  0.37994580461E+03  0.40289422556E+03  0.12500000000E+03 0.  0.
         25    1    1    2    0    0  0.14010258030E+02  0.16824144717E+02  0.21506487144E+03  0.24971431297E+03  0.12500000000E+03 0.  0.
</event>
<event>
 5    0  0.5626800E-005  0.2510038E+03  0.7546771E-02  0.1112672E+00
         21   -1    0    0  502  501  0.00000000000E+00  0.00000000000E+00  0.12347010262E+04  0.12347010262E+04  0.00000000000E+00 0. -1.
         21   -1    0    0  501  502 -0.00000000000E+00 -0.00000000000E+00 -0.51026858517E+02  0.51026858517E+02  0.00000000000E+00 0. -1.
         25    1    1    2    0    0  0.68724922993E+02 -0.12105678592E+03  0.58647879060E+03  0.61559745961E+03  0.12500000000E+03 0.  0.
         25    1    1    2    0    0  0.17168904923E+02  0.61310046309E+02  0.29956030975E+03  0.33077949189E+03  0.12500000000E+03 0.  0.
         25    1    1    2    0    0 -0.85893827917E+02  0.59746739613E+02  0.29763506732E+03  0.33935093321E+03  0.12500000000E+03 0.  0.
</event>
<event>
 5    0  0.5626800E-005  0.2623799E+03  0.7546771E-02  0.1105722E+00
         21   -1    0    0  502  501  0.00000000000E+00  0.00000000000E+00  0.11826070055E+04  0.11826070055E+04  0.00000000000E+00 0.  1.
         21   -1    0    0  501  502 -0.00000000000E+00 -0.00000000000E+00 -0.58213111127E+02  0.58213111127E+02  0.00000000000E+00 0.  1.
         25    1    1    2    0    0 -0.73635118861E+02 -0.22878887404E+02  0.10334417053E+03  0.17958449766E+03  0.12500000000E+03 0.  0.
         25    1    1    2    0    0  0.21763578874E+02 -0.26977182742E+02  0.65649952016E+03  0.66919208134E+03  0.12500000000E+03 0.  0.
         25    1    1    2    0    0  0.51871539987E+02  0.49856070147E+02  0.36455020371E+03  0.39204353766E+03  0.12500000000E+03 0.  0.
</event>
<event>
 5    0  0.5626800E-005  0.2483283E+03  0.7546771E-02  0.1114366E+00
         21   -1    0    0  502  501  0.00000000000E+00  0.00000000000E+00  0.35407283504E+03  0.35407283504E+03  0.00000000000E+00 0.  1.
         21   -1    0    0  501  502 -0.00000000000E+00 -0.00000000000E+00 -0.17416461502E+03  0.17416461502E+03  0.00000000000E+00 0.  1.
         25    1    1    2    0    0 -0.97128865969E+01  0.78099178278E+02  0.17316130830E+03  0.22760417506E+03  0.12500000000E+03 0.  0.
         25    1    1    2    0    0  0.18388803407E+02 -0.23022614442E+02 -0.67326579831E+02  0.14500364553E+03  0.12500000000E+03 0.  0.
         25    1    1    2    0    0 -0.86759168098E+01 -0.55076563835E+02  0.74073491545E+02  0.15562962946E+03  0.12500000000E+03 0.  0.
</event>
<event>
 5    0  0.5626800E-005  0.4375625E+03  0.7546771E-02  0.1031497E+00
         21   -1    0    0  502  501  0.00000000000E+00  0.00000000000E+00  0.11660087630E+04  0.11660087630E+04  0.00000000000E+00 0.  1.
         21   -1    0    0  501  502 -0.00000000000E+00 -0.00000000000E+00 -0.16420198234E+03  0.16420198234E+03  0.00000000000E+00 0.  1.
         25    1    1    2    0    0 -0.36469656892E+02  0.30502536777E+03  0.16082770351E+03  0.36859335463E+03  0.12500000000E+03 0.  0.
         25    1    1    2    0    0 -0.66769533915E+02 -0.16883653888E+03  0.60837545240E+03  0.64707776859E+03  0.12500000000E+03 0.  0.
         25    1    1    2    0    0  0.10323919081E+03 -0.13618882890E+03  0.23260362471E+03  0.31453962209E+03  0.12500000000E+03 0.  0.
</event>
<event>
 5    0  0.5626800E-005  0.2667167E+03  0.7546771E-02  0.1103174E+00
         21   -1    0    0  502  501  0.00000000000E+00  0.00000000000E+00  0.23630729092E+03  0.23630729092E+03  0.00000000000E+00 0.  1.
         21   -1    0    0  501  502 -0.00000000000E+00 -0.00000000000E+00 -0.30103926490E+03  0.30103926490E+03  0.00000000000E+00 0.  1.
         25    1    1    2    0    0  0.51821557088E+02 -0.13520387279E+03  0.40261073899E+02  0.19547765874E+03  0.12500000000E+03 0.  0.
         25    1    1    2    0    0 -0.57914540839E+02  0.20262813416E+02  0.52012949431E+01  0.13934392386E+03  0.12500000000E+03 0.  0.
         25    1    1    2    0    0  0.60929837506E+01  0.11494105938E+03 -0.11019434282E+03  0.20252497320E+03  0.12500000000E+03 0.  0.
</event>
<event>
 5    0  0.5626800E-005  0.2365976E+03  0.7546771E-02  0.1122080E+00
         21   -1    0    0  502  501  0.00000000000E+00  0.00000000000E+00  0.69176591236E+03  0.69176591236E+03  0.00000000000E+00 0.  1.
         21   -1    0    0  501  502 -0.00000000000E+00 -0.00000000000E+00 -0.80921078828E+02  0.80921078828E+02  0.00000000000E+00 0.  1.
         25    1    1    2    0    0  0.14701060985E+02 -0.15279931194E+02  0.76131218692E+02  0.14788698371E+03  0.12500000000E+03 0.  0.
         25    1    1    2    0    0 -0.16579815778E+02  0.23292020539E+02  0.46305641165E+03  0.48048272486E+03  0.12500000000E+03 0.  0.
         25    1    1    2    0    0  0.18787547938E+01 -0.80120893454E+01  0.71657203189E+02  0.14431728262E+03  0.12500000000E+03 0.  0.
</event>
<event>
 5    0  0.5626800E-005  0.2364590E+03  0.7546771E-02  0.1122174E+00
         21   -1    0    0  502  501  0.00000000000E+00  0.00000000000E+00  0.69601750418E+03  0.69601750418E+03  0.00000000000E+00 0. -1.
         21   -1    0    0  501  502 -0.00000000000E+00 -0.00000000000E+00 -0.80332546951E+02  0.80332546951E+02  0.00000000000E+00 0. -1.
         25    1    1    2    0    0  0.39872453384E+02  0.14836434582E+02  0.57829616555E+02  0.14414991114E+03  0.12500000000E+03 0.  0.
         25    1    1    2    0    0 -0.64946176179E+02 -0.59618757136E+02  0.21660280567E+03  0.26516820591E+03  0.12500000000E+03 0.  0.
         25    1    1    2    0    0  0.25073722796E+02  0.44782322554E+02  0.34125253500E+03  0.36703193408E+03  0.12500000000E+03 0.  0.
</event>
<event>
 5    0  0.5626800E-005  0.2166280E+03  0.7546771E-02  0.1136422E+00
         21   -1    0    0  502  501  0.00000000000E+00  0.00000000000E+00  0.54329112422E+03  0.54329112422E+03  0.00000000000E+00 0. -1.
         21   -1    0    0  501  502 -0.00000000000E+00 -0.00000000000E+00 -0.86376715641E+02  0.86376715641E+02  0.00000000000E+00 0. -1.
         25    1    1    2    0    0  0.21533335379E+02 -0.22903553027E+02  0.30453914456E+03  0.33069222526E+03  0.12500000000E+03 0.  0.
         25    1    1    2    0    0  0.15002189665E+02  0.10624690042E+02  0.78586086543E+02  0.14879086911E+03  0.12500000000E+03 0.  0.
         25    1    1    2    0    0 -0.36535525044E+02  0.12278862985E+02  0.73789177474E+02  0.15018474549E+03  0.12500000000E+03 0.  0.
</event>
<event>
 5    0  0.5626800E-005  0.2714120E+03  0.7546771E-02  0.1100474E+00
         21   -1    0    0  502  501  0.00000000000E+00  0.00000000000E+00  0.24053205508E+03  0.24053205508E+03  0.00000000000E+00 0. -1.
         21   -1    0    0  501  502 -0.00000000000E+00 -0.00000000000E+00 -0.30625635378E+03  0.30625635378E+03  0.00000000000E+00 0. -1.
         25    1    1    2    0    0  0.93575531951E+01  0.76574685528E+02 -0.10488515849E+03  0.18049139242E+03  0.12500000000E+03 0.  0.
         25    1    1    2    0    0 -0.10822114559E+03 -0.31471380225E+02  0.92803152169E+02  0.19219700616E+03  0.12500000000E+03 0.  0.
         25    1    1    2    0    0  0.98863592394E+02 -0.45103305304E+02 -0.53642292382E+02  0.17410001029E+03  0.12500000000E+03 0.  0.
</event>
<event>
 5    0  0.5626800E-005  0.2287512E+03  0.7546771E-02  0.1127522E+00
         21   -1    0    0  502  501  0.00000000000E+00  0.00000000000E+00  0.60172282587E+02  0.60172282587E+02  0.00000000000E+00 0. -1.
         21   -1    0    0  501  502 -0.00000000000E+00 -0.00000000000E+00 -0.86962156288E+03  0.86962156288E+03  0.00000000000E+00 0. -1.
         25    1    1    2    0    0 -0.36310779091E+02  0.14236518680E+02 -0.26958559759E+03  0.29970409669E+03  0.12500000000E+03 0.  0.
         25    1    1    2    0    0  0.50540379883E+02 -0.52820469488E+02 -0.11381629954E+03  0.18418328381E+03  0.12500000000E+03 0.  0.
         25    1    1    2    0    0 -0.14229600792E+02  0.38583950808E+02 -0.42604738316E+03  0.44590646497E+03  0.12500000000E+03 0.  0.
</event>
<event>
 5    0  0.5626800E-005  0.4141482E+03  0.7546771E-02  0.1038988E+00
         21   -1    0    0  502  501  0.00000000000E+00  0.00000000000E+00  0.16826369523E+03  0.16826369523E+03  0.00000000000E+00 0.  1.
         21   -1    0    0  501  502 -0.00000000000E+00 -0.00000000000E+00 -0.10193449043E+04  0.10193449043E+04  0.00000000000E+00 0.  1.
         25    1    1    2    0    0  0.86840045079E+02 -0.17716629999E+03 -0.38239689072E+02  0.23667776639E+03  0.12500000000E+03 0.  0.
         25    1    1    2    0    0  0.52430569302E+02  0.25599086977E+03 -0.50408057460E+03  0.58137983771E+03  0.12500000000E+03 0.  0.
         25    1    1    2    0    0 -0.13927061438E+03 -0.78824569779E+02 -0.30876094544E+03  0.36955099548E+03  0.12500000000E+03 0.  0.
</event>
<event>
 5    0  0.5626800E-005  0.2570021E+03  0.7546771E-02  0.1108958E+00
         21   -1    0    0  502  501  0.00000000000E+00  0.00000000000E+00  0.42683271766E+03  0.42683271766E+03  0.00000000000E+00 0.  1.
         21   -1    0    0  501  502 -0.00000000000E+00 -0.00000000000E+00 -0.15474461298E+03  0.15474461298E+03  0.00000000000E+00 0.  1.
         25    1    1    2    0    0  0.54258626145E+02  0.88914106527E+02 -0.11515574502E+02  0.16311751993E+03  0.12500000000E+03 0.  0.
         25    1    1    2    0    0  0.26701069925E+02 -0.92607909821E+02  0.13005836030E+03  0.20452224618E+03  0.12500000000E+03 0.  0.
         25    1    1    2    0    0 -0.80959696069E+02  0.36938032947E+01  0.15354531888E+03  0.21393756454E+03  0.12500000000E+03 0.  0.
</event>
<event>
 5    0  0.5626800E-005  0.2641243E+03  0.7546771E-02  0.1104690E+00
         21   -1    0    0  502  501  0.00000000000E+00  0.00000000000E+00  0.51212554088E+03  0.51212554088E+03  0.00000000000E+00 0.  1.
         21   -1    0    0  501  502 -0.00000000000E+00 -0.00000000000E+00 -0.13621981553E+03  0.13621981553E+03  0.00000000000E+00 0.  1.
         25    1    1    2    0    0  0.13934444036E+02 -0.90107217255E+02  0.19786434106E+03  0.25117479331E+03  0.12500000000E+03 0.  0.
         25    1    1    2    0    0 -0.12327115251E+03  0.64272847777E+02  0.95002351222E+02  0.20970746945E+03  0.12500000000E+03 0.  0.
         25    1    1    2    0    0  0.10933670848E+03  0.25834369478E+02  0.83039033064E+02  0.18746309365E+03  0.12500000000E+03 0.  0.
</event>
<event>
 5    0  0.5626800E-005  0.5448862E+03  0.7546771E-02  0.1002685E+00
         21   -1    0    0  502  501  0.00000000000E+00  0.00000000000E+00  0.58626574124E+03  0.58626574124E+03  0.00000000000E+00 0. -1.
         21   -1    0    0  501  502 -0.00000000000E+00 -0.00000000000E+00 -0.50642728044E+03  0.50642728044E+03  0.00000000000E+00 0. -1.
         25    1    1    2    0    0 -0.14766590016E+03 -0.41737798236E+03 -0.48573127290E+02  0.46259479777E+03  0.12500000000E+03 0.  0.
         25    1    1    2    0    0  0.39087755362E+02  0.24386984051E+03 -0.10440596901E+03  0.29584786309E+03  0.12500000000E+03 0.  0.
         25    1    1    2    0    0  0.10857814480E+03  0.17350814185E+03  0.23281755710E+03  0.33425036083E+03  0.12500000000E+03 0.  0.
</event>
<event>
 5    0  0.5626800E-005  0.2736042E+03  0.7546771E-02  0.1099234E+00
         21   -1    0    0  502  501  0.00000000000E+00  0.00000000000E+00  0.18920073855E+03  0.18920073855E+03  0.00000000000E+00 0. -1.
         21   -1    0    0  501  502 -0.00000000000E+00 -0.00000000000E+00 -0.39566051651E+03  0.39566051651E+03  0.00000000000E+00 0. -1.
         25    1    1    2    0    0 -0.76155951001E+02 -0.80165812394E+02  0.16216629701E+02  0.16767309095E+03  0.12500000000E+03 0.  0.
         25    1    1    2    0    0  0.12022344726E+03  0.44414714758E+02 -0.21488373119E+03  0.27968976043E+03  0.12500000000E+03 0.  0.
         25    1    1    2    0    0 -0.44067496259E+02  0.35751097636E+02 -0.77926764591E+01  0.13749840368E+03  0.12500000000E+03 0.  0.
</event>
<event>
 5    0  0.5626800E-005  0.3707576E+03  0.7546771E-02  0.1054404E+00
         21   -1    0    0  502  501  0.00000000000E+00  0.00000000000E+00  0.68886032809E+03  0.68886032809E+03  0.00000000000E+00 0. -1.
         21   -1    0    0  501  502 -0.00000000000E+00 -0.00000000000E+00 -0.19954876809E+03  0.19954876809E+03  0.00000000000E+00 0. -1.
         25    1    1    2    0    0 -0.18081720414E+03  0.78602334511E+01  0.31153098834E+03  0.38135705222E+03  0.12500000000E+03 0.  0.
         25    1    1    2    0    0  0.20513818237E+03 -0.60481568182E+02 -0.38416257147E+02  0.25068008052E+03  0.12500000000E+03 0.  0.
         25    1    1    2    0    0 -0.24320978227E+02  0.52621334731E+02  0.21619682880E+03  0.25637196344E+03  0.12500000000E+03 0.  0.
</event>
<event>
 5    0  0.5626800E-005  0.5203788E+03  0.7546771E-02  0.1008593E+00
         21   -1    0    0  502  501  0.00000000000E+00  0.00000000000E+00  0.38659235046E+03  0.38659235046E+03  0.00000000000E+00 0.  1.
         21   -1    0    0  501  502 -0.00000000000E+00 -0.00000000000E+00 -0.70046411133E+03  0.70046411133E+03  0.00000000000E+00 0.  1.
         25    1    1    2    0    0  0.97222257563E+02 -0.49364475192E+02 -0.58530264760E+03  0.60835286476E+03  0.12500000000E+03 0.  0.
         25    1    1    2    0    0 -0.14631299254E+02 -0.11227122051E+03  0.15680289653E+03  0.23028471559E+03  0.12500000000E+03 0.  0.
         25    1    1    2    0    0 -0.82590958309E+02  0.16163569570E+03  0.11462799019E+03  0.24841888144E+03  0.12500000000E+03 0.  0.
</event>
<event>
 5    0  0.5626800E-005  0.2472916E+03  0.7546771E-02  0.1115029E+00
         21   -1    0    0  502  501  0.00000000000E+00  0.00000000000E+00  0.64144578049E+03  0.64144578049E+03  0.00000000000E+00 0.  1.
         21   -1    0    0  501  502 -0.00000000000E+00 -0.00000000000E+00 -0.95336416751E+02  0.95336416751E+02  0.00000000000E+00 0.  1.
         25    1    1    2    0    0 -0.23137366315E+02  0.41832777994E+02  0.17291156112E+03  0.21865206838E+03  0.12500000000E+03 0.  0.
         25    1    1    2    0    0  0.13654043390E+03 -0.43472436480E+02  0.18428096789E+03  0.26479731484E+03  0.12500000000E+03 0.  0.
         25    1    1    2    0    0 -0.11340306758E+03  0.16396584868E+01  0.18891683472E+03  0.25333281402E+03  0.12500000000E+03 0.  0.
</event>
<event>
 5    0  0.5626800E-005  0.2916404E+03  0.7546771E-02  0.1089496E+00
         21   -1    0    0  502  501  0.00000000000E+00  0.00000000000E+00  0.34098223087E+03  0.34098223087E+03  0.00000000000E+00 0. -1.
         21   -1    0    0  501  502 -0.00000000000E+00 -0.00000000000E+00 -0.24943854568E+03  0.24943854568E+03  0.00000000000E+00 0. -1.
         25    1    1    2    0    0 -0.92587491709E+02  0.11095984288E+03  0.11648918718E+03  0.22378396074E+03  0.12500000000E+03 0.  0.
         25    1    1    2    0    0  0.15477313572E+03 -0.99631024067E+02  0.83684511617E+01  0.22265690079E+03  0.12500000000E+03 0.  0.
         25    1    1    2    0    0 -0.62185644006E+02 -0.11328818808E+02 -0.33313953159E+02  0.14397991503E+03  0.12500000000E+03 0.  0.
</event>
<event>
 5    0  0.5626800E-005  0.3129492E+03  0.7546771E-02  0.1078941E+00
         21   -1    0    0  502  501  0.00000000000E+00  0.00000000000E+00  0.23002721125E+04  0.23002721125E+04  0.00000000000E+00 0.  1.
         21   -1    0    0  501  502 -0.00000000000E+00 -0.00000000000E+00 -0.42576350937E+02  0.42576350937E+02  0.00000000000E+00 0. -1.
         25    1    1    2    0    0  0.12193461698E+03  0.12271071570E+03  0.67796984763E+03  0.71077006469E+03  0.12500000000E+03 0.  0.
         25    1    1    2    0    0  0.50299392547E+02  0.18964506061E+02  0.80055962559E+03  0.81204088290E+03  0.12500000000E+03 0.  0.
         25    1    1    2    0    0 -0.17223400953E+03 -0.14167522176E+03  0.77916628834E+03  0.82003751584E+03  0.12500000000E+03 0.  0.
</event>
<event>
 5    0  0.5626800E-005  0.2926708E+03  0.7546771E-02  0.1088963E+00
         21   -1    0    0  502  501  0.00000000000E+00  0.00000000000E+00  0.31963296745E+03  0.31963296745E+03  0.00000000000E+00 0.  1.
         21   -1    0    0  501  502 -0.00000000000E+00 -0.00000000000E+00 -0.26798305744E+03  0.26798305744E+03  0.00000000000E+00 0.  1.
         25    1    1    2    0    0 -0.79450664538E+02  0.58057517398E+02  0.13000135393E+03  0.20544691637E+03  0.12500000000E+03 0.  0.
         25    1    1    2    0    0  0.54264509024E+01  0.99367277319E+02 -0.36931696948E+02  0.16398857402E+03  0.12500000000E+03 0.  0.
         25    1    1    2    0    0  0.74024213635E+02 -0.15742479472E+03 -0.41419746962E+02  0.21818053450E+03  0.12500000000E+03 0.  0.
</event>
<event>
 5    0  0.5626800E-005  0.4443680E+03  0.7546771E-02  0.1029415E+00
         21   -1    0    0  502  501  0.00000000000E+00  0.00000000000E+00  0.33934256515E+03  0.33934256515E+03  0.00000000000E+00 0. -1.
         21   -1    0    0  501  502 -0.00000000000E+00 -0.00000000000E+00 -0.58189839516E+03  0.58189839516E+03  0.00000000000E+00 0. -1.
         25    1    1    2    0    0 -0.11996169377E+03 -0.28106216774E+03 -0.11265315601E+03  0.34885883057E+03  0.12500000000E+03 0.  0.
         25    1    1    2    0    0 -0.99125664501E+02 -0.19449446134E+02 -0.55672060217E+01  0.16081098252E+03  0.12500000000E+03 0.  0.
         25    1    1    2    0    0  0.21908735827E+03  0.30051161387E+03 -0.12433546798E+03  0.41157114722E+03  0.12500000000E+03 0.  0.
</event>
<event>
 5    0  0.5626800E-005  0.2620241E+03  0.7546771E-02  0.1105933E+00
         21   -1    0    0  502  501  0.00000000000E+00  0.00000000000E+00  0.49507593325E+02  0.49507593325E+02  0.00000000000E+00 0. -1.
         21   -1    0    0  501  502 -0.00000000000E+00 -0.00000000000E+00 -0.13867896709E+04  0.13867896709E+04  0.00000000000E+00 0. -1.
         25    1    1    2    0    0 -0.72670006724E+02 -0.15564076147E+02 -0.58049357791E+03  0.59843208833E+03  0.12500000000E+03 0.  0.
         25    1    1    2    0    0  0.12332701717E+03 -0.18715783975E+02 -0.61230606672E+03  0.63726254642E+03  0.12500000000E+03 0.  0.
         25    1    1    2    0    0 -0.50657010447E+02  0.34279860122E+02 -0.14448243290E+03  0.20060262943E+03  0.12500000000E+03 0.  0.
</event>
<event>
 5    0  0.5626800E-005  0.3702763E+03  0.7546771E-02  0.1054587E+00
         21   -1    0    0  502  501  0.00000000000E+00  0.00000000000E+00  0.66550567423E+03  0.66550567423E+03  0.00000000000E+00 0.  1.
         21   -1    0    0  501  502 -0.00000000000E+00 -0.00000000000E+00 -0.20601563569E+03  0.20601563569E+03  0.00000000000E+00 0.  1.
         25    1    1    2    0    0 -0.87095400119E+02  0.83285993498E+02  0.15311422056E+03  0.23149758092E+03  0.12500000000E+03 0.  0.
         25    1    1    2    0    0 -0.87752934234E+02  0.95193556807E+01  0.36747879753E+03  0.39806640430E+03  0.12500000000E+03 0.  0.
         25    1    1    2    0    0  0.17484833435E+03 -0.92805349178E+02 -0.61102979548E+02  0.24195732469E+03  0.12500000000E+03 0.  0.
</event>
<event>
 5    0  0.5626800E-005  0.3757727E+03  0.7546771E-02  0.1052507E+00
         21   -1    0    0  502  501  0.00000000000E+00  0.00000000000E+00  0.20799210496E+03  0.20799210496E+03  0.00000000000E+00 0. -1.
         21   -1    0    0  501  502 -0.00000000000E+00 -0.00000000000E+00 -0.67889659635E+03  0.67889659635E+03  0.00000000000E+00 0. -1.
         25    1    1    2    0    0 -0.12080779447E+03  0.91546796578E+02 -0.15501917036E+03  0.25026242696E+03  0.12500000000E+03 0.  0.
         25    1    1    2    0    0 -0.12199569869E+03 -0.45740061360E+01  0.40436249121E+02  0.17934314114E+03  0.12500000000E+03 0.  0.
         25    1    1    2    0    0  0.24280349316E+03 -0.86972790442E+02 -0.35632157015E+03  0.45728313321E+03  0.12500000000E+03 0.  0.
</event>
<event>
 5    0  0.5626800E-005  0.2569198E+03  0.7546771E-02  0.1109008E+00
         21   -1    0    0  502  501  0.00000000000E+00  0.00000000000E+00  0.63034872810E+03  0.63034872810E+03  0.00000000000E+00 0.  1.
         21   -1    0    0  501  502 -0.00000000000E+00 -0.00000000000E+00 -0.10471628061E+03  0.10471628061E+03  0.00000000000E+00 0.  1.
         25    1    1    2    0    0 -0.48250125972E+01  0.22211588845E+02  0.28353947208E+03  0.31070286071E+03  0.12500000000E+03 0.  0.
         25    1    1    2    0    0  0.69893696833E+02 -0.21122910777E+00  0.24261700895E+03  0.28173247329E+03  0.12500000000E+03 0.  0.
         25    1    1    2    0    0 -0.65068684236E+02 -0.22000359737E+02 -0.52403354189E+00  0.14262967471E+03  0.12500000000E+03 0.  0.
</event>
<event>
 5    0  0.5626800E-005  0.2585569E+03  0.7546771E-02  0.1108013E+00
         21   -1    0    0  502  501  0.00000000000E+00  0.00000000000E+00  0.12453337483E+03  0.12453337483E+03  0.00000000000E+00 0.  1.
         21   -1    0    0  501  502 -0.00000000000E+00 -0.00000000000E+00 -0.53681719991E+03  0.53681719991E+03  0.00000000000E+00 0.  1.
         25    1    1    2    0    0  0.47874222349E+02 -0.14920266277E+03 -0.12537053616E+03  0.23642366015E+03  0.12500000000E+03 0.  0.
         25    1    1    2    0    0  0.24511440998E+02  0.93211834917E+02 -0.15875538446E+03  0.22386944633E+03  0.12500000000E+03 0.  0.
         25    1    1    2    0    0 -0.72385663347E+02  0.55990827852E+02 -0.12815790446E+03  0.20105746825E+03  0.12500000000E+03 0.  0.
</event>
<event>
 5    0  0.5626800E-005  0.4775377E+03  0.7546771E-02  0.1019814E+00
         21   -1    0    0  502  501  0.00000000000E+00  0.00000000000E+00  0.12886219294E+03  0.12886219294E+03  0.00000000000E+00 0.  1.
         21   -1    0    0  501  502 -0.00000000000E+00 -0.00000000000E+00 -0.17696599192E+04  0.17696599192E+04  0.00000000000E+00 0.  1.
         25    1    1    2    0    0 -0.13773493187E+03  0.13407980235E+03 -0.51325798524E+03  0.56214505625E+03  0.12500000000E+03 0.  0.
         25    1    1    2    0    0 -0.14706558521E+03 -0.18905037758E+02 -0.38193499492E+02  0.19765988518E+03  0.12500000000E+03 0.  0.
         25    1    1    2    0    0  0.28480051709E+03 -0.11517476460E+03 -0.10893462415E+04  0.11387171707E+04  0.12500000000E+03 0.  0.
</event>
<event>
 5    0  0.5626800E-005  0.2989126E+03  0.7546771E-02  0.1085785E+00
         21   -1    0    0  502  501  0.00000000000E+00  0.00000000000E+00  0.95153915966E+03  0.95153915966E+03  0.00000000000E+00 0.  1.
         21   -1    0    0  501  502 -0.00000000000E+00 -0.00000000000E+00 -0.93899148137E+02  0.93899148137E+02  0.00000000000E+00 0.  1.
         25    1    1    2    0    0  0.14949104524E+03  0.90776532673E+02  0.40265577128E+03  0.45644783014E+03  0.12500000000E+03 0.  0.
         25    1    1    2    0    0 -0.10266426651E+03 -0.14481017954E+03  0.34567259575E+03  0.40819662317E+03  0.12500000000E+03 0.  0.
         25    1    1    2    0    0 -0.46826778727E+02  0.54033646865E+02  0.10931164449E+03  0.18079385449E+03  0.12500000000E+03 0.  0.
</event>
<event>
 5    0  0.5626800E-005  0.3736350E+03  0.7546771E-02  0.1053312E+00
         21   -1    0    0  502  501  0.00000000000E+00  0.00000000000E+00  0.98057794082E+03  0.98057794082E+03  0.00000000000E+00 0.  1.
         21   -1    0    0  501  502 -0.00000000000E+00 -0.00000000000E+00 -0.14236818076E+03  0.14236818076E+03  0.00000000000E+00 0.  1.
         25    1    1    2    0    0 -0.12734588510E+03  0.40164265785E+02  0.66624681410E+03  0.69089793747E+03  0.12500000000E+03 0.  0.
         25    1    1    2    0    0  0.10474623960E+03  0.54260290850E+02  0.20789537293E+03  0.26974328529E+03  0.12500000000E+03 0.  0.
         25    1    1    2    0    0  0.22599645506E+02 -0.94424556635E+02 -0.35932426972E+02  0.16230489882E+03  0.12500000000E+03 0.  0.
</event>
<event>
 5    0  0.5626800E-005  0.3374971E+03  0.7546771E-02  0.1067867E+00
         21   -1    0    0  502  501  0.00000000000E+00  0.00000000000E+00  0.85689081628E+02  0.85689081628E+02  0.00000000000E+00 0. -1.
         21   -1    0    0  501  502 -0.00000000000E+00 -0.00000000000E+00 -0.13292745026E+04  0.13292745026E+04  0.00000000000E+00 0. -1.
         25    1    1    2    0    0  0.16901275425E+03  0.11143331037E+03 -0.30584748167E+03  0.38749242032E+03  0.12500000000E+03 0.  0.
         25    1    1    2    0    0 -0.10320195123E+03 -0.19301114647E+03 -0.64237608294E+03  0.69005505384E+03  0.12500000000E+03 0.  0.
         25    1    1    2    0    0 -0.65810803025E+02  0.81577836096E+02 -0.29536185633E+03  0.33741611003E+03  0.12500000000E+03 0.  0.
</event>
<event>
 5    0  0.6408520E-005  0.4369668E+03  0.7546771E-02  0.1031682E+00
         21   -1    0    0  502  501  0.00000000000E+00  0.00000000000E+00  0.63507830254E+03  0.63507830254E+03  0.00000000000E+00 0.  1.
         21   -1    0    0  501  502 -0.00000000000E+00 -0.00000000000E+00 -0.30065583644E+03  0.30065583644E+03  0.00000000000E+00 0.  1.
         25    1    1    2    0    0 -0.68355723905E+02 -0.10896690983E+03  0.13361116565E+03  0.22365874902E+03  0.12500000000E+03 0.  0.
         25    1    1    2    0    0  0.15349380831E+03  0.23888883576E+03  0.34653001515E+03  0.46511963670E+03  0.12500000000E+03 0.  0.
         25    1    1    2    0    0 -0.85138084405E+02 -0.12992192593E+03 -0.14571871470E+03  0.24695575326E+03  0.12500000000E+03 0.  0.
</event>
<event>
 5    0  0.5626800E-005  0.3646610E+03  0.7546771E-02  0.1056753E+00
         21   -1    0    0  502  501  0.00000000000E+00  0.00000000000E+00  0.30561179851E+03  0.30561179851E+03  0.00000000000E+00 0. -1.
         21   -1    0    0  501  502 -0.00000000000E+00 -0.00000000000E+00 -0.43511943196E+03  0.43511943196E+03  0.00000000000E+00 0. -1.
         25    1    1    2    0    0  0.44482022016E+02 -0.14152873005E+02 -0.18527194976E+02  0.13471158469E+03  0.12500000000E+03 0.  0.
         25    1    1    2    0    0  0.24340574498E+03  0.12758937077E+02 -0.24721214218E+01  0.27393477061E+03  0.12500000000E+03 0.  0.
         25    1    1    2    0    0 -0.28788776700E+03  0.13939359285E+01 -0.10850831705E+03  0.33208487517E+03  0.12500000000E+03 0.  0.
</event>
<event>
 5    0  0.5626800E-005  0.3796475E+03  0.7546771E-02  0.1051064E+00
         21   -1    0    0  502  501  0.00000000000E+00  0.00000000000E+00  0.29837044501E+03  0.29837044501E+03  0.00000000000E+00 0.  1.
         21   -1    0    0  501  502 -0.00000000000E+00 -0.00000000000E+00 -0.48306478489E+03  0.48306478489E+03  0.00000000000E+00 0.  1.
         25    1    1    2    0    0 -0.66922274754E+02 -0.59911006380E+02 -0.87303501430E+02  0.17695994153E+03  0.12500000000E+03 0.  0.
         25    1    1    2    0    0 -0.17451202668E+03 -0.13574155073E+03 -0.89949717927E+02  0.26943676031E+03  0.12500000000E+03 0.  0.
         25    1    1    2    0    0  0.24143430143E+03  0.19565255711E+03 -0.74411205173E+01  0.33503852806E+03  0.12500000000E+03 0.  0.
</event>
<event>
 5    0  0.5626800E-005  0.2863638E+03  0.7546771E-02  0.1092263E+00
         21   -1    0    0  502  501  0.00000000000E+00  0.00000000000E+00  0.16068544749E+03  0.16068544749E+03  0.00000000000E+00 0.  1.
         21   -1    0    0  501  502 -0.00000000000E+00 -0.00000000000E+00 -0.51034005002E+03  0.51034005002E+03  0.00000000000E+00 0.  1.
         25    1    1    2    0    0 -0.82472629837E+02  0.22092652388E+02 -0.13835549075E+03  0.20507818456E+03  0.12500000000E+03 0.  0.
         25    1    1    2    0    0  0.11423883231E+02 -0.14364607812E+03 -0.20141309030E+03  0.27741112777E+03  0.12500000000E+03 0.  0.
         25    1    1    2    0    0  0.71048746606E+02  0.12155342573E+03 -0.98860214731E+01  0.18853618518E+03  0.12500000000E+03 0.  0.
</event>
<event>
 5    0  0.5626800E-005  0.3317301E+03  0.7546771E-02  0.1070374E+00
         21   -1    0    0  502  501  0.00000000000E+00  0.00000000000E+00  0.11192297279E+04  0.11192297279E+04  0.00000000000E+00 0.  1.
         21   -1    0    0  501  502 -0.00000000000E+00 -0.00000000000E+00 -0.98321947558E+02  0.98321947558E+02  0.00000000000E+00 0.  1.
         25    1    1    2    0    0 -0.50012030131E+02 -0.20276293732E+03  0.42415079323E+03  0.48902239959E+03  0.12500000000E+03 0.  0.
         25    1    1    2    0    0 -0.23168954012E+02  0.23709893420E+03  0.38279675301E+03  0.46787932113E+03  0.12500000000E+03 0.  0.
         25    1    1    2    0    0  0.73180984143E+02 -0.34335996884E+02  0.21396023409E+03  0.26064995472E+03  0.12500000000E+03 0.  0.
</event>
<event>
 5    0  0.5626800E-005  0.3450431E+03  0.7546771E-02  0.1064668E+00
         21   -1    0    0  502  501  0.00000000000E+00  0.00000000000E+00  0.79203977521E+03  0.79203977521E+03  0.00000000000E+00 0. -1.
         21   -1    0    0  501  502 -0.00000000000E+00 -0.00000000000E+00 -0.15031408543E+03  0.15031408543E+03  0.00000000000E+00 0. -1.
         25    1    1    2    0    0  0.13328150157E+03 -0.22174995278E+03  0.24837048789E+03  0.37980244795E+03  0.12500000000E+03 0.  0.
         25    1    1    2    0    0 -0.41191406235E+01  0.13731539170E+03  0.10786444561E+03  0.21478413056E+03  0.12500000000E+03 0.  0.
         25    1    1    2    0    0 -0.12916236095E+03  0.84434561080E+02  0.28549075628E+03  0.34776728212E+03  0.12500000000E+03 0.  0.
</event>
<event>
 5    0  0.5759204E-005  0.3836877E+03  0.7546771E-02  0.1049579E+00
         21   -1    0    0  502  501  0.00000000000E+00  0.00000000000E+00  0.11426571056E+03  0.11426571056E+03  0.00000000000E+00 0.  1.
         21   -1    0    0  501  502 -0.00000000000E+00 -0.00000000000E+00 -0.12883677855E+04  0.12883677855E+04  0.00000000000E+00 0.  1.
         25    1    1    2    0    0  0.13047305970E+03  0.46824008855E+02 -0.50401719207E+02  0.19334177099E+03  0.12500000000E+03 0.  0.
         25    1    1    2    0    0  0.45620820461E+02  0.63877412263E+02 -0.74521390264E+03  0.75969095279E+03  0.12500000000E+03 0.  0.
         25    1    1    2    0    0 -0.17609388016E+03 -0.11070142112E+03 -0.37848645309E+03  0.44960077228E+03  0.12500000000E+03 0.  0.
</event>
<event>
 5    0  0.5626800E-005  0.3534268E+03  0.7546771E-02  0.1061217E+00
         21   -1    0    0  502  501  0.00000000000E+00  0.00000000000E+00  0.50147768339E+03  0.50147768339E+03  0.00000000000E+00 0. -1.
         21   -1    0    0  501  502 -0.00000000000E+00 -0.00000000000E+00 -0.24908492023E+03  0.24908492023E+03  0.00000000000E+00 0. -1.
         25    1    1    2    0    0 -0.45549132865E+02  0.21692662540E+03  0.14112872353E+03  0.29098831749E+03  0.12500000000E+03 0.  0.
         25    1    1    2    0    0 -0.56986533906E+02 -0.53727912412E+01 -0.52294893909E+02  0.14709210673E+03  0.12500000000E+03 0.  0.
         25    1    1    2    0    0  0.10253566677E+03 -0.21155383416E+03  0.16355893354E+03  0.31248217941E+03  0.12500000000E+03 0.  0.
</event>
<event>
 5    0  0.5626800E-005  0.3649048E+03  0.7546771E-02  0.1056658E+00
         21   -1    0    0  502  501  0.00000000000E+00  0.00000000000E+00  0.38384825762E+03  0.38384825762E+03  0.00000000000E+00 0. -1.
         21   -1    0    0  501  502 -0.00000000000E+00 -0.00000000000E+00 -0.34689617270E+03  0.34689617270E+03  0.00000000000E+00 0. -1.
         25    1    1    2    0    0 -0.14949749501E+03 -0.14730164950E+03  0.86958807744E+02  0.25929541300E+03  0.12500000000E+03 0.  0.
         25    1    1    2    0    0  0.69261762285E+02  0.81207873331E+02 -0.19400286909E+03  0.25427155488E+03  0.12500000000E+03 0.  0.
         25    1    1    2    0    0  0.80235732726E+02  0.66093776172E+02  0.14399614627E+03  0.21717746245E+03  0.12500000000E+03 0.  0.
</event>
<event>
 5    0  0.5626800E-005  0.2890915E+03  0.7546771E-02  0.1090824E+00
         21   -1    0    0  502  501  0.00000000000E+00  0.00000000000E+00  0.27015135890E+03  0.27015135890E+03  0.00000000000E+00 0.  1.
         21   -1    0    0  501  502 -0.00000000000E+00 -0.00000000000E+00 -0.30935962513E+03  0.30935962513E+03  0.00000000000E+00 0.  1.
         25    1    1    2    0    0 -0.11122023104E+03 -0.12134822076E+03  0.83310658868E+02  0.22284747330E+03  0.12500000000E+03 0.  0.
         25    1    1    2    0    0 -0.47596829218E+01  0.61299089840E+02 -0.18620216483E+01  0.13931511089E+03  0.12500000000E+03 0.  0.
         25    1    1    2    0    0  0.11597991396E+03  0.60049130916E+02 -0.12065690346E+03  0.21734839985E+03  0.12500000000E+03 0.  0.
</event>
<event>
 5    0  0.5626800E-005  0.3082937E+03  0.7546771E-02  0.1081167E+00
         21   -1    0    0  502  501  0.00000000000E+00  0.00000000000E+00  0.16401158497E+03  0.16401158497E+03  0.00000000000E+00 0.  1.
         21   -1    0    0  501  502 -0.00000000000E+00 -0.00000000000E+00 -0.57950186863E+03  0.57950186863E+03  0.00000000000E+00 0.  1.
         25    1    1    2    0    0 -0.81274689079E+02 -0.36530165312E+02  0.17587644903E+02  0.15451327877E+03  0.12500000000E+03 0.  0.
         25    1    1    2    0    0  0.26220017001E+02  0.16680830696E+03 -0.24060336777E+03  0.31941740895E+03  0.12500000000E+03 0.  0.
         25    1    1    2    0    0  0.55054672078E+02 -0.13027814164E+03 -0.19247456080E+03  0.26958276589E+03  0.12500000000E+03 0.  0.
</event>
<event>
 5    0  0.5626800E-005  0.2325981E+03  0.7546771E-02  0.1124824E+00
         21   -1    0    0  502  501  0.00000000000E+00  0.00000000000E+00  0.28046458641E+03  0.28046458641E+03  0.00000000000E+00 0. -1.
         21   -1    0    0  501  502 -0.00000000000E+00 -0.00000000000E+00 -0.19290093231E+03  0.19290093231E+03  0.00000000000E+00 0. -1.
         25    1    1    2    0    0 -0.15441386212E+02  0.78039614718E+02 -0.39290953565E+02  0.15328860657E+03  0.12500000000E+03 0.  0.
         25    1    1    2    0    0 -0.47668954344E+02 -0.15974161158E+01  0.48214420163E+02  0.14221290820E+03  0.12500000000E+03 0.  0.
         25    1    1    2    0    0  0.63110340556E+02 -0.76442198602E+02  0.78640187503E+02  0.17786400395E+03  0.12500000000E+03 0.  0.
</event>
<event>
 5    0  0.5626800E-005  0.4306684E+03  0.7546771E-02  0.1033649E+00
         21   -1    0    0  502  501  0.00000000000E+00  0.00000000000E+00  0.41944546691E+03  0.41944546691E+03  0.00000000000E+00 0. -1.
         21   -1    0    0  501  502 -0.00000000000E+00 -0.00000000000E+00 -0.44219163318E+03  0.44219163318E+03  0.00000000000E+00 0. -1.
         25    1    1    2    0    0  0.15165653840E+03  0.68448027742E+01 -0.33769001381E+03  0.39077628176E+03  0.12500000000E+03 0.  0.
         25    1    1    2    0    0 -0.17429062511E+02  0.49895523893E+02  0.21541855009E+03  0.25460457036E+03  0.12500000000E+03 0.  0.
         25    1    1    2    0    0 -0.13422747589E+03 -0.56740326667E+02  0.99525297443E+02  0.21625624797E+03  0.12500000000E+03 0.  0.
</event>
<event>
 5    0  0.5626800E-005  0.3930041E+03  0.7546771E-02  0.1046229E+00
         21   -1    0    0  502  501  0.00000000000E+00  0.00000000000E+00  0.84140878654E+03  0.84140878654E+03  0.00000000000E+00 0. -1.
         21   -1    0    0  501  502 -0.00000000000E+00 -0.00000000000E+00 -0.18356385567E+03  0.18356385567E+03  0.00000000000E+00 0. -1.
         25    1    1    2    0    0  0.24758878734E+03 -0.55987275901E+02  0.14193116888E+03  0.31655053211E+03  0.12500000000E+03 0.  0.
         25    1    1    2    0    0 -0.20550660248E+03  0.55949402279E+02  0.52085523664E+03  0.57643601277E+03  0.12500000000E+03 0.  0.
         25    1    1    2    0    0 -0.42082184854E+02  0.37873622576E-01 -0.49414746665E+01  0.13198609733E+03  0.12500000000E+03 0.  0.
</event>
<event>
 5    0  0.5626800E-005  0.2337782E+03  0.7546771E-02  0.1124008E+00
         21   -1    0    0  502  501  0.00000000000E+00  0.00000000000E+00  0.76806926229E+02  0.76806926229E+02  0.00000000000E+00 0. -1.
         21   -1    0    0  501  502 -0.00000000000E+00 -0.00000000000E+00 -0.71155378398E+03  0.71155378398E+03  0.00000000000E+00 0. -1.
         25    1    1    2    0    0  0.78562965652E+02 -0.67534826239E+02 -0.26658461102E+03  0.31213049700E+03  0.12500000000E+03 0.  0.
         25    1    1    2    0    0 -0.30929891195E+02  0.27842487691E+02 -0.28453629990E+03  0.31355664281E+03  0.12500000000E+03 0.  0.
         25    1    1    2    0    0 -0.47633074457E+02  0.39692338548E+02 -0.83625946830E+02  0.16267357039E+03  0.12500000000E+03 0.  0.
</event>
<event>
 5    0  0.5626800E-005  0.3272238E+03  0.7546771E-02  0.1072372E+00
         21   -1    0    0  502  501  0.00000000000E+00  0.00000000000E+00  0.89069950505E+03  0.89069950505E+03  0.00000000000E+00 0.  1.
         21   -1    0    0  501  502 -0.00000000000E+00 -0.00000000000E+00 -0.12021495318E+03  0.12021495318E+03  0.00000000000E+00 0.  1.
         25    1    1    2    0    0  0.36173533773E+01  0.82216796558E+02  0.44716719723E+03  0.47154659278E+03  0.12500000000E+03 0.  0.
         25    1    1    2    0    0 -0.58094057625E+01  0.89176733608E+02  0.11965551834E+01  0.15366414922E+03  0.12500000000E+03 0.  0.
         25    1    1    2    0    0  0.21920523852E+01 -0.17139353017E+03  0.32212079945E+03  0.38570371623E+03  0.12500000000E+03 0.  0.
</event>
<event>
 5    0  0.5626800E-005  0.2443500E+03  0.7546771E-02  0.1116928E+00
         21   -1    0    0  502  501  0.00000000000E+00  0.00000000000E+00  0.61850390732E+03  0.61850390732E+03  0.00000000000E+00 0. -1.
         21   -1    0    0  501  502 -0.00000000000E+00 -0.00000000000E+00 -0.96534421682E+02  0.96534421682E+02  0.00000000000E+00 0. -1.
         25    1    1    2    0    0  0.82467766432E+02 -0.21122297674E+02  0.60367508030E+02  0.16283832468E+03  0.12500000000E+03 0.  0.
         25    1    1    2    0    0 -0.37856064689E+02 -0.46613147658E+02  0.13653855445E+03  0.19461152078E+03  0.12500000000E+03 0.  0.
         25    1    1    2    0    0 -0.44611701743E+02  0.67735445332E+02  0.32506342315E+03  0.35758848354E+03  0.12500000000E+03 0.  0.
</event>
<event>
 5    0  0.5626800E-005  0.3377474E+03  0.7546771E-02  0.1067759E+00
         21   -1    0    0  502  501  0.00000000000E+00  0.00000000000E+00  0.58050775203E+03  0.58050775203E+03  0.00000000000E+00 0.  1.
         21   -1    0    0  501  502 -0.00000000000E+00 -0.00000000000E+00 -0.19650612253E+03  0.19650612253E+03  0.00000000000E+00 0.  1.
         25    1    1    2    0    0 -0.18392091055E+02 -0.34619254727E+02 -0.31615546869E+02  0.13476388468E+03  0.12500000000E+03 0.  0.
         25    1    1    2    0    0 -0.48302223501E+02 -0.17665954811E+03  0.26910636627E+03  0.34869031690E+03  0.12500000000E+03 0.  0.
         25    1    1    2    0    0  0.66694314556E+02  0.21127880284E+03  0.14651081009E+03  0.29355967298E+03  0.12500000000E+03 0.  0.
</event>
<event>
 5    0  0.5626800E-005  0.3137708E+03  0.7546771E-02  0.1078552E+00
         21   -1    0    0  502  501  0.00000000000E+00  0.00000000000E+00  0.83190656821E+03  0.83190656821E+03  0.00000000000E+00 0.  1.
         21   -1    0    0  501  502 -0.00000000000E+00 -0.00000000000E+00 -0.11834518113E+03  0.11834518113E+03  0.00000000000E+00 0.  1.
         25    1    1    2    0    0  0.31915258660E+02  0.16397012124E+02  0.47844842265E+03  0.49580776404E+03  0.12500000000E+03 0.  0.
         25    1    1    2    0    0  0.13073509977E+03  0.13742922035E+02  0.10317972342E+03  0.20869017596E+03  0.12500000000E+03 0.  0.
         25    1    1    2    0    0 -0.16265035843E+03 -0.30139934159E+02  0.13193324100E+03  0.24575380935E+03  0.12500000000E+03 0.  0.
</event>
<event>
 5    0  0.5626800E-005  0.6411425E+03  0.7546771E-02  0.9823543E-01
         21   -1    0    0  502  501  0.00000000000E+00  0.00000000000E+00  0.56745754780E+03  0.56745754780E+03  0.00000000000E+00 0. -1.
         21   -1    0    0  501  502 -0.00000000000E+00 -0.00000000000E+00 -0.72439549054E+03  0.72439549054E+03  0.00000000000E+00 0. -1.
         25    1    1    2    0    0 -0.58727332356E+02 -0.77854755590E+01 -0.17143509756E+03  0.22028278615E+03  0.12500000000E+03 0.  0.
         25    1    1    2    0    0  0.46961620095E+02 -0.23591397716E+02  0.52638860753E+03  0.54357328296E+03  0.12500000000E+03 0.  0.
         25    1    1    2    0    0  0.11765712260E+02  0.31376873276E+02 -0.51189145271E+03  0.52799696923E+03  0.12500000000E+03 0.  0.
</event>
<event>
 5    0  0.5626800E-005  0.2847367E+03  0.7546771E-02  0.1093130E+00
         21   -1    0    0  502  501  0.00000000000E+00  0.00000000000E+00  0.33936763041E+03  0.33936763041E+03  0.00000000000E+00 0. -1.
         21   -1    0    0  501  502 -0.00000000000E+00 -0.00000000000E+00 -0.23890021399E+03  0.23890021399E+03  0.00000000000E+00 0. -1.
         25    1    1    2    0    0  0.16955823768E+03  0.64462209386E+02 -0.26402908254E+02  0.22187267963E+03  0.12500000000E+03 0.  0.
         25    1    1    2    0    0 -0.25177937322E+02  0.92025621257E+01  0.58493245904E+02  0.14058831919E+03  0.12500000000E+03 0.  0.
         25    1    1    2    0    0 -0.14438030036E+03 -0.73664771512E+02  0.68377078777E+02  0.21580684557E+03  0.12500000000E+03 0.  0.
</event>
<event>
 5    0  0.5626800E-005  0.2991727E+03  0.7546771E-02  0.1085655E+00
         21   -1    0    0  502  501  0.00000000000E+00  0.00000000000E+00  0.12871391095E+03  0.12871391095E+03  0.00000000000E+00 0. -1.
         21   -1    0    0  501  502 -0.00000000000E+00 -0.00000000000E+00 -0.69537393422E+03  0.69537393422E+03  0.00000000000E+00 0. -1.
         25    1    1    2    0    0 -0.16352641863E+02  0.71423543169E+02 -0.27025589459E+02  0.14739102381E+03  0.12500000000E+03 0.  0.
         25    1    1    2    0    0 -0.14596830932E+03 -0.84797957594E+01 -0.22531901092E+03  0.29626392109E+03  0.12500000000E+03 0.  0.
         25    1    1    2    0    0  0.16232095118E+03 -0.62943747409E+02 -0.31431542289E+03  0.38043290026E+03  0.12500000000E+03 0.  0.
</event>
<event>
 5    0  0.5626800E-005  0.2613934E+03  0.7546771E-02  0.1106309E+00
         21   -1    0    0  502  501  0.00000000000E+00  0.00000000000E+00  0.48125673822E+03  0.48125673822E+03  0.00000000000E+00 0.  1.
         21   -1    0    0  501  502 -0.00000000000E+00 -0.00000000000E+00 -0.14197522682E+03  0.14197522682E+03  0.00000000000E+00 0.  1.
         25    1    1    2    0    0  0.20825478901E+02 -0.75385893873E+02  0.21592621372E+03  0.26146866607E+03  0.12500000000E+03 0.  0.
         25    1    1    2    0    0 -0.11408832363E+03  0.71644125758E+02  0.74310908665E+02  0.19823253388E+03  0.12500000000E+03 0.  0.
         25    1    1    2    0    0  0.93262844726E+02  0.37417681149E+01  0.49044389014E+02  0.16353076508E+03  0.12500000000E+03 0.  0.
</event>
<event>
 5    0  0.5626800E-005  0.4445704E+03  0.7546771E-02  0.1029354E+00
         21   -1    0    0  502  501  0.00000000000E+00  0.00000000000E+00  0.31645448587E+03  0.31645448587E+03  0.00000000000E+00 0. -1.
         21   -1    0    0  501  502 -0.00000000000E+00 -0.00000000000E+00 -0.62455373064E+03  0.62455373064E+03  0.00000000000E+00 0. -1.
         25    1    1    2    0    0  0.41639297831E+02  0.25412834379E+03 -0.16187412784E+03  0.32885145508E+03  0.12500000000E+03 0.  0.
         25    1    1    2    0    0  0.98946223730E+02 -0.12896358469E+03  0.13940935704E+03  0.24795550044E+03  0.12500000000E+03 0.  0.
         25    1    1    2    0    0 -0.14058552156E+03 -0.12516475910E+03 -0.28563447397E+03  0.36420126100E+03  0.12500000000E+03 0.  0.
</event>
<event>
 5    0  0.5626800E-005  0.3150508E+03  0.7546771E-02  0.1077950E+00
         21   -1    0    0  502  501  0.00000000000E+00  0.00000000000E+00  0.96518741748E+03  0.96518741748E+03  0.00000000000E+00 0. -1.
         21   -1    0    0  501  502 -0.00000000000E+00 -0.00000000000E+00 -0.10283705963E+03  0.10283705963E+03  0.00000000000E+00 0. -1.
         25    1    1    2    0    0 -0.62930422665E+02  0.11197473939E+03  0.82161091480E+02  0.19716496979E+03  0.12500000000E+03 0.  0.
         25    1    1    2    0    0  0.94787580756E+02 -0.11944058371E+03  0.21768161428E+03  0.29370227050E+03  0.12500000000E+03 0.  0.
         25    1    1    2    0    0 -0.31857158091E+02  0.74658443211E+01  0.56250765209E+03  0.57715723682E+03  0.12500000000E+03 0.  0.
</event>
<event>
 5    0  0.5626800E-005  0.3118164E+03  0.7546771E-02  0.1079479E+00
         21   -1    0    0  502  501  0.00000000000E+00  0.00000000000E+00  0.34732659662E+03  0.34732659662E+03  0.00000000000E+00 0.  1.
         21   -1    0    0  501  502 -0.00000000000E+00 -0.00000000000E+00 -0.27993667733E+03  0.27993667733E+03  0.00000000000E+00 0.  1.
         25    1    1    2    0    0 -0.13381400822E+02  0.10476460966E+03 -0.91642316032E+02  0.18755798947E+03  0.12500000000E+03 0.  0.
         25    1    1    2    0    0  0.11013385418E+03 -0.96727377583E+02 -0.28028814523E+02  0.19466963259E+03  0.12500000000E+03 0.  0.
         25    1    1    2    0    0 -0.96752453356E+02 -0.80372320790E+01  0.18706104984E+03  0.24503565189E+03  0.12500000000E+03 0.  0.
</event>
<event>
 5    0  0.5626800E-005  0.3046872E+03  0.7546771E-02  0.1082921E+00
         21   -1    0    0  502  501  0.00000000000E+00  0.00000000000E+00  0.93256727615E+03  0.93256727615E+03  0.00000000000E+00 0. -1.
         21   -1    0    0  501  502 -0.00000000000E+00 -0.00000000000E+00 -0.99547038045E+02  0.99547038045E+02  0.00000000000E+00 0. -1.
         25    1    1    2    0    0  0.12261767226E+03 -0.86859399410E+02  0.31669525233E+03  0.37215659562E+03  0.12500000000E+03 0.  0.
         25    1    1    2    0    0 -0.11368814335E+03  0.37236225646E+02  0.58405597241E+02  0.18261364743E+03  0.12500000000E+03 0.  0.
         25    1    1    2    0    0 -0.89295289190E+01  0.49623173764E+02  0.45791938854E+03  0.47734407115E+03  0.12500000000E+03 0.  0.
</event>
<event>
 5    0  0.5626800E-005  0.2778825E+03  0.7546771E-02  0.1096851E+00
         21   -1    0    0  502  501  0.00000000000E+00  0.00000000000E+00  0.94295852789E+02  0.94295852789E+02  0.00000000000E+00 0. -1.
         21   -1    0    0  501  502 -0.00000000000E+00 -0.00000000000E+00 -0.81889811978E+03  0.81889811978E+03  0.00000000000E+00 0. -1.
         25    1    1    2    0    0  0.10318267522E+03  0.63305513876E+02 -0.32938841902E+03  0.37252648649E+03  0.12500000000E+03 0.  0.
         25    1    1    2    0    0  0.13547396534E+01 -0.14099384713E+03 -0.20239938374E+03  0.27653500824E+03  0.12500000000E+03 0.  0.
         25    1    1    2    0    0 -0.10453741487E+03  0.77688333250E+02 -0.19281446424E+03  0.26413247784E+03  0.12500000000E+03 0.  0.
</event>
<event>
 5    0  0.5626800E-005  0.4318128E+03  0.7546771E-02  0.1033289E+00
         21   -1    0    0  502  501  0.00000000000E+00  0.00000000000E+00  0.84530104651E+03  0.84530104651E+03  0.00000000000E+00 0.  1.
         21   -1    0    0  501  502 -0.00000000000E+00 -0.00000000000E+00 -0.22058686973E+03  0.22058686973E+03  0.00000000000E+00 0.  1.
         25    1    1    2    0    0 -0.31801388250E+03  0.90833125382E+02  0.23245518228E+03  0.42313579132E+03  0.12500000000E+03 0.  0.
         25    1    1    2    0    0  0.17554055703E+01  0.35990813436E+02  0.18067836834E+03  0.22263892940E+03  0.12500000000E+03 0.  0.
         25    1    1    2    0    0  0.31625847693E+03 -0.12682393882E+03  0.21158062615E+03  0.42011319552E+03  0.12500000000E+03 0.  0.
</event>
<event>
 5    0  0.5626800E-005  0.2942603E+03  0.7546771E-02  0.1088146E+00
         21   -1    0    0  502  501  0.00000000000E+00  0.00000000000E+00  0.20293137045E+04  0.20293137045E+04  0.00000000000E+00 0.  1.
         21   -1    0    0  501  502 -0.00000000000E+00 -0.00000000000E+00 -0.42669159520E+02  0.42669159520E+02  0.00000000000E+00 0.  1.
         25    1    1    2    0    0 -0.94581583584E+02  0.65744576286E+02  0.69344150102E+03  0.71397068609E+03  0.12500000000E+03 0.  0.
         25    1    1    2    0    0  0.54726162105E+02 -0.18948794313E+03  0.76734080205E+03  0.80208324998E+03  0.12500000000E+03 0.  0.
         25    1    1    2    0    0  0.39855421479E+02  0.12374336684E+03  0.52586224191E+03  0.55592892794E+03  0.12500000000E+03 0.  0.
</event>
<event>
 5    0  0.5626800E-005  0.4085010E+03  0.7546771E-02  0.1040875E+00
         21   -1    0    0  502  501  0.00000000000E+00  0.00000000000E+00  0.23689381204E+04  0.23689381204E+04  0.00000000000E+00 0.  1.
         21   -1    0    0  501  502 -0.00000000000E+00 -0.00000000000E+00 -0.70442141806E+02  0.70442141806E+02  0.00000000000E+00 0.  1.
         25    1    1    2    0    0 -0.85199655385E+02  0.10133641520E+03  0.44308062288E+03  0.47903391184E+03  0.12500000000E+03 0.  0.
         25    1    1    2    0    0 -0.22552094488E+03 -0.12424437320E+03  0.10365172474E+04  0.10753089626E+04  0.12500000000E+03 0.  0.
         25    1    1    2    0    0  0.31072060027E+03  0.22907958000E+02  0.81889810834E+03  0.88503738781E+03  0.12500000000E+03 0.  0.
</event>
<event>
 5    0  0.5626800E-005  0.5914979E+03  0.7546771E-02  0.9923204E-01
         21   -1    0    0  502  501  0.00000000000E+00  0.00000000000E+00  0.62938847026E+03  0.62938847026E+03  0.00000000000E+00 0.  1.
         21   -1    0    0  501  502 -0.00000000000E+00 -0.00000000000E+00 -0.55588837257E+03  0.55588837257E+03  0.00000000000E+00 0.  1.
         25    1    1    2    0    0 -0.18543391401E+03  0.40142759029E+02  0.21474441887E+03  0.31262972187E+03  0.12500000000E+03 0.  0.
         25    1    1    2    0    0 -0.17762616353E+03 -0.14654314596E+03  0.21441060006E+03  0.33855996960E+03  0.12500000000E+03 0.  0.
         25    1    1    2    0    0  0.36306007754E+03  0.10640038693E+03 -0.35565492123E+03  0.53408715135E+03  0.12500000000E+03 0.  0.
</event>
<event>
 5    0  0.5626800E-005  0.2627170E+03  0.7546771E-02  0.1105522E+00
         21   -1    0    0  502  501  0.00000000000E+00  0.00000000000E+00  0.10499234736E+03  0.10499234736E+03  0.00000000000E+00 0.  1.
         21   -1    0    0  501  502 -0.00000000000E+00 -0.00000000000E+00 -0.65738335080E+03  0.65738335080E+03  0.00000000000E+00 0.  1.
         25    1    1    2    0    0 -0.39194672716E+00 -0.94879507673E+02 -0.19758634475E+03  0.25232447014E+03  0.12500000000E+03 0.  0.
         25    1    1    2    0    0 -0.76469058179E+01  0.94256403994E+02 -0.26895104390E+02  0.15903173112E+03  0.12500000000E+03 0.  0.
         25    1    1    2    0    0  0.80388525451E+01  0.62310367984E+00 -0.32790955430E+03  0.35101949691E+03  0.12500000000E+03 0.  0.
</event>
<event>
 5    0  0.5626800E-005  0.3627674E+03  0.7546771E-02  0.1057493E+00
         21   -1    0    0  502  501  0.00000000000E+00  0.00000000000E+00  0.26948557101E+03  0.26948557101E+03  0.00000000000E+00 0. -1.
         21   -1    0    0  501  502 -0.00000000000E+00 -0.00000000000E+00 -0.48833856852E+03  0.48833856852E+03  0.00000000000E+00 0. -1.
         25    1    1    2    0    0  0.18521460662E+03 -0.36989227185E+02  0.42205532659E+02  0.23038871591E+03  0.12500000000E+03 0.  0.
         25    1    1    2    0    0 -0.18867711636E+03 -0.15955437706E+02 -0.30906457677E+03  0.38340519407E+03  0.12500000000E+03 0.  0.
         25    1    1    2    0    0  0.34625097390E+01  0.52944664891E+02  0.48006046601E+02  0.14403022955E+03  0.12500000000E+03 0.  0.
</event>
<event>
 5    0  0.5626800E-005  0.2752380E+03  0.7546771E-02  0.1098319E+00
         21   -1    0    0  502  501  0.00000000000E+00  0.00000000000E+00  0.35073772859E+03  0.35073772859E+03  0.00000000000E+00 0.  1.
         21   -1    0    0  501  502 -0.00000000000E+00 -0.00000000000E+00 -0.21599037268E+03  0.21599037268E+03  0.00000000000E+00 0.  1.
         25    1    1    2    0    0 -0.23774723394E+01 -0.33699329676E+02  0.12627512516E+02  0.13009900564E+03  0.12500000000E+03 0.  0.
         25    1    1    2    0    0 -0.10373470571E+02  0.17496502136E+03  0.72366958728E+01  0.21540134019E+03  0.12500000000E+03 0.  0.
         25    1    1    2    0    0  0.12750942911E+02 -0.14126569168E+03  0.11488314753E+03  0.22122775544E+03  0.12500000000E+03 0.  0.
</event>
<event>
 5    0  0.5626800E-005  0.2884637E+03  0.7546771E-02  0.1091154E+00
         21   -1    0    0  502  501  0.00000000000E+00  0.00000000000E+00  0.82664559287E+02  0.82664559287E+02  0.00000000000E+00 0. -1.
         21   -1    0    0  501  502 -0.00000000000E+00 -0.00000000000E+00 -0.10066137101E+04  0.10066137101E+04  0.00000000000E+00 0. -1.
         25    1    1    2    0    0 -0.27270100730E+02  0.71115562617E+02 -0.18152458245E+03  0.23318931295E+03  0.12500000000E+03 0.  0.
         25    1    1    2    0    0 -0.21615959005E+02 -0.62862952150E+02 -0.70132959408E+03  0.71547690387E+03  0.12500000000E+03 0.  0.
         25    1    1    2    0    0  0.48886059735E+02 -0.82526104675E+01 -0.41094974282E+02  0.14061205257E+03  0.12500000000E+03 0.  0.
</event>
<event>
 5    0  0.5626800E-005  0.3334792E+03  0.7546771E-02  0.1069608E+00
         21   -1    0    0  502  501  0.00000000000E+00  0.00000000000E+00  0.32023650489E+03  0.32023650489E+03  0.00000000000E+00 0. -1.
         21   -1    0    0  501  502 -0.00000000000E+00 -0.00000000000E+00 -0.34726961153E+03  0.34726961153E+03  0.00000000000E+00 0. -1.
         25    1    1    2    0    0 -0.16789750445E+03  0.82914337250E+02 -0.15473408378E+03  0.27318857224E+03  0.12500000000E+03 0.  0.
         25    1    1    2    0    0  0.19566081606E+02  0.34154551016E+02 -0.60984438794E+01  0.13119281963E+03  0.12500000000E+03 0.  0.
         25    1    1    2    0    0  0.14833142284E+03 -0.11706888827E+03  0.13379942101E+03  0.26312472454E+03  0.12500000000E+03 0.  0.
</event>
<event>
 5    0  0.5626800E-005  0.2302294E+03  0.7546771E-02  0.1126478E+00
         21   -1    0    0  502  501  0.00000000000E+00  0.00000000000E+00  0.48915865195E+03  0.48915865195E+03  0.00000000000E+00 0.  1.
         21   -1    0    0  501  502 -0.00000000000E+00 -0.00000000000E+00 -0.10836074304E+03  0.10836074304E+03  0.00000000000E+00 0.  1.
         25    1    1    2    0    0 -0.80584135513E+01 -0.44448467121E+01  0.98964650667E+02  0.15969876885E+03  0.12500000000E+03 0.  0.
         25    1    1    2    0    0 -0.61062996968E+02 -0.87191938371E+02  0.15678884018E+03  0.22702172610E+03  0.12500000000E+03 0.  0.
         25    1    1    2    0    0  0.69121410519E+02  0.91636785083E+02  0.12504441806E+03  0.21079890004E+03  0.12500000000E+03 0.  0.
</event>
<event>
 5    0  0.5626800E-005  0.3914985E+03  0.7546771E-02  0.1046764E+00
         21   -1    0    0  502  501  0.00000000000E+00  0.00000000000E+00  0.34237037284E+03  0.34237037284E+03  0.00000000000E+00 0. -1.
         21   -1    0    0  501  502 -0.00000000000E+00 -0.00000000000E+00 -0.44767625091E+03  0.44767625091E+03  0.00000000000E+00 0. -1.
         25    1    1    2    0    0  0.25533188074E+03 -0.21646979180E+03 -0.98210852632E+02  0.37057241082E+03  0.12500000000E+03 0.  0.
         25    1    1    2    0    0 -0.14796191622E+03  0.12738065128E+03  0.34733081352E+01  0.23185258860E+03  0.12500000000E+03 0.  0.
         25    1    1    2    0    0 -0.10736996452E+03  0.89089140520E+02 -0.10568333581E+02  0.18762162433E+03  0.12500000000E+03 0.  0.
</event>
<event>
 5    0  0.5626800E-005  0.3585357E+03  0.7546771E-02  0.1059165E+00
         21   -1    0    0  502  501  0.00000000000E+00  0.00000000000E+00  0.38696489571E+03  0.38696489571E+03  0.00000000000E+00 0.  1.
         21   -1    0    0  501  502 -0.00000000000E+00 -0.00000000000E+00 -0.33219516509E+03  0.33219516509E+03  0.00000000000E+00 0.  1.
         25    1    1    2    0    0 -0.20917583499E+02 -0.54313946505E+02  0.31296135239E+01  0.13792151596E+03  0.12500000000E+03 0.  0.
         25    1    1    2    0    0 -0.16407976657E+03 -0.76922238684E+02  0.18715080165E+03  0.28894570971E+03  0.12500000000E+03 0.  0.
         25    1    1    2    0    0  0.18499735007E+03  0.13123618519E+03 -0.13551068456E+03  0.29229283513E+03  0.12500000000E+03 0.  0.
</event>
<event>
 5    0  0.5626800E-005  0.3119887E+03  0.7546771E-02  0.1079397E+00
         21   -1    0    0  502  501  0.00000000000E+00  0.00000000000E+00  0.10133940419E+03  0.10133940419E+03  0.00000000000E+00 0. -1.
         21   -1    0    0  501  502 -0.00000000000E+00 -0.00000000000E+00 -0.96050432642E+03  0.96050432642E+03  0.00000000000E+00 0. -1.
         25    1    1    2    0    0  0.13143409774E+03 -0.67915152857E+01 -0.11459427145E+03  0.21465761989E+03  0.12500000000E+03 0.  0.
         25    1    1    2    0    0 -0.12538454705E+03 -0.12819571349E+03 -0.36774201947E+03  0.42780207863E+03  0.12500000000E+03 0.  0.
         25    1    1    2    0    0 -0.60495506887E+01  0.13498722878E+03 -0.37682863131E+03  0.41938403209E+03  0.12500000000E+03 0.  0.
</event>
<event>
 5    0  0.5626800E-005  0.3948275E+03  0.7546771E-02  0.1045586E+00
         21   -1    0    0  502  501  0.00000000000E+00  0.00000000000E+00  0.76281635912E+02  0.76281635912E+02  0.00000000000E+00 0. -1.
         21   -1    0    0  501  502 -0.00000000000E+00 -0.00000000000E+00 -0.20435944000E+04  0.20435944000E+04  0.00000000000E+00 0.  1.
         25    1    1    2    0    0 -0.18546602333E+03 -0.99525194371E+01 -0.93836749178E+03  0.96470474658E+03  0.12500000000E+03 0.  0.
         25    1    1    2    0    0  0.24047818751E+03  0.15111623772E+03 -0.76989719849E+03  0.83007985893E+03  0.12500000000E+03 0.  0.
         25    1    1    2    0    0 -0.55012164178E+02 -0.14116371828E+03 -0.25904807381E+03  0.32509143039E+03  0.12500000000E+03 0.  0.
</event>
<event>
 5    0  0.5626800E-005  0.2830015E+03  0.7546771E-02  0.1094061E+00
         21   -1    0    0  502  501  0.00000000000E+00  0.00000000000E+00  0.44632341950E+03  0.44632341950E+03  0.00000000000E+00 0. -1.
         21   -1    0    0  501  502 -0.00000000000E+00 -0.00000000000E+00 -0.17944359044E+03  0.17944359044E+03  0.00000000000E+00 0. -1.
         25    1    1    2    0    0  0.65667707615E+02 -0.17699775505E+02  0.95624056027E+02  0.17144821366E+03  0.12500000000E+03 0.  0.
         25    1    1    2    0    0  0.13423856909E+03  0.21600004722E+02  0.66585555022E+02  0.19632928914E+03  0.12500000000E+03 0.  0.
         25    1    1    2    0    0 -0.19990627671E+03 -0.39002292173E+01  0.10467021801E+03  0.25798950714E+03  0.12500000000E+03 0.  0.
</event>
<event>
 5    0  0.5626800E-005  0.4316824E+03  0.7546771E-02  0.1033330E+00
         21   -1    0    0  502  501  0.00000000000E+00  0.00000000000E+00  0.16523907241E+04  0.16523907241E+04  0.00000000000E+00 0.  1.
         21   -1    0    0  501  502 -0.00000000000E+00 -0.00000000000E+00 -0.11277579571E+03  0.11277579571E+03  0.00000000000E+00 0.  1.
         25    1    1    2    0    0 -0.10227976480E+03 -0.54322255677E+02  0.44721989386E+02  0.17617353401E+03  0.12500000000E+03 0.  0.
         25    1    1    2    0    0  0.22025297326E+03 -0.16275846017E+02  0.12799605291E+04  0.13048755616E+04  0.12500000000E+03 0.  0.
         25    1    1    2    0    0 -0.11797320846E+03  0.70598101694E+02  0.21493240994E+03  0.28411742418E+03  0.12500000000E+03 0.  0.
</event>
<event>
 5    0  0.5626800E-005  0.4869812E+03  0.7546771E-02  0.1017234E+00
         21   -1    0    0  502  501  0.00000000000E+00  0.00000000000E+00  0.15543579886E+03  0.15543579886E+03  0.00000000000E+00 0.  1.
         21   -1    0    0  501  502 -0.00000000000E+00 -0.00000000000E+00 -0.15257147983E+04  0.15257147983E+04  0.00000000000E+00 0.  1.
         25    1    1    2    0    0  0.99679154513E+02  0.82149294030E+02 -0.60829932493E+03  0.63430080330E+03  0.12500000000E+03 0.  0.
         25    1    1    2    0    0 -0.24195980012E+03  0.21544992467E+03 -0.49404984471E+03  0.60388199507E+03  0.12500000000E+03 0.  0.
         25    1    1    2    0    0  0.14228064561E+03 -0.29759921870E+03 -0.26792982984E+03  0.44296779883E+03  0.12500000000E+03 0.  0.
</event>
<event>
 5    0  0.5626800E-005  0.2468901E+03  0.7546771E-02  0.1115286E+00
         21   -1    0    0  502  501  0.00000000000E+00  0.00000000000E+00  0.39119123202E+03  0.39119123202E+03  0.00000000000E+00 0. -1.
         21   -1    0    0  501  502 -0.00000000000E+00 -0.00000000000E+00 -0.15581824300E+03  0.15581824300E+03  0.00000000000E+00 0. -1.
         25    1    1    2    0    0  0.99584916708E+02  0.42753132309E+02  0.11870120243E+02  0.16586405793E+03  0.12500000000E+03 0.  0.
         25    1    1    2    0    0  0.17184282747E+02 -0.36450348423E+01  0.54390361365E+02  0.13744779832E+03  0.12500000000E+03 0.  0.
         25    1    1    2    0    0 -0.11676919946E+03 -0.39108097467E+02  0.16911250741E+03  0.24369761877E+03  0.12500000000E+03 0.  0.
</event>
<event>
 5    0  0.5626800E-005  0.4419114E+03  0.7546771E-02  0.1030162E+00
         21   -1    0    0  502  501  0.00000000000E+00  0.00000000000E+00  0.24904131872E+04  0.24904131872E+04  0.00000000000E+00 0.  1.
         21   -1    0    0  501  502 -0.00000000000E+00 -0.00000000000E+00 -0.78414982641E+02  0.78414982641E+02  0.00000000000E+00 0.  1.
         25    1    1    2    0    0  0.23925142316E+02 -0.18393141433E+03  0.33912857487E+03  0.40624668356E+03  0.12500000000E+03 0.  0.
         25    1    1    2    0    0 -0.24407211305E+03 -0.41099011974E+02  0.89352933175E+03  0.93556399666E+03  0.12500000000E+03 0.  0.
         25    1    1    2    0    0  0.22014697073E+03  0.22503042630E+03  0.11793402980E+04  0.12270174897E+04  0.12500000000E+03 0.  0.
</event>
<event>
 5    0  0.5626800E-005  0.2692128E+03  0.7546771E-02  0.1101731E+00
         21   -1    0    0  502  501  0.00000000000E+00  0.00000000000E+00  0.34655859432E+03  0.34655859432E+03  0.00000000000E+00 0.  1.
         21   -1    0    0  501  502 -0.00000000000E+00 -0.00000000000E+00 -0.20912928676E+03  0.20912928676E+03  0.00000000000E+00 0.  1.
         25    1    1    2    0    0  0.21351369541E+02 -0.10803286138E+03 -0.17335132785E+01  0.16659827487E+03  0.12500000000E+03 0.  0.
         25    1    1    2    0    0  0.50460734123E+02  0.15718145682E+03  0.51580224003E+02  0.21339591272E+03  0.12500000000E+03 0.  0.
         25    1    1    2    0    0 -0.71812103664E+02 -0.49148595440E+02  0.87582596833E+02  0.17569369350E+03  0.12500000000E+03 0.  0.
</event>
<event>
 5    0  0.5626800E-005  0.2910234E+03  0.7546771E-02  0.1089816E+00
         21   -1    0    0  502  501  0.00000000000E+00  0.00000000000E+00  0.40042044439E+02  0.40042044439E+02  0.00000000000E+00 0. -1.
         21   -1    0    0  501  502 -0.00000000000E+00 -0.00000000000E+00 -0.21151428921E+04  0.21151428921E+04  0.00000000000E+00 0. -1.
         25    1    1    2    0    0 -0.44000918700E+02 -0.13571735781E+03 -0.78153468981E+03  0.80422431786E+03  0.12500000000E+03 0.  0.
         25    1    1    2    0    0 -0.60335310398E+02 -0.35746228959E+02 -0.64231529185E+03  0.65811251068E+03  0.12500000000E+03 0.  0.
         25    1    1    2    0    0  0.10433622910E+03  0.17146358677E+03 -0.65125086596E+03  0.69284810796E+03  0.12500000000E+03 0.  0.
</event>
<event>
 5    0  0.5626800E-005  0.7739490E+03  0.7546771E-02  0.9598510E-01
         21   -1    0    0  502  501  0.00000000000E+00  0.00000000000E+00  0.67934848036E+03  0.67934848036E+03  0.00000000000E+00 0.  1.
         21   -1    0    0  501  502 -0.00000000000E+00 -0.00000000000E+00 -0.88172285480E+03  0.88172285480E+03  0.00000000000E+00 0.  1.
         25    1    1    2    0    0  0.24420810261E+03 -0.31163376760E+02  0.32995317837E+03  0.43023581133E+03  0.12500000000E+03 0.  0.
         25    1    1    2    0    0 -0.58834809923E+03 -0.91034933427E+02 -0.37063172143E+03  0.71234382000E+03  0.12500000000E+03 0.  0.
         25    1    1    2    0    0  0.34413999662E+03  0.12219831019E+03 -0.16169583138E+03  0.41849170383E+03  0.12500000000E+03 0.  0.
</event>
<event>
 5    0  0.5626800E-005  0.3143874E+03  0.7546771E-02  0.1078262E+00
         21   -1    0    0  502  501  0.00000000000E+00  0.00000000000E+00  0.13428728408E+03  0.13428728408E+03  0.00000000000E+00 0. -1.
         21   -1    0    0  501  502 -0.00000000000E+00 -0.00000000000E+00 -0.73602987538E+03  0.73602987538E+03  0.00000000000E+00 0. -1.
         25    1    1    2    0    0 -0.18442451219E+03 -0.55999275735E+02 -0.20852423353E+03  0.31025098799E+03  0.12500000000E+03 0.  0.
         25    1    1    2    0    0  0.70094123046E+02  0.38159947757E+02 -0.19785291287E+02  0.14961893413E+03  0.12500000000E+03 0.  0.
         25    1    1    2    0    0  0.11433038915E+03  0.17839327978E+02 -0.37343306648E+03  0.41044723735E+03  0.12500000000E+03 0.  0.
</event>
<event>
 5    0  0.5626800E-005  0.3082628E+03  0.7546771E-02  0.1081182E+00
         21   -1    0    0  502  501  0.00000000000E+00  0.00000000000E+00  0.72348205984E+03  0.72348205984E+03  0.00000000000E+00 0. -1.
         21   -1    0    0  501  502 -0.00000000000E+00 -0.00000000000E+00 -0.13134527572E+03  0.13134527572E+03  0.00000000000E+00 0. -1.
         25    1    1    2    0    0 -0.86102160127E+02 -0.30340964806E+02  0.55405931638E+03  0.57527461459E+03  0.12500000000E+03 0.  0.
         25    1    1    2    0    0  0.15937963663E+02 -0.14269367658E+02  0.16778950149E+02  0.12792250274E+03  0.12500000000E+03 0.  0.
         25    1    1    2    0    0  0.70164196465E+02  0.44610332464E+02  0.21298517582E+02  0.15163021823E+03  0.12500000000E+03 0.  0.
</event>
<event>
 5    0  0.5626800E-005  0.2843421E+03  0.7546771E-02  0.1093341E+00
         21   -1    0    0  502  501  0.00000000000E+00  0.00000000000E+00  0.32837949769E+03  0.32837949769E+03  0.00000000000E+00 0.  1.
         21   -1    0    0  501  502 -0.00000000000E+00 -0.00000000000E+00 -0.24621042902E+03  0.24621042902E+03  0.00000000000E+00 0.  1.
         25    1    1    2    0    0  0.13296384452E+03  0.65787509337E+02  0.75438511002E+02  0.20814261764E+03  0.12500000000E+03 0.  0.
         25    1    1    2    0    0 -0.16309040333E+03 -0.36750458565E+02  0.70085438264E+02  0.22019546889E+03  0.12500000000E+03 0.  0.
         25    1    1    2    0    0  0.30126558802E+02 -0.29037050773E+02 -0.63354880596E+02  0.14625184019E+03  0.12500000000E+03 0.  0.
</event>
<event>
 5    0  0.5753740E-005  0.3473254E+03  0.7546771E-02  0.1063718E+00
         21   -1    0    0  502  501  0.00000000000E+00  0.00000000000E+00  0.19607975844E+03  0.19607975844E+03  0.00000000000E+00 0. -1.
         21   -1    0    0  501  502 -0.00000000000E+00 -0.00000000000E+00 -0.61523416696E+03  0.61523416696E+03  0.00000000000E+00 0. -1.
         25    1    1    2    0    0 -0.15303388760E+03  0.95213263983E+02 -0.12599903027E+03  0.25295393261E+03  0.12500000000E+03 0.  0.
         25    1    1    2    0    0  0.55663204510E+02  0.12621901941E+03 -0.48654931787E+02  0.19241085101E+03  0.12500000000E+03 0.  0.
         25    1    1    2    0    0  0.97370683093E+02 -0.22143228340E+03 -0.24450044646E+03  0.36594914179E+03  0.12500000000E+03 0.  0.
</event>
<event>
 5    0  0.5626800E-005  0.2731258E+03  0.7546771E-02  0.1099504E+00
         21   -1    0    0  502  501  0.00000000000E+00  0.00000000000E+00  0.11420644216E+04  0.11420644216E+04  0.00000000000E+00 0. -1.
         21   -1    0    0  501  502 -0.00000000000E+00 -0.00000000000E+00 -0.65318294506E+02  0.65318294506E+02  0.00000000000E+00 0. -1.
         25    1    1    2    0    0  0.50568315492E+02  0.12173008085E+03  0.31836055163E+03  0.36654305061E+03  0.12500000000E+03 0.  0.
         25    1    1    2    0    0 -0.63413218675E+02 -0.14368144439E+03  0.27224818902E+03  0.33824498546E+03  0.12500000000E+03 0.  0.
         25    1    1    2    0    0  0.12844903183E+02  0.21951363543E+02  0.48613738640E+03  0.50259468000E+03  0.12500000000E+03 0.  0.
</event>
<event>
 5    0  0.5626800E-005  0.4634791E+03  0.7546771E-02  0.1023777E+00
         21   -1    0    0  502  501  0.00000000000E+00  0.00000000000E+00  0.60771066149E+03  0.60771066149E+03  0.00000000000E+00 0. -1.
         21   -1    0    0  501  502 -0.00000000000E+00 -0.00000000000E+00 -0.35347886293E+03  0.35347886293E+03  0.00000000000E+00 0. -1.
         25    1    1    2    0    0 -0.11214340940E+03  0.27834961438E+02  0.45965756783E+03  0.49016426738E+03  0.12500000000E+03 0.  0.
         25    1    1    2    0    0 -0.10548453883E+03 -0.46813259151E+01 -0.12680181526E+03  0.20700870295E+03  0.12500000000E+03 0.  0.
         25    1    1    2    0    0  0.21762794822E+03 -0.23153635522E+02 -0.78623954013E+02  0.26401655408E+03  0.12500000000E+03 0.  0.
</event>
<event>
 5    0  0.6502921E-005  0.2453930E+03  0.7546771E-02  0.1116251E+00
         21   -1    0    0  502  501  0.00000000000E+00  0.00000000000E+00  0.46432200590E+03  0.46432200590E+03  0.00000000000E+00 0. -1.
         21   -1    0    0  501  502 -0.00000000000E+00 -0.00000000000E+00 -0.12968961070E+03  0.12968961070E+03  0.00000000000E+00 0. -1.
         25    1    1    2    0    0  0.44562068499E+02  0.58636185304E+02  0.19863350608E+03  0.24597611655E+03  0.12500000000E+03 0.  0.
         25    1    1    2    0    0 -0.11613968009E+02 -0.12093959257E+03  0.52689745729E+02  0.18210567978E+03  0.12500000000E+03 0.  0.
         25    1    1    2    0    0 -0.32948100489E+02  0.62303407269E+02  0.83309143392E+02  0.16592982027E+03  0.12500000000E+03 0.  0.
</event>
<event>
 5    0  0.5626800E-005  0.4308509E+03  0.7546771E-02  0.1033592E+00
         21   -1    0    0  502  501  0.00000000000E+00  0.00000000000E+00  0.10859454352E+04  0.10859454352E+04  0.00000000000E+00 0. -1.
         21   -1    0    0  501  502 -0.00000000000E+00 -0.00000000000E+00 -0.17094090682E+03  0.17094090682E+03  0.00000000000E+00 0. -1.
         25    1    1    2    0    0 -0.16315678162E+03 -0.13972265876E+02  0.67044592297E+03  0.70138298755E+03  0.12500000000E+03 0.  0.
         25    1    1    2    0    0 -0.14709562900E+01  0.14115234214E+03 -0.27925176063E+02  0.19060682795E+03  0.12500000000E+03 0.  0.
         25    1    1    2    0    0  0.16462773791E+03 -0.12718007626E+03  0.27248378144E+03  0.36489652648E+03  0.12500000000E+03 0.  0.
</event>
<event>
 5    0  0.5626800E-005  0.3076718E+03  0.7546771E-02  0.1081467E+00
         21   -1    0    0  502  501  0.00000000000E+00  0.00000000000E+00  0.18034231371E+03  0.18034231371E+03  0.00000000000E+00 0.  1.
         21   -1    0    0  501  502 -0.00000000000E+00 -0.00000000000E+00 -0.52490144398E+03  0.52490144398E+03  0.00000000000E+00 0.  1.
         25    1    1    2    0    0 -0.23230966624E+02 -0.17639682973E+02  0.25316172642E+02  0.13083097807E+03  0.12500000000E+03 0.  0.
         25    1    1    2    0    0  0.90250467153E+02  0.12092823504E+03 -0.38843031925E+02  0.19975626644E+03  0.12500000000E+03 0.  0.
         25    1    1    2    0    0 -0.67019500529E+02 -0.10328855207E+03 -0.33103227098E+03  0.37465651319E+03  0.12500000000E+03 0.  0.
</event>
<event>
 5    0  0.7231676E-005  0.2861009E+03  0.7546771E-02  0.1092403E+00
         21   -1    0    0  502  501  0.00000000000E+00  0.00000000000E+00  0.16875327926E+03  0.16875327926E+03  0.00000000000E+00 0. -1.
         21   -1    0    0  501  502 -0.00000000000E+00 -0.00000000000E+00 -0.48504951682E+03  0.48504951682E+03  0.00000000000E+00 0. -1.
         25    1    1    2    0    0 -0.31375334502E+02 -0.93472242352E+02 -0.99222885472E+01  0.15951464985E+03  0.12500000000E+03 0.  0.
         25    1    1    2    0    0  0.57279108873E+02  0.45691777521E+02 -0.32583804741E+03  0.35660071227E+03  0.12500000000E+03 0.  0.
         25    1    1    2    0    0 -0.25903774371E+02  0.47780464831E+02  0.19464098396E+02  0.13768743397E+03  0.12500000000E+03 0.  0.
</event>
<event>
 5    0  0.5626800E-005  0.5840715E+03  0.7546771E-02  0.9939015E-01
         21   -1    0    0  502  501  0.00000000000E+00  0.00000000000E+00  0.57169303524E+03  0.57169303524E+03  0.00000000000E+00 0.  1.
         21   -1    0    0  501  502 -0.00000000000E+00 -0.00000000000E+00 -0.59671805263E+03  0.59671805263E+03  0.00000000000E+00 0.  1.
         25    1    1    2    0    0 -0.36227451142E+03  0.70928662105E+02 -0.22065444961E+03  0.44786949311E+03  0.12500000000E+03 0.  0.
         25    1    1    2    0    0  0.31764156953E+02  0.13091069566E+03 -0.10768577393E+03  0.21299717795E+03  0.12500000000E+03 0.  0.
         25    1    1    2    0    0  0.33051035446E+03 -0.20183935777E+03  0.30331520615E+03  0.50754441681E+03  0.12500000000E+03 0.  0.
</event>
<event>
 5    0  0.5626800E-005  0.3068082E+03  0.7546771E-02  0.1081886E+00
         21   -1    0    0  502  501  0.00000000000E+00  0.00000000000E+00  0.19303052639E+03  0.19303052639E+03  0.00000000000E+00 0.  1.
         21   -1    0    0  501  502 -0.00000000000E+00 -0.00000000000E+00 -0.48764972463E+03  0.48764972463E+03  0.00000000000E+00 0.  1.
         25    1    1    2    0    0 -0.11429708889E+03 -0.91177273921E+02 -0.31911818693E+03  0.37261043603E+03  0.12500000000E+03 0.  0.
         25    1    1    2    0    0  0.72892292331E+02  0.65063398569E+02 -0.32965964525E+02  0.16204408947E+03  0.12500000000E+03 0.  0.
         25    1    1    2    0    0  0.41404796563E+02  0.26113875353E+02  0.57464953213E+02  0.14602572552E+03  0.12500000000E+03 0.  0.
</event>
<event>
 5    0  0.5626800E-005  0.2898906E+03  0.7546771E-02  0.1090406E+00
         21   -1    0    0  502  501  0.00000000000E+00  0.00000000000E+00  0.70761136119E+03  0.70761136119E+03  0.00000000000E+00 0.  1.
         21   -1    0    0  501  502 -0.00000000000E+00 -0.00000000000E+00 -0.11876091977E+03  0.11876091977E+03  0.00000000000E+00 0.  1.
         25    1    1    2    0    0  0.59993206483E+01 -0.10744323378E+03  0.37066070496E+03  0.40570235214E+03  0.12500000000E+03 0.  0.
         25    1    1    2    0    0 -0.21589980040E+01  0.19639631182E+02  0.23503495309E+03  0.26693970397E+03  0.12500000000E+03 0.  0.
         25    1    1    2    0    0 -0.38403226443E+01  0.87803602599E+02 -0.16845216617E+02  0.15373022484E+03  0.12500000000E+03 0.  0.
</event>
<event>
 5    0  0.5626800E-005  0.2293269E+03  0.7546771E-02  0.1127114E+00
         21   -1    0    0  502  501  0.00000000000E+00  0.00000000000E+00  0.26384747244E+02  0.26384747244E+02  0.00000000000E+00 0.  1.
         21   -1    0    0  501  502 -0.00000000000E+00 -0.00000000000E+00 -0.19932291260E+04  0.19932291260E+04  0.00000000000E+00 0.  1.
         25    1    1    2    0    0  0.32169159914E+01  0.53855725904E+01 -0.59171673889E+03  0.60480827708E+03  0.12500000000E+03 0.  0.
         25    1    1    2    0    0 -0.10390699494E+03  0.16931031073E+02 -0.83704313119E+03  0.85284789200E+03  0.12500000000E+03 0.  0.
         25    1    1    2    0    0  0.10069007895E+03 -0.22316603663E+02 -0.53808450870E+03  0.56195770419E+03  0.12500000000E+03 0.  0.
</event>
<event>
 5    0  0.5626800E-005  0.2490142E+03  0.7546771E-02  0.1113929E+00
         21   -1    0    0  502  501  0.00000000000E+00  0.00000000000E+00  0.71269796687E+02  0.71269796687E+02  0.00000000000E+00 0.  1.
         21   -1    0    0  501  502 -0.00000000000E+00 -0.00000000000E+00 -0.87004672044E+03  0.87004672044E+03  0.00000000000E+00 0.  1.
         25    1    1    2    0    0 -0.34590380156E+02 -0.12126392417E+03 -0.36600754307E+03  0.40680210826E+03  0.12500000000E+03 0.  0.
         25    1    1    2    0    0  0.28887262417E+02 -0.62874915037E+01 -0.23622923511E+03  0.26889265144E+03  0.12500000000E+03 0.  0.
         25    1    1    2    0    0  0.57031177383E+01  0.12755141567E+03 -0.19654014557E+03  0.26562175742E+03  0.12500000000E+03 0.  0.
</event>
<event>
 5    0  0.5626800E-005  0.2710943E+03  0.7546771E-02  0.1100655E+00
         21   -1    0    0  502  501  0.00000000000E+00  0.00000000000E+00  0.59135478773E+03  0.59135478773E+03  0.00000000000E+00 0. -1.
         21   -1    0    0  501  502 -0.00000000000E+00 -0.00000000000E+00 -0.12427754537E+03  0.12427754537E+03  0.00000000000E+00 0. -1.
         25    1    1    2    0    0 -0.36344341886E+01 -0.76091081092E+01  0.57070801605E+02  0.13767056343E+03  0.12500000000E+03 0.  0.
         25    1    1    2    0    0  0.15502988558E+03  0.46926152776E+02  0.23929371909E+03  0.31483775700E+03  0.12500000000E+03 0.  0.
         25    1    1    2    0    0 -0.15139545139E+03 -0.39317044667E+02  0.17071272167E+03  0.26312401267E+03  0.12500000000E+03 0.  0.
</event>
<event>
 5    0  0.5626800E-005  0.2724415E+03  0.7546771E-02  0.1099890E+00
         21   -1    0    0  502  501  0.00000000000E+00  0.00000000000E+00  0.52483619895E+03  0.52483619895E+03  0.00000000000E+00 0. -1.
         21   -1    0    0  501  502 -0.00000000000E+00 -0.00000000000E+00 -0.14142383883E+03  0.14142383883E+03  0.00000000000E+00 0. -1.
         25    1    1    2    0    0 -0.13353368175E+03  0.67393028126E+02  0.15157403411E+03  0.24692661302E+03  0.12500000000E+03 0.  0.
         25    1    1    2    0    0  0.12390757118E+03 -0.89646954429E+02  0.21321919986E+03  0.29064942770E+03  0.12500000000E+03 0.  0.
         25    1    1    2    0    0  0.96261105754E+01  0.22253926303E+02  0.18619126151E+02  0.12868399706E+03  0.12500000000E+03 0.  0.
</event>
<event>
 5    0  0.5626800E-005  0.3550159E+03  0.7546771E-02  0.1060575E+00
         21   -1    0    0  502  501  0.00000000000E+00  0.00000000000E+00  0.19410560330E+04  0.19410560330E+04  0.00000000000E+00 0.  1.
         21   -1    0    0  501  502 -0.00000000000E+00 -0.00000000000E+00 -0.64931822536E+02  0.64931822536E+02  0.00000000000E+00 0.  1.
         25    1    1    2    0    0 -0.73902876413E+01 -0.86666841358E+01  0.36692221426E+02  0.13077097108E+03  0.12500000000E+03 0.  0.
         25    1    1    2    0    0 -0.45041420697E+02  0.96719664021E+02  0.13457282861E+04  0.13557260206E+04  0.12500000000E+03 0.  0.
         25    1    1    2    0    0  0.52431708338E+02 -0.88052979885E+02  0.49370370295E+03  0.51949086384E+03  0.12500000000E+03 0.  0.
</event>
<event>
 5    0  0.5626800E-005  0.3355509E+03  0.7546771E-02  0.1068707E+00
         21   -1    0    0  502  501  0.00000000000E+00  0.00000000000E+00  0.22703001066E+03  0.22703001066E+03  0.00000000000E+00 0. -1.
         21   -1    0    0  501  502 -0.00000000000E+00 -0.00000000000E+00 -0.49594507560E+03  0.49594507560E+03  0.00000000000E+00 0. -1.
         25    1    1    2    0    0  0.56785126482E+02  0.18800332087E+03 -0.25810962915E+03  0.34758506859E+03  0.12500000000E+03 0.  0.
         25    1    1    2    0    0  0.68416370832E+02 -0.55972823614E+02 -0.20268006795E+02  0.15443299155E+03  0.12500000000E+03 0.  0.
         25    1    1    2    0    0 -0.12520149731E+03 -0.13203049726E+03  0.94625709998E+01  0.22095702611E+03  0.12500000000E+03 0.  0.
</event>
<event>
 5    0  0.5626800E-005  0.3889889E+03  0.7546771E-02  0.1047661E+00
         21   -1    0    0  502  501  0.00000000000E+00  0.00000000000E+00  0.21654692164E+04  0.21654692164E+04  0.00000000000E+00 0.  1.
         21   -1    0    0  501  502 -0.00000000000E+00 -0.00000000000E+00 -0.69875087325E+02  0.69875087325E+02  0.00000000000E+00 0.  1.
         25    1    1    2    0    0 -0.11278416024E+03  0.26045260555E+03  0.59412753603E+03  0.67020023546E+03  0.12500000000E+03 0.  0.
         25    1    1    2    0    0 -0.51390741500E+02 -0.12869521807E+03  0.48648089452E+03  0.52104906506E+03  0.12500000000E+03 0.  0.
         25    1    1    2    0    0  0.16417490174E+03 -0.13175738748E+03  0.10149856985E+04  0.10440950032E+04  0.12500000000E+03 0.  0.
</event>
<event>
 5    0  0.5626800E-005  0.3288921E+03  0.7546771E-02  0.1071628E+00
         21   -1    0    0  502  501  0.00000000000E+00  0.00000000000E+00  0.61874225855E+03  0.61874225855E+03  0.00000000000E+00 0. -1.
         21   -1    0    0  501  502 -0.00000000000E+00 -0.00000000000E+00 -0.17482243583E+03  0.17482243583E+03  0.00000000000E+00 0. -1.
         25    1    1    2    0    0  0.11782333291E+03 -0.21864259761E+03  0.22367516641E+03  0.35685081384E+03  0.12500000000E+03 0.  0.
         25    1    1    2    0    0  0.32632951902E+01  0.58436112021E+02  0.57115842058E+02  0.14937418685E+03  0.12500000000E+03 0.  0.
         25    1    1    2    0    0 -0.12108662810E+03  0.16020648559E+03  0.16312881426E+03  0.28733969369E+03  0.12500000000E+03 0.  0.
</event>
<event>
 5    0  0.5626800E-005  0.2753454E+03  0.7546771E-02  0.1098259E+00
         21   -1    0    0  502  501  0.00000000000E+00  0.00000000000E+00  0.11214930641E+03  0.11214930641E+03  0.00000000000E+00 0.  1.
         21   -1    0    0  501  502 -0.00000000000E+00 -0.00000000000E+00 -0.67601919232E+03  0.67601919232E+03  0.00000000000E+00 0.  1.
         25    1    1    2    0    0  0.51226581909E+02  0.69675695261E+02 -0.30576987370E+03  0.34146607572E+03  0.12500000000E+03 0.  0.
         25    1    1    2    0    0  0.39924068854E+01  0.15782856505E+02  0.17668583812E+02  0.12728792844E+03  0.12500000000E+03 0.  0.
         25    1    1    2    0    0 -0.55218988794E+02 -0.85458551766E+02 -0.27576859602E+03  0.31941449457E+03  0.12500000000E+03 0.  0.
</event>
<event>
 5    0  0.5626800E-005  0.2498188E+03  0.7546771E-02  0.1113419E+00
         21   -1    0    0  502  501  0.00000000000E+00  0.00000000000E+00  0.11229360719E+04  0.11229360719E+04  0.00000000000E+00 0.  1.
         21   -1    0    0  501  502 -0.00000000000E+00 -0.00000000000E+00 -0.55576999405E+02  0.55576999405E+02  0.00000000000E+00 0.  1.
         25    1    1    2    0    0 -0.59943773632E+02  0.89617135149E+02  0.26321978367E+03  0.31069943905E+03  0.12500000000E+03 0.  0.
         25    1    1    2    0    0 -0.34383690431E+02 -0.66923484570E+02  0.54494327276E+03  0.56413576511E+03  0.12500000000E+03 0.  0.
         25    1    1    2    0    0  0.94327464063E+02 -0.22693650579E+02  0.25919601612E+03  0.30367786719E+03  0.12500000000E+03 0.  0.
</event>
<event>
 5    0  0.5626800E-005  0.2644234E+03  0.7546771E-02  0.1104514E+00
         21   -1    0    0  502  501  0.00000000000E+00  0.00000000000E+00  0.41347662067E+03  0.41347662067E+03  0.00000000000E+00 0. -1.
         21   -1    0    0  501  502 -0.00000000000E+00 -0.00000000000E+00 -0.16910197420E+03  0.16910197420E+03  0.00000000000E+00 0. -1.
         25    1    1    2    0    0  0.25966987791E+02 -0.10869885234E+03  0.23821202707E+03  0.29130687393E+03  0.12500000000E+03 0.  0.
         25    1    1    2    0    0  0.34107133506E+02  0.37448634479E+02  0.10614714429E+02  0.13528994398E+03  0.12500000000E+03 0.  0.
         25    1    1    2    0    0 -0.60074121296E+02  0.71250217863E+02 -0.44520950296E+01  0.15598177697E+03  0.12500000000E+03 0.  0.
</event>
<event>
 5    0  0.5626800E-005  0.3542879E+03  0.7546771E-02  0.1060869E+00
         21   -1    0    0  502  501  0.00000000000E+00  0.00000000000E+00  0.52418665940E+03  0.52418665940E+03  0.00000000000E+00 0.  1.
         21   -1    0    0  501  502 -0.00000000000E+00 -0.00000000000E+00 -0.23945654987E+03  0.23945654987E+03  0.00000000000E+00 0.  1.
         25    1    1    2    0    0  0.91883377367E+01 -0.97742126879E+02  0.33719757113E+02  0.16248067866E+03  0.12500000000E+03 0.  0.
         25    1    1    2    0    0 -0.64324948541E+02  0.20936761808E+03 -0.45382566107E+02  0.25623636707E+03  0.12500000000E+03 0.  0.
         25    1    1    2    0    0  0.55136610804E+02 -0.11162549120E+03  0.29639291853E+03  0.34492616353E+03  0.12500000000E+03 0.  0.
</event>
<event>
 5    0  0.8269353E-005  0.7197489E+03  0.7546771E-02  0.9684043E-01
         21   -1    0    0  502  501  0.00000000000E+00  0.00000000000E+00  0.75289450006E+03  0.75289450006E+03  0.00000000000E+00 0. -1.
         21   -1    0    0  501  502 -0.00000000000E+00 -0.00000000000E+00 -0.68806244133E+03  0.68806244133E+03  0.00000000000E+00 0. -1.
         25    1    1    2    0    0 -0.89555261216E+02 -0.55802364091E+02 -0.44286477118E+03  0.47211042585E+03  0.12500000000E+03 0.  0.
         25    1    1    2    0    0  0.28508349486E+03 -0.22368472458E+03  0.46567784697E+03  0.60314866510E+03  0.12500000000E+03 0.  0.
         25    1    1    2    0    0 -0.19552823365E+03  0.27948708867E+03  0.42018982930E+02  0.36569785044E+03  0.12500000000E+03 0.  0.
</event>
<event>
 5    0  0.5626800E-005  0.4001674E+03  0.7546771E-02  0.1043722E+00
         21   -1    0    0  502  501  0.00000000000E+00  0.00000000000E+00  0.27801936843E+03  0.27801936843E+03  0.00000000000E+00 0.  1.
         21   -1    0    0  501  502 -0.00000000000E+00 -0.00000000000E+00 -0.57598132386E+03  0.57598132386E+03  0.00000000000E+00 0.  1.
         25    1    1    2    0    0 -0.21712044366E+03 -0.21938777747E+03 -0.57859315615E+02  0.33800145615E+03  0.12500000000E+03 0.  0.
         25    1    1    2    0    0  0.19659744585E+03  0.23028753215E+03 -0.19424775410E+03  0.38084129654E+03  0.12500000000E+03 0.  0.
         25    1    1    2    0    0  0.20522997811E+02 -0.10899754678E+02 -0.45854885716E+02  0.13515793959E+03  0.12500000000E+03 0.  0.
</event>
<event>
 5    0  0.5626800E-005  0.2461608E+03  0.7546771E-02  0.1115755E+00
         21   -1    0    0  502  501  0.00000000000E+00  0.00000000000E+00  0.41526974737E+02  0.41526974737E+02  0.00000000000E+00 0. -1.
         21   -1    0    0  501  502 -0.00000000000E+00 -0.00000000000E+00 -0.14591752084E+04  0.14591752084E+04  0.00000000000E+00 0. -1.
         25    1    1    2    0    0  0.39548649835E+02 -0.17642545944E+02 -0.33505510066E+03  0.36022531229E+03  0.12500000000E+03 0.  0.
         25    1    1    2    0    0 -0.10459488400E+03 -0.22433305665E+02 -0.28112362541E+03  0.32572816231E+03  0.12500000000E+03 0.  0.
         25    1    1    2    0    0  0.65046234166E+02  0.40075851609E+02 -0.80146950758E+03  0.81474870853E+03  0.12500000000E+03 0.  0.
</event>
<event>
 5    0  0.5626800E-005  0.2810162E+03  0.7546771E-02  0.1095135E+00
         21   -1    0    0  502  501  0.00000000000E+00  0.00000000000E+00  0.36557322287E+03  0.36557322287E+03  0.00000000000E+00 0.  1.
         21   -1    0    0  501  502 -0.00000000000E+00 -0.00000000000E+00 -0.21601719466E+03  0.21601719466E+03  0.00000000000E+00 0.  1.
         25    1    1    2    0    0 -0.17805314769E+03 -0.54046864465E+02  0.81316517265E+02  0.23845620759E+03  0.12500000000E+03 0.  0.
         25    1    1    2    0    0  0.81490565141E+02 -0.36873350220E+02  0.23737357070E+02  0.15552754831E+03  0.12500000000E+03 0.  0.
         25    1    1    2    0    0  0.96562582544E+02  0.90920214685E+02  0.44502153883E+02  0.18760666163E+03  0.12500000000E+03 0.  0.
</event>
<event>
 5    0  0.5626800E-005  0.2777513E+03  0.7546771E-02  0.1096923E+00
         21   -1    0    0  502  501  0.00000000000E+00  0.00000000000E+00  0.45572811571E+03  0.45572811571E+03  0.00000000000E+00 0. -1.
         21   -1    0    0  501  502 -0.00000000000E+00 -0.00000000000E+00 -0.16928032354E+03  0.16928032354E+03  0.00000000000E+00 0. -1.
         25    1    1    2    0    0  0.72069563941E+02  0.15315887847E+03  0.16189757616E+03  0.26549480083E+03  0.12500000000E+03 0.  0.
         25    1    1    2    0    0 -0.38990019039E+02 -0.15487367543E+03  0.45164597819E+02  0.20777612428E+03  0.12500000000E+03 0.  0.
         25    1    1    2    0    0 -0.33079544902E+02  0.17147969551E+01  0.79385618192E+02  0.15173751413E+03  0.12500000000E+03 0.  0.
</event>
<event>
 5    0  0.5626800E-005  0.2324655E+03  0.7546771E-02  0.1124916E+00
         21   -1    0    0  502  501  0.00000000000E+00  0.00000000000E+00  0.61718593307E+02  0.61718593307E+02  0.00000000000E+00 0. -1.
         21   -1    0    0  501  502 -0.00000000000E+00 -0.00000000000E+00 -0.87559007240E+03  0.87559007240E+03  0.00000000000E+00 0. -1.
         25    1    1    2    0    0  0.10425859133E+02 -0.28322231463E+02 -0.66000045227E+02  0.14454014426E+03  0.12500000000E+03 0.  0.
         25    1    1    2    0    0  0.22317568086E+02  0.15085511572E+02 -0.44983723059E+03  0.46765818771E+03  0.12500000000E+03 0.  0.
         25    1    1    2    0    0 -0.32743427219E+02  0.13236719890E+02 -0.29803420327E+03  0.32511033373E+03  0.12500000000E+03 0.  0.
</event>
<event>
 5    0  0.5626800E-005  0.3206597E+03  0.7546771E-02  0.1075346E+00
         21   -1    0    0  502  501  0.00000000000E+00  0.00000000000E+00  0.30787609143E+03  0.30787609143E+03  0.00000000000E+00 0.  1.
         21   -1    0    0  501  502 -0.00000000000E+00 -0.00000000000E+00 -0.33397406378E+03  0.33397406378E+03  0.00000000000E+00 0.  1.
         25    1    1    2    0    0 -0.26439667641E+02  0.72643269077E+01  0.40217830106E+02  0.13414283555E+03  0.12500000000E+03 0.  0.
         25    1    1    2    0    0 -0.13811314309E+03  0.15807722376E+01 -0.19050822830E+03  0.26645097895E+03  0.12500000000E+03 0.  0.
         25    1    1    2    0    0  0.16455281073E+03 -0.88450991453E+01  0.12419242584E+03  0.24125634071E+03  0.12500000000E+03 0.  0.
</event>
<event>
 5    0  0.5626800E-005  0.3028065E+03  0.7546771E-02  0.1083846E+00
         21   -1    0    0  502  501  0.00000000000E+00  0.00000000000E+00  0.28475198440E+03  0.28475198440E+03  0.00000000000E+00 0.  1.
         21   -1    0    0  501  502 -0.00000000000E+00 -0.00000000000E+00 -0.32200582040E+03  0.32200582040E+03  0.00000000000E+00 0.  1.
         25    1    1    2    0    0  0.13989654624E+03  0.16491810329E+03  0.53966490234E+02  0.25555118178E+03  0.12500000000E+03 0.  0.
         25    1    1    2    0    0 -0.10998965090E+03 -0.90352725579E+02 -0.36898299374E+02  0.19299695029E+03  0.12500000000E+03 0.  0.
         25    1    1    2    0    0 -0.29906895334E+02 -0.74565377711E+02 -0.54322026856E+02  0.15820967272E+03  0.12500000000E+03 0.  0.
</event>
<event>
 5    0  0.5626800E-005  0.2472745E+03  0.7546771E-02  0.1115039E+00
         21   -1    0    0  502  501  0.00000000000E+00  0.00000000000E+00  0.15544315773E+04  0.15544315773E+04  0.00000000000E+00 0. -1.
         21   -1    0    0  501  502 -0.00000000000E+00 -0.00000000000E+00 -0.39335710720E+02  0.39335710720E+02  0.00000000000E+00 0. -1.
         25    1    1    2    0    0 -0.81167396223E+02 -0.70553324193E+01  0.34760091922E+03  0.37827149373E+03  0.12500000000E+03 0.  0.
         25    1    1    2    0    0  0.46489184005E+02  0.10847764996E+03  0.53653995052E+03  0.56340816757E+03  0.12500000000E+03 0.  0.
         25    1    1    2    0    0  0.34678212218E+02 -0.10142231754E+03  0.63095499687E+03  0.65208762676E+03  0.12500000000E+03 0.  0.
</event>
<event>
 5    0  0.5626800E-005  0.3226472E+03  0.7546771E-02  0.1074437E+00
         21   -1    0    0  502  501  0.00000000000E+00  0.00000000000E+00  0.22172618057E+03  0.22172618057E+03  0.00000000000E+00 0.  1.
         21   -1    0    0  501  502 -0.00000000000E+00 -0.00000000000E+00 -0.46950346359E+03  0.46950346359E+03  0.00000000000E+00 0.  1.
         25    1    1    2    0    0  0.16264394549E+03  0.65236759318E+02  0.81671948116E+01  0.21540796374E+03  0.12500000000E+03 0.  0.
         25    1    1    2    0    0  0.32190727146E+02 -0.85902695751E+02 -0.43718701199E+02  0.16109575068E+03  0.12500000000E+03 0.  0.
         25    1    1    2    0    0 -0.19483467264E+03  0.20665936433E+02 -0.21222577663E+03  0.31472592975E+03  0.12500000000E+03 0.  0.
</event>
<event>
 5    0  0.5626800E-005  0.2972788E+03  0.7546771E-02  0.1086609E+00
         21   -1    0    0  502  501  0.00000000000E+00  0.00000000000E+00  0.70476820642E+03  0.70476820642E+03  0.00000000000E+00 0.  1.
         21   -1    0    0  501  502 -0.00000000000E+00 -0.00000000000E+00 -0.12539542810E+03  0.12539542810E+03  0.00000000000E+00 0.  1.
         25    1    1    2    0    0  0.55601263771E+02 -0.80505543447E+02  0.17479765373E+02  0.15969716734E+03  0.12500000000E+03 0.  0.
         25    1    1    2    0    0  0.69855052886E+02  0.11661733970E+03  0.29906458009E+03  0.35148820093E+03  0.12500000000E+03 0.  0.
         25    1    1    2    0    0 -0.12545631666E+03 -0.36111796249E+02  0.26282843286E+03  0.31897826625E+03  0.12500000000E+03 0.  0.
</event>
<event>
 5    0  0.5626800E-005  0.2579272E+03  0.7546771E-02  0.1108395E+00
         21   -1    0    0  502  501  0.00000000000E+00  0.00000000000E+00  0.66563891979E+03  0.66563891979E+03  0.00000000000E+00 0.  1.
         21   -1    0    0  501  502 -0.00000000000E+00 -0.00000000000E+00 -0.99943741042E+02  0.99943741042E+02  0.00000000000E+00 0.  1.
         25    1    1    2    0    0 -0.13091100073E+03 -0.50423822755E+01  0.34275790222E+03  0.38764815912E+03  0.12500000000E+03 0.  0.
         25    1    1    2    0    0  0.16279846917E+02  0.38711176906E+02  0.86923399562E+02  0.15793753836E+03  0.12500000000E+03 0.  0.
         25    1    1    2    0    0  0.11463115381E+03 -0.33668794631E+02  0.13601387696E+03  0.21999696335E+03  0.12500000000E+03 0.  0.
</event>
<event>
 5    0  0.5626800E-005  0.2823205E+03  0.7546771E-02  0.1094428E+00
         21   -1    0    0  502  501  0.00000000000E+00  0.00000000000E+00  0.47062670765E+03  0.47062670765E+03  0.00000000000E+00 0.  1.
         21   -1    0    0  501  502 -0.00000000000E+00 -0.00000000000E+00 -0.16935896942E+03  0.16935896942E+03  0.00000000000E+00 0.  1.
         25    1    1    2    0    0 -0.27619543217E+02  0.27080999243E+02  0.14922793621E+03  0.19846963655E+03  0.12500000000E+03 0.  0.
         25    1    1    2    0    0  0.13300989717E+03 -0.27063588852E+02 -0.40506060979E+02  0.18891747289E+03  0.12500000000E+03 0.  0.
         25    1    1    2    0    0 -0.10539035396E+03 -0.17410391578E-01  0.19254586300E+03  0.25259856763E+03  0.12500000000E+03 0.  0.
</event>
<event>
 5    0  0.5626800E-005  0.3042828E+03  0.7546771E-02  0.1083119E+00
         21   -1    0    0  502  501  0.00000000000E+00  0.00000000000E+00  0.11250224571E+04  0.11250224571E+04  0.00000000000E+00 0.  1.
         21   -1    0    0  501  502 -0.00000000000E+00 -0.00000000000E+00 -0.82298818718E+02  0.82298818718E+02  0.00000000000E+00 0.  1.
         25    1    1    2    0    0  0.35267933402E+02  0.15325200949E+03  0.22314761909E+03  0.30024967185E+03  0.12500000000E+03 0.  0.
         25    1    1    2    0    0  0.51167093290E+02 -0.18862374404E+03  0.46400642948E+03  0.51877158254E+03  0.12500000000E+03 0.  0.
         25    1    1    2    0    0 -0.86435026692E+02  0.35371734546E+02  0.35556958982E+03  0.38830002144E+03  0.12500000000E+03 0.  0.
</event>
<event>
 5    0  0.5626800E-005  0.3135004E+03  0.7546771E-02  0.1078680E+00
         21   -1    0    0  502  501  0.00000000000E+00  0.00000000000E+00  0.31651089211E+03  0.31651089211E+03  0.00000000000E+00 0. -1.
         21   -1    0    0  501  502 -0.00000000000E+00 -0.00000000000E+00 -0.31051862590E+03  0.31051862590E+03  0.00000000000E+00 0. -1.
         25    1    1    2    0    0  0.14815417365E+02  0.25897934157E+02  0.24424954181E+03  0.27599463448E+03  0.12500000000E+03 0.  0.
         25    1    1    2    0    0  0.67010110677E+01 -0.36778307988E+02 -0.11831208468E+03  0.17612579842E+03  0.12500000000E+03 0.  0.
         25    1    1    2    0    0 -0.21516428433E+02  0.10880373832E+02 -0.11994519092E+03  0.17490908511E+03  0.12500000000E+03 0.  0.
</event>
<event>
 5    0  0.5626800E-005  0.2365430E+03  0.7546771E-02  0.1122117E+00
         21   -1    0    0  502  501  0.00000000000E+00  0.00000000000E+00  0.70707867545E+03  0.70707867545E+03  0.00000000000E+00 0. -1.
         21   -1    0    0  501  502 -0.00000000000E+00 -0.00000000000E+00 -0.79132043862E+02  0.79132043862E+02  0.00000000000E+00 0. -1.
         25    1    1    2    0    0  0.92300371506E+02  0.34947828107E+02  0.20943675252E+03  0.26311492275E+03  0.12500000000E+03 0.  0.
         25    1    1    2    0    0 -0.96013830315E+01  0.57274040246E+02  0.18465206084E+03  0.23042110540E+03  0.12500000000E+03 0.  0.
         25    1    1    2    0    0 -0.82698988475E+02 -0.92221868353E+02  0.23385781823E+03  0.29267469116E+03  0.12500000000E+03 0.  0.
</event>
<event>
 5    0  0.5626800E-005  0.4795351E+03  0.7546771E-02  0.1019263E+00
         21   -1    0    0  502  501  0.00000000000E+00  0.00000000000E+00  0.10165777031E+04  0.10165777031E+04  0.00000000000E+00 0.  1.
         21   -1    0    0  501  502 -0.00000000000E+00 -0.00000000000E+00 -0.22620399618E+03  0.22620399618E+03  0.00000000000E+00 0.  1.
         25    1    1    2    0    0 -0.22060349323E+03  0.32995485017E+03  0.49012409980E+03  0.64294847195E+03  0.12500000000E+03 0.  0.
         25    1    1    2    0    0  0.17026695433E+03 -0.29147894904E+03  0.13817961767E+03  0.38557673712E+03  0.12500000000E+03 0.  0.
         25    1    1    2    0    0  0.50336538897E+02 -0.38475901126E+02  0.16206998941E+03  0.21425649018E+03  0.12500000000E+03 0.  0.
</event>
<event>
 5    0  0.5626800E-005  0.2155736E+03  0.7546771E-02  0.1137227E+00
         21   -1    0    0  502  501  0.00000000000E+00  0.00000000000E+00  0.27892863086E+03  0.27892863086E+03  0.00000000000E+00 0.  1.
         21   -1    0    0  501  502 -0.00000000000E+00 -0.00000000000E+00 -0.16660877865E+03  0.16660877865E+03  0.00000000000E+00 0.  1.
         25    1    1    2    0    0  0.42221377314E+02 -0.51650494837E+02  0.13423576193E+02  0.14232220739E+03  0.12500000000E+03 0.  0.
         25    1    1    2    0    0 -0.27462797185E+02  0.73318302367E+02  0.10458308156E+02  0.14786532690E+03  0.12500000000E+03 0.  0.
         25    1    1    2    0    0 -0.14758580129E+02 -0.21667807530E+02  0.88437967861E+02  0.15534987522E+03  0.12500000000E+03 0.  0.
</event>
<event>
 5    0  0.5626800E-005  0.2749993E+03  0.7546771E-02  0.1098452E+00
         21   -1    0    0  502  501  0.00000000000E+00  0.00000000000E+00  0.41080187830E+03  0.41080187830E+03  0.00000000000E+00 0.  1.
         21   -1    0    0  501  502 -0.00000000000E+00 -0.00000000000E+00 -0.18409024655E+03  0.18409024655E+03  0.00000000000E+00 0.  1.
         25    1    1    2    0    0 -0.86314259274E+02  0.71954200816E+02  0.95183294829E+02  0.19316422542E+03  0.12500000000E+03 0.  0.
         25    1    1    2    0    0  0.98156511084E+01  0.76361489838E+02 -0.13977119221E+02  0.14747129890E+03  0.12500000000E+03 0.  0.
         25    1    1    2    0    0  0.76498608166E+02 -0.14831569065E+03  0.14550545614E+03  0.25425660053E+03  0.12500000000E+03 0.  0.
</event>
<event>
 5    0  0.5626800E-005  0.4112298E+03  0.7546771E-02  0.1039959E+00
         21   -1    0    0  502  501  0.00000000000E+00  0.00000000000E+00  0.26996720629E+03  0.26996720629E+03  0.00000000000E+00 0.  1.
         21   -1    0    0  501  502 -0.00000000000E+00 -0.00000000000E+00 -0.62640932522E+03  0.62640932522E+03  0.00000000000E+00 0.  1.
         25    1    1    2    0    0  0.21273061371E+03  0.17446821766E+03 -0.17249297339E+03  0.34795444940E+03  0.12500000000E+03 0.  0.
         25    1    1    2    0    0  0.25626060388E+02 -0.10921866314E+03  0.61003556622E+02  0.17869483840E+03  0.12500000000E+03 0.  0.
         25    1    1    2    0    0 -0.23835667410E+03 -0.65249554520E+02 -0.24495270216E+03  0.36972724372E+03  0.12500000000E+03 0.  0.
</event>
<event>
 5    0  0.5626800E-005  0.3375311E+03  0.7546771E-02  0.1067852E+00
         21   -1    0    0  502  501  0.00000000000E+00  0.00000000000E+00  0.20938550127E+04  0.20938550127E+04  0.00000000000E+00 0.  1.
         21   -1    0    0  501  502 -0.00000000000E+00 -0.00000000000E+00 -0.54410267894E+02  0.54410267894E+02  0.00000000000E+00 0.  1.
         25    1    1    2    0    0  0.11290373047E+03  0.13775533954E+03  0.50500469939E+03  0.54988956376E+03  0.12500000000E+03 0.  0.
         25    1    1    2    0    0 -0.20968038668E+03 -0.10207788804E+03  0.69988308367E+03  0.74822930349E+03  0.12500000000E+03 0.  0.
         25    1    1    2    0    0  0.96776656204E+02 -0.35677451502E+02  0.83455696172E+03  0.85014641332E+03  0.12500000000E+03 0.  0.
</event>
<event>
 5    0  0.5626800E-005  0.2577098E+03  0.7546771E-02  0.1108527E+00
         21   -1    0    0  502  501  0.00000000000E+00  0.00000000000E+00  0.21367945697E+04  0.21367945697E+04  0.00000000000E+00 0.  1.
         21   -1    0    0  501  502 -0.00000000000E+00 -0.00000000000E+00 -0.31081297910E+02  0.31081297910E+02  0.00000000000E+00 0.  1.
         25    1    1    2    0    0 -0.54473731413E+02  0.40377491828E+02  0.12524869844E+04  0.12605341627E+04  0.12500000000E+03 0.  0.
         25    1    1    2    0    0  0.50353053861E+02 -0.76042183973E+02  0.28369042478E+03  0.32314563418E+03  0.12500000000E+03 0.  0.
         25    1    1    2    0    0  0.41206775515E+01  0.35664692145E+02  0.56953586258E+03  0.58419607069E+03  0.12500000000E+03 0.  0.
</event>
<event>
 5    0  0.5626800E-005  0.3810571E+03  0.7546771E-02  0.1050544E+00
         21   -1    0    0  502  501  0.00000000000E+00  0.00000000000E+00  0.18882297483E+03  0.18882297483E+03  0.00000000000E+00 0.  1.
         21   -1    0    0  501  502 -0.00000000000E+00 -0.00000000000E+00 -0.76899800155E+03  0.76899800155E+03  0.00000000000E+00 0.  1.
         25    1    1    2    0    0  0.35643194267E+02 -0.78348898949E+02 -0.29774697851E+03  0.33419642499E+03  0.12500000000E+03 0.  0.
         25    1    1    2    0    0 -0.13803453741E+03 -0.17321874464E+03 -0.99412819225E+02  0.27306807877E+03  0.12500000000E+03 0.  0.
         25    1    1    2    0    0  0.10239134315E+03  0.25156764359E+03 -0.18301522899E+03  0.35055647262E+03  0.12500000000E+03 0.  0.
</event>
<event>
 5    0  0.5626800E-005  0.4879736E+03  0.7546771E-02  0.1016967E+00
         21   -1    0    0  502  501  0.00000000000E+00  0.00000000000E+00  0.12304836157E+04  0.12304836157E+04  0.00000000000E+00 0. -1.
         21   -1    0    0  501  502 -0.00000000000E+00 -0.00000000000E+00 -0.19351600897E+03  0.19351600897E+03  0.00000000000E+00 0. -1.
         25    1    1    2    0    0 -0.21378488913E+03  0.14980650908E+03  0.40460417868E+03  0.49746910496E+03  0.12500000000E+03 0.  0.
         25    1    1    2    0    0  0.52408350200E+02 -0.35743995191E+03  0.40664889219E+03  0.55812030595E+03  0.12500000000E+03 0.  0.
         25    1    1    2    0    0  0.16137653893E+03  0.20763344284E+03  0.22571453585E+03  0.36841021375E+03  0.12500000000E+03 0.  0.
</event>
<event>
 5    0  0.5626800E-005  0.3813429E+03  0.7546771E-02  0.1050439E+00
         21   -1    0    0  502  501  0.00000000000E+00  0.00000000000E+00  0.23917004411E+03  0.23917004411E+03  0.00000000000E+00 0.  1.
         21   -1    0    0  501  502 -0.00000000000E+00 -0.00000000000E+00 -0.60802948240E+03  0.60802948240E+03  0.00000000000E+00 0.  1.
         25    1    1    2    0    0 -0.19693999967E+03 -0.44346998321E+02 -0.18878380305E+03  0.30334195889E+03  0.12500000000E+03 0.  0.
         25    1    1    2    0    0  0.40344705821E+02  0.20303344925E+03 -0.20826470059E+02  0.24271180164E+03  0.12500000000E+03 0.  0.
         25    1    1    2    0    0  0.15659529384E+03 -0.15868645092E+03 -0.15924916517E+03  0.30114576598E+03  0.12500000000E+03 0.  0.
</event>
<event>
 5    0  0.5626800E-005  0.2125615E+03  0.7546771E-02  0.1139553E+00
         21   -1    0    0  502  501  0.00000000000E+00  0.00000000000E+00  0.24984507687E+03  0.24984507687E+03  0.00000000000E+00 0.  1.
         21   -1    0    0  501  502 -0.00000000000E+00 -0.00000000000E+00 -0.18084169914E+03  0.18084169914E+03  0.00000000000E+00 0.  1.
         25    1    1    2    0    0  0.46007135484E+02  0.69977371097E+02  0.28703247458E+02  0.15317429744E+03  0.12500000000E+03 0.  0.
         25    1    1    2    0    0 -0.42326607725E+02 -0.35318512281E+02  0.54257241964E+02  0.14699587524E+03  0.12500000000E+03 0.  0.
         25    1    1    2    0    0 -0.36805277588E+01 -0.34658858815E+02 -0.13957111684E+02  0.13051660333E+03  0.12500000000E+03 0.  0.
</event>
<event>
 5    0  0.6377235E-005  0.4237293E+03  0.7546771E-02  0.1035859E+00
         21   -1    0    0  502  501  0.00000000000E+00  0.00000000000E+00  0.22764021086E+03  0.22764021086E+03  0.00000000000E+00 0. -1.
         21   -1    0    0  501  502 -0.00000000000E+00 -0.00000000000E+00 -0.78872936048E+03  0.78872936048E+03  0.00000000000E+00 0. -1.
         25    1    1    2    0    0 -0.13464000207E+03  0.23630621239E+03 -0.31513835446E+03  0.43463287799E+03  0.12500000000E+03 0.  0.
         25    1    1    2    0    0 -0.20291715448E+00 -0.24203083980E+03 -0.28439205716E+03  0.39380554944E+03  0.12500000000E+03 0.  0.
         25    1    1    2    0    0  0.13484291923E+03  0.57246274138E+01  0.38441262011E+02  0.18793114391E+03  0.12500000000E+03 0.  0.
</event>
<event>
 5    0  0.5626800E-005  0.3799379E+03  0.7546771E-02  0.1050957E+00
         21   -1    0    0  502  501  0.00000000000E+00  0.00000000000E+00  0.26879078924E+03  0.26879078924E+03  0.00000000000E+00 0. -1.
         21   -1    0    0  501  502 -0.00000000000E+00 -0.00000000000E+00 -0.53704511913E+03  0.53704511913E+03  0.00000000000E+00 0. -1.
         25    1    1    2    0    0  0.14494642126E+02 -0.42062457985E+02 -0.55579054815E+02  0.14385192510E+03  0.12500000000E+03 0.  0.
         25    1    1    2    0    0  0.91486838039E+02  0.25223365743E+03  0.35114103349E+02  0.29807660044E+03  0.12500000000E+03 0.  0.
         25    1    1    2    0    0 -0.10598148016E+03 -0.21017119944E+03 -0.24778937843E+03  0.36390738282E+03  0.12500000000E+03 0.  0.
</event>
<event>
 5    0  0.5626800E-005  0.2726626E+03  0.7546771E-02  0.1099765E+00
         21   -1    0    0  502  501  0.00000000000E+00  0.00000000000E+00  0.12417228090E+03  0.12417228090E+03  0.00000000000E+00 0. -1.
         21   -1    0    0  501  502 -0.00000000000E+00 -0.00000000000E+00 -0.59872380908E+03  0.59872380908E+03  0.00000000000E+00 0. -1.
         25    1    1    2    0    0 -0.30730012349E+02  0.64088973096E+02 -0.88034171542E+02  0.16860232943E+03  0.12500000000E+03 0.  0.
         25    1    1    2    0    0 -0.15534167078E+02 -0.90883805284E+02 -0.11913440146E+02  0.15578224053E+03  0.12500000000E+03 0.  0.
         25    1    1    2    0    0  0.46264179427E+02  0.26794832189E+02 -0.37460391649E+03  0.39851152001E+03  0.12500000000E+03 0.  0.
</event>
<event>
 5    0  0.5626800E-005  0.3755682E+03  0.7546771E-02  0.1052584E+00
         21   -1    0    0  502  501  0.00000000000E+00  0.00000000000E+00  0.15211335600E+04  0.15211335600E+04  0.00000000000E+00 0. -1.
         21   -1    0    0  501  502 -0.00000000000E+00 -0.00000000000E+00 -0.92727873391E+02  0.92727873391E+02  0.00000000000E+00 0. -1.
         25    1    1    2    0    0 -0.11979629514E+03  0.24039955890E+03  0.29759587047E+03  0.41991832821E+03  0.12500000000E+03 0.  0.
         25    1    1    2    0    0  0.10990381759E+03 -0.99371552195E+02  0.54123679570E+03  0.57490505610E+03  0.12500000000E+03 0.  0.
         25    1    1    2    0    0  0.98924775461E+01 -0.14102800670E+03  0.58957302048E+03  0.61903804913E+03  0.12500000000E+03 0.  0.
</event>
<event>
 5    0  0.7235710E-005  0.2790536E+03  0.7546771E-02  0.1096207E+00
         21   -1    0    0  502  501  0.00000000000E+00  0.00000000000E+00  0.33422730637E+03  0.33422730637E+03  0.00000000000E+00 0. -1.
         21   -1    0    0  501  502 -0.00000000000E+00 -0.00000000000E+00 -0.23298780252E+03  0.23298780252E+03  0.00000000000E+00 0. -1.
         25    1    1    2    0    0  0.96837643354E+02  0.79141618738E+02 -0.75276349151E+02  0.19217818224E+03  0.12500000000E+03 0.  0.
         25    1    1    2    0    0 -0.86286201413E+02 -0.69146559209E+02  0.11185686059E+02  0.16726229335E+03  0.12500000000E+03 0.  0.
         25    1    1    2    0    0 -0.10551441941E+02 -0.99950595292E+01  0.16533016694E+03  0.20777463330E+03  0.12500000000E+03 0.  0.
</event>
<event>
 5    0  0.5626800E-005  0.2985988E+03  0.7546771E-02  0.1085943E+00
         21   -1    0    0  502  501  0.00000000000E+00  0.00000000000E+00  0.36277324144E+03  0.36277324144E+03  0.00000000000E+00 0.  1.
         21   -1    0    0  501  502 -0.00000000000E+00 -0.00000000000E+00 -0.24577676141E+03  0.24577676141E+03  0.00000000000E+00 0.  1.
         25    1    1    2    0    0 -0.47795214116E+02  0.11670980152E+03 -0.11285628559E+03  0.21039748445E+03  0.12500000000E+03 0.  0.
         25    1    1    2    0    0  0.52073244621E+02 -0.11740898230E+03  0.63750365038E+02  0.19022513234E+03  0.12500000000E+03 0.  0.
         25    1    1    2    0    0 -0.42780305048E+01  0.69918078091E+00  0.16610240058E+03  0.20792738607E+03  0.12500000000E+03 0.  0.
</event>
<event>
 5    0  0.5626800E-005  0.2908803E+03  0.7546771E-02  0.1089890E+00
         21   -1    0    0  502  501  0.00000000000E+00  0.00000000000E+00  0.11204693790E+04  0.11204693790E+04  0.00000000000E+00 0.  1.
         21   -1    0    0  501  502 -0.00000000000E+00 -0.00000000000E+00 -0.75514185724E+02  0.75514185724E+02  0.00000000000E+00 0.  1.
         25    1    1    2    0    0 -0.83442763581E+02 -0.16328365705E+02  0.31879199611E+03  0.35282098450E+03  0.12500000000E+03 0.  0.
         25    1    1    2    0    0 -0.35877759197E+02 -0.53442009182E+02  0.60442660564E+03  0.62056408498E+03  0.12500000000E+03 0.  0.
         25    1    1    2    0    0  0.11932052278E+03  0.69770374887E+02  0.12173659151E+03  0.22259849523E+03  0.12500000000E+03 0.  0.
</event>
<event>
 5    0  0.5626800E-005  0.4638488E+03  0.7546771E-02  0.1023671E+00
         21   -1    0    0  502  501  0.00000000000E+00  0.00000000000E+00  0.14057638226E+03  0.14057638226E+03  0.00000000000E+00 0.  1.
         21   -1    0    0  501  502 -0.00000000000E+00 -0.00000000000E+00 -0.15305250811E+04  0.15305250811E+04  0.00000000000E+00 0. -1.
         25    1    1    2    0    0  0.11479460637E+03  0.94173917726E+02 -0.34886184674E+03  0.39921938397E+03  0.12500000000E+03 0.  0.
         25    1    1    2    0    0  0.13327020890E+03 -0.32152970088E+03 -0.57350066195E+03  0.68240040034E+03  0.12500000000E+03 0.  0.
         25    1    1    2    0    0 -0.24806481527E+03  0.22735578315E+03 -0.46758619010E+03  0.58948167901E+03  0.12500000000E+03 0.  0.
</event>
<event>
 5    0  0.5728740E-005  0.4357077E+03  0.7546771E-02  0.1032072E+00
         21   -1    0    0  502  501  0.00000000000E+00  0.00000000000E+00  0.51718949715E+03  0.51718949715E+03  0.00000000000E+00 0. -1.
         21   -1    0    0  501  502 -0.00000000000E+00 -0.00000000000E+00 -0.36706312200E+03  0.36706312200E+03  0.00000000000E+00 0. -1.
         25    1    1    2    0    0  0.11910187890E+03  0.13777397821E+03 -0.15019658072E+03  0.26711596637E+03  0.12500000000E+03 0.  0.
         25    1    1    2    0    0  0.12907455184E+03 -0.17850066286E+02  0.25297130284E+03  0.31080274268E+03  0.12500000000E+03 0.  0.
         25    1    1    2    0    0 -0.24817643075E+03 -0.11992391193E+03  0.47351653036E+02  0.30633391010E+03  0.12500000000E+03 0.  0.
</event>
<event>
 5    0  0.5626800E-005  0.3578878E+03  0.7546771E-02  0.1059423E+00
         21   -1    0    0  502  501  0.00000000000E+00  0.00000000000E+00  0.19718324282E+03  0.19718324282E+03  0.00000000000E+00 0. -1.
         21   -1    0    0  501  502 -0.00000000000E+00 -0.00000000000E+00 -0.64956687171E+03  0.64956687171E+03  0.00000000000E+00 0. -1.
         25    1    1    2    0    0 -0.27757063635E+03 -0.79219690903E+02 -0.15295085800E+03  0.34977161485E+03  0.12500000000E+03 0.  0.
         25    1    1    2    0    0  0.14749904563E+03 -0.11380085309E+02 -0.12815753361E+03  0.23223873111E+03  0.12500000000E+03 0.  0.
         25    1    1    2    0    0  0.13007159072E+03  0.90599776211E+02 -0.17127523728E+03  0.26473976858E+03  0.12500000000E+03 0.  0.
</event>
<event>
 5    0  0.5626800E-005  0.4655407E+03  0.7546771E-02  0.1023186E+00
         21   -1    0    0  502  501  0.00000000000E+00  0.00000000000E+00  0.60374964397E+03  0.60374964397E+03  0.00000000000E+00 0. -1.
         21   -1    0    0  501  502 -0.00000000000E+00 -0.00000000000E+00 -0.35897019859E+03  0.35897019859E+03  0.00000000000E+00 0. -1.
         25    1    1    2    0    0 -0.18610114771E+03 -0.36339390665E+02 -0.35266900909E+02  0.22983242328E+03  0.12500000000E+03 0.  0.
         25    1    1    2    0    0  0.10604904777E+02 -0.26841930151E+03  0.69366763533E+02  0.30429941392E+03  0.12500000000E+03 0.  0.
         25    1    1    2    0    0  0.17549624293E+03  0.30475869218E+03  0.21067958276E+03  0.42858800535E+03  0.12500000000E+03 0.  0.
</event>
<event>
 5    0  0.5626800E-005  0.3317762E+03  0.7546771E-02  0.1070354E+00
         21   -1    0    0  502  501  0.00000000000E+00  0.00000000000E+00  0.10386032801E+03  0.10386032801E+03  0.00000000000E+00 0. -1.
         21   -1    0    0  501  502 -0.00000000000E+00 -0.00000000000E+00 -0.10598412334E+04  0.10598412334E+04  0.00000000000E+00 0. -1.
         25    1    1    2    0    0  0.24554479409E+02 -0.18620132658E+03 -0.62426959963E+03  0.66378565027E+03  0.12500000000E+03 0.  0.
         25    1    1    2    0    0  0.57268295604E+02  0.55321466451E+02 -0.52424316660E+02  0.15720506133E+03  0.12500000000E+03 0.  0.
         25    1    1    2    0    0 -0.81822775013E+02  0.13087986013E+03 -0.27928698913E+03  0.34271084983E+03  0.12500000000E+03 0.  0.
</event>
<event>
 5    0  0.5626800E-005  0.2317877E+03  0.7546771E-02  0.1125388E+00
         21   -1    0    0  502  501  0.00000000000E+00  0.00000000000E+00  0.78109923048E+03  0.78109923048E+03  0.00000000000E+00 0. -1.
         21   -1    0    0  501  502 -0.00000000000E+00 -0.00000000000E+00 -0.68781956549E+02  0.68781956549E+02  0.00000000000E+00 0. -1.
         25    1    1    2    0    0 -0.29982494367E+02 -0.17007701232E+02  0.41778076144E+03  0.43744025477E+03  0.12500000000E+03 0.  0.
         25    1    1    2    0    0 -0.35099388906E+02  0.37780218455E+02  0.87247268844E+02  0.16092357791E+03  0.12500000000E+03 0.  0.
         25    1    1    2    0    0  0.65081883272E+02 -0.20772517224E+02  0.20728924365E+03  0.25151735435E+03  0.12500000000E+03 0.  0.
</event>
<event>
 5    0  0.5626800E-005  0.3868528E+03  0.7546771E-02  0.1048430E+00
         21   -1    0    0  502  501  0.00000000000E+00  0.00000000000E+00  0.35475449811E+03  0.35475449811E+03  0.00000000000E+00 0. -1.
         21   -1    0    0  501  502 -0.00000000000E+00 -0.00000000000E+00 -0.42185540532E+03  0.42185540532E+03  0.00000000000E+00 0. -1.
         25    1    1    2    0    0 -0.21318442182E+03 -0.73294966355E+02 -0.18263327340E+03  0.31591084558E+03  0.12500000000E+03 0.  0.
         25    1    1    2    0    0  0.21770498398E+03  0.56285874476E+01  0.17550774323E+03  0.30635781201E+03  0.12500000000E+03 0.  0.
         25    1    1    2    0    0 -0.45205621631E+01  0.67666378907E+02 -0.59975377041E+02  0.15434124584E+03  0.12500000000E+03 0.  0.
</event>
<event>
 5    0  0.5626800E-005  0.4828579E+03  0.7546771E-02  0.1018353E+00
         21   -1    0    0  502  501  0.00000000000E+00  0.00000000000E+00  0.51144672678E+03  0.51144672678E+03  0.00000000000E+00 0.  1.
         21   -1    0    0  501  502 -0.00000000000E+00 -0.00000000000E+00 -0.45586707584E+03  0.45586707584E+03  0.00000000000E+00 0.  1.
         25    1    1    2    0    0  0.61419392798E+02 -0.17428017371E+03  0.17244643827E+03  0.28197286187E+03  0.12500000000E+03 0.  0.
         25    1    1    2    0    0 -0.70081802305E+02  0.19639729689E+03  0.21835569456E+03  0.32678366940E+03  0.12500000000E+03 0.  0.
         25    1    1    2    0    0  0.86624095071E+01 -0.22117123181E+02 -0.33522248189E+03  0.35855727135E+03  0.12500000000E+03 0.  0.
</event>
<event>
 5    0  0.5626800E-005  0.2897856E+03  0.7546771E-02  0.1090461E+00
         21   -1    0    0  502  501  0.00000000000E+00  0.00000000000E+00  0.26921763534E+03  0.26921763534E+03  0.00000000000E+00 0.  1.
         21   -1    0    0  501  502 -0.00000000000E+00 -0.00000000000E+00 -0.31192503668E+03  0.31192503668E+03  0.00000000000E+00 0.  1.
         25    1    1    2    0    0  0.78156506455E+02 -0.16095627599E+02 -0.34483268141E+02  0.15225506399E+03  0.12500000000E+03 0.  0.
         25    1    1    2    0    0  0.11743439529E+03 -0.62244561014E+02  0.13412036889E+02  0.18294836787E+03  0.12500000000E+03 0.  0.
         25    1    1    2    0    0 -0.19559090174E+03  0.78340188613E+02 -0.21636170083E+02  0.24593924016E+03  0.12500000000E+03 0.  0.
</event>
<event>
 5    0  0.5626800E-005  0.3947329E+03  0.7546771E-02  0.1045619E+00
         21   -1    0    0  502  501  0.00000000000E+00  0.00000000000E+00  0.43402562408E+03  0.43402562408E+03  0.00000000000E+00 0. -1.
         21   -1    0    0  501  502 -0.00000000000E+00 -0.00000000000E+00 -0.35899743279E+03  0.35899743279E+03  0.00000000000E+00 0. -1.
         25    1    1    2    0    0 -0.21448368038E+03 -0.47066652298E+02 -0.10605340275E+03  0.27402708469E+03  0.12500000000E+03 0.  0.
         25    1    1    2    0    0  0.23471560158E+03  0.14068163358E+03  0.19869830732E+03  0.36053953040E+03  0.12500000000E+03 0.  0.
         25    1    1    2    0    0 -0.20231921195E+02 -0.93614981280E+02 -0.17616713278E+02  0.15845644178E+03  0.12500000000E+03 0.  0.
</event>
<event>
 5    0  0.5626800E-005  0.3653198E+03  0.7546771E-02  0.1056497E+00
         21   -1    0    0  502  501  0.00000000000E+00  0.00000000000E+00  0.36001010205E+03  0.36001010205E+03  0.00000000000E+00 0. -1.
         21   -1    0    0  501  502 -0.00000000000E+00 -0.00000000000E+00 -0.37070777712E+03  0.37070777712E+03  0.00000000000E+00 0. -1.
         25    1    1    2    0    0 -0.15595010957E+03 -0.22078239845E+03 -0.45893310263E+01  0.29784453344E+03  0.12500000000E+03 0.  0.
         25    1    1    2    0    0  0.14942911730E+03  0.25021869051E+02 -0.32258333422E+02  0.19904962975E+03  0.12500000000E+03 0.  0.
         25    1    1    2    0    0  0.65209922686E+01  0.19576052940E+03  0.26149989375E+02  0.23382371598E+03  0.12500000000E+03 0.  0.
</event>
<event>
 5    0  0.5626800E-005  0.2928153E+03  0.7546771E-02  0.1088888E+00
         21   -1    0    0  502  501  0.00000000000E+00  0.00000000000E+00  0.36480482086E+03  0.36480482086E+03  0.00000000000E+00 0. -1.
         21   -1    0    0  501  502 -0.00000000000E+00 -0.00000000000E+00 -0.23503193829E+03  0.23503193829E+03  0.00000000000E+00 0. -1.
         25    1    1    2    0    0  0.34567843189E+02  0.88967218112E+02  0.81754274927E+01  0.15748631463E+03  0.12500000000E+03 0.  0.
         25    1    1    2    0    0 -0.13732568120E+02 -0.11352876615E+03  0.22168541807E+03  0.27901037392E+03  0.12500000000E+03 0.  0.
         25    1    1    2    0    0 -0.20835275069E+02  0.24561548041E+02 -0.10008796299E+03  0.16334007060E+03  0.12500000000E+03 0.  0.
</event>
<event>
 5    0  0.5626800E-005  0.4378270E+03  0.7546771E-02  0.1031416E+00
         21   -1    0    0  502  501  0.00000000000E+00  0.00000000000E+00  0.23153827686E+04  0.23153827686E+04  0.00000000000E+00 0.  1.
         21   -1    0    0  501  502 -0.00000000000E+00 -0.00000000000E+00 -0.82790838625E+02  0.82790838625E+02  0.00000000000E+00 0.  1.
         25    1    1    2    0    0  0.53077021340E+02 -0.17381256442E+03  0.89308402278E+03  0.91991958860E+03  0.12500000000E+03 0.  0.
         25    1    1    2    0    0  0.39212239536E+02  0.35979059512E+03  0.81448285674E+03  0.89999677554E+03  0.12500000000E+03 0.  0.
         25    1    1    2    0    0 -0.92289260877E+02 -0.18597803070E+03  0.52502505048E+03  0.57825724311E+03  0.12500000000E+03 0.  0.
</event>
<event>
 5    0  0.5626800E-005  0.3405960E+03  0.7546771E-02  0.1066542E+00
         21   -1    0    0  502  501  0.00000000000E+00  0.00000000000E+00  0.61227398496E+03  0.61227398496E+03  0.00000000000E+00 0.  1.
         21   -1    0    0  501  502 -0.00000000000E+00 -0.00000000000E+00 -0.18946685035E+03  0.18946685035E+03  0.00000000000E+00 0.  1.
         25    1    1    2    0    0  0.33484431833E+02 -0.12805205007E+03  0.98974083079E+02  0.20721825167E+03  0.12500000000E+03 0.  0.
         25    1    1    2    0    0  0.11640012922E+03  0.17699082261E+03  0.44017154007E+02  0.24987447092E+03  0.12500000000E+03 0.  0.
         25    1    1    2    0    0 -0.14988456105E+03 -0.48938772539E+02  0.27981589752E+03  0.34464811273E+03  0.12500000000E+03 0.  0.
</event>
<event>
 5    0  0.5626800E-005  0.3281784E+03  0.7546771E-02  0.1071946E+00
         21   -1    0    0  502  501  0.00000000000E+00  0.00000000000E+00  0.64401433637E+02  0.64401433637E+02  0.00000000000E+00 0. -1.
         21   -1    0    0  501  502 -0.00000000000E+00 -0.00000000000E+00 -0.16723392563E+04  0.16723392563E+04  0.00000000000E+00 0. -1.
         25    1    1    2    0    0  0.66406560600E+02  0.72705523494E+02 -0.41378216434E+03  0.44332449060E+03  0.12500000000E+03 0.  0.
         25    1    1    2    0    0  0.16410881871E+03  0.42240373167E+02 -0.51217834736E+03  0.55377577864E+03  0.12500000000E+03 0.  0.
         25    1    1    2    0    0 -0.23051537931E+03 -0.11494589666E+03 -0.68197731093E+03  0.73964042066E+03  0.12500000000E+03 0.  0.
</event>
<event>
 5    0  0.5626800E-005  0.5407212E+03  0.7546771E-02  0.1003665E+00
         21   -1    0    0  502  501  0.00000000000E+00  0.00000000000E+00  0.13726527349E+03  0.13726527349E+03  0.00000000000E+00 0. -1.
         21   -1    0    0  501  502 -0.00000000000E+00 -0.00000000000E+00 -0.21300319899E+04  0.21300319899E+04  0.00000000000E+00 0. -1.
         25    1    1    2    0    0 -0.59750666146E+02 -0.19179554422E+03 -0.37498225229E+02  0.23955540023E+03  0.12500000000E+03 0.  0.
         25    1    1    2    0    0  0.48069752732E+02  0.27805948768E+03 -0.72332765144E+03  0.78641952617E+03  0.12500000000E+03 0.  0.
         25    1    1    2    0    0  0.11680913414E+02 -0.86263943463E+02 -0.12319408397E+04  0.12413223370E+04  0.12500000000E+03 0.  0.
</event>
<event>
 5    0  0.5626800E-005  0.2523190E+03  0.7546771E-02  0.1111848E+00
         21   -1    0    0  502  501  0.00000000000E+00  0.00000000000E+00  0.25272436821E+04  0.25272436821E+04  0.00000000000E+00 0. -1.
         21   -1    0    0  501  502 -0.00000000000E+00 -0.00000000000E+00 -0.25191429045E+02  0.25191429045E+02  0.00000000000E+00 0. -1.
         25    1    1    2    0    0 -0.73487231517E+02  0.53324675305E+02  0.52807322297E+03  0.55020925384E+03  0.12500000000E+03 0.  0.
         25    1    1    2    0    0  0.13325125924E+03  0.10042172121E+01  0.94003082352E+03  0.95762197955E+03  0.12500000000E+03 0.  0.
         25    1    1    2    0    0 -0.59764027723E+02 -0.54328892517E+02  0.10339482065E+04  0.10446038777E+04  0.12500000000E+03 0.  0.
</event>
<event>
 5    0  0.5626800E-005  0.4173175E+03  0.7546771E-02  0.1037943E+00
         21   -1    0    0  502  501  0.00000000000E+00  0.00000000000E+00  0.58227381733E+03  0.58227381733E+03  0.00000000000E+00 0.  1.
         21   -1    0    0  501  502 -0.00000000000E+00 -0.00000000000E+00 -0.29909271612E+03  0.29909271612E+03  0.00000000000E+00 0.  1.
         25    1    1    2    0    0  0.19211657910E+03  0.25550946822E+02 -0.17640717034E+03  0.29035516286E+03  0.12500000000E+03 0.  0.
         25    1    1    2    0    0 -0.86319360431E+02  0.84301002568E+02  0.19779231577E+03  0.26325746181E+03  0.12500000000E+03 0.  0.
         25    1    1    2    0    0 -0.10579721867E+03 -0.10985194939E+03  0.26179595578E+03  0.32775390879E+03  0.12500000000E+03 0.  0.
</event>
<event>
 5    0  0.5626800E-005  0.2902593E+03  0.7546771E-02  0.1090214E+00
         21   -1    0    0  502  501  0.00000000000E+00  0.00000000000E+00  0.10939763421E+04  0.10939763421E+04  0.00000000000E+00 0. -1.
         21   -1    0    0  501  502 -0.00000000000E+00 -0.00000000000E+00 -0.77013067122E+02  0.77013067122E+02  0.00000000000E+00 0. -1.
         25    1    1    2    0    0 -0.68802138933E+02 -0.34315213567E+02  0.35918125670E+02  0.15108401621E+03  0.12500000000E+03 0.  0.
         25    1    1    2    0    0  0.19303729475E+02 -0.41628450358E+01  0.61874017067E+03  0.63154917627E+03  0.12500000000E+03 0.  0.
         25    1    1    2    0    0  0.49498409459E+02  0.38478058602E+02  0.36230497868E+03  0.38835621678E+03  0.12500000000E+03 0.  0.
</event>
<event>
 5    0  0.5626800E-005  0.3948804E+03  0.7546771E-02  0.1045567E+00
         21   -1    0    0  502  501  0.00000000000E+00  0.00000000000E+00  0.19318875783E+03  0.19318875783E+03  0.00000000000E+00 0.  1.
         21   -1    0    0  501  502 -0.00000000000E+00 -0.00000000000E+00 -0.80714075725E+03  0.80714075725E+03  0.00000000000E+00 0.  1.
         25    1    1    2    0    0 -0.15683301143E+03  0.20770408605E+03 -0.74183581754E+02  0.29810364748E+03  0.12500000000E+03 0.  0.
         25    1    1    2    0    0  0.10512844396E+03 -0.83340327436E+02 -0.67371736341E+02  0.19534981639E+03  0.12500000000E+03 0.  0.
         25    1    1    2    0    0  0.51704567471E+02 -0.12436375862E+03 -0.47239668132E+03  0.50687605120E+03  0.12500000000E+03 0.  0.
</event>
<event>
 5    0  0.5626800E-005  0.6805972E+03  0.7546771E-02  0.9751001E-01
         21   -1    0    0  502  501  0.00000000000E+00  0.00000000000E+00  0.83913292330E+03  0.83913292330E+03  0.00000000000E+00 0. -1.
         21   -1    0    0  501  502 -0.00000000000E+00 -0.00000000000E+00 -0.55201331331E+03  0.55201331331E+03  0.00000000000E+00 0. -1.
         25    1    1    2    0    0  0.33157252147E+03 -0.46038027984E+03  0.82954177633E+01  0.58101992480E+03  0.12500000000E+03 0.  0.
         25    1    1    2    0    0 -0.49625686233E+02  0.42756414904E+03  0.19532805292E+03  0.48892929809E+03  0.12500000000E+03 0.  0.
         25    1    1    2    0    0 -0.28194683523E+03  0.32816130803E+02  0.83496139315E+02  0.32119701372E+03  0.12500000000E+03 0.  0.
</event>
<event>
 5    0  0.5626800E-005  0.2237262E+03  0.7546771E-02  0.1131135E+00
         21   -1    0    0  502  501  0.00000000000E+00  0.00000000000E+00  0.21993175116E+03  0.21993175116E+03  0.00000000000E+00 0. -1.
         21   -1    0    0  501  502 -0.00000000000E+00 -0.00000000000E+00 -0.22758613804E+03  0.22758613804E+03  0.00000000000E+00 0. -1.
         25    1    1    2    0    0  0.57341530263E+01 -0.54491113855E+02 -0.93185177152E+02  0.16525930909E+03  0.12500000000E+03 0.  0.
         25    1    1    2    0    0  0.16101368134E+01  0.22138752495E+01  0.75816143925E+02  0.14622100213E+03  0.12500000000E+03 0.  0.
         25    1    1    2    0    0 -0.73442898397E+01  0.52277238606E+02  0.97146463495E+01  0.13603757798E+03  0.12500000000E+03 0.  0.
</event>
<event>
 5    0  0.5626800E-005  0.5120367E+03  0.7546771E-02  0.1010684E+00
         21   -1    0    0  502  501  0.00000000000E+00  0.00000000000E+00  0.12125688506E+04  0.12125688506E+04  0.00000000000E+00 0.  1.
         21   -1    0    0  501  502 -0.00000000000E+00 -0.00000000000E+00 -0.21621992811E+03  0.21621992811E+03  0.00000000000E+00 0.  1.
         25    1    1    2    0    0 -0.13431236220E+02  0.85015537735E+02  0.42382255523E+03  0.45017618560E+03  0.12500000000E+03 0.  0.
         25    1    1    2    0    0 -0.10049650956E+03 -0.34471882541E+03  0.54900162279E+03  0.66780116715E+03  0.12500000000E+03 0.  0.
         25    1    1    2    0    0  0.11392774578E+03  0.25970328768E+03  0.23524744460E+02  0.31081142594E+03  0.12500000000E+03 0.  0.
</event>
<event>
 5    0  0.5626800E-005  0.2166057E+03  0.7546771E-02  0.1136439E+00
         21   -1    0    0  502  501  0.00000000000E+00  0.00000000000E+00  0.16619912512E+03  0.16619912512E+03  0.00000000000E+00 0.  1.
         21   -1    0    0  501  502 -0.00000000000E+00 -0.00000000000E+00 -0.28229999543E+03  0.28229999543E+03  0.00000000000E+00 0.  1.
         25    1    1    2    0    0  0.98333664733E+02 -0.46002302198E+01 -0.73275548129E+02  0.17517128101E+03  0.12500000000E+03 0.  0.
         25    1    1    2    0    0 -0.36674709634E+02  0.43783293648E+01 -0.26321972040E+02  0.13297387077E+03  0.12500000000E+03 0.  0.
         25    1    1    2    0    0 -0.61658955099E+02  0.22190085498E+00 -0.16503350137E+02  0.14035396877E+03  0.12500000000E+03 0.  0.
</event>
<event>
 5    0  0.5626800E-005  0.4503547E+03  0.7546771E-02  0.1027616E+00
         21   -1    0    0  502  501  0.00000000000E+00  0.00000000000E+00  0.10093915511E+03  0.10093915511E+03  0.00000000000E+00 0.  1.
         21   -1    0    0  501  502 -0.00000000000E+00 -0.00000000000E+00 -0.20093225872E+04  0.20093225872E+04  0.00000000000E+00 0.  1.
         25    1    1    2    0    0 -0.20278061481E+03 -0.10195928262E+03 -0.16139445818E+03  0.30526847886E+03  0.12500000000E+03 0.  0.
         25    1    1    2    0    0  0.28121999132E+02  0.18020298977E+01 -0.18448266889E+03  0.22461733964E+03  0.12500000000E+03 0.  0.
         25    1    1    2    0    0  0.17465861568E+03  0.10015725272E+03 -0.15625063050E+04  0.15803759238E+04  0.12500000000E+03 0.  0.
</event>
<event>
 5    0  0.5626800E-005  0.3176653E+03  0.7546771E-02  0.1076729E+00
         21   -1    0    0  502  501  0.00000000000E+00  0.00000000000E+00  0.36922313273E+03  0.36922313273E+03  0.00000000000E+00 0. -1.
         21   -1    0    0  501  502 -0.00000000000E+00 -0.00000000000E+00 -0.27330697658E+03  0.27330697658E+03  0.00000000000E+00 0. -1.
         25    1    1    2    0    0  0.12593749333E+03 -0.90876088248E+02  0.14418642926E+03  0.24603544871E+03  0.12500000000E+03 0.  0.
         25    1    1    2    0    0 -0.19689906099E+03  0.67465758519E+02 -0.60921789728E+02  0.25031446873E+03  0.12500000000E+03 0.  0.
         25    1    1    2    0    0  0.70961567664E+02  0.23410329729E+02  0.12651516615E+02  0.14618019187E+03  0.12500000000E+03 0.  0.
</event>
<event>
 5    0  0.5626800E-005  0.2714596E+03  0.7546771E-02  0.1100447E+00
         21   -1    0    0  502  501  0.00000000000E+00  0.00000000000E+00  0.14547193670E+03  0.14547193670E+03  0.00000000000E+00 0.  1.
         21   -1    0    0  501  502 -0.00000000000E+00 -0.00000000000E+00 -0.50656051539E+03  0.50656051539E+03  0.00000000000E+00 0.  1.
         25    1    1    2    0    0  0.14115447425E+03  0.33956341380E+02 -0.57567632476E+02  0.20004162324E+03  0.12500000000E+03 0.  0.
         25    1    1    2    0    0 -0.20276869949E+02 -0.64027585232E+02 -0.67079392966E+02  0.15695645283E+03  0.12500000000E+03 0.  0.
         25    1    1    2    0    0 -0.12087760430E+03  0.30071243853E+02 -0.23644155325E+03  0.29503437601E+03  0.12500000000E+03 0.  0.
</event>
<event>
 5    0  0.5626800E-005  0.3743594E+03  0.7546771E-02  0.1053038E+00
         21   -1    0    0  502  501  0.00000000000E+00  0.00000000000E+00  0.26465711013E+03  0.26465711013E+03  0.00000000000E+00 0. -1.
         21   -1    0    0  501  502 -0.00000000000E+00 -0.00000000000E+00 -0.52953402242E+03  0.52953402242E+03  0.00000000000E+00 0. -1.
         25    1    1    2    0    0  0.11030780051E+03 -0.74949940713E+02 -0.17647533805E+03  0.25407449578E+03  0.12500000000E+03 0.  0.
         25    1    1    2    0    0  0.16834150274E+03  0.87403037126E+02 -0.39624664488E+02  0.23059329236E+03  0.12500000000E+03 0.  0.
         25    1    1    2    0    0 -0.27864930325E+03 -0.12453096412E+02 -0.48776909751E+02  0.30952334441E+03  0.12500000000E+03 0.  0.
</event>
<event>
 5    0  0.5626800E-005  0.2808600E+03  0.7546771E-02  0.1095220E+00
         21   -1    0    0  502  501  0.00000000000E+00  0.00000000000E+00  0.10541221508E+03  0.10541221508E+03  0.00000000000E+00 0. -1.
         21   -1    0    0  501  502 -0.00000000000E+00 -0.00000000000E+00 -0.74832269931E+03  0.74832269931E+03  0.00000000000E+00 0. -1.
         25    1    1    2    0    0 -0.61047132737E+01  0.85347910387E+02 -0.20808531522E+03  0.25738304479E+03  0.12500000000E+03 0.  0.
         25    1    1    2    0    0  0.15369856694E+03 -0.75285542379E+02 -0.26007191977E+03  0.33549003834E+03  0.12500000000E+03 0.  0.
         25    1    1    2    0    0 -0.14759385367E+03 -0.10062368009E+02 -0.17475324923E+03  0.26086183126E+03  0.12500000000E+03 0.  0.
</event>
<event>
 5    0  0.5626800E-005  0.2319976E+03  0.7546771E-02  0.1125242E+00
         21   -1    0    0  502  501  0.00000000000E+00  0.00000000000E+00  0.10828112879E+03  0.10828112879E+03  0.00000000000E+00 0.  1.
         21   -1    0    0  501  502 -0.00000000000E+00 -0.00000000000E+00 -0.49706596514E+03  0.49706596514E+03  0.00000000000E+00 0.  1.
         25    1    1    2    0    0 -0.46989396186E+02 -0.26839612810E+02 -0.16904865044E+03  0.21709632513E+03  0.12500000000E+03 0.  0.
         25    1    1    2    0    0  0.73137283941E+02  0.93884079805E+02 -0.14702022881E+03  0.22672280525E+03  0.12500000000E+03 0.  0.
         25    1    1    2    0    0 -0.26147887755E+02 -0.67044466995E+02 -0.72715957109E+02  0.16152796354E+03  0.12500000000E+03 0.  0.
</event>
<event>
 5    0  0.5626800E-005  0.4035711E+03  0.7546771E-02  0.1042550E+00
         21   -1    0    0  502  501  0.00000000000E+00  0.00000000000E+00  0.18270277386E+04  0.18270277386E+04  0.00000000000E+00 0. -1.
         21   -1    0    0  501  502 -0.00000000000E+00 -0.00000000000E+00 -0.89144606571E+02  0.89144606571E+02  0.00000000000E+00 0. -1.
         25    1    1    2    0    0  0.18088540227E+03  0.14527631555E+02  0.10529985589E+03  0.24422047515E+03  0.12500000000E+03 0.  0.
         25    1    1    2    0    0  0.15409588262E+02  0.14237608191E+01  0.64642076209E+03  0.65857747013E+03  0.12500000000E+03 0.  0.
         25    1    1    2    0    0 -0.19629499053E+03 -0.15951392374E+02  0.98616251404E+03  0.10133743999E+04  0.12500000000E+03 0.  0.
</event>
<event>
 5    0  0.5626800E-005  0.4606449E+03  0.7546771E-02  0.1024594E+00
         21   -1    0    0  502  501  0.00000000000E+00  0.00000000000E+00  0.41775854000E+03  0.41775854000E+03  0.00000000000E+00 0.  1.
         21   -1    0    0  501  502 -0.00000000000E+00 -0.00000000000E+00 -0.50793388499E+03  0.50793388499E+03  0.00000000000E+00 0.  1.
         25    1    1    2    0    0 -0.24846215024E+03 -0.19215752120E+03 -0.30806899308E+03  0.45737234017E+03  0.12500000000E+03 0.  0.
         25    1    1    2    0    0  0.93964505594E+02  0.34403556881E+02  0.71220087501E+02  0.17524335623E+03  0.12500000000E+03 0.  0.
         25    1    1    2    0    0  0.15449764465E+03  0.15775396432E+03  0.14667356059E+03  0.29307672858E+03  0.12500000000E+03 0.  0.
</event>
<event>
 5    0  0.5626800E-005  0.4425501E+03  0.7546771E-02  0.1029967E+00
         21   -1    0    0  502  501  0.00000000000E+00  0.00000000000E+00  0.25774476322E+03  0.25774476322E+03  0.00000000000E+00 0.  1.
         21   -1    0    0  501  502 -0.00000000000E+00 -0.00000000000E+00 -0.75986261305E+03  0.75986261305E+03  0.00000000000E+00 0.  1.
         25    1    1    2    0    0 -0.28338296649E+03 -0.56308182243E+02 -0.72622148921E+02  0.32307196349E+03  0.12500000000E+03 0.  0.
         25    1    1    2    0    0 -0.71721127869E+01  0.11891776722E+03 -0.30184495912E+03  0.34774739957E+03  0.12500000000E+03 0.  0.
         25    1    1    2    0    0  0.29055507927E+03 -0.62609584973E+02 -0.12765074179E+03  0.34678801320E+03  0.12500000000E+03 0.  0.
</event>
<event>
 5    0  0.5815421E-005  0.3440827E+03  0.7546771E-02  0.1065070E+00
         21   -1    0    0  502  501  0.00000000000E+00  0.00000000000E+00  0.15005628342E+03  0.15005628342E+03  0.00000000000E+00 0. -1.
         21   -1    0    0  501  502 -0.00000000000E+00 -0.00000000000E+00 -0.78898986977E+03  0.78898986977E+03  0.00000000000E+00 0. -1.
         25    1    1    2    0    0 -0.42335564305E+02  0.15012397701E+03 -0.32404058782E+03  0.38073194118E+03  0.12500000000E+03 0.  0.
         25    1    1    2    0    0 -0.63063157862E+02 -0.11110757624E+03  0.23690214108E+02  0.18029997677E+03  0.12500000000E+03 0.  0.
         25    1    1    2    0    0  0.10539872217E+03 -0.39016400768E+02 -0.33858321265E+03  0.37801423525E+03  0.12500000000E+03 0.  0.
</event>
<event>
 5    0  0.5626800E-005  0.3883088E+03  0.7546771E-02  0.1047905E+00
         21   -1    0    0  502  501  0.00000000000E+00  0.00000000000E+00  0.20953513297E+03  0.20953513297E+03  0.00000000000E+00 0. -1.
         21   -1    0    0  501  502 -0.00000000000E+00 -0.00000000000E+00 -0.71961054390E+03  0.71961054390E+03  0.00000000000E+00 0. -1.
         25    1    1    2    0    0  0.59059563154E+02 -0.96768548618E+01  0.72177766703E+01  0.13877596989E+03  0.12500000000E+03 0.  0.
         25    1    1    2    0    0 -0.22137370986E+03  0.14133869551E+03 -0.10068839260E+03  0.30780854223E+03  0.12500000000E+03 0.  0.
         25    1    1    2    0    0  0.16231414670E+03 -0.13166184064E+03 -0.41660479500E+03  0.48256116474E+03  0.12500000000E+03 0.  0.
</event>
<event>
 5    0  0.5626800E-005  0.2316556E+03  0.7546771E-02  0.1125480E+00
         21   -1    0    0  502  501  0.00000000000E+00  0.00000000000E+00  0.68419228085E+02  0.68419228085E+02  0.00000000000E+00 0. -1.
         21   -1    0    0  501  502 -0.00000000000E+00 -0.00000000000E+00 -0.78434542557E+03  0.78434542557E+03  0.00000000000E+00 0. -1.
         25    1    1    2    0    0  0.19188276120E+02  0.56647483167E+02 -0.11880487321E+03  0.18252869689E+03  0.12500000000E+03 0.  0.
         25    1    1    2    0    0 -0.12980263745E+02  0.53351533592E+02 -0.23892998978E+03  0.27518614318E+03  0.12500000000E+03 0.  0.
         25    1    1    2    0    0 -0.62080123754E+01 -0.10999901676E+03 -0.35819133449E+03  0.39504981358E+03  0.12500000000E+03 0.  0.
</event>
<event>
 5    0  0.5626800E-005  0.2400524E+03  0.7546771E-02  0.1119758E+00
         21   -1    0    0  502  501  0.00000000000E+00  0.00000000000E+00  0.14027957790E+04  0.14027957790E+04  0.00000000000E+00 0. -1.
         21   -1    0    0  501  502 -0.00000000000E+00 -0.00000000000E+00 -0.41078806321E+02  0.41078806321E+02  0.00000000000E+00 0. -1.
         25    1    1    2    0    0 -0.33361473678E+02  0.30084931155E+02  0.56677045305E+03  0.58212699427E+03  0.12500000000E+03 0.  0.
         25    1    1    2    0    0  0.62375446265E+02 -0.51275630013E+02  0.18170228021E+03  0.23486294975E+03  0.12500000000E+03 0.  0.
         25    1    1    2    0    0 -0.29013972587E+02  0.21190698858E+02  0.61324423943E+03  0.62688464132E+03  0.12500000000E+03 0.  0.
</event>
<event>
 5    0  0.5626800E-005  0.2440835E+03  0.7546771E-02  0.1117102E+00
         21   -1    0    0  502  501  0.00000000000E+00  0.00000000000E+00  0.10538277117E+03  0.10538277117E+03  0.00000000000E+00 0.  1.
         21   -1    0    0  501  502 -0.00000000000E+00 -0.00000000000E+00 -0.56533686322E+03  0.56533686322E+03  0.00000000000E+00 0.  1.
         25    1    1    2    0    0 -0.10709200533E+03  0.60142985984E+02 -0.20779094063E+03  0.27182338269E+03  0.12500000000E+03 0.  0.
         25    1    1    2    0    0  0.12509043342E+03 -0.36593400945E+02 -0.14463288109E+03  0.23136629793E+03  0.12500000000E+03 0.  0.
         25    1    1    2    0    0 -0.17998428093E+02 -0.23549585039E+02 -0.10753027033E+03  0.16752995376E+03  0.12500000000E+03 0.  0.
</event>
<event>
 5    0  0.5626800E-005  0.2733874E+03  0.7546771E-02  0.1099356E+00
         21   -1    0    0  502  501  0.00000000000E+00  0.00000000000E+00  0.54113298093E+03  0.54113298093E+03  0.00000000000E+00 0. -1.
         21   -1    0    0  501  502 -0.00000000000E+00 -0.00000000000E+00 -0.13811888915E+03  0.13811888915E+03  0.00000000000E+00 0. -1.
         25    1    1    2    0    0  0.12140244272E+03  0.87248562905E+02  0.24324675006E+03  0.31168067993E+03  0.12500000000E+03 0.  0.
         25    1    1    2    0    0 -0.27689690022E+02  0.32906541871E+02  0.45787599611E+02  0.13989661793E+03  0.12500000000E+03 0.  0.
         25    1    1    2    0    0 -0.93712752701E+02 -0.12015510478E+03  0.11397974211E+03  0.22767457222E+03  0.12500000000E+03 0.  0.
</event>
<event>
 5    0  0.5626800E-005  0.2227363E+03  0.7546771E-02  0.1131859E+00
         21   -1    0    0  502  501  0.00000000000E+00  0.00000000000E+00  0.86273933823E+02  0.86273933823E+02  0.00000000000E+00 0. -1.
         21   -1    0    0  501  502 -0.00000000000E+00 -0.00000000000E+00 -0.57504573365E+03  0.57504573365E+03  0.00000000000E+00 0. -1.
         25    1    1    2    0    0  0.47108362936E+01  0.61023288778E+01 -0.14289033027E+03  0.19000546539E+03  0.12500000000E+03 0.  0.
         25    1    1    2    0    0  0.11060376323E+02  0.59331243217E+02 -0.28467428970E+03  0.31671277139E+03  0.12500000000E+03 0.  0.
         25    1    1    2    0    0 -0.15771212616E+02 -0.65433572095E+02 -0.61207179865E+02  0.15460143069E+03  0.12500000000E+03 0.  0.
</event>
<event>
 5    0  0.5626800E-005  0.5277155E+03  0.7546771E-02  0.1006788E+00
         21   -1    0    0  502  501  0.00000000000E+00  0.00000000000E+00  0.14874523524E+03  0.14874523524E+03  0.00000000000E+00 0. -1.
         21   -1    0    0  501  502 -0.00000000000E+00 -0.00000000000E+00 -0.18722186527E+04  0.18722186527E+04  0.00000000000E+00 0. -1.
         25    1    1    2    0    0 -0.29999046083E+03  0.11384725671E+03 -0.52698376896E+03  0.62951756703E+03  0.12500000000E+03 0.  0.
         25    1    1    2    0    0 -0.11457836563E+03 -0.13157070262E+03 -0.15906475777E+03  0.26714349856E+03  0.12500000000E+03 0.  0.
         25    1    1    2    0    0  0.41456882647E+03  0.17723445911E+02 -0.10374248908E+04  0.11243028224E+04  0.12500000000E+03 0.  0.
</event>
<event>
 5    0  0.5626800E-005  0.2487776E+03  0.7546771E-02  0.1114080E+00
         21   -1    0    0  502  501  0.00000000000E+00  0.00000000000E+00  0.10768608302E+03  0.10768608302E+03  0.00000000000E+00 0. -1.
         21   -1    0    0  501  502 -0.00000000000E+00 -0.00000000000E+00 -0.57472890776E+03  0.57472890776E+03  0.00000000000E+00 0. -1.
         25    1    1    2    0    0 -0.48810330178E+02  0.88356905002E+02 -0.29633511447E+03  0.33708884743E+03  0.12500000000E+03 0.  0.
         25    1    1    2    0    0 -0.18007894977E+02 -0.84104389441E+02 -0.52000601563E+02  0.16039605721E+03  0.12500000000E+03 0.  0.
         25    1    1    2    0    0  0.66818225155E+02 -0.42525155615E+01 -0.11870710871E+03  0.18493008614E+03  0.12500000000E+03 0.  0.
</event>
<event>
 5    0  0.5626800E-005  0.4882572E+03  0.7546771E-02  0.1016890E+00
         21   -1    0    0  502  501  0.00000000000E+00  0.00000000000E+00  0.55569849571E+03  0.55569849571E+03  0.00000000000E+00 0.  1.
         21   -1    0    0  501  502 -0.00000000000E+00 -0.00000000000E+00 -0.42900082728E+03  0.42900082728E+03  0.00000000000E+00 0.  1.
         25    1    1    2    0    0 -0.67582647134E+02  0.30401731184E+03 -0.21515431581E+03  0.39863557255E+03  0.12500000000E+03 0.  0.
         25    1    1    2    0    0 -0.96307945645E+02 -0.15815724502E+03  0.16680615199E+03  0.27881575796E+03  0.12500000000E+03 0.  0.
         25    1    1    2    0    0  0.16389059278E+03 -0.14586006682E+03  0.17504583225E+03  0.30724799248E+03  0.12500000000E+03 0.  0.
</event>
<event>
 5    0  0.5626800E-005  0.2578344E+03  0.7546771E-02  0.1108451E+00
         21   -1    0    0  502  501  0.00000000000E+00  0.00000000000E+00  0.21887869667E+03  0.21887869667E+03  0.00000000000E+00 0.  1.
         21   -1    0    0  501  502 -0.00000000000E+00 -0.00000000000E+00 -0.30372339955E+03  0.30372339955E+03  0.00000000000E+00 0.  1.
         25    1    1    2    0    0  0.75609990636E+02 -0.51667468963E+02 -0.46767717568E+02  0.16185986976E+03  0.12500000000E+03 0.  0.
         25    1    1    2    0    0  0.41147806258E+02 -0.55454743910E+02  0.33358468093E+02  0.14664978000E+03  0.12500000000E+03 0.  0.
         25    1    1    2    0    0 -0.11675779689E+03  0.10712221287E+03 -0.71435453407E+02  0.21409244646E+03  0.12500000000E+03 0.  0.
</event>
<event>
 5    0  0.5626800E-005  0.2581294E+03  0.7546771E-02  0.1108272E+00
         21   -1    0    0  502  501  0.00000000000E+00  0.00000000000E+00  0.49507367594E+03  0.49507367594E+03  0.00000000000E+00 0. -1.
         21   -1    0    0  501  502 -0.00000000000E+00 -0.00000000000E+00 -0.13458766035E+03  0.13458766035E+03  0.00000000000E+00 0. -1.
         25    1    1    2    0    0  0.71532246242E+02  0.13151681813E+02  0.35925308105E+02  0.14901495478E+03  0.12500000000E+03 0.  0.
         25    1    1    2    0    0  0.73295892181E+02 -0.28357551513E+02  0.74366244274E+02  0.16532324950E+03  0.12500000000E+03 0.  0.
         25    1    1    2    0    0 -0.14482813842E+03  0.15205869699E+02  0.25019446321E+03  0.31532313200E+03  0.12500000000E+03 0.  0.
</event>
<event>
 5    0  0.5626800E-005  0.2379053E+03  0.7546771E-02  0.1121196E+00
         21   -1    0    0  502  501  0.00000000000E+00  0.00000000000E+00  0.47088265125E+03  0.47088265125E+03  0.00000000000E+00 0.  1.
         21   -1    0    0  501  502 -0.00000000000E+00 -0.00000000000E+00 -0.12019754436E+03  0.12019754436E+03  0.00000000000E+00 0.  1.
         25    1    1    2    0    0  0.72910179126E+02 -0.15174356342E+02  0.26200112834E+03  0.29969275360E+03  0.12500000000E+03 0.  0.
         25    1    1    2    0    0 -0.51832919591E+01 -0.24841120339E+02  0.59905025158E+02  0.14091685426E+03  0.12500000000E+03 0.  0.
         25    1    1    2    0    0 -0.67726887167E+02  0.40015476681E+02  0.28778953387E+02  0.15047058775E+03  0.12500000000E+03 0.  0.
</event>
<event>
 5    0  0.5626800E-005  0.3067270E+03  0.7546771E-02  0.1081925E+00
         21   -1    0    0  502  501  0.00000000000E+00  0.00000000000E+00  0.11046444365E+03  0.11046444365E+03  0.00000000000E+00 0. -1.
         21   -1    0    0  501  502 -0.00000000000E+00 -0.00000000000E+00 -0.85169015193E+03  0.85169015193E+03  0.00000000000E+00 0. -1.
         25    1    1    2    0    0 -0.96738234976E+02  0.65734676841E+02 -0.67101549933E+02  0.18386666867E+03  0.12500000000E+03 0.  0.
         25    1    1    2    0    0 -0.15182731144E+02 -0.11770026289E+03 -0.16072015014E+03  0.23566890730E+03  0.12500000000E+03 0.  0.
         25    1    1    2    0    0  0.11192096612E+03  0.51965586051E+02 -0.51340400821E+03  0.54261901960E+03  0.12500000000E+03 0.  0.
</event>
<event>
 5    0  0.5626800E-005  0.4145033E+03  0.7546771E-02  0.1038870E+00
         21   -1    0    0  502  501  0.00000000000E+00  0.00000000000E+00  0.33346782686E+03  0.33346782686E+03  0.00000000000E+00 0.  1.
         21   -1    0    0  501  502 -0.00000000000E+00 -0.00000000000E+00 -0.51523118263E+03  0.51523118263E+03  0.00000000000E+00 0.  1.
         25    1    1    2    0    0  0.28784609655E+03  0.16972619996E+03  0.14375443888E+02  0.35706303594E+03  0.12500000000E+03 0.  0.
         25    1    1    2    0    0 -0.29927395015E+02 -0.68560219400E+02 -0.80502145151E+02  0.16643842114E+03  0.12500000000E+03 0.  0.
         25    1    1    2    0    0 -0.25791870153E+03 -0.10116598056E+03 -0.11563665451E+03  0.32519755240E+03  0.12500000000E+03 0.  0.
</event>
<event>
 5    0  0.5626800E-005  0.3165168E+03  0.7546771E-02  0.1077264E+00
         21   -1    0    0  502  501  0.00000000000E+00  0.00000000000E+00  0.36188991235E+03  0.36188991235E+03  0.00000000000E+00 0.  1.
         21   -1    0    0  501  502 -0.00000000000E+00 -0.00000000000E+00 -0.27683247302E+03  0.27683247302E+03  0.00000000000E+00 0.  1.
         25    1    1    2    0    0  0.16501651074E+03  0.91625461500E+02  0.52240440078E+02  0.23233539892E+03  0.12500000000E+03 0.  0.
         25    1    1    2    0    0 -0.22188594356E+03 -0.69693808897E+02  0.24850610071E+01  0.26404881079E+03  0.12500000000E+03 0.  0.
         25    1    1    2    0    0  0.56869432820E+02 -0.21931652603E+02  0.30331938245E+02  0.14233817567E+03  0.12500000000E+03 0.  0.
</event>
<event>
 5    0  0.5626800E-005  0.3668298E+03  0.7546771E-02  0.1055912E+00
         21   -1    0    0  502  501  0.00000000000E+00  0.00000000000E+00  0.80321369965E+03  0.80321369965E+03  0.00000000000E+00 0. -1.
         21   -1    0    0  501  502 -0.00000000000E+00 -0.00000000000E+00 -0.16753208520E+03  0.16753208520E+03  0.00000000000E+00 0. -1.
         25    1    1    2    0    0  0.68672977284E+02 -0.10467353207E+03  0.12597888972E+03  0.21718242742E+03  0.12500000000E+03 0.  0.
         25    1    1    2    0    0 -0.23551991762E+03  0.17080257678E+03  0.39607693482E+03  0.50709475459E+03  0.12500000000E+03 0.  0.
         25    1    1    2    0    0  0.16684694034E+03 -0.66129044713E+02  0.11362578990E+03  0.24646860284E+03  0.12500000000E+03 0.  0.
</event>
<event>
 5    0  0.5626800E-005  0.2250276E+03  0.7546771E-02  0.1130189E+00
         21   -1    0    0  502  501  0.00000000000E+00  0.00000000000E+00  0.18783087040E+03  0.18783087040E+03  0.00000000000E+00 0.  1.
         21   -1    0    0  501  502 -0.00000000000E+00 -0.00000000000E+00 -0.26959042819E+03  0.26959042819E+03  0.00000000000E+00 0.  1.
         25    1    1    2    0    0 -0.27381453280E+02 -0.39906661959E+02 -0.16977897865E+01  0.13405285578E+03  0.12500000000E+03 0.  0.
         25    1    1    2    0    0  0.81223403988E+02 -0.15123134397E+02 -0.92413109926E+02  0.17604298747E+03  0.12500000000E+03 0.  0.
         25    1    1    2    0    0 -0.53841950708E+02  0.55029796356E+02  0.12351341922E+02  0.14732545534E+03  0.12500000000E+03 0.  0.
</event>
<event>
 5    0  0.5626800E-005  0.3346729E+03  0.7546771E-02  0.1069088E+00
         21   -1    0    0  502  501  0.00000000000E+00  0.00000000000E+00  0.75194158247E+02  0.75194158247E+02  0.00000000000E+00 0. -1.
         21   -1    0    0  501  502 -0.00000000000E+00 -0.00000000000E+00 -0.14895567596E+04  0.14895567596E+04  0.00000000000E+00 0. -1.
         25    1    1    2    0    0  0.41229406426E+02  0.60671127427E+01 -0.89758622725E+03  0.90720599048E+03  0.12500000000E+03 0.  0.
         25    1    1    2    0    0 -0.16640929893E+03  0.35719623204E+02 -0.36066077765E+03  0.41793437617E+03  0.12500000000E+03 0.  0.
         25    1    1    2    0    0  0.12517989250E+03 -0.41786735946E+02 -0.15611559645E+03  0.23961055119E+03  0.12500000000E+03 0.  0.
</event>
<event>
 5    0  0.5626800E-005  0.3757002E+03  0.7546771E-02  0.1052535E+00
         21   -1    0    0  502  501  0.00000000000E+00  0.00000000000E+00  0.16056235811E+03  0.16056235811E+03  0.00000000000E+00 0. -1.
         21   -1    0    0  501  502 -0.00000000000E+00 -0.00000000000E+00 -0.87910175062E+03  0.87910175062E+03  0.00000000000E+00 0. -1.
         25    1    1    2    0    0 -0.57740576013E+02 -0.14268119223E+03 -0.32887344344E+03  0.38402426816E+03  0.12500000000E+03 0.  0.
         25    1    1    2    0    0 -0.14727417417E+02 -0.13820383984E+03 -0.53666064231E+02  0.19447941953E+03  0.12500000000E+03 0.  0.
         25    1    1    2    0    0  0.72467993430E+02  0.28088503208E+03 -0.33599988485E+03  0.46116042104E+03  0.12500000000E+03 0.  0.
</event>
<event>
 5    0  0.5626800E-005  0.2289923E+03  0.7546771E-02  0.1127351E+00
         21   -1    0    0  502  501  0.00000000000E+00  0.00000000000E+00  0.25323683004E+04  0.25323683004E+04  0.00000000000E+00 0. -1.
         21   -1    0    0  501  502 -0.00000000000E+00 -0.00000000000E+00 -0.20706898431E+02  0.20706898431E+02  0.00000000000E+00 0. -1.
         25    1    1    2    0    0  0.98996332462E+02 -0.14871840867E+02  0.72449124841E+03  0.74197979387E+03  0.12500000000E+03 0.  0.
         25    1    1    2    0    0 -0.48137677082E+02  0.64228116282E+02  0.98895466410E+03  0.10000494060E+04  0.12500000000E+03 0.  0.
         25    1    1    2    0    0 -0.50858655379E+02 -0.49356275415E+02  0.79821548941E+03  0.81104599887E+03  0.12500000000E+03 0.  0.
</event>
<event>
 5    0  0.5626800E-005  0.6286428E+03  0.7546771E-02  0.9847701E-01
         21   -1    0    0  502  501  0.00000000000E+00  0.00000000000E+00  0.10793614178E+04  0.10793614178E+04  0.00000000000E+00 0. -1.
         21   -1    0    0  501  502 -0.00000000000E+00 -0.00000000000E+00 -0.36613482399E+03  0.36613482399E+03  0.00000000000E+00 0. -1.
         25    1    1    2    0    0 -0.61152193523E+02 -0.17138111737E+03  0.19405342587E+03  0.29392653888E+03  0.12500000000E+03 0.  0.
         25    1    1    2    0    0 -0.42515354684E+03  0.19474570550E+03  0.41640746667E+03  0.63851515761E+03  0.12500000000E+03 0.  0.
         25    1    1    2    0    0  0.48630574036E+03 -0.23364588131E+02  0.10276570124E+03  0.51305454528E+03  0.12500000000E+03 0.  0.
</event>
<event>
 5    0  0.5626800E-005  0.3303059E+03  0.7546771E-02  0.1071002E+00
         21   -1    0    0  502  501  0.00000000000E+00  0.00000000000E+00  0.19300330020E+03  0.19300330020E+03  0.00000000000E+00 0. -1.
         21   -1    0    0  501  502 -0.00000000000E+00 -0.00000000000E+00 -0.56528556487E+03  0.56528556487E+03  0.00000000000E+00 0. -1.
         25    1    1    2    0    0 -0.14801252787E+03 -0.88923812408E+02 -0.13980303362E+02  0.21362490890E+03  0.12500000000E+03 0.  0.
         25    1    1    2    0    0  0.11639875849E+03 -0.87253409971E+02 -0.16155652715E+03  0.25077348343E+03  0.12500000000E+03 0.  0.
         25    1    1    2    0    0  0.31613769377E+02  0.17617722238E+03 -0.19674543416E+03  0.29389047273E+03  0.12500000000E+03 0.  0.
</event>
<event>
 5    0  0.5626800E-005  0.3861479E+03  0.7546771E-02  0.1048685E+00
         21   -1    0    0  502  501  0.00000000000E+00  0.00000000000E+00  0.61111981432E+03  0.61111981432E+03  0.00000000000E+00 0.  1.
         21   -1    0    0  501  502 -0.00000000000E+00 -0.00000000000E+00 -0.24399500908E+03  0.24399500908E+03  0.00000000000E+00 0.  1.
         25    1    1    2    0    0 -0.24187528598E+03  0.11246815935E+03 -0.31125377482E+02  0.29622040773E+03  0.12500000000E+03 0.  0.
         25    1    1    2    0    0  0.16540516984E+03 -0.15473687933E+02  0.15746493105E+03  0.26080358460E+03  0.12500000000E+03 0.  0.
         25    1    1    2    0    0  0.76470116137E+02 -0.96994471418E+02  0.24078525166E+03  0.29809083107E+03  0.12500000000E+03 0.  0.
</event>
<event>
 5    0  0.5626800E-005  0.2777805E+03  0.7546771E-02  0.1096907E+00
         21   -1    0    0  502  501  0.00000000000E+00  0.00000000000E+00  0.38943507950E+03  0.38943507950E+03  0.00000000000E+00 0.  1.
         21   -1    0    0  501  502 -0.00000000000E+00 -0.00000000000E+00 -0.19813831258E+03  0.19813831258E+03  0.00000000000E+00 0.  1.
         25    1    1    2    0    0  0.29681782820E+02 -0.12590515608E+03  0.13073292150E+03  0.22237179076E+03  0.12500000000E+03 0.  0.
         25    1    1    2    0    0 -0.28448811358E+02  0.14709647584E+03 -0.44973621933E+02  0.20023569797E+03  0.12500000000E+03 0.  0.
         25    1    1    2    0    0 -0.12329714626E+01 -0.21191319765E+02  0.10553746735E+03  0.16496590334E+03  0.12500000000E+03 0.  0.
</event>
<event>
 5    0  0.5626800E-005  0.2915890E+03  0.7546771E-02  0.1089522E+00
         21   -1    0    0  502  501  0.00000000000E+00  0.00000000000E+00  0.48508353762E+02  0.48508353762E+02  0.00000000000E+00 0.  1.
         21   -1    0    0  501  502 -0.00000000000E+00 -0.00000000000E+00 -0.17527732278E+04  0.17527732278E+04  0.00000000000E+00 0.  1.
         25    1    1    2    0    0 -0.34177290410E+02  0.13650384996E+03 -0.26186190350E+03  0.32248727841E+03  0.12500000000E+03 0.  0.
         25    1    1    2    0    0  0.62504033532E+02 -0.91978188853E+02 -0.51439051525E+03  0.54091528321E+03  0.12500000000E+03 0.  0.
         25    1    1    2    0    0 -0.28326743122E+02 -0.44525661105E+02 -0.92801245532E+03  0.93787901997E+03  0.12500000000E+03 0.  0.
</event>
<event>
 5    0  0.5626800E-005  0.3244770E+03  0.7546771E-02  0.1073607E+00
         21   -1    0    0  502  501  0.00000000000E+00  0.00000000000E+00  0.48539429215E+03  0.48539429215E+03  0.00000000000E+00 0. -1.
         21   -1    0    0  501  502 -0.00000000000E+00 -0.00000000000E+00 -0.21690680281E+03  0.21690680281E+03  0.00000000000E+00 0. -1.
         25    1    1    2    0    0  0.13875078722E+03  0.12177015772E+03  0.57792944571E+02  0.23031451693E+03  0.12500000000E+03 0.  0.
         25    1    1    2    0    0 -0.52188335242E+02  0.88155727933E+02  0.10060812372E+03  0.19037344684E+03  0.12500000000E+03 0.  0.
         25    1    1    2    0    0 -0.86562451979E+02 -0.20992588565E+03  0.11008642104E+03  0.28161313119E+03  0.12500000000E+03 0.  0.
</event>
<event>
 5    0  0.5626800E-005  0.3232038E+03  0.7546771E-02  0.1074184E+00
         21   -1    0    0  502  501  0.00000000000E+00  0.00000000000E+00  0.30638236062E+03  0.30638236062E+03  0.00000000000E+00 0. -1.
         21   -1    0    0  501  502 -0.00000000000E+00 -0.00000000000E+00 -0.34094879234E+03  0.34094879234E+03  0.00000000000E+00 0. -1.
         25    1    1    2    0    0  0.84242027680E+02 -0.76544041318E+02 -0.89362298965E+02  0.19122324640E+03  0.12500000000E+03 0.  0.
         25    1    1    2    0    0  0.10085730648E+03 -0.24827535907E+02  0.12033324849E+03  0.20222189175E+03  0.12500000000E+03 0.  0.
         25    1    1    2    0    0 -0.18509933416E+03  0.10137157722E+03 -0.65537381247E+02  0.25388601481E+03  0.12500000000E+03 0.  0.
</event>
<event>
 5    0  0.5626800E-005  0.2983893E+03  0.7546771E-02  0.1086049E+00
         21   -1    0    0  502  501  0.00000000000E+00  0.00000000000E+00  0.93445222805E+02  0.93445222805E+02  0.00000000000E+00 0.  1.
         21   -1    0    0  501  502 -0.00000000000E+00 -0.00000000000E+00 -0.95281680557E+03  0.95281680557E+03  0.00000000000E+00 0.  1.
         25    1    1    2    0    0 -0.16076090183E+03  0.31076128139E+02 -0.30147408852E+03  0.36513205741E+03  0.12500000000E+03 0.  0.
         25    1    1    2    0    0  0.14589866449E+03 -0.10798708589E+03 -0.21520370110E+03  0.30803451753E+03  0.12500000000E+03 0.  0.
         25    1    1    2    0    0  0.14862237337E+02  0.76910957748E+02 -0.34269379314E+03  0.37309545344E+03  0.12500000000E+03 0.  0.
</event>
<event>
 5    0  0.5626800E-005  0.5054598E+03  0.7546771E-02  0.1012364E+00
         21   -1    0    0  502  501  0.00000000000E+00  0.00000000000E+00  0.39688106452E+03  0.39688106452E+03  0.00000000000E+00 0. -1.
         21   -1    0    0  501  502 -0.00000000000E+00 -0.00000000000E+00 -0.64374340047E+03  0.64374340047E+03  0.00000000000E+00 0. -1.
         25    1    1    2    0    0 -0.56239361189E+02  0.26453818753E+03  0.91988103954E+02  0.31181746211E+03  0.12500000000E+03 0.  0.
         25    1    1    2    0    0  0.67567078247E+02 -0.33037784191E+03 -0.42978863332E+03  0.56040886665E+03  0.12500000000E+03 0.  0.
         25    1    1    2    0    0 -0.11327717058E+02  0.65839654383E+02  0.90938193419E+02  0.16839813623E+03  0.12500000000E+03 0.  0.
</event>
<event>
 5    0  0.6985846E-005  0.2445337E+03  0.7546771E-02  0.1116809E+00
         21   -1    0    0  502  501  0.00000000000E+00  0.00000000000E+00  0.74530433731E+03  0.74530433731E+03  0.00000000000E+00 0.  1.
         21   -1    0    0  501  502 -0.00000000000E+00 -0.00000000000E+00 -0.80231304429E+02  0.80231304429E+02  0.00000000000E+00 0.  1.
         25    1    1    2    0    0  0.28789181750E+02  0.27709356776E+02  0.39147906103E+03  0.41288918691E+03  0.12500000000E+03 0.  0.
         25    1    1    2    0    0  0.28966117468E+02  0.23157474702E+02  0.22122986897E+03  0.25679361269E+03  0.12500000000E+03 0.  0.
         25    1    1    2    0    0 -0.57755299218E+02 -0.50866831478E+02  0.52364102879E+02  0.15585284214E+03  0.12500000000E+03 0.  0.
</event>
<event>
 5    0  0.5626800E-005  0.4129843E+03  0.7546771E-02  0.1039374E+00
         21   -1    0    0  502  501  0.00000000000E+00  0.00000000000E+00  0.19267051874E+03  0.19267051874E+03  0.00000000000E+00 0.  1.
         21   -1    0    0  501  502 -0.00000000000E+00 -0.00000000000E+00 -0.88522132178E+03  0.88522132178E+03  0.00000000000E+00 0.  1.
         25    1    1    2    0    0 -0.27189234314E+03  0.18629556460E+03 -0.43091852071E+03  0.55672906799E+03  0.12500000000E+03 0.  0.
         25    1    1    2    0    0  0.54894940196E+02 -0.93976154700E+02 -0.17385532362E+03  0.24019917914E+03  0.12500000000E+03 0.  0.
         25    1    1    2    0    0  0.21699740295E+03 -0.92319409905E+02 -0.87776958707E+02  0.28096359339E+03  0.12500000000E+03 0.  0.
</event>
<event>
 5    0  0.5626800E-005  0.3658661E+03  0.7546771E-02  0.1056285E+00
         21   -1    0    0  502  501  0.00000000000E+00  0.00000000000E+00  0.71890400233E+03  0.71890400233E+03  0.00000000000E+00 0. -1.
         21   -1    0    0  501  502 -0.00000000000E+00 -0.00000000000E+00 -0.18619729194E+03  0.18619729194E+03  0.00000000000E+00 0. -1.
         25    1    1    2    0    0  0.15473725017E+03  0.19999143511E+02  0.65969976542E+02  0.21052463071E+03  0.12500000000E+03 0.  0.
         25    1    1    2    0    0 -0.20998837069E+03  0.10656384543E+03  0.42812569983E+03  0.50434867288E+03  0.12500000000E+03 0.  0.
         25    1    1    2    0    0  0.55251120527E+02 -0.12656298894E+03  0.38611034018E+02  0.19022799068E+03  0.12500000000E+03 0.  0.
</event>
<event>
 5    0  0.5626800E-005  0.2599125E+03  0.7546771E-02  0.1107196E+00
         21   -1    0    0  502  501  0.00000000000E+00  0.00000000000E+00  0.39764099964E+03  0.39764099964E+03  0.00000000000E+00 0. -1.
         21   -1    0    0  501  502 -0.00000000000E+00 -0.00000000000E+00 -0.16988812952E+03  0.16988812952E+03  0.00000000000E+00 0. -1.
         25    1    1    2    0    0 -0.65103837142E+02 -0.14907118411E+00  0.17691143960E+03  0.22618839337E+03  0.12500000000E+03 0.  0.
         25    1    1    2    0    0 -0.48121250828E+02  0.46607452836E+02  0.81747717842E+02  0.16369361262E+03  0.12500000000E+03 0.  0.
         25    1    1    2    0    0  0.11322508797E+03 -0.46458381652E+02 -0.30906287326E+02  0.17764712316E+03  0.12500000000E+03 0.  0.
</event>
<event>
 5    0  0.5626800E-005  0.4093450E+03  0.7546771E-02  0.1040591E+00
         21   -1    0    0  502  501  0.00000000000E+00  0.00000000000E+00  0.56295321336E+03  0.56295321336E+03  0.00000000000E+00 0.  1.
         21   -1    0    0  501  502 -0.00000000000E+00 -0.00000000000E+00 -0.29765050038E+03  0.29765050038E+03  0.00000000000E+00 0.  1.
         25    1    1    2    0    0  0.86795757632E+02 -0.89475725088E+02  0.29505349460E+01  0.17655909656E+03  0.12500000000E+03 0.  0.
         25    1    1    2    0    0 -0.14349560279E+03  0.13238041777E+02  0.42015727584E+03  0.46143620384E+03  0.12500000000E+03 0.  0.
         25    1    1    2    0    0  0.56699845159E+02  0.76237683311E+02 -0.15780509780E+03  0.22260841334E+03  0.12500000000E+03 0.  0.
</event>
<event>
 5    0  0.5626800E-005  0.2515501E+03  0.7546771E-02  0.1112329E+00
         21   -1    0    0  502  501  0.00000000000E+00  0.00000000000E+00  0.17249087580E+04  0.17249087580E+04  0.00000000000E+00 0. -1.
         21   -1    0    0  501  502 -0.00000000000E+00 -0.00000000000E+00 -0.36684521082E+02  0.36684521082E+02  0.00000000000E+00 0. -1.
         25    1    1    2    0    0 -0.43550502651E+01  0.72996580039E+02  0.74450149499E+03  0.75845563034E+03  0.12500000000E+03 0.  0.
         25    1    1    2    0    0  0.23616398469E+02 -0.17076595992E+02  0.14982564651E+03  0.19728676783E+03  0.12500000000E+03 0.  0.
         25    1    1    2    0    0 -0.19261348204E+02 -0.55919984046E+02  0.79389709545E+03  0.80585088095E+03  0.12500000000E+03 0.  0.
</event>
<event>
 5    0  0.5626800E-005  0.4804485E+03  0.7546771E-02  0.1019012E+00
         21   -1    0    0  502  501  0.00000000000E+00  0.00000000000E+00  0.35859687364E+03  0.35859687364E+03  0.00000000000E+00 0. -1.
         21   -1    0    0  501  502 -0.00000000000E+00 -0.00000000000E+00 -0.64370552307E+03  0.64370552307E+03  0.00000000000E+00 0. -1.
         25    1    1    2    0    0 -0.48018192580E+02  0.13245455585E+03  0.25074654622E+03  0.31360610106E+03  0.12500000000E+03 0.  0.
         25    1    1    2    0    0  0.15723047612E+03 -0.76850910172E+02 -0.14206470363E+03  0.25774961694E+03  0.12500000000E+03 0.  0.
         25    1    1    2    0    0 -0.10921228354E+03 -0.55603645674E+02 -0.39379049202E+03  0.43094667871E+03  0.12500000000E+03 0.  0.
</event>
<event>
 5    0  0.5626800E-005  0.2111603E+03  0.7546771E-02  0.1140650E+00
         21   -1    0    0  502  501  0.00000000000E+00  0.00000000000E+00  0.37638627139E+03  0.37638627139E+03  0.00000000000E+00 0.  1.
         21   -1    0    0  501  502 -0.00000000000E+00 -0.00000000000E+00 -0.11846514067E+03  0.11846514067E+03  0.00000000000E+00 0.  1.
         25    1    1    2    0    0  0.51082335830E+02 -0.40928075207E+01  0.22878795085E+02  0.13702041954E+03  0.12500000000E+03 0.  0.
         25    1    1    2    0    0  0.18709115726E+02  0.71515404761E+01  0.10809687130E+03  0.16646654056E+03  0.12500000000E+03 0.  0.
         25    1    1    2    0    0 -0.69791451556E+02 -0.30587329554E+01  0.12694546433E+03  0.19136445195E+03  0.12500000000E+03 0.  0.
</event>
<event>
 5    0  0.5626800E-005  0.2242118E+03  0.7546771E-02  0.1130781E+00
         21   -1    0    0  502  501  0.00000000000E+00  0.00000000000E+00  0.12753764900E+03  0.12753764900E+03  0.00000000000E+00 0. -1.
         21   -1    0    0  501  502 -0.00000000000E+00 -0.00000000000E+00 -0.39416531910E+03  0.39416531910E+03  0.00000000000E+00 0. -1.
         25    1    1    2    0    0  0.62040008117E+02  0.33235535374E+02 -0.67523945300E+02  0.15854982374E+03  0.12500000000E+03 0.  0.
         25    1    1    2    0    0 -0.19992593635E+02  0.34043848997E+02 -0.23009247834E+02  0.13309061928E+03  0.12500000000E+03 0.  0.
         25    1    1    2    0    0 -0.42047414482E+02 -0.67279384372E+02 -0.17609447697E+03  0.23006252508E+03  0.12500000000E+03 0.  0.
</event>
<event>
 5    0  0.5626800E-005  0.3416352E+03  0.7546771E-02  0.1066102E+00
         21   -1    0    0  502  501  0.00000000000E+00  0.00000000000E+00  0.24432636959E+03  0.24432636959E+03  0.00000000000E+00 0. -1.
         21   -1    0    0  501  502 -0.00000000000E+00 -0.00000000000E+00 -0.47769967271E+03  0.47769967271E+03  0.00000000000E+00 0. -1.
         25    1    1    2    0    0  0.16193347251E+03 -0.40975034702E+02  0.77127069615E+02  0.22242973689E+03  0.12500000000E+03 0.  0.
         25    1    1    2    0    0 -0.21208197749E+03  0.64635004891E+02 -0.19602767250E+03  0.32126048220E+03  0.12500000000E+03 0.  0.
         25    1    1    2    0    0  0.50148504985E+02 -0.23659970189E+02 -0.11447270023E+03  0.17833582321E+03  0.12500000000E+03 0.  0.
</event>
<event>
 5    0  0.5626800E-005  0.3618697E+03  0.7546771E-02  0.1057846E+00
         21   -1    0    0  502  501  0.00000000000E+00  0.00000000000E+00  0.17460909882E+03  0.17460909882E+03  0.00000000000E+00 0.  1.
         21   -1    0    0  501  502 -0.00000000000E+00 -0.00000000000E+00 -0.74995910193E+03  0.74995910193E+03  0.00000000000E+00 0.  1.
         25    1    1    2    0    0 -0.71825693946E+02  0.74501995426E+02 -0.35623737788E+03  0.39145823153E+03  0.12500000000E+03 0.  0.
         25    1    1    2    0    0  0.14367789174E+03  0.10551826200E+03 -0.20968772981E+03  0.30227699916E+03  0.12500000000E+03 0.  0.
         25    1    1    2    0    0 -0.71852197794E+02 -0.18002025743E+03 -0.94248954164E+01  0.23083297006E+03  0.12500000000E+03 0.  0.
</event>
<event>
 5    0  0.5626800E-005  0.3406195E+03  0.7546771E-02  0.1066532E+00
         21   -1    0    0  502  501  0.00000000000E+00  0.00000000000E+00  0.61490612622E+03  0.61490612622E+03  0.00000000000E+00 0.  1.
         21   -1    0    0  501  502 -0.00000000000E+00 -0.00000000000E+00 -0.18868183822E+03  0.18868183822E+03  0.00000000000E+00 0.  1.
         25    1    1    2    0    0  0.10576867797E+02 -0.10386285592E+03  0.13550230612E+03  0.21186136490E+03  0.12500000000E+03 0.  0.
         25    1    1    2    0    0 -0.18231792342E+03  0.12520657722E+03  0.27985095159E+03  0.37796569591E+03  0.12500000000E+03 0.  0.
         25    1    1    2    0    0  0.17174105562E+03 -0.21343721306E+02  0.10871030290E+02  0.21376090364E+03  0.12500000000E+03 0.  0.
</event>
<event>
 5    0  0.5626800E-005  0.2950291E+03  0.7546771E-02  0.1087752E+00
         21   -1    0    0  502  501  0.00000000000E+00  0.00000000000E+00  0.62402374585E+03  0.62402374585E+03  0.00000000000E+00 0. -1.
         21   -1    0    0  501  502 -0.00000000000E+00 -0.00000000000E+00 -0.13948532658E+03  0.13948532658E+03  0.00000000000E+00 0. -1.
         25    1    1    2    0    0 -0.21253405769E+02  0.33464683274E+02  0.19573267347E+03  0.23560108605E+03  0.12500000000E+03 0.  0.
         25    1    1    2    0    0  0.62977028532E+02  0.15456172091E+03  0.17196040864E+03  0.27027914058E+03  0.12500000000E+03 0.  0.
         25    1    1    2    0    0 -0.41723622763E+02 -0.18802640419E+03  0.11684533716E+03  0.25762884579E+03  0.12500000000E+03 0.  0.
</event>
<event>
 5    0  0.5626800E-005  0.3807623E+03  0.7546771E-02  0.1050652E+00
         21   -1    0    0  502  501  0.00000000000E+00  0.00000000000E+00  0.36642040581E+03  0.36642040581E+03  0.00000000000E+00 0.  1.
         21   -1    0    0  501  502 -0.00000000000E+00 -0.00000000000E+00 -0.39566560010E+03  0.39566560010E+03  0.00000000000E+00 0.  1.
         25    1    1    2    0    0 -0.27628390838E+03 -0.13667821977E+03 -0.30474370066E+02  0.33401709689E+03  0.12500000000E+03 0.  0.
         25    1    1    2    0    0  0.11739804930E+03 -0.16251994603E+01  0.49329025552E+02  0.17844689971E+03  0.12500000000E+03 0.  0.
         25    1    1    2    0    0  0.15888585907E+03  0.13830341923E+03 -0.48099849781E+02  0.24962200931E+03  0.12500000000E+03 0.  0.
</event>
<event>
 5    0  0.5626800E-005  0.3903985E+03  0.7546771E-02  0.1047156E+00
         21   -1    0    0  502  501  0.00000000000E+00  0.00000000000E+00  0.39339000103E+03  0.39339000103E+03  0.00000000000E+00 0.  1.
         21   -1    0    0  501  502 -0.00000000000E+00 -0.00000000000E+00 -0.38742968892E+03  0.38742968892E+03  0.00000000000E+00 0.  1.
         25    1    1    2    0    0  0.55767504469E+02  0.11704067707E+02 -0.17339753458E+03  0.22122094104E+03  0.12500000000E+03 0.  0.
         25    1    1    2    0    0 -0.23178681929E+03  0.10607128999E+03  0.87550474763E+02  0.29709650585E+03  0.12500000000E+03 0.  0.
         25    1    1    2    0    0  0.17601931482E+03 -0.11777535770E+03  0.91807371924E+02  0.26250224306E+03  0.12500000000E+03 0.  0.
</event>
<event>
 5    0  0.5626800E-005  0.3381523E+03  0.7546771E-02  0.1067586E+00
         21   -1    0    0  502  501  0.00000000000E+00  0.00000000000E+00  0.24114060395E+04  0.24114060395E+04  0.00000000000E+00 0.  1.
         21   -1    0    0  501  502 -0.00000000000E+00 -0.00000000000E+00 -0.47419223279E+02  0.47419223279E+02  0.00000000000E+00 0.  1.
         25    1    1    2    0    0 -0.13035285080E+03 -0.18982125519E+03  0.11227899391E+04  0.11529554293E+04  0.12500000000E+03 0.  0.
         25    1    1    2    0    0 -0.17074581844E+02  0.15745299628E+02  0.61122104854E+03  0.62430411338E+03  0.12500000000E+03 0.  0.
         25    1    1    2    0    0  0.14742743265E+03  0.17407595556E+03  0.62997582855E+03  0.68156572006E+03  0.12500000000E+03 0.  0.
</event>
<event>
 5    0  0.5626800E-005  0.3453340E+03  0.7546771E-02  0.1064547E+00
         21   -1    0    0  502  501  0.00000000000E+00  0.00000000000E+00  0.55513614464E+03  0.55513614464E+03  0.00000000000E+00 0. -1.
         21   -1    0    0  501  502 -0.00000000000E+00 -0.00000000000E+00 -0.21482219891E+03  0.21482219891E+03  0.00000000000E+00 0. -1.
         25    1    1    2    0    0 -0.77835883668E+02  0.12960901329E+03  0.27442178605E+03  0.33732660400E+03  0.12500000000E+03 0.  0.
         25    1    1    2    0    0  0.10162215178E+03 -0.52252647375E+02  0.17840794526E+03  0.24599145477E+03  0.12500000000E+03 0.  0.
         25    1    1    2    0    0 -0.23786268113E+02 -0.77356365911E+02 -0.11251578557E+03  0.18664028477E+03  0.12500000000E+03 0.  0.
</event>
<event>
 5    0  0.5838711E-005  0.3351053E+03  0.7546771E-02  0.1068900E+00
         21   -1    0    0  502  501  0.00000000000E+00  0.00000000000E+00  0.28102023544E+03  0.28102023544E+03  0.00000000000E+00 0.  1.
         21   -1    0    0  501  502 -0.00000000000E+00 -0.00000000000E+00 -0.39959950692E+03  0.39959950692E+03  0.00000000000E+00 0.  1.
         25    1    1    2    0    0 -0.41009202520E+02 -0.16585138624E+03 -0.12920567032E+03  0.24800714153E+03  0.12500000000E+03 0.  0.
         25    1    1    2    0    0 -0.11265748843E+03  0.15337747669E+03  0.42414343559E+02  0.23160383545E+03  0.12500000000E+03 0.  0.
         25    1    1    2    0    0  0.15366669095E+03  0.12473909553E+02 -0.31787944719E+02  0.20100876537E+03  0.12500000000E+03 0.  0.
</event>
<event>
 5    0  0.5626800E-005  0.4600311E+03  0.7546771E-02  0.1024772E+00
         21   -1    0    0  502  501  0.00000000000E+00  0.00000000000E+00  0.43141365761E+03  0.43141365761E+03  0.00000000000E+00 0. -1.
         21   -1    0    0  501  502 -0.00000000000E+00 -0.00000000000E+00 -0.49054692512E+03  0.49054692512E+03  0.00000000000E+00 0.  1.
         25    1    1    2    0    0  0.14229671102E+03 -0.28950757619E+03 -0.69769448441E+02  0.35292459050E+03  0.12500000000E+03 0.  0.
         25    1    1    2    0    0 -0.14484533925E+03  0.13065439781E+03  0.18934902208E+03  0.29921362959E+03  0.12500000000E+03 0.  0.
         25    1    1    2    0    0  0.25486282309E+01  0.15885317839E+03 -0.17871284115E+03  0.26982236264E+03  0.12500000000E+03 0.  0.
</event>
<event>
 5    0  0.5744090E-005  0.3245099E+03  0.7546771E-02  0.1073592E+00
         21   -1    0    0  502  501  0.00000000000E+00  0.00000000000E+00  0.54681224728E+03  0.54681224728E+03  0.00000000000E+00 0. -1.
         21   -1    0    0  501  502 -0.00000000000E+00 -0.00000000000E+00 -0.19258287702E+03  0.19258287702E+03  0.00000000000E+00 0. -1.
         25    1    1    2    0    0  0.10581540062E+03 -0.49361376216E+02  0.37194353772E+03  0.40939032685E+03  0.12500000000E+03 0.  0.
         25    1    1    2    0    0  0.22261788510E+02 -0.29386267106E+02 -0.31231647863E+02  0.13401326707E+03  0.12500000000E+03 0.  0.
         25    1    1    2    0    0 -0.12807718913E+03  0.78747643323E+02  0.13517480406E+02  0.19599153038E+03  0.12500000000E+03 0.  0.
</event>
<event>
 5    0  0.5626800E-005  0.2778277E+03  0.7546771E-02  0.1096881E+00
         21   -1    0    0  502  501  0.00000000000E+00  0.00000000000E+00  0.10215763277E+03  0.10215763277E+03  0.00000000000E+00 0.  1.
         21   -1    0    0  501  502 -0.00000000000E+00 -0.00000000000E+00 -0.75557989638E+03  0.75557989638E+03  0.00000000000E+00 0.  1.
         25    1    1    2    0    0 -0.31548734693E+02 -0.10117433793E+03 -0.33840900644E+03  0.37600162893E+03  0.12500000000E+03 0.  0.
         25    1    1    2    0    0 -0.87524916981E+02  0.57933728129E+02 -0.23616482024E+03  0.28708143491E+03  0.12500000000E+03 0.  0.
         25    1    1    2    0    0  0.11907365167E+03  0.43240609803E+02 -0.78848436924E+02  0.19465446531E+03  0.12500000000E+03 0.  0.
</event>
<event>
 5    0  0.5626800E-005  0.2726112E+03  0.7546771E-02  0.1099794E+00
         21   -1    0    0  502  501  0.00000000000E+00  0.00000000000E+00  0.58771545645E+02  0.58771545645E+02  0.00000000000E+00 0. -1.
         21   -1    0    0  501  502 -0.00000000000E+00 -0.00000000000E+00 -0.12645046562E+04  0.12645046562E+04  0.00000000000E+00 0. -1.
         25    1    1    2    0    0  0.14953931398E+03  0.41245306331E+02 -0.43446366527E+03  0.47796114712E+03  0.12500000000E+03 0.  0.
         25    1    1    2    0    0 -0.91143960144E+02  0.31269804231E+02 -0.56590040340E+03  0.58749747974E+03  0.12500000000E+03 0.  0.
         25    1    1    2    0    0 -0.58395353833E+02 -0.72515110562E+02 -0.20536904190E+03  0.25781757500E+03  0.12500000000E+03 0.  0.
</event>
<event>
 5    0  0.5626800E-005  0.4494959E+03  0.7546771E-02  0.1027872E+00
         21   -1    0    0  502  501  0.00000000000E+00  0.00000000000E+00  0.55361040349E+03  0.55361040349E+03  0.00000000000E+00 0. -1.
         21   -1    0    0  501  502 -0.00000000000E+00 -0.00000000000E+00 -0.36496164575E+03  0.36496164575E+03  0.00000000000E+00 0. -1.
         25    1    1    2    0    0  0.31175476680E+02 -0.93374600287E+02  0.12158073131E+03  0.20024385272E+03  0.12500000000E+03 0.  0.
         25    1    1    2    0    0  0.10972129763E+03  0.30335901758E+03  0.20729563023E+03  0.40331369307E+03  0.12500000000E+03 0.  0.
         25    1    1    2    0    0 -0.14089677431E+03 -0.20998441730E+03 -0.14022760381E+03  0.31501450346E+03  0.12500000000E+03 0.  0.
</event>
<event>
 5    0  0.5626800E-005  0.4483082E+03  0.7546771E-02  0.1028228E+00
         21   -1    0    0  502  501  0.00000000000E+00  0.00000000000E+00  0.42335731472E+03  0.42335731472E+03  0.00000000000E+00 0. -1.
         21   -1    0    0  501  502 -0.00000000000E+00 -0.00000000000E+00 -0.47472968935E+03  0.47472968935E+03  0.00000000000E+00 0. -1.
         25    1    1    2    0    0 -0.72004590718E+02  0.93948567949E+02 -0.32427082645E+03  0.36713425799E+03  0.12500000000E+03 0.  0.
         25    1    1    2    0    0 -0.12829058244E+03  0.16283149903E+02  0.46500033262E+02  0.18577100852E+03  0.12500000000E+03 0.  0.
         25    1    1    2    0    0  0.20029517316E+03 -0.11023171785E+03  0.22639841856E+03  0.34518173755E+03  0.12500000000E+03 0.  0.
</event>
<event>
 5    0  0.5626800E-005  0.3291908E+03  0.7546771E-02  0.1071495E+00
         21   -1    0    0  502  501  0.00000000000E+00  0.00000000000E+00  0.27927153337E+03  0.27927153337E+03  0.00000000000E+00 0. -1.
         21   -1    0    0  501  502 -0.00000000000E+00 -0.00000000000E+00 -0.38803306336E+03  0.38803306336E+03  0.00000000000E+00 0. -1.
         25    1    1    2    0    0  0.18052301578E+02 -0.75362456126E+01  0.63200305990E+02  0.14142828312E+03  0.12500000000E+03 0.  0.
         25    1    1    2    0    0  0.13345035538E+03 -0.15669565093E+03 -0.77287554645E+02  0.25290490401E+03  0.12500000000E+03 0.  0.
         25    1    1    2    0    0 -0.15150265696E+03  0.16423189654E+03 -0.94674281338E+02  0.27297140959E+03  0.12500000000E+03 0.  0.
</event>
<event>
 5    0  0.5626800E-005  0.3055411E+03  0.7546771E-02  0.1082503E+00
         21   -1    0    0  502  501  0.00000000000E+00  0.00000000000E+00  0.19622717425E+04  0.19622717425E+04  0.00000000000E+00 0.  1.
         21   -1    0    0  501  502 -0.00000000000E+00 -0.00000000000E+00 -0.47575153387E+02  0.47575153387E+02  0.00000000000E+00 0.  1.
         25    1    1    2    0    0  0.12236234646E+02 -0.53934405137E+02  0.43350876961E+03  0.45454757598E+03  0.12500000000E+03 0.  0.
         25    1    1    2    0    0  0.46757158368E+02  0.20396897874E+03  0.10551616118E+04  0.10829499542E+04  0.12500000000E+03 0.  0.
         25    1    1    2    0    0 -0.58993393013E+02 -0.15003457360E+03  0.42602620764E+03  0.47234936571E+03  0.12500000000E+03 0.  0.
</event>
<event>
 5    0  0.5813142E-005  0.3073640E+03  0.7546771E-02  0.1081616E+00
         21   -1    0    0  502  501  0.00000000000E+00  0.00000000000E+00  0.20401101112E+03  0.20401101112E+03  0.00000000000E+00 0.  1.
         21   -1    0    0  501  502 -0.00000000000E+00 -0.00000000000E+00 -0.46307622620E+03  0.46307622620E+03  0.00000000000E+00 0.  1.
         25    1    1    2    0    0 -0.72820402257E+02 -0.17222626045E+01  0.55072579600E+02  0.15480234558E+03  0.12500000000E+03 0.  0.
         25    1    1    2    0    0  0.66411113500E+02  0.13419757781E+03 -0.25424305171E+03  0.32044337289E+03  0.12500000000E+03 0.  0.
         25    1    1    2    0    0  0.64092887570E+01 -0.13247531520E+03 -0.59894742968E+02  0.19184151885E+03  0.12500000000E+03 0.  0.
</event>
<event>
 5    0  0.5652531E-005  0.2517489E+03  0.7546771E-02  0.1112205E+00
         21   -1    0    0  502  501  0.00000000000E+00  0.00000000000E+00  0.44880677043E+03  0.44880677043E+03  0.00000000000E+00 0.  1.
         21   -1    0    0  501  502 -0.00000000000E+00 -0.00000000000E+00 -0.14121335016E+03  0.14121335016E+03  0.00000000000E+00 0.  1.
         25    1    1    2    0    0  0.25737311200E+02  0.76261461431E+02 -0.22927997486E+02  0.15042909544E+03  0.12500000000E+03 0.  0.
         25    1    1    2    0    0 -0.53683389459E+02 -0.40596464973E+02  0.10061461937E+03  0.17400655420E+03  0.12500000000E+03 0.  0.
         25    1    1    2    0    0  0.27946078258E+02 -0.35664996458E+02  0.22990679839E+03  0.26558447095E+03  0.12500000000E+03 0.  0.
</event>
<event>
 5    0  0.5626800E-005  0.2888689E+03  0.7546771E-02  0.1090941E+00
         21   -1    0    0  502  501  0.00000000000E+00  0.00000000000E+00  0.24542817059E+03  0.24542817059E+03  0.00000000000E+00 0. -1.
         21   -1    0    0  501  502 -0.00000000000E+00 -0.00000000000E+00 -0.33999864899E+03  0.33999864899E+03  0.00000000000E+00 0. -1.
         25    1    1    2    0    0  0.12739349744E+03 -0.27946379676E+02 -0.97963896290E+02  0.20550432673E+03  0.12500000000E+03 0.  0.
         25    1    1    2    0    0 -0.18783164482E+03  0.64839560601E+02  0.18419320749E+02  0.23547646760E+03  0.12500000000E+03 0.  0.
         25    1    1    2    0    0  0.60438147375E+02 -0.36893180925E+02 -0.15025902857E+02  0.14444602526E+03  0.12500000000E+03 0.  0.
</event>
<event>
 5    0  0.5626800E-005  0.2260780E+03  0.7546771E-02  0.1129431E+00
         21   -1    0    0  502  501  0.00000000000E+00  0.00000000000E+00  0.14837701799E+03  0.14837701799E+03  0.00000000000E+00 0. -1.
         21   -1    0    0  501  502 -0.00000000000E+00 -0.00000000000E+00 -0.34446887848E+03  0.34446887848E+03  0.00000000000E+00 0. -1.
         25    1    1    2    0    0  0.90452939914E+00  0.18079582449E+02 -0.13246496408E+03  0.18302911294E+03  0.12500000000E+03 0.  0.
         25    1    1    2    0    0 -0.83217714641E+02  0.83831458909E+01 -0.43050099383E+02  0.15644096721E+03  0.12500000000E+03 0.  0.
         25    1    1    2    0    0  0.82313185242E+02 -0.26462728340E+02 -0.20576797023E+02  0.15337581632E+03  0.12500000000E+03 0.  0.
</event>
<event>
 5    0  0.5626800E-005  0.2999159E+03  0.7546771E-02  0.1085283E+00
         21   -1    0    0  502  501  0.00000000000E+00  0.00000000000E+00  0.89962035450E+03  0.89962035450E+03  0.00000000000E+00 0. -1.
         21   -1    0    0  501  502 -0.00000000000E+00 -0.00000000000E+00 -0.99986104724E+02  0.99986104724E+02  0.00000000000E+00 0. -1.
         25    1    1    2    0    0  0.79475029181E+02  0.17933796905E+02  0.22432932231E+03  0.26941890465E+03  0.12500000000E+03 0.  0.
         25    1    1    2    0    0  0.54280256722E+02 -0.72654878624E+02  0.50252587663E+03  0.52572077602E+03  0.12500000000E+03 0.  0.
         25    1    1    2    0    0 -0.13375528590E+03  0.54721081718E+02  0.72779050839E+02  0.20446677855E+03  0.12500000000E+03 0.  0.
</event>
<event>
 5    0  0.5626800E-005  0.3586778E+03  0.7546771E-02  0.1059109E+00
         21   -1    0    0  502  501  0.00000000000E+00  0.00000000000E+00  0.10131878703E+03  0.10131878703E+03  0.00000000000E+00 0. -1.
         21   -1    0    0  501  502 -0.00000000000E+00 -0.00000000000E+00 -0.12697525633E+04  0.12697525633E+04  0.00000000000E+00 0. -1.
         25    1    1    2    0    0 -0.17527121294E+03 -0.29338478605E+02 -0.81432632330E+03  0.84281261573E+03  0.12500000000E+03 0.  0.
         25    1    1    2    0    0  0.59133983461E+02 -0.46549466399E+02 -0.22423127056E+02  0.14761936678E+03  0.12500000000E+03 0.  0.
         25    1    1    2    0    0  0.11613722948E+03  0.75887945004E+02 -0.33168432588E+03  0.38063936778E+03  0.12500000000E+03 0.  0.
</event>
<event>
 5    0  0.5626800E-005  0.3145416E+03  0.7546771E-02  0.1078189E+00
         21   -1    0    0  502  501  0.00000000000E+00  0.00000000000E+00  0.16975695403E+03  0.16975695403E+03  0.00000000000E+00 0.  1.
         21   -1    0    0  501  502 -0.00000000000E+00 -0.00000000000E+00 -0.58281205297E+03  0.58281205297E+03  0.00000000000E+00 0.  1.
         25    1    1    2    0    0 -0.13800128560E+02 -0.47697601790E+02 -0.14291949250E+03  0.19625617469E+03  0.12500000000E+03 0.  0.
         25    1    1    2    0    0 -0.15812194246E+03  0.43629573138E+02 -0.27490131314E+03  0.34365945397E+03  0.12500000000E+03 0.  0.
         25    1    1    2    0    0  0.17192207102E+03  0.40680286523E+01  0.47657066998E+01  0.21265337835E+03  0.12500000000E+03 0.  0.
</event>
<event>
 5    0  0.5626800E-005  0.2388608E+03  0.7546771E-02  0.1120554E+00
         21   -1    0    0  502  501  0.00000000000E+00  0.00000000000E+00  0.51292020890E+03  0.51292020890E+03  0.00000000000E+00 0.  1.
         21   -1    0    0  501  502 -0.00000000000E+00 -0.00000000000E+00 -0.11123463409E+03  0.11123463409E+03  0.00000000000E+00 0.  1.
         25    1    1    2    0    0 -0.12958172325E+02 -0.22773941025E+02  0.33260555206E+02  0.13197663108E+03  0.12500000000E+03 0.  0.
         25    1    1    2    0    0 -0.93099227393E+02  0.22994012649E+02  0.13832012824E+03  0.20965125479E+03  0.12500000000E+03 0.  0.
         25    1    1    2    0    0  0.10605739972E+03 -0.22007162389E+00  0.23010489137E+03  0.28252695712E+03  0.12500000000E+03 0.  0.
</event>
<event>
 5    0  0.5626800E-005  0.3364706E+03  0.7546771E-02  0.1068309E+00
         21   -1    0    0  502  501  0.00000000000E+00  0.00000000000E+00  0.15374683479E+04  0.15374683479E+04  0.00000000000E+00 0.  1.
         21   -1    0    0  501  502 -0.00000000000E+00 -0.00000000000E+00 -0.73635637588E+02  0.73635637588E+02  0.00000000000E+00 0.  1.
         25    1    1    2    0    0 -0.14432244581E+03 -0.20115437481E+03  0.48476415851E+03  0.55849202344E+03  0.12500000000E+03 0.  0.
         25    1    1    2    0    0  0.22351599242E+02  0.12750209078E+03  0.63247336274E+03  0.65757427848E+03  0.12500000000E+03 0.  0.
         25    1    1    2    0    0  0.12197084657E+03  0.73652284037E+02  0.34659518905E+03  0.39503768356E+03  0.12500000000E+03 0.  0.
</event>
<event>
 5    0  0.5626800E-005  0.2084813E+03  0.7546771E-02  0.1142774E+00
         21   -1    0    0  502  501  0.00000000000E+00  0.00000000000E+00  0.18586358703E+03  0.18586358703E+03  0.00000000000E+00 0.  1.
         21   -1    0    0  501  502 -0.00000000000E+00 -0.00000000000E+00 -0.23385134765E+03  0.23385134765E+03  0.00000000000E+00 0.  1.
         25    1    1    2    0    0 -0.33334798467E+01  0.96316009225E+01 -0.20258862093E+02  0.12704054989E+03  0.12500000000E+03 0.  0.
         25    1    1    2    0    0  0.36963598868E+02 -0.69719186246E+02 -0.25090955566E+02  0.14993874957E+03  0.12500000000E+03 0.  0.
         25    1    1    2    0    0 -0.33630119021E+02  0.60087585323E+02 -0.26379429636E+01  0.14273563521E+03  0.12500000000E+03 0.  0.
</event>
<event>
 5    0  0.5626800E-005  0.3298350E+03  0.7546771E-02  0.1071210E+00
         21   -1    0    0  502  501  0.00000000000E+00  0.00000000000E+00  0.66405525313E+03  0.66405525313E+03  0.00000000000E+00 0.  1.
         21   -1    0    0  501  502 -0.00000000000E+00 -0.00000000000E+00 -0.16382839239E+03  0.16382839239E+03  0.00000000000E+00 0.  1.
         25    1    1    2    0    0  0.96804723513E+02  0.19666874695E+03  0.31388784053E+03  0.40274101723E+03  0.12500000000E+03 0.  0.
         25    1    1    2    0    0 -0.13103869191E+03 -0.99887059501E+02  0.48031314635E+02  0.21232185619E+03  0.12500000000E+03 0.  0.
         25    1    1    2    0    0  0.34233968393E+02 -0.96781687449E+02  0.13830770557E+03  0.21282077210E+03  0.12500000000E+03 0.  0.
</event>
<event>
 5    0  0.5626800E-005  0.2345412E+03  0.7546771E-02  0.1123484E+00
         21   -1    0    0  502  501  0.00000000000E+00  0.00000000000E+00  0.39879197222E+03  0.39879197222E+03  0.00000000000E+00 0. -1.
         21   -1    0    0  501  502 -0.00000000000E+00 -0.00000000000E+00 -0.13794050430E+03  0.13794050430E+03  0.00000000000E+00 0. -1.
         25    1    1    2    0    0 -0.18017181242E+02 -0.12038141092E+02  0.20922036516E+03  0.24467876258E+03  0.12500000000E+03 0.  0.
         25    1    1    2    0    0  0.28976119691E+02  0.43227514986E+02  0.83250309165E+02  0.15894605230E+03  0.12500000000E+03 0.  0.
         25    1    1    2    0    0 -0.10958938449E+02 -0.31189373894E+02 -0.31619206394E+02  0.13310766165E+03  0.12500000000E+03 0.  0.
</event>
<event>
 5    0  0.5626800E-005  0.3423761E+03  0.7546771E-02  0.1065788E+00
         21   -1    0    0  502  501  0.00000000000E+00  0.00000000000E+00  0.16607249397E+03  0.16607249397E+03  0.00000000000E+00 0.  1.
         21   -1    0    0  501  502 -0.00000000000E+00 -0.00000000000E+00 -0.70584466637E+03  0.70584466637E+03  0.00000000000E+00 0.  1.
         25    1    1    2    0    0 -0.68591822913E+02 -0.12646565730E+01 -0.40585137205E+03  0.43017063326E+03  0.12500000000E+03 0.  0.
         25    1    1    2    0    0 -0.10153750142E+03 -0.12942174841E+02  0.41599204807E+02  0.16683182528E+03  0.12500000000E+03 0.  0.
         25    1    1    2    0    0  0.17012932434E+03  0.14206831414E+02 -0.17552000515E+03  0.27491470180E+03  0.12500000000E+03 0.  0.
</event>
<event>
 5    0  0.5626800E-005  0.2830130E+03  0.7546771E-02  0.1094055E+00
         21   -1    0    0  502  501  0.00000000000E+00  0.00000000000E+00  0.74056543318E+03  0.74056543318E+03  0.00000000000E+00 0. -1.
         21   -1    0    0  501  502 -0.00000000000E+00 -0.00000000000E+00 -0.10815570282E+03  0.10815570282E+03  0.00000000000E+00 0. -1.
         25    1    1    2    0    0  0.37852076812E+02  0.14760904065E+03  0.39743077237E+03  0.44361856073E+03  0.12500000000E+03 0.  0.
         25    1    1    2    0    0 -0.28471639662E+02 -0.15638261113E+03  0.16684672901E+03  0.26216213745E+03  0.12500000000E+03 0.  0.
         25    1    1    2    0    0 -0.93804371501E+01  0.87735704772E+01  0.68132228977E+02  0.14294043782E+03  0.12500000000E+03 0.  0.
</event>
<event>
 5    0  0.5626800E-005  0.3410838E+03  0.7546771E-02  0.1066335E+00
         21   -1    0    0  502  501  0.00000000000E+00  0.00000000000E+00  0.61360379656E+03  0.61360379656E+03  0.00000000000E+00 0.  1.
         21   -1    0    0  501  502 -0.00000000000E+00 -0.00000000000E+00 -0.18959819031E+03  0.18959819031E+03  0.00000000000E+00 0.  1.
         25    1    1    2    0    0 -0.14856448168E+03  0.63726369569E+02  0.33331003449E+03  0.39096423684E+03  0.12500000000E+03 0.  0.
         25    1    1    2    0    0  0.18512579397E+02 -0.85772437096E+02 -0.71521940735E+02  0.16864167506E+03  0.12500000000E+03 0.  0.
         25    1    1    2    0    0  0.13005190229E+03  0.22046067527E+02  0.16221751249E+03  0.24359607497E+03  0.12500000000E+03 0.  0.
</event>
<event>
 5    0  0.5626800E-005  0.5130218E+03  0.7546771E-02  0.1010435E+00
         21   -1    0    0  502  501  0.00000000000E+00  0.00000000000E+00  0.96097042187E+03  0.96097042187E+03  0.00000000000E+00 0.  1.
         21   -1    0    0  501  502 -0.00000000000E+00 -0.00000000000E+00 -0.27388081699E+03  0.27388081699E+03  0.00000000000E+00 0.  1.
         25    1    1    2    0    0 -0.12084018102E+02  0.42061422837E+03  0.55474569866E+03  0.70741087268E+03  0.12500000000E+03 0.  0.
         25    1    1    2    0    0  0.50098751852E+02 -0.22517884581E+03  0.10331471967E+02  0.26257786817E+03  0.12500000000E+03 0.  0.
         25    1    1    2    0    0 -0.38014733751E+02 -0.19543538256E+03  0.12201243425E+03  0.26486249801E+03  0.12500000000E+03 0.  0.
</event>
<event>
 5    0  0.5626800E-005  0.2930392E+03  0.7546771E-02  0.1088773E+00
         21   -1    0    0  502  501  0.00000000000E+00  0.00000000000E+00  0.64316242791E+02  0.64316242791E+02  0.00000000000E+00 0.  1.
         21   -1    0    0  501  502 -0.00000000000E+00 -0.00000000000E+00 -0.13351522174E+04  0.13351522174E+04  0.00000000000E+00 0.  1.
         25    1    1    2    0    0  0.22721347404E+02 -0.11675868982E+03 -0.51904594371E+03  0.54697581570E+03  0.12500000000E+03 0.  0.
         25    1    1    2    0    0 -0.55692066508E+02 -0.75876507114E+02 -0.20014583471E+03  0.25405158089E+03  0.12500000000E+03 0.  0.
         25    1    1    2    0    0  0.32970719104E+02  0.19263519693E+03 -0.55164419623E+03  0.59844106364E+03  0.12500000000E+03 0.  0.
</event>
<event>
 5    0  0.5626800E-005  0.2172956E+03  0.7546771E-02  0.1135916E+00
         21   -1    0    0  502  501  0.00000000000E+00  0.00000000000E+00  0.91581526687E+02  0.91581526687E+02  0.00000000000E+00 0. -1.
         21   -1    0    0  501  502 -0.00000000000E+00 -0.00000000000E+00 -0.51557737703E+03  0.51557737703E+03  0.00000000000E+00 0. -1.
         25    1    1    2    0    0 -0.93361201755E+01  0.85198288191E+02 -0.18375854412E+03  0.23819763640E+03  0.12500000000E+03 0.  0.
         25    1    1    2    0    0 -0.17190194427E+02 -0.65158655624E+02 -0.79853089167E+02  0.16291921015E+03  0.12500000000E+03 0.  0.
         25    1    1    2    0    0  0.26526314602E+02 -0.20039632567E+02 -0.16038421706E+03  0.20604205717E+03  0.12500000000E+03 0.  0.
</event>
<event>
 5    0  0.5626800E-005  0.3996670E+03  0.7546771E-02  0.1043895E+00
         21   -1    0    0  502  501  0.00000000000E+00  0.00000000000E+00  0.85143479115E+03  0.85143479115E+03  0.00000000000E+00 0.  1.
         21   -1    0    0  501  502 -0.00000000000E+00 -0.00000000000E+00 -0.18760530769E+03  0.18760530769E+03  0.00000000000E+00 0.  1.
         25    1    1    2    0    0 -0.87720059636E+02 -0.22711086315E+03  0.14443389791E+03  0.30945161801E+03  0.12500000000E+03 0.  0.
         25    1    1    2    0    0  0.20369401399E+03  0.20592073307E+02  0.19652738667E+03  0.31010207760E+03  0.12500000000E+03 0.  0.
         25    1    1    2    0    0 -0.11597395435E+03  0.20651878984E+03  0.32286819889E+03  0.41948640324E+03  0.12500000000E+03 0.  0.
</event>
<event>
 5    0  0.5626800E-005  0.2650138E+03  0.7546771E-02  0.1104168E+00
         21   -1    0    0  502  501  0.00000000000E+00  0.00000000000E+00  0.82862846101E+02  0.82862846101E+02  0.00000000000E+00 0. -1.
         21   -1    0    0  501  502 -0.00000000000E+00 -0.00000000000E+00 -0.84757278246E+03  0.84757278246E+03  0.00000000000E+00 0. -1.
         25    1    1    2    0    0 -0.66354873779E+02 -0.12886722373E+03 -0.27669819279E+03  0.33644705456E+03  0.12500000000E+03 0.  0.
         25    1    1    2    0    0 -0.22633310430E+02 -0.13691218193E+02 -0.21169929081E+03  0.24726768071E+03  0.12500000000E+03 0.  0.
         25    1    1    2    0    0  0.88988184209E+02  0.14255844193E+03 -0.27631245277E+03  0.34672089329E+03  0.12500000000E+03 0.  0.
</event>
<event>
 5    0  0.5626800E-005  0.2474242E+03  0.7546771E-02  0.1114944E+00
         21   -1    0    0  502  501  0.00000000000E+00  0.00000000000E+00  0.70775926989E+03  0.70775926989E+03  0.00000000000E+00 0. -1.
         21   -1    0    0  501  502 -0.00000000000E+00 -0.00000000000E+00 -0.86496546966E+02  0.86496546966E+02  0.00000000000E+00 0. -1.
         25    1    1    2    0    0  0.81211627044E+01  0.19753217184E+02  0.11207649507E+03  0.16924031322E+03  0.12500000000E+03 0.  0.
         25    1    1    2    0    0 -0.77602671112E+02 -0.16438121598E+02  0.71232191043E+02  0.16429063104E+03  0.12500000000E+03 0.  0.
         25    1    1    2    0    0  0.69481508407E+02 -0.33150955863E+01  0.43795403681E+03  0.46072487260E+03  0.12500000000E+03 0.  0.
</event>
<event>
 5    0  0.5626800E-005  0.5649995E+03  0.7546771E-02  0.9980805E-01
         21   -1    0    0  502  501  0.00000000000E+00  0.00000000000E+00  0.11967282316E+04  0.11967282316E+04  0.00000000000E+00 0.  1.
         21   -1    0    0  501  502 -0.00000000000E+00 -0.00000000000E+00 -0.26674763479E+03  0.26674763479E+03  0.00000000000E+00 0.  1.
         25    1    1    2    0    0 -0.14017477629E+03  0.50886696692E+03  0.45705517526E+03  0.70930881226E+03  0.12500000000E+03 0.  0.
         25    1    1    2    0    0  0.64783717191E+02 -0.31273622501E+03  0.27502851586E+03  0.43962092874E+03  0.12500000000E+03 0.  0.
         25    1    1    2    0    0  0.75391059095E+02 -0.19613074191E+03  0.19789690567E+03  0.31454612537E+03  0.12500000000E+03 0.  0.
</event>
<event>
 5    0  0.5626800E-005  0.5468853E+03  0.7546771E-02  0.1002217E+00
         21   -1    0    0  502  501  0.00000000000E+00  0.00000000000E+00  0.20401818456E+04  0.20401818456E+04  0.00000000000E+00 0.  1.
         21   -1    0    0  501  502 -0.00000000000E+00 -0.00000000000E+00 -0.14659650055E+03  0.14659650055E+03  0.00000000000E+00 0.  1.
         25    1    1    2    0    0  0.13146185108E+03  0.37967674769E+02  0.76706543423E+03  0.78913759447E+03  0.12500000000E+03 0.  0.
         25    1    1    2    0    0  0.19363874386E+03  0.27034497451E+03  0.57794058940E+03  0.67839715008E+03  0.12500000000E+03 0.  0.
         25    1    1    2    0    0 -0.32510059494E+03 -0.30831264928E+03  0.54857932139E+03  0.71924360157E+03  0.12500000000E+03 0.  0.
</event>
<event>
 5    0  0.5626800E-005  0.2778557E+03  0.7546771E-02  0.1096866E+00
         21   -1    0    0  502  501  0.00000000000E+00  0.00000000000E+00  0.45608730580E+03  0.45608730580E+03  0.00000000000E+00 0. -1.
         21   -1    0    0  501  502 -0.00000000000E+00 -0.00000000000E+00 -0.16927419904E+03  0.16927419904E+03  0.00000000000E+00 0. -1.
         25    1    1    2    0    0  0.12086979774E+03  0.41196350260E+02  0.25734375573E+03  0.31330090311E+03  0.12500000000E+03 0.  0.
         25    1    1    2    0    0 -0.49675848835E+01  0.17364199149E+02 -0.12746016237E+02  0.12693956531E+03  0.12500000000E+03 0.  0.
         25    1    1    2    0    0 -0.11590221285E+03 -0.58560549409E+02  0.42215367269E+02  0.18512103642E+03  0.12500000000E+03 0.  0.
</event>
<event>
 5    0  0.5626800E-005  0.8119080E+03  0.7546771E-02  0.9542939E-01
         21   -1    0    0  502  501  0.00000000000E+00  0.00000000000E+00  0.57688871212E+03  0.57688871212E+03  0.00000000000E+00 0. -1.
         21   -1    0    0  501  502 -0.00000000000E+00 -0.00000000000E+00 -0.11426720372E+04  0.11426720372E+04  0.00000000000E+00 0. -1.
         25    1    1    2    0    0  0.42574654607E+02 -0.40787097071E+03  0.25349445697E+03  0.49805197488E+03  0.12500000000E+03 0.  0.
         25    1    1    2    0    0  0.92109041105E+02  0.32097569460E+03 -0.92575488628E+03  0.99204666294E+03  0.12500000000E+03 0.  0.
         25    1    1    2    0    0 -0.13468369571E+03  0.86895276110E+02  0.10647710421E+03  0.22946211152E+03  0.12500000000E+03 0.  0.
</event>
<event>
 5    0  0.5626800E-005  0.3501247E+03  0.7546771E-02  0.1062564E+00
         21   -1    0    0  502  501  0.00000000000E+00  0.00000000000E+00  0.76072640536E+03  0.76072640536E+03  0.00000000000E+00 0.  1.
         21   -1    0    0  501  502 -0.00000000000E+00 -0.00000000000E+00 -0.16114510390E+03  0.16114510390E+03  0.00000000000E+00 0.  1.
         25    1    1    2    0    0  0.11832605106E+03 -0.20516484513E+02 -0.45806517899E+02  0.17929087422E+03  0.12500000000E+03 0.  0.
         25    1    1    2    0    0 -0.14645713766E+03 -0.37535539153E+02  0.51374454577E+03  0.54992460227E+03  0.12500000000E+03 0.  0.
         25    1    1    2    0    0  0.28131086606E+02  0.58052023666E+02  0.13164327358E+03  0.19265603278E+03  0.12500000000E+03 0.  0.
</event>
<event>
 5    0  0.5626800E-005  0.3248154E+03  0.7546771E-02  0.1073454E+00
         21   -1    0    0  502  501  0.00000000000E+00  0.00000000000E+00  0.10401236170E+04  0.10401236170E+04  0.00000000000E+00 0. -1.
         21   -1    0    0  501  502 -0.00000000000E+00 -0.00000000000E+00 -0.10143508275E+03  0.10143508275E+03  0.00000000000E+00 0. -1.
         25    1    1    2    0    0 -0.99120700459E+02 -0.28050248378E+02  0.62618361643E+03  0.64679413354E+03  0.12500000000E+03 0.  0.
         25    1    1    2    0    0 -0.30667933418E+02 -0.95052436058E+02  0.17354865974E+03  0.23605004774E+03  0.12500000000E+03 0.  0.
         25    1    1    2    0    0  0.12978863388E+03  0.12310268444E+03  0.13895625806E+03  0.25871451844E+03  0.12500000000E+03 0.  0.
</event>
<event>
 5    0  0.5626800E-005  0.2348938E+03  0.7546771E-02  0.1123242E+00
         21   -1    0    0  502  501  0.00000000000E+00  0.00000000000E+00  0.89549488860E+03  0.89549488860E+03  0.00000000000E+00 0.  1.
         21   -1    0    0  501  502 -0.00000000000E+00 -0.00000000000E+00 -0.61614105167E+02  0.61614105167E+02  0.00000000000E+00 0.  1.
         25    1    1    2    0    0 -0.14349308325E+02 -0.13390279366E+02  0.12432497833E+03  0.17738912726E+03  0.12500000000E+03 0.  0.
         25    1    1    2    0    0 -0.77452044001E+02 -0.17275080613E+02  0.21928580059E+03  0.26459121276E+03  0.12500000000E+03 0.  0.
         25    1    1    2    0    0  0.91801352326E+02  0.30665359979E+02  0.49027000451E+03  0.51512865375E+03  0.12500000000E+03 0.  0.
</event>
<event>
 5    0  0.5626800E-005  0.2853234E+03  0.7546771E-02  0.1092816E+00
         21   -1    0    0  502  501  0.00000000000E+00  0.00000000000E+00  0.13741175850E+03  0.13741175850E+03  0.00000000000E+00 0. -1.
         21   -1    0    0  501  502 -0.00000000000E+00 -0.00000000000E+00 -0.59244896890E+03  0.59244896890E+03  0.00000000000E+00 0. -1.
         25    1    1    2    0    0  0.84016859972E+02 -0.14827358989E+02 -0.26235742216E+03  0.30287802875E+03  0.12500000000E+03 0.  0.
         25    1    1    2    0    0  0.50629048978E+02  0.10314141217E+03 -0.46177395386E+02  0.17595113910E+03  0.12500000000E+03 0.  0.
         25    1    1    2    0    0 -0.13464590895E+03 -0.88314053180E+02 -0.14650239285E+03  0.25103155956E+03  0.12500000000E+03 0.  0.
</event>
<event>
 5    0  0.5626800E-005  0.2727451E+03  0.7546771E-02  0.1099719E+00
         21   -1    0    0  502  501  0.00000000000E+00  0.00000000000E+00  0.89798614172E+02  0.89798614172E+02  0.00000000000E+00 0.  1.
         21   -1    0    0  501  502 -0.00000000000E+00 -0.00000000000E+00 -0.82840794058E+03  0.82840794058E+03  0.00000000000E+00 0.  1.
         25    1    1    2    0    0 -0.61502148438E+01  0.89825959966E+02 -0.42566347455E+03  0.45268192121E+03  0.12500000000E+03 0.  0.
         25    1    1    2    0    0 -0.55071589169E+02 -0.87582404851E+02 -0.53079657454E+02  0.17072201852E+03  0.12500000000E+03 0.  0.
         25    1    1    2    0    0  0.61221804013E+02 -0.22435551147E+01 -0.25986619440E+03  0.29480261502E+03  0.12500000000E+03 0.  0.
</event>
<event>
 5    0  0.5626800E-005  0.2453363E+03  0.7546771E-02  0.1116288E+00
         21   -1    0    0  502  501  0.00000000000E+00  0.00000000000E+00  0.10816706432E+03  0.10816706432E+03  0.00000000000E+00 0. -1.
         21   -1    0    0  501  502 -0.00000000000E+00 -0.00000000000E+00 -0.55645304785E+03  0.55645304785E+03  0.00000000000E+00 0. -1.
         25    1    1    2    0    0 -0.62033151186E+02  0.52379984525E+02 -0.85279098143E+02  0.17172448633E+03  0.12500000000E+03 0.  0.
         25    1    1    2    0    0 -0.47943065010E+02 -0.91612642447E+02 -0.18406175308E+03  0.24534698426E+03  0.12500000000E+03 0.  0.
         25    1    1    2    0    0  0.10997621620E+03  0.39232657922E+02 -0.17894513231E+03  0.24754864159E+03  0.12500000000E+03 0.  0.
</event>
<event>
 5    0  0.5626800E-005  0.2387113E+03  0.7546771E-02  0.1120654E+00
         21   -1    0    0  502  501  0.00000000000E+00  0.00000000000E+00  0.25198661559E+03  0.25198661559E+03  0.00000000000E+00 0.  1.
         21   -1    0    0  501  502 -0.00000000000E+00 -0.00000000000E+00 -0.22613540213E+03  0.22613540213E+03  0.00000000000E+00 0.  1.
         25    1    1    2    0    0  0.20060268221E+02 -0.21924027566E+02  0.69333792295E+02  0.14599743868E+03  0.12500000000E+03 0.  0.
         25    1    1    2    0    0 -0.38271769976E+02  0.42975596050E+02  0.75808270487E+02  0.15710991091E+03  0.12500000000E+03 0.  0.
         25    1    1    2    0    0  0.18211501755E+02 -0.21051568484E+02 -0.11929084932E+03  0.17501466814E+03  0.12500000000E+03 0.  0.
</event>
<event>
 5    0  0.5626800E-005  0.2933242E+03  0.7546771E-02  0.1088626E+00
         21   -1    0    0  502  501  0.00000000000E+00  0.00000000000E+00  0.17221637571E+04  0.17221637571E+04  0.00000000000E+00 0. -1.
         21   -1    0    0  501  502 -0.00000000000E+00 -0.00000000000E+00 -0.49959866730E+02  0.49959866730E+02  0.00000000000E+00 0. -1.
         25    1    1    2    0    0 -0.23252308795E+02 -0.33266176883E+02  0.47240531535E+03  0.49034588849E+03  0.12500000000E+03 0.  0.
         25    1    1    2    0    0  0.80901592135E+02 -0.15687567359E+03  0.57019980316E+03  0.60984248794E+03  0.12500000000E+03 0.  0.
         25    1    1    2    0    0 -0.57649283340E+02  0.19014185048E+03  0.62959877191E+03  0.67193524745E+03  0.12500000000E+03 0.  0.
</event>
<event>
 5    0  0.5626800E-005  0.3489179E+03  0.7546771E-02  0.1063060E+00
         21   -1    0    0  502  501  0.00000000000E+00  0.00000000000E+00  0.43458088890E+03  0.43458088890E+03  0.00000000000E+00 0. -1.
         21   -1    0    0  501  502 -0.00000000000E+00 -0.00000000000E+00 -0.28014052452E+03  0.28014052452E+03  0.00000000000E+00 0. -1.
         25    1    1    2    0    0  0.89513843429E+02  0.23914987381E+03  0.17020776348E+02  0.28481590043E+03  0.12500000000E+03 0.  0.
         25    1    1    2    0    0 -0.53899216938E+02 -0.19256045459E+03  0.16666756357E+03  0.28876933876E+03  0.12500000000E+03 0.  0.
         25    1    1    2    0    0 -0.35614626491E+02 -0.46589419220E+02 -0.29247975549E+02  0.14113617423E+03  0.12500000000E+03 0.  0.
</event>
<event>
 5    0  0.5626800E-005  0.2749608E+03  0.7546771E-02  0.1098474E+00
         21   -1    0    0  502  501  0.00000000000E+00  0.00000000000E+00  0.10945097667E+04  0.10945097667E+04  0.00000000000E+00 0. -1.
         21   -1    0    0  501  502 -0.00000000000E+00 -0.00000000000E+00 -0.69075165324E+02  0.69075165324E+02  0.00000000000E+00 0. -1.
         25    1    1    2    0    0 -0.58849243791E+02 -0.43016596485E+02  0.18260866370E+03  0.23299052583E+03  0.12500000000E+03 0.  0.
         25    1    1    2    0    0  0.17530884355E+03 -0.96879237843E+01  0.47570727332E+03  0.52225420667E+03  0.12500000000E+03 0.  0.
         25    1    1    2    0    0 -0.11645959976E+03  0.52704520270E+02  0.36711866438E+03  0.40834019955E+03  0.12500000000E+03 0.  0.
</event>
<event>
 5    0  0.5626800E-005  0.4284117E+03  0.7546771E-02  0.1034363E+00
         21   -1    0    0  502  501  0.00000000000E+00  0.00000000000E+00  0.12255043776E+04  0.12255043776E+04  0.00000000000E+00 0. -1.
         21   -1    0    0  501  502 -0.00000000000E+00 -0.00000000000E+00 -0.14976414571E+03  0.14976414571E+03  0.00000000000E+00 0. -1.
         25    1    1    2    0    0 -0.66433328439E+02  0.20470651112E+03  0.63911633417E+02  0.25695882882E+03  0.12500000000E+03 0.  0.
         25    1    1    2    0    0  0.20309763050E+03 -0.15476167940E+03  0.61713604293E+03  0.67947164798E+03  0.12500000000E+03 0.  0.
         25    1    1    2    0    0 -0.13666430206E+03 -0.49944831722E+02  0.39469255559E+03  0.43883804656E+03  0.12500000000E+03 0.  0.
</event>
<event>
 5    0  0.5626800E-005  0.2481016E+03  0.7546771E-02  0.1114510E+00
         21   -1    0    0  502  501  0.00000000000E+00  0.00000000000E+00  0.11035257008E+03  0.11035257008E+03  0.00000000000E+00 0. -1.
         21   -1    0    0  501  502 -0.00000000000E+00 -0.00000000000E+00 -0.55779770493E+03  0.55779770493E+03  0.00000000000E+00 0. -1.
         25    1    1    2    0    0  0.38085826651E+02 -0.44750395543E+02  0.47260189317E+01  0.13820442593E+03  0.12500000000E+03 0.  0.
         25    1    1    2    0    0 -0.49617036406E+02 -0.18547001829E+02 -0.22602011317E+03  0.26365874371E+03  0.12500000000E+03 0.  0.
         25    1    1    2    0    0  0.11531209755E+02  0.63297397372E+02 -0.22615104062E+03  0.26628710537E+03  0.12500000000E+03 0.  0.
</event>
<event>
 5    0  0.5626800E-005  0.5042526E+03  0.7546771E-02  0.1012675E+00
         21   -1    0    0  502  501  0.00000000000E+00  0.00000000000E+00  0.51484145904E+03  0.51484145904E+03  0.00000000000E+00 0. -1.
         21   -1    0    0  501  502 -0.00000000000E+00 -0.00000000000E+00 -0.49388148487E+03  0.49388148487E+03  0.00000000000E+00 0. -1.
         25    1    1    2    0    0 -0.68108814636E+02  0.14960088901E+02  0.91935888535E+02  0.17011708466E+03  0.12500000000E+03 0.  0.
         25    1    1    2    0    0 -0.22313516972E+03 -0.14305369124E+03  0.23823042459E+03  0.37766704615E+03  0.12500000000E+03 0.  0.
         25    1    1    2    0    0  0.29124398436E+03  0.12809360234E+03 -0.30920633895E+03  0.46093881311E+03  0.12500000000E+03 0.  0.
</event>
<event>
 5    0  0.5626800E-005  0.2836512E+03  0.7546771E-02  0.1093711E+00
         21   -1    0    0  502  501  0.00000000000E+00  0.00000000000E+00  0.86915143460E+03  0.86915143460E+03  0.00000000000E+00 0. -1.
         21   -1    0    0  501  502 -0.00000000000E+00 -0.00000000000E+00 -0.92570729258E+02  0.92570729258E+02  0.00000000000E+00 0. -1.
         25    1    1    2    0    0  0.41370984454E+02 -0.13924775661E+03  0.45819292852E+03  0.49665607398E+03  0.12500000000E+03 0.  0.
         25    1    1    2    0    0 -0.94421005486E+02  0.78789306419E+02  0.23937162595E+03  0.29672690541E+03  0.12500000000E+03 0.  0.
         25    1    1    2    0    0  0.53050021032E+02  0.60458450188E+02  0.79016150879E+02  0.16833918448E+03  0.12500000000E+03 0.  0.
</event>
<event>
 5    0  0.5626800E-005  0.2397872E+03  0.7546771E-02  0.1119935E+00
         21   -1    0    0  502  501  0.00000000000E+00  0.00000000000E+00  0.17785901607E+03  0.17785901607E+03  0.00000000000E+00 0. -1.
         21   -1    0    0  501  502 -0.00000000000E+00 -0.00000000000E+00 -0.32327808417E+03  0.32327808417E+03  0.00000000000E+00 0. -1.
         25    1    1    2    0    0 -0.18395225880E+02  0.78352287898E+01 -0.88729053889E+02  0.15458855116E+03  0.12500000000E+03 0.  0.
         25    1    1    2    0    0 -0.56742511874E+01  0.62321985259E+02 -0.12354617550E+03  0.18656067231E+03  0.12500000000E+03 0.  0.
         25    1    1    2    0    0  0.24069477067E+02 -0.70157214048E+02  0.66856161291E+02  0.15998787677E+03  0.12500000000E+03 0.  0.
</event>
<event>
 5    0  0.5626800E-005  0.2528160E+03  0.7546771E-02  0.1111538E+00
         21   -1    0    0  502  501  0.00000000000E+00  0.00000000000E+00  0.43266736622E+02  0.43266736622E+02  0.00000000000E+00 0.  1.
         21   -1    0    0  501  502 -0.00000000000E+00 -0.00000000000E+00 -0.14772536237E+04  0.14772536237E+04  0.00000000000E+00 0.  1.
         25    1    1    2    0    0  0.52024239515E+01 -0.26787982951E+02 -0.11854386676E+03  0.17441992315E+03  0.12500000000E+03 0.  0.
         25    1    1    2    0    0  0.22842090657E+02  0.72937071423E+02 -0.77802980496E+03  0.79170509339E+03  0.12500000000E+03 0.  0.
         25    1    1    2    0    0 -0.28044514608E+02 -0.46149088472E+02 -0.53741321540E+03  0.55439534383E+03  0.12500000000E+03 0.  0.
</event>
<event>
 5    0  0.5626800E-005  0.4450935E+03  0.7546771E-02  0.1029195E+00
         21   -1    0    0  502  501  0.00000000000E+00  0.00000000000E+00  0.91986196027E+03  0.91986196027E+03  0.00000000000E+00 0. -1.
         21   -1    0    0  501  502 -0.00000000000E+00 -0.00000000000E+00 -0.21536736919E+03  0.21536736919E+03  0.00000000000E+00 0. -1.
         25    1    1    2    0    0 -0.22184172858E+03 -0.22496923766E+03  0.21709645855E+03  0.40321307364E+03  0.12500000000E+03 0.  0.
         25    1    1    2    0    0 -0.81870541437E+02  0.51998228261E+02  0.23441454665E+03  0.28281050366E+03  0.12500000000E+03 0.  0.
         25    1    1    2    0    0  0.30371227002E+03  0.17297100940E+03  0.25298358587E+03  0.44920575216E+03  0.12500000000E+03 0.  0.
</event>
<event>
 5    0  0.5626800E-005  0.3202330E+03  0.7546771E-02  0.1075542E+00
         21   -1    0    0  502  501  0.00000000000E+00  0.00000000000E+00  0.45290199273E+03  0.45290199273E+03  0.00000000000E+00 0. -1.
         21   -1    0    0  501  502 -0.00000000000E+00 -0.00000000000E+00 -0.22642680344E+03  0.22642680344E+03  0.00000000000E+00 0. -1.
         25    1    1    2    0    0  0.63109088114E+02  0.60074129151E+02  0.34071180491E+02  0.15613296685E+03  0.12500000000E+03 0.  0.
         25    1    1    2    0    0 -0.12408101626E+03 -0.69075089416E+02 -0.89070349581E+02  0.20910761284E+03  0.12500000000E+03 0.  0.
         25    1    1    2    0    0  0.60971928148E+02  0.90009602647E+01  0.28147435838E+03  0.31408821648E+03  0.12500000000E+03 0.  0.
</event>
<event>
 5    0  0.5626800E-005  0.2611256E+03  0.7546771E-02  0.1106469E+00
         21   -1    0    0  502  501  0.00000000000E+00  0.00000000000E+00  0.52813461823E+03  0.52813461823E+03  0.00000000000E+00 0. -1.
         21   -1    0    0  501  502 -0.00000000000E+00 -0.00000000000E+00 -0.12910832357E+03  0.12910832357E+03  0.00000000000E+00 0. -1.
         25    1    1    2    0    0 -0.29217865077E+02 -0.11978076513E+03  0.34759716673E+02  0.17898143266E+03  0.12500000000E+03 0.  0.
         25    1    1    2    0    0 -0.79554512676E+01  0.12723239488E+03  0.19383271728E+03  0.26352892403E+03  0.12500000000E+03 0.  0.
         25    1    1    2    0    0  0.37173316344E+02 -0.74516297464E+01  0.17043386070E+03  0.21473258511E+03  0.12500000000E+03 0.  0.
</event>
<event>
 5    0  0.5626800E-005  0.2350336E+03  0.7546771E-02  0.1123146E+00
         21   -1    0    0  502  501  0.00000000000E+00  0.00000000000E+00  0.42061829964E+03  0.42061829964E+03  0.00000000000E+00 0. -1.
         21   -1    0    0  501  502 -0.00000000000E+00 -0.00000000000E+00 -0.13133234115E+03  0.13133234115E+03  0.00000000000E+00 0. -1.
         25    1    1    2    0    0 -0.10967450061E+03  0.45159497786E+02  0.12114358807E+03  0.21063866040E+03  0.12500000000E+03 0.  0.
         25    1    1    2    0    0  0.10021437750E+03 -0.17291274525E+02  0.13088105762E+03  0.20759759362E+03  0.12500000000E+03 0.  0.
         25    1    1    2    0    0  0.94601231095E+01 -0.27868223261E+02  0.37261312803E+02  0.13371438677E+03  0.12500000000E+03 0.  0.
</event>
<event>
 5    0  0.5626800E-005  0.4488337E+03  0.7546771E-02  0.1028070E+00
         21   -1    0    0  502  501  0.00000000000E+00  0.00000000000E+00  0.48103306293E+03  0.48103306293E+03  0.00000000000E+00 0.  1.
         21   -1    0    0  501  502 -0.00000000000E+00 -0.00000000000E+00 -0.41878973374E+03  0.41878973374E+03  0.00000000000E+00 0.  1.
         25    1    1    2    0    0  0.18272222277E+03 -0.18366145033E+03  0.19195079203E+03  0.34581649121E+03  0.12500000000E+03 0.  0.
         25    1    1    2    0    0  0.41913532286E+02 -0.53447085950E+02  0.62000182287E+02  0.15518491482E+03  0.12500000000E+03 0.  0.
         25    1    1    2    0    0 -0.22463575506E+03  0.23710853628E+03 -0.19170764514E+03  0.39882139063E+03  0.12500000000E+03 0.  0.
</event>
<event>
 5    0  0.5626800E-005  0.2823217E+03  0.7546771E-02  0.1094428E+00
         21   -1    0    0  502  501  0.00000000000E+00  0.00000000000E+00  0.98748588222E+03  0.98748588222E+03  0.00000000000E+00 0.  1.
         21   -1    0    0  501  502 -0.00000000000E+00 -0.00000000000E+00 -0.80715636125E+02  0.80715636125E+02  0.00000000000E+00 0.  1.
         25    1    1    2    0    0  0.13236772289E+03 -0.83662601031E+02  0.21134718301E+03  0.29122719076E+03  0.12500000000E+03 0.  0.
         25    1    1    2    0    0 -0.13288885224E+03  0.41412430879E+02  0.54835809353E+03  0.57939281599E+03  0.12500000000E+03 0.  0.
         25    1    1    2    0    0  0.52112935116E+00  0.42250170152E+02  0.14706496956E+03  0.19758151160E+03  0.12500000000E+03 0.  0.
</event>
<event>
 5    0  0.5626800E-005  0.3201378E+03  0.7546771E-02  0.1075586E+00
         21   -1    0    0  502  501  0.00000000000E+00  0.00000000000E+00  0.54413333255E+03  0.54413333255E+03  0.00000000000E+00 0.  1.
         21   -1    0    0  501  502 -0.00000000000E+00 -0.00000000000E+00 -0.18835130922E+03  0.18835130922E+03  0.00000000000E+00 0.  1.
         25    1    1    2    0    0 -0.23477269289E+00  0.12225179137E+03  0.26656769451E+03  0.31879286593E+03  0.12500000000E+03 0.  0.
         25    1    1    2    0    0 -0.14607850122E+02  0.23196787140E+02 -0.85442804877E+02  0.15387317220E+03  0.12500000000E+03 0.  0.
         25    1    1    2    0    0  0.14842622815E+02 -0.14544857851E+03  0.17465713370E+03  0.25981860363E+03  0.12500000000E+03 0.  0.
</event>
<event>
 5    0  0.5626800E-005  0.4277570E+03  0.7546771E-02  0.1034571E+00
         21   -1    0    0  502  501  0.00000000000E+00  0.00000000000E+00  0.62242249842E+03  0.62242249842E+03  0.00000000000E+00 0. -1.
         21   -1    0    0  501  502 -0.00000000000E+00 -0.00000000000E+00 -0.29397409537E+03  0.29397409537E+03  0.00000000000E+00 0. -1.
         25    1    1    2    0    0  0.29061365701E+03 -0.94454621109E+02  0.18935062715E+03  0.38060035877E+03  0.12500000000E+03 0.  0.
         25    1    1    2    0    0 -0.31753241960E+03  0.13061181454E+03  0.16415930216E+03  0.40057403820E+03  0.12500000000E+03 0.  0.
         25    1    1    2    0    0  0.26918762591E+02 -0.36157193429E+02 -0.25061526258E+02  0.13522219683E+03  0.12500000000E+03 0.  0.
</event>
<event>
 5    0  0.5626800E-005  0.5084863E+03  0.7546771E-02  0.1011587E+00
         21   -1    0    0  502  501  0.00000000000E+00  0.00000000000E+00  0.14564501740E+04  0.14564501740E+04  0.00000000000E+00 0.  1.
         21   -1    0    0  501  502 -0.00000000000E+00 -0.00000000000E+00 -0.17752637753E+03  0.17752637753E+03  0.00000000000E+00 0.  1.
         25    1    1    2    0    0  0.36222913372E+03  0.13655144211E+03  0.20239776291E+03  0.45436339651E+03  0.12500000000E+03 0.  0.
         25    1    1    2    0    0 -0.70658816102E+02 -0.25498097917E+02  0.30636321391E+03  0.33930257902E+03  0.12500000000E+03 0.  0.
         25    1    1    2    0    0 -0.29157031761E+03 -0.11105334419E+03  0.77016281964E+03  0.84031057600E+03  0.12500000000E+03 0.  0.
</event>
<event>
 5    0  0.5626800E-005  0.3723870E+03  0.7546771E-02  0.1053784E+00
         21   -1    0    0  502  501  0.00000000000E+00  0.00000000000E+00  0.22519174909E+03  0.22519174909E+03  0.00000000000E+00 0.  1.
         21   -1    0    0  501  502 -0.00000000000E+00 -0.00000000000E+00 -0.61579543095E+03  0.61579543095E+03  0.00000000000E+00 0.  1.
         25    1    1    2    0    0  0.11883563169E+02 -0.10081511886E+03  0.79204557428E+02  0.17945269344E+03  0.12500000000E+03 0.  0.
         25    1    1    2    0    0  0.42767744902E+02  0.15117024469E+03 -0.35956042868E+02  0.20395921137E+03  0.12500000000E+03 0.  0.
         25    1    1    2    0    0 -0.54651308071E+02 -0.50355125829E+02 -0.43385219641E+03  0.45757527523E+03  0.12500000000E+03 0.  0.
</event>
<event>
 5    0  0.5626800E-005  0.2709136E+03  0.7546771E-02  0.1100758E+00
         21   -1    0    0  502  501  0.00000000000E+00  0.00000000000E+00  0.20518833484E+03  0.20518833484E+03  0.00000000000E+00 0.  1.
         21   -1    0    0  501  502 -0.00000000000E+00 -0.00000000000E+00 -0.35769178609E+03  0.35769178609E+03  0.00000000000E+00 0.  1.
         25    1    1    2    0    0  0.41007430102E+01  0.13728697881E+03 -0.10651273089E+03  0.21408991682E+03  0.12500000000E+03 0.  0.
         25    1    1    2    0    0  0.58470712584E+02 -0.36047713876E+02 -0.92547840058E+02  0.17002460000E+03  0.12500000000E+03 0.  0.
         25    1    1    2    0    0 -0.62571455594E+02 -0.10123926493E+03  0.46557119705E+02  0.17876560411E+03  0.12500000000E+03 0.  0.
</event>
<event>
 5    0  0.5626800E-005  0.3829849E+03  0.7546771E-02  0.1049836E+00
         21   -1    0    0  502  501  0.00000000000E+00  0.00000000000E+00  0.20562281991E+04  0.20562281991E+04  0.00000000000E+00 0.  1.
         21   -1    0    0  501  502 -0.00000000000E+00 -0.00000000000E+00 -0.71333259698E+02  0.71333259698E+02  0.00000000000E+00 0. -1.
         25    1    1    2    0    0 -0.19358065608E+03 -0.91044200223E+02  0.44956695490E+03  0.51332052729E+03  0.12500000000E+03 0.  0.
         25    1    1    2    0    0  0.20938103273E+02 -0.93331960005E+01  0.10560354323E+03  0.16523504791E+03  0.12500000000E+03 0.  0.
         25    1    1    2    0    0  0.17264255281E+03  0.10037739622E+03  0.14297244413E+04  0.14490058836E+04  0.12500000000E+03 0.  0.
</event>
<event>
 5    0  0.5626800E-005  0.2835279E+03  0.7546771E-02  0.1093778E+00
         21   -1    0    0  502  501  0.00000000000E+00  0.00000000000E+00  0.84859773608E+03  0.84859773608E+03  0.00000000000E+00 0. -1.
         21   -1    0    0  501  502 -0.00000000000E+00 -0.00000000000E+00 -0.94730468283E+02  0.94730468283E+02  0.00000000000E+00 0. -1.
         25    1    1    2    0    0  0.11600977607E+03 -0.72918145500E+01  0.13308246175E+03  0.21644255665E+03  0.12500000000E+03 0.  0.
         25    1    1    2    0    0  0.27209184486E+02 -0.88837412694E+02  0.18506394601E+03  0.24188032108E+03  0.12500000000E+03 0.  0.
         25    1    1    2    0    0 -0.14321896055E+03  0.96129227244E+02  0.43572086003E+03  0.48500532663E+03  0.12500000000E+03 0.  0.
</event>
<event>
 5    0  0.5626800E-005  0.2920551E+03  0.7546771E-02  0.1089281E+00
         21   -1    0    0  502  501  0.00000000000E+00  0.00000000000E+00  0.60767840472E+03  0.60767840472E+03  0.00000000000E+00 0. -1.
         21   -1    0    0  501  502 -0.00000000000E+00 -0.00000000000E+00 -0.14036399070E+03  0.14036399070E+03  0.00000000000E+00 0. -1.
         25    1    1    2    0    0 -0.16385805935E+03 -0.34876468042E+02  0.13021884283E+03  0.24626769716E+03  0.12500000000E+03 0.  0.
         25    1    1    2    0    0  0.15929793951E+03 -0.14788053093E+02  0.93603088179E+02  0.22356443851E+03  0.12500000000E+03 0.  0.
         25    1    1    2    0    0  0.45601198394E+01  0.49664521135E+02  0.24349248301E+03  0.27821025976E+03  0.12500000000E+03 0.  0.
</event>
<event>
 5    0  0.5626800E-005  0.3963266E+03  0.7546771E-02  0.1045059E+00
         21   -1    0    0  502  501  0.00000000000E+00  0.00000000000E+00  0.38224786704E+03  0.38224786704E+03  0.00000000000E+00 0.  1.
         21   -1    0    0  501  502 -0.00000000000E+00 -0.00000000000E+00 -0.41092394685E+03  0.41092394685E+03  0.00000000000E+00 0.  1.
         25    1    1    2    0    0  0.26543594901E+03  0.26311576060E+02  0.31161977154E+02  0.29621716845E+03  0.12500000000E+03 0.  0.
         25    1    1    2    0    0  0.20481124454E+02  0.10488506393E+02  0.83000968477E+02  0.15180133726E+03  0.12500000000E+03 0.  0.
         25    1    1    2    0    0 -0.28591707346E+03 -0.36800082453E+02 -0.14283902543E+03  0.34515330819E+03  0.12500000000E+03 0.  0.
</event>
<event>
 5    0  0.5626800E-005  0.2213233E+03  0.7546771E-02  0.1132900E+00
         21   -1    0    0  502  501  0.00000000000E+00  0.00000000000E+00  0.71848800960E+02  0.71848800960E+02  0.00000000000E+00 0.  1.
         21   -1    0    0  501  502 -0.00000000000E+00 -0.00000000000E+00 -0.68176490061E+03  0.68176490061E+03  0.00000000000E+00 0.  1.
         25    1    1    2    0    0 -0.33245676503E+02  0.35544283430E+02 -0.37780794413E+03  0.40091459656E+03  0.12500000000E+03 0.  0.
         25    1    1    2    0    0  0.23749559473E+01 -0.37774300348E+02 -0.15466128616E+03  0.20242937440E+03  0.12500000000E+03 0.  0.
         25    1    1    2    0    0  0.30870720555E+02  0.22300169173E+01 -0.77446869360E+02  0.15026973061E+03  0.12500000000E+03 0.  0.
</event>
<event>
 5    0  0.5626800E-005  0.2207087E+03  0.7546771E-02  0.1133356E+00
         21   -1    0    0  502  501  0.00000000000E+00  0.00000000000E+00  0.97780741572E+02  0.97780741572E+02  0.00000000000E+00 0.  1.
         21   -1    0    0  501  502 -0.00000000000E+00 -0.00000000000E+00 -0.49817932101E+03  0.49817932101E+03  0.00000000000E+00 0.  1.
         25    1    1    2    0    0 -0.44326641562E+02 -0.94727589174E+00 -0.10279734267E+03  0.16780358203E+03  0.12500000000E+03 0.  0.
         25    1    1    2    0    0  0.97286904611E+02  0.59044055371E+01 -0.96826004116E+02  0.18574143018E+03  0.12500000000E+03 0.  0.
         25    1    1    2    0    0 -0.52960263049E+02 -0.49571296453E+01 -0.20077523266E+03  0.24241505037E+03  0.12500000000E+03 0.  0.
</event>
<event>
 5    0  0.5626800E-005  0.2930143E+03  0.7546771E-02  0.1088786E+00
         21   -1    0    0  502  501  0.00000000000E+00  0.00000000000E+00  0.56528525897E+03  0.56528525897E+03  0.00000000000E+00 0.  1.
         21   -1    0    0  501  502 -0.00000000000E+00 -0.00000000000E+00 -0.15188330845E+03  0.15188330845E+03  0.00000000000E+00 0.  1.
         25    1    1    2    0    0  0.15279015645E+03  0.39747715253E+02  0.10460875645E+03  0.22692004032E+03  0.12500000000E+03 0.  0.
         25    1    1    2    0    0  0.34985077797E+02 -0.47803701867E+02  0.19045953788E+03  0.23539113226E+03  0.12500000000E+03 0.  0.
         25    1    1    2    0    0 -0.18777523424E+03  0.80559866143E+01  0.11833365620E+03  0.25485739484E+03  0.12500000000E+03 0.  0.
</event>
<event>
 5    0  0.5626800E-005  0.4853289E+03  0.7546771E-02  0.1017681E+00
         21   -1    0    0  502  501  0.00000000000E+00  0.00000000000E+00  0.12109073191E+03  0.12109073191E+03  0.00000000000E+00 0. -1.
         21   -1    0    0  501  502 -0.00000000000E+00 -0.00000000000E+00 -0.19451873721E+04  0.19451873721E+04  0.00000000000E+00 0. -1.
         25    1    1    2    0    0 -0.40938599910E+02 -0.30500252650E+01 -0.24160494939E+03  0.27510583997E+03  0.12500000000E+03 0.  0.
         25    1    1    2    0    0 -0.18763669431E+03  0.11108162881E+03 -0.81959437782E+02  0.26436529037E+03  0.12500000000E+03 0.  0.
         25    1    1    2    0    0  0.22857529422E+03 -0.10803160355E+03 -0.15005322530E+04  0.15268069736E+04  0.12500000000E+03 0.  0.
</event>
<event>
 5    0  0.5626800E-005  0.4148127E+03  0.7546771E-02  0.1038768E+00
         21   -1    0    0  502  501  0.00000000000E+00  0.00000000000E+00  0.13805543029E+03  0.13805543029E+03  0.00000000000E+00 0.  1.
         21   -1    0    0  501  502 -0.00000000000E+00 -0.00000000000E+00 -0.12463801683E+04  0.12463801683E+04  0.00000000000E+00 0.  1.
         25    1    1    2    0    0  0.33601757413E+03  0.76812303793E+02 -0.64474658591E+03  0.74170823117E+03  0.12500000000E+03 0.  0.
         25    1    1    2    0    0 -0.15786944436E+03 -0.40615720899E+02 -0.13102580784E+03  0.24364966769E+03  0.12500000000E+03 0.  0.
         25    1    1    2    0    0 -0.17814812977E+03 -0.36196582894E+02 -0.33255234424E+03  0.39907769972E+03  0.12500000000E+03 0.  0.
</event>
<event>
 5    0  0.5626800E-005  0.4951242E+03  0.7546771E-02  0.1015059E+00
         21   -1    0    0  502  501  0.00000000000E+00  0.00000000000E+00  0.36451568173E+03  0.36451568173E+03  0.00000000000E+00 0. -1.
         21   -1    0    0  501  502 -0.00000000000E+00 -0.00000000000E+00 -0.67253061940E+03  0.67253061940E+03  0.00000000000E+00 0. -1.
         25    1    1    2    0    0  0.18804734143E+03 -0.37603035819E+03 -0.57592684255E+02  0.44238280954E+03  0.12500000000E+03 0.  0.
         25    1    1    2    0    0 -0.16918967243E+03  0.31266648700E+03 -0.10360995692E+03  0.39082668860E+03  0.12500000000E+03 0.  0.
         25    1    1    2    0    0 -0.18857668991E+02  0.63363871196E+02 -0.14681229650E+03  0.20383680300E+03  0.12500000000E+03 0.  0.
</event>
<event>
 5    0  0.5626800E-005  0.2352399E+03  0.7546771E-02  0.1123005E+00
         21   -1    0    0  502  501  0.00000000000E+00  0.00000000000E+00  0.43848415688E+03  0.43848415688E+03  0.00000000000E+00 0.  1.
         21   -1    0    0  501  502 -0.00000000000E+00 -0.00000000000E+00 -0.12620257189E+03  0.12620257189E+03  0.00000000000E+00 0.  1.
         25    1    1    2    0    0  0.77117914817E+02  0.39013246869E+02  0.66905588275E+02  0.16604386155E+03  0.12500000000E+03 0.  0.
         25    1    1    2    0    0 -0.76921660144E+02 -0.35323643883E+02  0.36691911349E+02  0.15535764537E+03  0.12500000000E+03 0.  0.
         25    1    1    2    0    0 -0.19625467248E+00 -0.36896029866E+01  0.20868408536E+03  0.24328522184E+03  0.12500000000E+03 0.  0.
</event>
<event>
 5    0  0.5626800E-005  0.2860945E+03  0.7546771E-02  0.1092406E+00
         21   -1    0    0  502  501  0.00000000000E+00  0.00000000000E+00  0.10759733096E+03  0.10759733096E+03  0.00000000000E+00 0. -1.
         21   -1    0    0  501  502 -0.00000000000E+00 -0.00000000000E+00 -0.76070728756E+03  0.76070728756E+03  0.00000000000E+00 0. -1.
         25    1    1    2    0    0 -0.89196299485E+02  0.40289137940E+02 -0.39675926791E+02  0.16364099011E+03  0.12500000000E+03 0.  0.
         25    1    1    2    0    0 -0.45203226965E+02 -0.31560171728E+02 -0.40179465043E+03  0.42438581183E+03  0.12500000000E+03 0.  0.
         25    1    1    2    0    0  0.13439952645E+03 -0.87289662120E+01 -0.21163937938E+03  0.28027781658E+03  0.12500000000E+03 0.  0.
</event>
<event>
 5    0  0.5626800E-005  0.4173976E+03  0.7546771E-02  0.1037917E+00
         21   -1    0    0  502  501  0.00000000000E+00  0.00000000000E+00  0.12619671167E+04  0.12619671167E+04  0.00000000000E+00 0. -1.
         21   -1    0    0  501  502 -0.00000000000E+00 -0.00000000000E+00 -0.13805490214E+03  0.13805490214E+03  0.00000000000E+00 0. -1.
         25    1    1    2    0    0  0.14196529088E+03 -0.19743988344E+02  0.62200008968E+03  0.65042530736E+03  0.12500000000E+03 0.  0.
         25    1    1    2    0    0  0.12383866328E+01  0.21564106991E+02  0.54087475424E+03  0.55555111743E+03  0.12500000000E+03 0.  0.
         25    1    1    2    0    0 -0.14320367752E+03 -0.18201186472E+01 -0.38962629341E+02  0.19404559405E+03  0.12500000000E+03 0.  0.
</event>
<event>
 5    0  0.5626800E-005  0.2543525E+03  0.7546771E-02  0.1110585E+00
         21   -1    0    0  502  501  0.00000000000E+00  0.00000000000E+00  0.16953525353E+03  0.16953525353E+03  0.00000000000E+00 0. -1.
         21   -1    0    0  501  502 -0.00000000000E+00 -0.00000000000E+00 -0.38160320272E+03  0.38160320272E+03  0.00000000000E+00 0. -1.
         25    1    1    2    0    0 -0.80757063002E+02 -0.12130627708E+02 -0.13317463307E+03  0.20007333217E+03  0.12500000000E+03 0.  0.
         25    1    1    2    0    0 -0.20978170633E+01 -0.38122847865E+02  0.56953848555E+02  0.14257101119E+03  0.12500000000E+03 0.  0.
         25    1    1    2    0    0  0.82854880065E+02  0.50253475572E+02 -0.13584716469E+03  0.20849411289E+03  0.12500000000E+03 0.  0.
</event>
<event>
 5    0  0.5626800E-005  0.6187018E+03  0.7546771E-02  0.9867348E-01
         21   -1    0    0  502  501  0.00000000000E+00  0.00000000000E+00  0.81102246275E+03  0.81102246275E+03  0.00000000000E+00 0.  1.
         21   -1    0    0  501  502 -0.00000000000E+00 -0.00000000000E+00 -0.47198677109E+03  0.47198677109E+03  0.00000000000E+00 0.  1.
         25    1    1    2    0    0  0.18714328085E+03  0.92419839265E+02 -0.21127608075E+03  0.32222137818E+03  0.12500000000E+03 0.  0.
         25    1    1    2    0    0 -0.33730590853E+03  0.13589614565E+03  0.53635875811E+03  0.65996117744E+03  0.12500000000E+03 0.  0.
         25    1    1    2    0    0  0.15016262768E+03 -0.22831598492E+03  0.13953014310E+02  0.30082667822E+03  0.12500000000E+03 0.  0.
</event>
<event>
 5    0  0.5626800E-005  0.2525488E+03  0.7546771E-02  0.1111705E+00
         21   -1    0    0  502  501  0.00000000000E+00  0.00000000000E+00  0.96898526475E+02  0.96898526475E+02  0.00000000000E+00 0. -1.
         21   -1    0    0  501  502 -0.00000000000E+00 -0.00000000000E+00 -0.65822334302E+03  0.65822334302E+03  0.00000000000E+00 0. -1.
         25    1    1    2    0    0 -0.47907392553E+02 -0.23799544793E+02 -0.17019696347E+03  0.21783834136E+03  0.12500000000E+03 0.  0.
         25    1    1    2    0    0  0.14686808185E+03 -0.72525739238E+01 -0.28156057174E+03  0.34135639565E+03  0.12500000000E+03 0.  0.
         25    1    1    2    0    0 -0.98960689296E+02  0.31052118716E+02 -0.10956728134E+03  0.19592713248E+03  0.12500000000E+03 0.  0.
</event>
<event>
 5    0  0.5626800E-005  0.2994531E+03  0.7546771E-02  0.1085514E+00
         21   -1    0    0  502  501  0.00000000000E+00  0.00000000000E+00  0.21403829158E+03  0.21403829158E+03  0.00000000000E+00 0. -1.
         21   -1    0    0  501  502 -0.00000000000E+00 -0.00000000000E+00 -0.41895378548E+03  0.41895378548E+03  0.00000000000E+00 0. -1.
         25    1    1    2    0    0 -0.40274545038E+02 -0.11283952609E+03  0.79659951577E+02  0.19059251169E+03  0.12500000000E+03 0.  0.
         25    1    1    2    0    0  0.11399176151E+03  0.63023424856E+02 -0.19036128831E+03  0.26235185126E+03  0.12500000000E+03 0.  0.
         25    1    1    2    0    0 -0.73717216468E+02  0.49816101236E+02 -0.94214157169E+02  0.18004771411E+03  0.12500000000E+03 0.  0.
</event>
<event>
 5    0  0.5712743E-005  0.3157046E+03  0.7546771E-02  0.1077643E+00
         21   -1    0    0  502  501  0.00000000000E+00  0.00000000000E+00  0.19991749554E+03  0.19991749554E+03  0.00000000000E+00 0. -1.
         21   -1    0    0  501  502 -0.00000000000E+00 -0.00000000000E+00 -0.49855272105E+03  0.49855272105E+03  0.00000000000E+00 0. -1.
         25    1    1    2    0    0  0.44164290903E+02 -0.11121052831E+01  0.70662638098E+02  0.15023291847E+03  0.12500000000E+03 0.  0.
         25    1    1    2    0    0  0.10050841448E+03 -0.65865467933E+01 -0.30797456154E+03  0.34730196449E+03  0.12500000000E+03 0.  0.
         25    1    1    2    0    0 -0.14467270538E+03  0.76986520765E+01 -0.61323302068E+02  0.20093533363E+03  0.12500000000E+03 0.  0.
</event>
<event>
 5    0  0.5626800E-005  0.4210790E+03  0.7546771E-02  0.1036716E+00
         21   -1    0    0  502  501  0.00000000000E+00  0.00000000000E+00  0.43812593101E+03  0.43812593101E+03  0.00000000000E+00 0. -1.
         21   -1    0    0  501  502 -0.00000000000E+00 -0.00000000000E+00 -0.40469542390E+03  0.40469542390E+03  0.00000000000E+00 0. -1.
         25    1    1    2    0    0  0.54453210013E+02 -0.23327386817E+03  0.22894841723E+03  0.35415283057E+03  0.12500000000E+03 0.  0.
         25    1    1    2    0    0 -0.13902178416E+03  0.43221663021E+02 -0.14567216770E+03  0.24091606228E+03  0.12500000000E+03 0.  0.
         25    1    1    2    0    0  0.84568574148E+02  0.19005220515E+03 -0.49845742421E+02  0.24775246205E+03  0.12500000000E+03 0.  0.
</event>
<event>
 5    0  0.5626800E-005  0.4054265E+03  0.7546771E-02  0.1041917E+00
         21   -1    0    0  502  501  0.00000000000E+00  0.00000000000E+00  0.16155725714E+03  0.16155725714E+03  0.00000000000E+00 0. -1.
         21   -1    0    0  501  502 -0.00000000000E+00 -0.00000000000E+00 -0.10174140613E+04  0.10174140613E+04  0.00000000000E+00 0. -1.
         25    1    1    2    0    0 -0.64163209025E+02 -0.16200535283E+02 -0.13272247995E+03  0.19395780835E+03  0.12500000000E+03 0.  0.
         25    1    1    2    0    0 -0.14161557085E+03 -0.18136921606E+03 -0.59151823647E+03  0.64689147971E+03  0.12500000000E+03 0.  0.
         25    1    1    2    0    0  0.20577877987E+03  0.19756975134E+03 -0.13161608778E+03  0.33812203042E+03  0.12500000000E+03 0.  0.
</event>
<event>
 5    0  0.5626800E-005  0.4748500E+03  0.7546771E-02  0.1020560E+00
         21   -1    0    0  502  501  0.00000000000E+00  0.00000000000E+00  0.10728193915E+04  0.10728193915E+04  0.00000000000E+00 0. -1.
         21   -1    0    0  501  502 -0.00000000000E+00 -0.00000000000E+00 -0.21017752580E+03  0.21017752580E+03  0.00000000000E+00 0. -1.
         25    1    1    2    0    0  0.20528984916E+03 -0.17499805158E+03  0.65948357047E+03  0.72340294438E+03  0.12500000000E+03 0.  0.
         25    1    1    2    0    0 -0.90638264892E+02  0.26247751908E+03  0.37398692101E+02  0.30681167718E+03  0.12500000000E+03 0.  0.
         25    1    1    2    0    0 -0.11465158427E+03 -0.87479467501E+02  0.16575960315E+03  0.25278229575E+03  0.12500000000E+03 0.  0.
</event>
<event>
 5    0  0.5626800E-005  0.3572332E+03  0.7546771E-02  0.1059685E+00
         21   -1    0    0  502  501  0.00000000000E+00  0.00000000000E+00  0.18235325900E+03  0.18235325900E+03  0.00000000000E+00 0. -1.
         21   -1    0    0  501  502 -0.00000000000E+00 -0.00000000000E+00 -0.69982617703E+03  0.69982617703E+03  0.00000000000E+00 0. -1.
         25    1    1    2    0    0  0.10840501851E+03 -0.13761727953E+03 -0.84949279592E+02  0.23136884787E+03  0.12500000000E+03 0.  0.
         25    1    1    2    0    0 -0.13411922031E+03 -0.72958551875E+02 -0.63702348027E+02  0.20734971592E+03  0.12500000000E+03 0.  0.
         25    1    1    2    0    0  0.25714201798E+02  0.21057583140E+03 -0.36882129041E+03  0.44346087224E+03  0.12500000000E+03 0.  0.
</event>
<event>
 5    0  0.5626800E-005  0.3034806E+03  0.7546771E-02  0.1083514E+00
         21   -1    0    0  502  501  0.00000000000E+00  0.00000000000E+00  0.19879738933E+03  0.19879738933E+03  0.00000000000E+00 0.  1.
         21   -1    0    0  501  502 -0.00000000000E+00 -0.00000000000E+00 -0.46328808479E+03  0.46328808479E+03  0.00000000000E+00 0.  1.
         25    1    1    2    0    0 -0.78327584443E+02  0.37236463500E+02 -0.66979576481E+01  0.15228797502E+03  0.12500000000E+03 0.  0.
         25    1    1    2    0    0  0.30877462108E+02 -0.19974719766E+02 -0.33147400820E+03  0.35616348101E+03  0.12500000000E+03 0.  0.
         25    1    1    2    0    0  0.47450122335E+02 -0.17261743734E+02  0.73681270396E+02  0.15363401809E+03  0.12500000000E+03 0.  0.
</event>
<event>
 5    0  0.5626800E-005  0.3937220E+03  0.7546771E-02  0.1045975E+00
         21   -1    0    0  502  501  0.00000000000E+00  0.00000000000E+00  0.23207153190E+04  0.23207153190E+04  0.00000000000E+00 0.  1.
         21   -1    0    0  501  502 -0.00000000000E+00 -0.00000000000E+00 -0.66797089109E+02  0.66797089109E+02  0.00000000000E+00 0.  1.
         25    1    1    2    0    0  0.97336533830E+02  0.10173260027E+03  0.24397827590E+03  0.30817904194E+03  0.12500000000E+03 0.  0.
         25    1    1    2    0    0  0.63629370340E+02 -0.23755311683E+03  0.84377740961E+03  0.88773053178E+03  0.12500000000E+03 0.  0.
         25    1    1    2    0    0 -0.16096590417E+03  0.13582051655E+03  0.11661625444E+04  0.11916028344E+04  0.12500000000E+03 0.  0.
</event>
<event>
 5    0  0.5626800E-005  0.6334071E+03  0.7546771E-02  0.9838423E-01
         21   -1    0    0  502  501  0.00000000000E+00  0.00000000000E+00  0.15204224435E+03  0.15204224435E+03  0.00000000000E+00 0.  1.
         21   -1    0    0  501  502 -0.00000000000E+00 -0.00000000000E+00 -0.26387698882E+04  0.26387698882E+04  0.00000000000E+00 0.  1.
         25    1    1    2    0    0  0.24698333507E+03  0.16819352744E+03 -0.18715549880E+03  0.37408823987E+03  0.12500000000E+03 0.  0.
         25    1    1    2    0    0 -0.28478935965E+03 -0.33211633004E+03 -0.20000773659E+04  0.20511803201E+04  0.12500000000E+03 0.  0.
         25    1    1    2    0    0  0.37806024582E+02  0.16392280260E+03 -0.29949477914E+03  0.36554357256E+03  0.12500000000E+03 0.  0.
</event>
<event>
 5    0  0.5626800E-005  0.4397213E+03  0.7546771E-02  0.1030832E+00
         21   -1    0    0  502  501  0.00000000000E+00  0.00000000000E+00  0.23210585947E+03  0.23210585947E+03  0.00000000000E+00 0.  1.
         21   -1    0    0  501  502 -0.00000000000E+00 -0.00000000000E+00 -0.83304580103E+03  0.83304580103E+03  0.00000000000E+00 0.  1.
         25    1    1    2    0    0 -0.15150642430E+03  0.96133447201E+02 -0.14421453252E+03  0.26195165138E+03  0.12500000000E+03 0.  0.
         25    1    1    2    0    0  0.10356056847E+03 -0.64859460232E+02  0.11888357607E+03  0.21139972939E+03  0.12500000000E+03 0.  0.
         25    1    1    2    0    0  0.47945855823E+02 -0.31273986968E+02 -0.57560898512E+03  0.59180027974E+03  0.12500000000E+03 0.  0.
</event>
<event>
 5    0  0.5626800E-005  0.3320539E+03  0.7546771E-02  0.1070232E+00
         21   -1    0    0  502  501  0.00000000000E+00  0.00000000000E+00  0.10319355627E+04  0.10319355627E+04  0.00000000000E+00 0. -1.
         21   -1    0    0  501  502 -0.00000000000E+00 -0.00000000000E+00 -0.10684757130E+03  0.10684757130E+03  0.00000000000E+00 0. -1.
         25    1    1    2    0    0 -0.74773104293E+02 -0.80906970384E+01  0.12266075378E+03  0.19059679174E+03  0.12500000000E+03 0.  0.
         25    1    1    2    0    0 -0.17267964845E+03  0.42766803118E+01  0.46431820346E+03  0.51093340568E+03  0.12500000000E+03 0.  0.
         25    1    1    2    0    0  0.24745275274E+03  0.38140167266E+01  0.33810903421E+03  0.43725293661E+03  0.12500000000E+03 0.  0.
</event>
<event>
 5    0  0.5626800E-005  0.2628134E+03  0.7546771E-02  0.1105465E+00
         21   -1    0    0  502  501  0.00000000000E+00  0.00000000000E+00  0.38679010563E+03  0.38679010563E+03  0.00000000000E+00 0. -1.
         21   -1    0    0  501  502 -0.00000000000E+00 -0.00000000000E+00 -0.17857452582E+03  0.17857452582E+03  0.00000000000E+00 0. -1.
         25    1    1    2    0    0  0.13198844152E+02 -0.64587210900E+02  0.37555196593E+02  0.14622280975E+03  0.12500000000E+03 0.  0.
         25    1    1    2    0    0 -0.36993905978E+02  0.14596366577E+03  0.18256076202E+03  0.26763290648E+03  0.12500000000E+03 0.  0.
         25    1    1    2    0    0  0.23795061826E+02 -0.81376454870E+02 -0.11900378802E+02  0.15150891522E+03  0.12500000000E+03 0.  0.
</event>
<event>
 5    0  0.5626800E-005  0.2113124E+03  0.7546771E-02  0.1140531E+00
         21   -1    0    0  502  501  0.00000000000E+00  0.00000000000E+00  0.63642350886E+02  0.63642350886E+02  0.00000000000E+00 0.  1.
         21   -1    0    0  501  502 -0.00000000000E+00 -0.00000000000E+00 -0.70162271631E+03  0.70162271631E+03  0.00000000000E+00 0.  1.
         25    1    1    2    0    0 -0.45613997337E+02  0.24386869022E+02 -0.17267304040E+03  0.21935435946E+03  0.12500000000E+03 0.  0.
         25    1    1    2    0    0 -0.13512289154E+02 -0.58763052064E+02 -0.18289738963E+03  0.22959123106E+03  0.12500000000E+03 0.  0.
         25    1    1    2    0    0  0.59126286491E+02  0.34376183042E+02 -0.28240993539E+03  0.31631947667E+03  0.12500000000E+03 0.  0.
</event>
<event>
 5    0  0.5626800E-005  0.5384049E+03  0.7546771E-02  0.1004214E+00
         21   -1    0    0  502  501  0.00000000000E+00  0.00000000000E+00  0.87287279955E+02  0.87287279955E+02  0.00000000000E+00 0. -1.
         21   -1    0    0  501  502 -0.00000000000E+00 -0.00000000000E+00 -0.33209859331E+04  0.33209859331E+04  0.00000000000E+00 0. -1.
         25    1    1    2    0    0 -0.20404885455E+03  0.13507658281E+03 -0.19299524314E+04  0.19494160679E+04  0.12500000000E+03 0.  0.
         25    1    1    2    0    0  0.60111093401E+02  0.13475176624E+03 -0.97057284122E+03  0.98965045454E+03  0.12500000000E+03 0.  0.
         25    1    1    2    0    0  0.14393776115E+03 -0.26982834905E+03 -0.33317338050E+03  0.46920669061E+03  0.12500000000E+03 0.  0.
</event>
<event>
 5    0  0.5626800E-005  0.3810975E+03  0.7546771E-02  0.1050529E+00
         21   -1    0    0  502  501  0.00000000000E+00  0.00000000000E+00  0.10774190543E+03  0.10774190543E+03  0.00000000000E+00 0. -1.
         21   -1    0    0  501  502 -0.00000000000E+00 -0.00000000000E+00 -0.13479929425E+04  0.13479929425E+04  0.00000000000E+00 0. -1.
         25    1    1    2    0    0 -0.14664133310E+03  0.53474162159E+02 -0.94604432716E+03  0.96694779360E+03  0.12500000000E+03 0.  0.
         25    1    1    2    0    0  0.75222599974E+02  0.93468581058E+02 -0.19353843928E+03  0.25976324349E+03  0.12500000000E+03 0.  0.
         25    1    1    2    0    0  0.71418733127E+02 -0.14694274322E+03 -0.10066827064E+03  0.22902381086E+03  0.12500000000E+03 0.  0.
</event>
<event>
 5    0  0.5626800E-005  0.3011055E+03  0.7546771E-02  0.1084689E+00
         21   -1    0    0  502  501  0.00000000000E+00  0.00000000000E+00  0.32832697018E+03  0.32832697018E+03  0.00000000000E+00 0. -1.
         21   -1    0    0  501  502 -0.00000000000E+00 -0.00000000000E+00 -0.27614088987E+03  0.27614088987E+03  0.00000000000E+00 0. -1.
         25    1    1    2    0    0  0.63616517776E+02  0.59186141931E+02 -0.15112277783E+03  0.21450677077E+03  0.12500000000E+03 0.  0.
         25    1    1    2    0    0 -0.50167338345E+01 -0.91408084094E+02  0.17025699144E+02  0.15587007374E+03  0.12500000000E+03 0.  0.
         25    1    1    2    0    0 -0.58599783941E+02  0.32221942163E+02  0.18628315899E+03  0.23409101554E+03  0.12500000000E+03 0.  0.
</event>
<event>
 5    0  0.5626800E-005  0.5524972E+03  0.7546771E-02  0.1000918E+00
         21   -1    0    0  502  501  0.00000000000E+00  0.00000000000E+00  0.94179926887E+03  0.94179926887E+03  0.00000000000E+00 0.  1.
         21   -1    0    0  501  502 -0.00000000000E+00 -0.00000000000E+00 -0.32411700298E+03  0.32411700298E+03  0.00000000000E+00 0.  1.
         25    1    1    2    0    0  0.47197560838E+03 -0.27060746482E+02  0.23567420591E+03  0.54282648262E+03  0.12500000000E+03 0.  0.
         25    1    1    2    0    0 -0.71906520966E+02 -0.72947733785E+02  0.25053592729E+02  0.16353776974E+03  0.12500000000E+03 0.  0.
         25    1    1    2    0    0 -0.40006908741E+03  0.10000848027E+03  0.35695446726E+03  0.55955201950E+03  0.12500000000E+03 0.  0.
</event>
<event>
 5    0  0.5626800E-005  0.2983817E+03  0.7546771E-02  0.1086052E+00
         21   -1    0    0  502  501  0.00000000000E+00  0.00000000000E+00  0.25373485385E+03  0.25373485385E+03  0.00000000000E+00 0.  1.
         21   -1    0    0  501  502 -0.00000000000E+00 -0.00000000000E+00 -0.35088461720E+03  0.35088461720E+03  0.00000000000E+00 0.  1.
         25    1    1    2    0    0 -0.13101456015E+03  0.13802630666E+03 -0.30968014202E+02  0.22978271085E+03  0.12500000000E+03 0.  0.
         25    1    1    2    0    0  0.10973692320E+03  0.22453516881E+01  0.19033223266E+02  0.16743505459E+03  0.12500000000E+03 0.  0.
         25    1    1    2    0    0  0.21277636946E+02 -0.14027165835E+03 -0.85214972410E+02  0.20740170561E+03  0.12500000000E+03 0.  0.
</event>
<event>
 5    0  0.5626800E-005  0.2432944E+03  0.7546771E-02  0.1117617E+00
         21   -1    0    0  502  501  0.00000000000E+00  0.00000000000E+00  0.36852708195E+03  0.36852708195E+03  0.00000000000E+00 0. -1.
         21   -1    0    0  501  502 -0.00000000000E+00 -0.00000000000E+00 -0.16061818344E+03  0.16061818344E+03  0.00000000000E+00 0. -1.
         25    1    1    2    0    0 -0.10433506614E+03  0.31914170616E+02  0.24710364885E+02  0.16774958255E+03  0.12500000000E+03 0.  0.
         25    1    1    2    0    0  0.47843248738E+02 -0.33140343803E+02  0.69577082393E+01  0.13806038006E+03  0.12500000000E+03 0.  0.
         25    1    1    2    0    0  0.56491817403E+02  0.12261731874E+01  0.17624082539E+03  0.22333530278E+03  0.12500000000E+03 0.  0.
</event>
<event>
 5    0  0.5626800E-005  0.3356151E+03  0.7546771E-02  0.1068679E+00
         21   -1    0    0  502  501  0.00000000000E+00  0.00000000000E+00  0.42358107108E+03  0.42358107108E+03  0.00000000000E+00 0. -1.
         21   -1    0    0  501  502 -0.00000000000E+00 -0.00000000000E+00 -0.26591717562E+03  0.26591717562E+03  0.00000000000E+00 0. -1.
         25    1    1    2    0    0 -0.15788199626E+03 -0.16462431244E+03  0.10261755240E+02  0.26030403879E+03  0.12500000000E+03 0.  0.
         25    1    1    2    0    0  0.38019541724E+02  0.18336119081E+03  0.11189076699E+03  0.25141868584E+03  0.12500000000E+03 0.  0.
         25    1    1    2    0    0  0.11986245454E+03 -0.18736878369E+02  0.35511373230E+02  0.17777552207E+03  0.12500000000E+03 0.  0.
</event>
<event>
 5    0  0.5626800E-005  0.3135468E+03  0.7546771E-02  0.1078658E+00
         21   -1    0    0  502  501  0.00000000000E+00  0.00000000000E+00  0.37102325535E+03  0.37102325535E+03  0.00000000000E+00 0.  1.
         21   -1    0    0  501  502 -0.00000000000E+00 -0.00000000000E+00 -0.26497417886E+03  0.26497417886E+03  0.00000000000E+00 0.  1.
         25    1    1    2    0    0  0.25942950990E+02 -0.42734866287E+02 -0.11817043871E+03  0.17913279456E+03  0.12500000000E+03 0.  0.
         25    1    1    2    0    0  0.45833799531E+01  0.17011409343E+03  0.15936397591E+03  0.26454052425E+03  0.12500000000E+03 0.  0.
         25    1    1    2    0    0 -0.30526330943E+02 -0.12737922714E+03  0.64855539290E+02  0.19232411540E+03  0.12500000000E+03 0.  0.
</event>
<event>
 5    0  0.6437453E-005  0.3443404E+03  0.7546771E-02  0.1064962E+00
         21   -1    0    0  502  501  0.00000000000E+00  0.00000000000E+00  0.16214894191E+03  0.16214894191E+03  0.00000000000E+00 0.  1.
         21   -1    0    0  501  502 -0.00000000000E+00 -0.00000000000E+00 -0.73124325517E+03  0.73124325517E+03  0.00000000000E+00 0.  1.
         25    1    1    2    0    0  0.10769619134E+03 -0.17280739710E+03 -0.20113852138E+03  0.31231806049E+03  0.12500000000E+03 0.  0.
         25    1    1    2    0    0 -0.35072435163E+02 -0.22114894456E+02 -0.30218927956E+03  0.32963996261E+03  0.12500000000E+03 0.  0.
         25    1    1    2    0    0 -0.72623756176E+02  0.19492229156E+03 -0.65766512310E+02  0.25143417399E+03  0.12500000000E+03 0.  0.
</event>
<event>
 5    0  0.5626800E-005  0.3420463E+03  0.7546771E-02  0.1065928E+00
         21   -1    0    0  502  501  0.00000000000E+00  0.00000000000E+00  0.15206336944E+03  0.15206336944E+03  0.00000000000E+00 0. -1.
         21   -1    0    0  501  502 -0.00000000000E+00 -0.00000000000E+00 -0.76938775259E+03  0.76938775259E+03  0.00000000000E+00 0. -1.
         25    1    1    2    0    0  0.10502494666E+03  0.15351564716E+03 -0.12100591949E+03  0.25468554317E+03  0.12500000000E+03 0.  0.
         25    1    1    2    0    0 -0.19777204291E+03 -0.14585049583E+02 -0.29545469100E+03  0.37715378702E+03  0.12500000000E+03 0.  0.
         25    1    1    2    0    0  0.92747096248E+02 -0.13893059758E+03 -0.20086377266E+03  0.28961179184E+03  0.12500000000E+03 0.  0.
</event>
<event>
 5    0  0.5626800E-005  0.2893646E+03  0.7546771E-02  0.1090681E+00
         21   -1    0    0  502  501  0.00000000000E+00  0.00000000000E+00  0.11036407577E+03  0.11036407577E+03  0.00000000000E+00 0.  1.
         21   -1    0    0  501  502 -0.00000000000E+00 -0.00000000000E+00 -0.75868781561E+03  0.75868781561E+03  0.00000000000E+00 0.  1.
         25    1    1    2    0    0 -0.85342174211E+02  0.16425160881E+03 -0.34713874806E+03  0.41278588651E+03  0.12500000000E+03 0.  0.
         25    1    1    2    0    0 -0.11206840340E+02 -0.16853681933E+02 -0.11565354158E+03  0.17149455252E+03  0.12500000000E+03 0.  0.
         25    1    1    2    0    0  0.96549014551E+02 -0.14739792687E+03 -0.18553145020E+03  0.28477145234E+03  0.12500000000E+03 0.  0.
</event>
<event>
 5    0  0.5626800E-005  0.2315609E+03  0.7546771E-02  0.1125546E+00
         21   -1    0    0  502  501  0.00000000000E+00  0.00000000000E+00  0.16100727795E+04  0.16100727795E+04  0.00000000000E+00 0. -1.
         21   -1    0    0  501  502 -0.00000000000E+00 -0.00000000000E+00 -0.33303128175E+02  0.33303128175E+02  0.00000000000E+00 0. -1.
         25    1    1    2    0    0 -0.13101727249E+02  0.16904595760E+02  0.28967165976E+03  0.31621526068E+03  0.12500000000E+03 0.  0.
         25    1    1    2    0    0 -0.14181752613E+02 -0.91136999307E+02  0.88899601219E+03  0.90246661126E+03  0.12500000000E+03 0.  0.
         25    1    1    2    0    0  0.27283479862E+02  0.74232403547E+02  0.39810197933E+03  0.42469403570E+03  0.12500000000E+03 0.  0.
</event>
<event>
 5    0  0.5626800E-005  0.3804298E+03  0.7546771E-02  0.1050775E+00
         21   -1    0    0  502  501  0.00000000000E+00  0.00000000000E+00  0.98379507687E+02  0.98379507687E+02  0.00000000000E+00 0.  1.
         21   -1    0    0  501  502 -0.00000000000E+00 -0.00000000000E+00 -0.14711074840E+04  0.14711074840E+04  0.00000000000E+00 0.  1.
         25    1    1    2    0    0  0.10113262312E+03 -0.22097592187E+03 -0.30078977689E+03  0.40639593426E+03  0.12500000000E+03 0.  0.
         25    1    1    2    0    0 -0.19367645259E+02  0.66296509170E+02 -0.11810657644E+03  0.18532268132E+03  0.12500000000E+03 0.  0.
         25    1    1    2    0    0 -0.81764977860E+02  0.15467941270E+03 -0.95383162296E+03  0.97776837608E+03  0.12500000000E+03 0.  0.
</event>
<event>
 5    0  0.5626800E-005  0.2376486E+03  0.7546771E-02  0.1121369E+00
         21   -1    0    0  502  501  0.00000000000E+00  0.00000000000E+00  0.13887435538E+03  0.13887435538E+03  0.00000000000E+00 0.  1.
         21   -1    0    0  501  502 -0.00000000000E+00 -0.00000000000E+00 -0.40667591520E+03  0.40667591520E+03  0.00000000000E+00 0.  1.
         25    1    1    2    0    0  0.57867851082E+02  0.43538737751E+02 -0.45398716178E+01  0.14453345740E+03  0.12500000000E+03 0.  0.
         25    1    1    2    0    0 -0.41112810894E+02  0.38065628238E+02 -0.63256967980E+02  0.15088306489E+03  0.12500000000E+03 0.  0.
         25    1    1    2    0    0 -0.16755040188E+02 -0.81604365989E+02 -0.20000472022E+03  0.25013374829E+03  0.12500000000E+03 0.  0.
</event>
<event>
 5    0  0.5626800E-005  0.2354461E+03  0.7546771E-02  0.1122864E+00
         21   -1    0    0  502  501  0.00000000000E+00  0.00000000000E+00  0.97020457987E+03  0.97020457987E+03  0.00000000000E+00 0. -1.
         21   -1    0    0  501  502 -0.00000000000E+00 -0.00000000000E+00 -0.57137285024E+02  0.57137285024E+02  0.00000000000E+00 0. -1.
         25    1    1    2    0    0 -0.11124541153E+03  0.49141537601E+02  0.37080171224E+03  0.40976742440E+03  0.12500000000E+03 0.  0.
         25    1    1    2    0    0  0.19444845492E+02 -0.22732619239E+02  0.32364942186E+03  0.34823673308E+03  0.12500000000E+03 0.  0.
         25    1    1    2    0    0  0.91800566039E+02 -0.26408918363E+02  0.21861616074E+03  0.26933770741E+03  0.12500000000E+03 0.  0.
</event>
<event>
 5    0  0.5626800E-005  0.3834898E+03  0.7546771E-02  0.1049651E+00
         21   -1    0    0  502  501  0.00000000000E+00  0.00000000000E+00  0.82473953191E+02  0.82473953191E+02  0.00000000000E+00 0. -1.
         21   -1    0    0  501  502 -0.00000000000E+00 -0.00000000000E+00 -0.17831624723E+04  0.17831624723E+04  0.00000000000E+00 0. -1.
         25    1    1    2    0    0 -0.35426810438E+02 -0.11187490066E+03 -0.62619727753E+03  0.64924500975E+03  0.12500000000E+03 0.  0.
         25    1    1    2    0    0  0.71292219052E+02  0.30284331343E+03 -0.70392095860E+03  0.77969633124E+03  0.12500000000E+03 0.  0.
         25    1    1    2    0    0 -0.35865408614E+02 -0.19096841276E+03 -0.37057028298E+03  0.43669508451E+03  0.12500000000E+03 0.  0.
</event>
<event>
 5    0  0.5626800E-005  0.3006249E+03  0.7546771E-02  0.1084929E+00
         21   -1    0    0  502  501  0.00000000000E+00  0.00000000000E+00  0.23808891708E+03  0.23808891708E+03  0.00000000000E+00 0.  1.
         21   -1    0    0  501  502 -0.00000000000E+00 -0.00000000000E+00 -0.37958647419E+03  0.37958647419E+03  0.00000000000E+00 0.  1.
         25    1    1    2    0    0 -0.87693330938E+02  0.17380384556E+03 -0.63342475556E+02  0.23986489162E+03  0.12500000000E+03 0.  0.
         25    1    1    2    0    0  0.12811326807E+03 -0.15365772923E+03 -0.62094153949E+02  0.24393521919E+03  0.12500000000E+03 0.  0.
         25    1    1    2    0    0 -0.40419937131E+02 -0.20146116332E+02 -0.16060927599E+02  0.13387528045E+03  0.12500000000E+03 0.  0.
</event>
<event>
 5    0  0.5626800E-005  0.2385143E+03  0.7546771E-02  0.1120787E+00
         21   -1    0    0  502  501  0.00000000000E+00  0.00000000000E+00  0.94124037825E+03  0.94124037825E+03  0.00000000000E+00 0. -1.
         21   -1    0    0  501  502 -0.00000000000E+00 -0.00000000000E+00 -0.60440541362E+02  0.60440541362E+02  0.00000000000E+00 0. -1.
         25    1    1    2    0    0  0.10084494385E+03 -0.45980547200E+02  0.19168934373E+03  0.25427095375E+03  0.12500000000E+03 0.  0.
         25    1    1    2    0    0 -0.69677572133E+02  0.64584970400E+02  0.42229872229E+03  0.45054122265E+03  0.12500000000E+03 0.  0.
         25    1    1    2    0    0 -0.31167371718E+02 -0.18604423200E+02  0.26681177086E+03  0.29686874321E+03  0.12500000000E+03 0.  0.
</event>
<event>
 5    0  0.5626800E-005  0.3699817E+03  0.7546771E-02  0.1054700E+00
         21   -1    0    0  502  501  0.00000000000E+00  0.00000000000E+00  0.11415933488E+04  0.11415933488E+04  0.00000000000E+00 0. -1.
         21   -1    0    0  501  502 -0.00000000000E+00 -0.00000000000E+00 -0.11990822074E+03  0.11990822074E+03  0.00000000000E+00 0. -1.
         25    1    1    2    0    0 -0.16542375899E+02  0.18117619907E+03  0.41662555058E+02  0.22463132864E+03  0.12500000000E+03 0.  0.
         25    1    1    2    0    0  0.92490954381E+01 -0.17231234457E+03  0.61403858568E+03  0.64995805600E+03  0.12500000000E+03 0.  0.
         25    1    1    2    0    0  0.72932804608E+01 -0.88638545025E+01  0.36598398733E+03  0.38691218492E+03  0.12500000000E+03 0.  0.
</event>
<event>
 5    0  0.5626800E-005  0.2895687E+03  0.7546771E-02  0.1090575E+00
         21   -1    0    0  502  501  0.00000000000E+00  0.00000000000E+00  0.12514563827E+04  0.12514563827E+04  0.00000000000E+00 0.  1.
         21   -1    0    0  501  502 -0.00000000000E+00 -0.00000000000E+00 -0.67001961484E+02  0.67001961484E+02  0.00000000000E+00 0.  1.
         25    1    1    2    0    0  0.11595245940E+02 -0.94470282672E+02  0.75793564208E+03  0.77404813905E+03  0.12500000000E+03 0.  0.
         25    1    1    2    0    0 -0.73711373950E+02  0.13703798678E+02  0.90162789560E+02  0.17139279264E+03  0.12500000000E+03 0.  0.
         25    1    1    2    0    0  0.62116128011E+02  0.80766483994E+02  0.33635598954E+03  0.37301741246E+03  0.12500000000E+03 0.  0.
</event>
<event>
 5    0  0.5626800E-005  0.3898317E+03  0.7546771E-02  0.1047359E+00
         21   -1    0    0  502  501  0.00000000000E+00  0.00000000000E+00  0.23115695793E+03  0.23115695793E+03  0.00000000000E+00 0.  1.
         21   -1    0    0  501  502 -0.00000000000E+00 -0.00000000000E+00 -0.65742659767E+03  0.65742659767E+03  0.00000000000E+00 0.  1.
         25    1    1    2    0    0  0.22328246710E+03 -0.10196501399E+03  0.19450165391E+02  0.27614350097E+03  0.12500000000E+03 0.  0.
         25    1    1    2    0    0 -0.46530959724E+02 -0.31176329047E+02 -0.57781551330E+02  0.14866338278E+03  0.12500000000E+03 0.  0.
         25    1    1    2    0    0 -0.17675150738E+03  0.13314134304E+03 -0.38793825380E+03  0.46377667185E+03  0.12500000000E+03 0.  0.
</event>
<event>
 5    0  0.5626800E-005  0.2312412E+03  0.7546771E-02  0.1125769E+00
         21   -1    0    0  502  501  0.00000000000E+00  0.00000000000E+00  0.35938818286E+02  0.35938818286E+02  0.00000000000E+00 0. -1.
         21   -1    0    0  501  502 -0.00000000000E+00 -0.00000000000E+00 -0.14878751102E+04  0.14878751102E+04  0.00000000000E+00 0. -1.
         25    1    1    2    0    0  0.85847198787E+01 -0.43003726127E+02 -0.38299837339E+03  0.40526012868E+03  0.12500000000E+03 0.  0.
         25    1    1    2    0    0 -0.92726877463E+02 -0.16969882502E+02 -0.38424934362E+03  0.41492024389E+03  0.12500000000E+03 0.  0.
         25    1    1    2    0    0  0.84142157584E+02  0.59973608629E+02 -0.68468857494E+03  0.70363355595E+03  0.12500000000E+03 0.  0.
</event>
<event>
 5    0  0.5626800E-005  0.3326993E+03  0.7546771E-02  0.1069949E+00
         21   -1    0    0  502  501  0.00000000000E+00  0.00000000000E+00  0.10728512419E+04  0.10728512419E+04  0.00000000000E+00 0.  1.
         21   -1    0    0  501  502 -0.00000000000E+00 -0.00000000000E+00 -0.10317257627E+03  0.10317257627E+03  0.00000000000E+00 0.  1.
         25    1    1    2    0    0  0.55409045621E+02 -0.11979879727E+03  0.41308511081E+03  0.45131610091E+03  0.12500000000E+03 0.  0.
         25    1    1    2    0    0 -0.13846979263E+03  0.11441154413E+03  0.52837923858E+03  0.57190340501E+03  0.12500000000E+03 0.  0.
         25    1    1    2    0    0  0.83060747010E+02  0.53872531379E+01  0.28214316186E+02  0.15280431220E+03  0.12500000000E+03 0.  0.
</event>
<event>
 5    0  0.5626800E-005  0.2760490E+03  0.7546771E-02  0.1097867E+00
         21   -1    0    0  502  501  0.00000000000E+00  0.00000000000E+00  0.72336628148E+03  0.72336628148E+03  0.00000000000E+00 0.  1.
         21   -1    0    0  501  502 -0.00000000000E+00 -0.00000000000E+00 -0.10534500365E+03  0.10534500365E+03  0.00000000000E+00 0.  1.
         25    1    1    2    0    0  0.33428496142E+02  0.13679874667E+03  0.46102374935E+03  0.49799523985E+03  0.12500000000E+03 0.  0.
         25    1    1    2    0    0  0.67399435697E+01 -0.75311270699E+02  0.79822942915E+02  0.16647497274E+03  0.12500000000E+03 0.  0.
         25    1    1    2    0    0 -0.40168439711E+02 -0.61487475974E+02  0.77174585563E+02  0.16424107253E+03  0.12500000000E+03 0.  0.
</event>
<event>
 5    0  0.5626800E-005  0.2501443E+03  0.7546771E-02  0.1113214E+00
         21   -1    0    0  502  501  0.00000000000E+00  0.00000000000E+00  0.15220492453E+03  0.15220492453E+03  0.00000000000E+00 0. -1.
         21   -1    0    0  501  502 -0.00000000000E+00 -0.00000000000E+00 -0.41110493170E+03  0.41110493170E+03  0.00000000000E+00 0. -1.
         25    1    1    2    0    0  0.87833763447E+02 -0.98170881493E+02 -0.24355811704E+02  0.18322253556E+03  0.12500000000E+03 0.  0.
         25    1    1    2    0    0 -0.15382701738E+01  0.73783175847E+02 -0.10917035153E+03  0.18163008827E+03  0.12500000000E+03 0.  0.
         25    1    1    2    0    0 -0.86295493274E+02  0.24387705646E+02 -0.12537384394E+03  0.19845723240E+03  0.12500000000E+03 0.  0.
</event>
<event>
 5    0  0.5626800E-005  0.4179645E+03  0.7546771E-02  0.1037731E+00
         21   -1    0    0  502  501  0.00000000000E+00  0.00000000000E+00  0.86877669727E+03  0.86877669727E+03  0.00000000000E+00 0.  1.
         21   -1    0    0  501  502 -0.00000000000E+00 -0.00000000000E+00 -0.20108080574E+03  0.20108080574E+03  0.00000000000E+00 0.  1.
         25    1    1    2    0    0 -0.73083635794E+02 -0.12913586569E+03  0.34106642462E+03  0.39238832250E+03  0.12500000000E+03 0.  0.
         25    1    1    2    0    0 -0.14903537524E+03 -0.12644904125E+03  0.14241798910E+03  0.27222929072E+03  0.12500000000E+03 0.  0.
         25    1    1    2    0    0  0.22211901103E+03  0.25558490694E+03  0.18421147782E+03  0.40523988979E+03  0.12500000000E+03 0.  0.
</event>
<event>
 5    0  0.5626800E-005  0.5435964E+03  0.7546771E-02  0.1002987E+00
         21   -1    0    0  502  501  0.00000000000E+00  0.00000000000E+00  0.22809029256E+03  0.22809029256E+03  0.00000000000E+00 0. -1.
         21   -1    0    0  501  502 -0.00000000000E+00 -0.00000000000E+00 -0.12955266330E+04  0.12955266330E+04  0.00000000000E+00 0. -1.
         25    1    1    2    0    0  0.22263584134E+02 -0.12628399869E+03 -0.50943591036E+03  0.53999376132E+03  0.12500000000E+03 0.  0.
         25    1    1    2    0    0  0.12797811954E+03  0.10557348492E+03  0.14522187063E+03  0.25345325310E+03  0.12500000000E+03 0.  0.
         25    1    1    2    0    0 -0.15024170367E+03  0.20710513765E+02 -0.70322230071E+03  0.73016991113E+03  0.12500000000E+03 0.  0.
</event>
<event>
 5    0  0.5626800E-005  0.4856172E+03  0.7546771E-02  0.1017603E+00
         21   -1    0    0  502  501  0.00000000000E+00  0.00000000000E+00  0.14359577007E+03  0.14359577007E+03  0.00000000000E+00 0.  1.
         21   -1    0    0  501  502 -0.00000000000E+00 -0.00000000000E+00 -0.16422771791E+04  0.16422771791E+04  0.00000000000E+00 0.  1.
         25    1    1    2    0    0  0.11768262131E+03 -0.75677350588E+02 -0.22258815621E+03  0.29111294722E+03  0.12500000000E+03 0.  0.
         25    1    1    2    0    0 -0.29823201951E+03 -0.98358203837E+02 -0.22277251191E+03  0.40480768988E+03  0.12500000000E+03 0.  0.
         25    1    1    2    0    0  0.18054939820E+03  0.17403555443E+03 -0.10533207409E+04  0.10899523120E+04  0.12500000000E+03 0.  0.
</event>
<event>
 5    0  0.5626800E-005  0.2136271E+03  0.7546771E-02  0.1138725E+00
         21   -1    0    0  502  501  0.00000000000E+00  0.00000000000E+00  0.58546946573E+03  0.58546946573E+03  0.00000000000E+00 0.  1.
         21   -1    0    0  501  502 -0.00000000000E+00 -0.00000000000E+00 -0.77948634894E+02  0.77948634894E+02  0.00000000000E+00 0.  1.
         25    1    1    2    0    0 -0.24417466121E+02 -0.46425907958E+02  0.14404648220E+03  0.19780284785E+03  0.12500000000E+03 0.  0.
         25    1    1    2    0    0  0.64030531309E+02 -0.13578729575E+02  0.13398333895E+03  0.19457858555E+03  0.12500000000E+03 0.  0.
         25    1    1    2    0    0 -0.39613065188E+02  0.60004637534E+02  0.22949100969E+03  0.27103666724E+03  0.12500000000E+03 0.  0.
</event>
<event>
 5    0  0.5626800E-005  0.4848560E+03  0.7546771E-02  0.1017809E+00
         21   -1    0    0  502  501  0.00000000000E+00  0.00000000000E+00  0.38307040109E+03  0.38307040109E+03  0.00000000000E+00 0.  1.
         21   -1    0    0  501  502 -0.00000000000E+00 -0.00000000000E+00 -0.61368707428E+03  0.61368707428E+03  0.00000000000E+00 0.  1.
         25    1    1    2    0    0  0.53353894839E+02 -0.36291147675E+03 -0.11865575275E+03  0.40528454906E+03  0.12500000000E+03 0.  0.
         25    1    1    2    0    0  0.11493794938E+02  0.41217489273E+03 -0.96022424254E+02  0.44143578863E+03  0.12500000000E+03 0.  0.
         25    1    1    2    0    0 -0.64847689777E+02 -0.49263415985E+02 -0.15938496181E+02  0.15003713768E+03  0.12500000000E+03 0.  0.
</event>
<event>
 5    0  0.5626800E-005  0.3262247E+03  0.7546771E-02  0.1072820E+00
         21   -1    0    0  502  501  0.00000000000E+00  0.00000000000E+00  0.16284682142E+03  0.16284682142E+03  0.00000000000E+00 0. -1.
         21   -1    0    0  501  502 -0.00000000000E+00 -0.00000000000E+00 -0.65351305179E+03  0.65351305179E+03  0.00000000000E+00 0. -1.
         25    1    1    2    0    0 -0.95448056873E+02 -0.63174716791E+02 -0.74359059474E+02  0.18508280884E+03  0.12500000000E+03 0.  0.
         25    1    1    2    0    0  0.20523156357E+03  0.28615198628E+02 -0.80688959185E+02  0.25509710389E+03  0.12500000000E+03 0.  0.
         25    1    1    2    0    0 -0.10978350670E+03  0.34559518162E+02 -0.33561821171E+03  0.37617996049E+03  0.12500000000E+03 0.  0.
</event>
<event>
 5    0  0.5960486E-005  0.2935708E+03  0.7546771E-02  0.1088499E+00
         21   -1    0    0  502  501  0.00000000000E+00  0.00000000000E+00  0.14426271484E+03  0.14426271484E+03  0.00000000000E+00 0.  1.
         21   -1    0    0  501  502 -0.00000000000E+00 -0.00000000000E+00 -0.59740891382E+03  0.59740891382E+03  0.00000000000E+00 0.  1.
         25    1    1    2    0    0 -0.13403201861E+03 -0.25018709876E+02 -0.38919823984E+03  0.43091853958E+03  0.12500000000E+03 0.  0.
         25    1    1    2    0    0  0.10364278103E+03  0.78850855029E+01 -0.77821819505E+02  0.18023661178E+03  0.12500000000E+03 0.  0.
         25    1    1    2    0    0  0.30389237580E+02  0.17133624373E+02  0.13873860377E+02  0.13051647730E+03  0.12500000000E+03 0.  0.
</event>
<event>
 5    0  0.5779173E-005  0.2843214E+03  0.7546771E-02  0.1093352E+00
         21   -1    0    0  502  501  0.00000000000E+00  0.00000000000E+00  0.32266668591E+03  0.32266668591E+03  0.00000000000E+00 0. -1.
         21   -1    0    0  501  502 -0.00000000000E+00 -0.00000000000E+00 -0.25053294806E+03  0.25053294806E+03  0.00000000000E+00 0. -1.
         25    1    1    2    0    0 -0.39001495365E+02  0.59427281076E+02 -0.15441403429E+03  0.21100097716E+03  0.12500000000E+03 0.  0.
         25    1    1    2    0    0 -0.30016683893E+02 -0.24788112997E+01  0.11149852193E+03  0.17018832572E+03  0.12500000000E+03 0.  0.
         25    1    1    2    0    0  0.69018179258E+02 -0.56948469776E+02  0.11504925021E+03  0.19201033110E+03  0.12500000000E+03 0.  0.
</event>
<event>
 5    0  0.5626800E-005  0.3275961E+03  0.7546771E-02  0.1072205E+00
         21   -1    0    0  502  501  0.00000000000E+00  0.00000000000E+00  0.17727958250E+03  0.17727958250E+03  0.00000000000E+00 0. -1.
         21   -1    0    0  501  502 -0.00000000000E+00 -0.00000000000E+00 -0.60536711818E+03  0.60536711818E+03  0.00000000000E+00 0. -1.
         25    1    1    2    0    0  0.36715075484E+02  0.11389308267E+03 -0.34744536269E+03  0.38815320571E+03  0.12500000000E+03 0.  0.
         25    1    1    2    0    0 -0.45913563523E+02 -0.17765367585E+03 -0.11456215940E+03  0.24983669111E+03  0.12500000000E+03 0.  0.
         25    1    1    2    0    0  0.91984880388E+01  0.63760593180E+02  0.33919986414E+02  0.14465680386E+03  0.12500000000E+03 0.  0.
</event>
<event>
 5    0  0.5626800E-005  0.2648968E+03  0.7546771E-02  0.1104236E+00
         21   -1    0    0  502  501  0.00000000000E+00  0.00000000000E+00  0.24809037276E+03  0.24809037276E+03  0.00000000000E+00 0.  1.
         21   -1    0    0  501  502 -0.00000000000E+00 -0.00000000000E+00 -0.28284174371E+03  0.28284174371E+03  0.00000000000E+00 0.  1.
         25    1    1    2    0    0  0.13872649138E+03  0.60429116372E+02 -0.85827910273E+02  0.21421519017E+03  0.12500000000E+03 0.  0.
         25    1    1    2    0    0 -0.98223880529E+02 -0.47375814311E+01 -0.14409173814E+02  0.15969658629E+03  0.12500000000E+03 0.  0.
         25    1    1    2    0    0 -0.40502610849E+02 -0.55691534941E+02  0.65485713141E+02  0.15702034001E+03  0.12500000000E+03 0.  0.
</event>
<event>
 5    0  0.5626800E-005  0.3153580E+03  0.7546771E-02  0.1077806E+00
         21   -1    0    0  502  501  0.00000000000E+00  0.00000000000E+00  0.65150760241E+02  0.65150760241E+02  0.00000000000E+00 0.  1.
         21   -1    0    0  501  502 -0.00000000000E+00 -0.00000000000E+00 -0.15264694457E+04  0.15264694457E+04  0.00000000000E+00 0.  1.
         25    1    1    2    0    0 -0.81492867241E+02  0.12982833637E+03 -0.37873272506E+03  0.42727036098E+03  0.12500000000E+03 0.  0.
         25    1    1    2    0    0 -0.80309971678E+02 -0.89490490880E+02 -0.76553519270E+03  0.78493781331E+03  0.12500000000E+03 0.  0.
         25    1    1    2    0    0  0.16180283892E+03 -0.40337845488E+02 -0.31705076767E+03  0.37941203163E+03  0.12500000000E+03 0.  0.
</event>
<event>
 5    0  0.5626800E-005  0.2478353E+03  0.7546771E-02  0.1114681E+00
         21   -1    0    0  502  501  0.00000000000E+00  0.00000000000E+00  0.13433770751E+04  0.13433770751E+04  0.00000000000E+00 0. -1.
         21   -1    0    0  501  502 -0.00000000000E+00 -0.00000000000E+00 -0.45722325156E+02  0.45722325156E+02  0.00000000000E+00 0. -1.
         25    1    1    2    0    0 -0.58498974570E+02  0.10511347151E+02  0.80748135799E+03  0.81925805577E+03  0.12500000000E+03 0.  0.
         25    1    1    2    0    0  0.57368517590E+02  0.14551839333E+02  0.13832294426E+03  0.19560454940E+03  0.12500000000E+03 0.  0.
         25    1    1    2    0    0  0.11304569798E+01 -0.25063186484E+02  0.35185044767E+03  0.37423679506E+03  0.12500000000E+03 0.  0.
</event>
<event>
 5    0  0.5626800E-005  0.2974081E+03  0.7546771E-02  0.1086544E+00
         21   -1    0    0  502  501  0.00000000000E+00  0.00000000000E+00  0.13506891370E+03  0.13506891370E+03  0.00000000000E+00 0. -1.
         21   -1    0    0  501  502 -0.00000000000E+00 -0.00000000000E+00 -0.65486237875E+03  0.65486237875E+03  0.00000000000E+00 0. -1.
         25    1    1    2    0    0 -0.10973352910E+03 -0.37448149335E+02 -0.18910777090E+03  0.25461846027E+03  0.12500000000E+03 0.  0.
         25    1    1    2    0    0  0.19630829948E+03  0.83844882274E+02 -0.26721324716E+03  0.36413573319E+03  0.12500000000E+03 0.  0.
         25    1    1    2    0    0 -0.86574770377E+02 -0.46396732939E+02 -0.63472446986E+02  0.17117709899E+03  0.12500000000E+03 0.  0.
</event>
<event>
 5    0  0.5626800E-005  0.3188358E+03  0.7546771E-02  0.1076186E+00
         21   -1    0    0  502  501  0.00000000000E+00  0.00000000000E+00  0.41901536101E+03  0.41901536101E+03  0.00000000000E+00 0.  1.
         21   -1    0    0  501  502 -0.00000000000E+00 -0.00000000000E+00 -0.24260751195E+03  0.24260751195E+03  0.00000000000E+00 0.  1.
         25    1    1    2    0    0 -0.19721575454E+03  0.93043792191E+02  0.20318168363E+03  0.32320117214E+03  0.12500000000E+03 0.  0.
         25    1    1    2    0    0  0.92610683343E+02 -0.32923746493E+02 -0.40684717854E+02  0.16413700990E+03  0.12500000000E+03 0.  0.
         25    1    1    2    0    0  0.10460507120E+03 -0.60120045698E+02  0.13910883284E+02  0.17428469092E+03  0.12500000000E+03 0.  0.
</event>
<event>
 5    0  0.5626800E-005  0.3108685E+03  0.7546771E-02  0.1079930E+00
         21   -1    0    0  502  501  0.00000000000E+00  0.00000000000E+00  0.11814410945E+04  0.11814410945E+04  0.00000000000E+00 0.  1.
         21   -1    0    0  501  502 -0.00000000000E+00 -0.00000000000E+00 -0.81797760372E+02  0.81797760372E+02  0.00000000000E+00 0.  1.
         25    1    1    2    0    0  0.11426444672E+03 -0.87912112571E+02  0.57537749814E+03  0.60619235287E+03  0.12500000000E+03 0.  0.
         25    1    1    2    0    0  0.28937289415E+02  0.60228942287E+02  0.40938134547E+03  0.43322393543E+03  0.12500000000E+03 0.  0.
         25    1    1    2    0    0 -0.14320173614E+03  0.27683170284E+02  0.11488449055E+03  0.22382256660E+03  0.12500000000E+03 0.  0.
</event>
<event>
 5    0  0.5626800E-005  0.2848679E+03  0.7546771E-02  0.1093059E+00
         21   -1    0    0  502  501  0.00000000000E+00  0.00000000000E+00  0.63217698855E+02  0.63217698855E+02  0.00000000000E+00 0. -1.
         21   -1    0    0  501  502 -0.00000000000E+00 -0.00000000000E+00 -0.12836553948E+04  0.12836553948E+04  0.00000000000E+00 0. -1.
         25    1    1    2    0    0  0.26659306000E+02 -0.54706300122E+02 -0.72580578122E+02  0.15683251637E+03  0.12500000000E+03 0.  0.
         25    1    1    2    0    0  0.52479711309E+02  0.81007552518E+02 -0.47343684724E+03  0.49908295101E+03  0.12500000000E+03 0.  0.
         25    1    1    2    0    0 -0.79139017309E+02 -0.26301252396E+02 -0.67442027056E+03  0.69095762626E+03  0.12500000000E+03 0.  0.
</event>
<event>
 5    0  0.5626800E-005  0.3030732E+03  0.7546771E-02  0.1083714E+00
         21   -1    0    0  502  501  0.00000000000E+00  0.00000000000E+00  0.90722954505E+03  0.90722954505E+03  0.00000000000E+00 0. -1.
         21   -1    0    0  501  502 -0.00000000000E+00 -0.00000000000E+00 -0.10124601255E+03  0.10124601255E+03  0.00000000000E+00 0. -1.
         25    1    1    2    0    0 -0.79467071535E+02  0.14992200452E+03  0.12538197507E+03  0.24522900026E+03  0.12500000000E+03 0.  0.
         25    1    1    2    0    0  0.10288660190E+03 -0.14311285389E+03  0.46680164274E+03  0.51438868131E+03  0.12500000000E+03 0.  0.
         25    1    1    2    0    0 -0.23419530364E+02 -0.68091506323E+01  0.21379991469E+03  0.24885787602E+03  0.12500000000E+03 0.  0.
</event>
<event>
 5    0  0.5626800E-005  0.5342341E+03  0.7546771E-02  0.1005210E+00
         21   -1    0    0  502  501  0.00000000000E+00  0.00000000000E+00  0.96177518802E+03  0.96177518802E+03  0.00000000000E+00 0.  1.
         21   -1    0    0  501  502 -0.00000000000E+00 -0.00000000000E+00 -0.29674928973E+03  0.29674928973E+03  0.00000000000E+00 0.  1.
         25    1    1    2    0    0  0.15978641659E+03  0.94949617869E+02  0.83439249542E+03  0.86393458391E+03  0.12500000000E+03 0.  0.
         25    1    1    2    0    0  0.73301947306E+01 -0.13964335816E+01 -0.38087587435E+02  0.13088676823E+03  0.12500000000E+03 0.  0.
         25    1    1    2    0    0 -0.16711661132E+03 -0.93553184287E+02 -0.13127900969E+03  0.26370312561E+03  0.12500000000E+03 0.  0.
</event>
<event>
 5    0  0.5626800E-005  0.3965285E+03  0.7546771E-02  0.1044988E+00
         21   -1    0    0  502  501  0.00000000000E+00  0.00000000000E+00  0.22093682943E+04  0.22093682943E+04  0.00000000000E+00 0. -1.
         21   -1    0    0  501  502 -0.00000000000E+00 -0.00000000000E+00 -0.71167328903E+02  0.71167328903E+02  0.00000000000E+00 0. -1.
         25    1    1    2    0    0  0.66257922923E+02 -0.23137808005E+03  0.28932511603E+03  0.39656014808E+03  0.12500000000E+03 0.  0.
         25    1    1    2    0    0 -0.76232427942E+02  0.11569646771E+03  0.11168070293E+04  0.11322897140E+04  0.12500000000E+03 0.  0.
         25    1    1    2    0    0  0.99745050187E+01  0.11568161233E+03  0.73206882001E+03  0.75168576109E+03  0.12500000000E+03 0.  0.
</event>
<event>
 5    0  0.5626800E-005  0.2891925E+03  0.7546771E-02  0.1090772E+00
         21   -1    0    0  502  501  0.00000000000E+00  0.00000000000E+00  0.14482886405E+04  0.14482886405E+04  0.00000000000E+00 0.  1.
         21   -1    0    0  501  502 -0.00000000000E+00 -0.00000000000E+00 -0.57745596753E+02  0.57745596753E+02  0.00000000000E+00 0.  1.
         25    1    1    2    0    0 -0.77174988639E+02  0.15172977496E+03  0.52618063518E+03  0.56698233157E+03  0.12500000000E+03 0.  0.
         25    1    1    2    0    0 -0.10473413209E+02 -0.22799724510E+02  0.56442934212E+03  0.57864929108E+03  0.12500000000E+03 0.  0.
         25    1    1    2    0    0  0.87648401847E+02 -0.12893005046E+03  0.29993306643E+03  0.36040261458E+03  0.12500000000E+03 0.  0.
</event>
<event>
 5    0  0.5626800E-005  0.2226921E+03  0.7546771E-02  0.1131892E+00
         21   -1    0    0  502  501  0.00000000000E+00  0.00000000000E+00  0.10292618065E+04  0.10292618065E+04  0.00000000000E+00 0. -1.
         21   -1    0    0  501  502 -0.00000000000E+00 -0.00000000000E+00 -0.48181865160E+02  0.48181865160E+02  0.00000000000E+00 0. -1.
         25    1    1    2    0    0 -0.54944790068E+02  0.53528047082E+02  0.45039332238E+03  0.47367006093E+03  0.12500000000E+03 0.  0.
         25    1    1    2    0    0  0.62761702330E+02 -0.37578038226E+02  0.17988296705E+03  0.23094159883E+03  0.12500000000E+03 0.  0.
         25    1    1    2    0    0 -0.78169122625E+01 -0.15950008856E+02  0.35080365191E+03  0.37283201189E+03  0.12500000000E+03 0.  0.
</event>
<event>
 5    0  0.5626800E-005  0.2140732E+03  0.7546771E-02  0.1138380E+00
         21   -1    0    0  502  501  0.00000000000E+00  0.00000000000E+00  0.19134328895E+03  0.19134328895E+03  0.00000000000E+00 0.  1.
         21   -1    0    0  501  502 -0.00000000000E+00 -0.00000000000E+00 -0.23950314678E+03  0.23950314678E+03  0.00000000000E+00 0.  1.
         25    1    1    2    0    0 -0.71345545736E+02 -0.42615251818E+02 -0.17624170877E+02  0.15113523078E+03  0.12500000000E+03 0.  0.
         25    1    1    2    0    0  0.64178521084E+01 -0.71407001929E+01 -0.35319337376E+02  0.13024835514E+03  0.12500000000E+03 0.  0.
         25    1    1    2    0    0  0.64927693627E+02  0.49755952011E+02  0.47836504205E+01  0.14946284980E+03  0.12500000000E+03 0.  0.
</event>
<event>
 5    0  0.6634194E-005  0.2950139E+03  0.7546771E-02  0.1087760E+00
         21   -1    0    0  502  501  0.00000000000E+00  0.00000000000E+00  0.22527248109E+03  0.22527248109E+03  0.00000000000E+00 0. -1.
         21   -1    0    0  501  502 -0.00000000000E+00 -0.00000000000E+00 -0.38634647998E+03  0.38634647998E+03  0.00000000000E+00 0. -1.
         25    1    1    2    0    0  0.11597820591E+03 -0.67591000798E+02 -0.43765978480E+02  0.18857345653E+03  0.12500000000E+03 0.  0.
         25    1    1    2    0    0 -0.54003190688E+02  0.75333770786E+02 -0.20552595348E+03  0.25779340406E+03  0.12500000000E+03 0.  0.
         25    1    1    2    0    0 -0.61975015218E+02 -0.77427699872E+01  0.88217933063E+02  0.16525210048E+03  0.12500000000E+03 0.  0.
</event>
<event>
 5    0  0.5626800E-005  0.2484098E+03  0.7546771E-02  0.1114314E+00
         21   -1    0    0  502  501  0.00000000000E+00  0.00000000000E+00  0.10420356507E+04  0.10420356507E+04  0.00000000000E+00 0.  1.
         21   -1    0    0  501  502 -0.00000000000E+00 -0.00000000000E+00 -0.59218147455E+02  0.59218147455E+02  0.00000000000E+00 0.  1.
         25    1    1    2    0    0 -0.15222164178E+02 -0.13076972580E+03  0.44098456966E+03  0.47689079059E+03  0.12500000000E+03 0.  0.
         25    1    1    2    0    0  0.32729441099E+02  0.88639300808E+02  0.40139896848E+03  0.43089937788E+03  0.12500000000E+03 0.  0.
         25    1    1    2    0    0 -0.17507276921E+02  0.42130424992E+02  0.14043396509E+03  0.19346362968E+03  0.12500000000E+03 0.  0.
</event>
<event>
 5    0  0.5626800E-005  0.3570716E+03  0.7546771E-02  0.1059749E+00
         21   -1    0    0  502  501  0.00000000000E+00  0.00000000000E+00  0.11466897859E+04  0.11466897859E+04  0.00000000000E+00 0.  1.
         21   -1    0    0  501  502 -0.00000000000E+00 -0.00000000000E+00 -0.11118974702E+03  0.11118974702E+03  0.00000000000E+00 0.  1.
         25    1    1    2    0    0 -0.35786996972E+02 -0.24290179893E+03  0.41904598075E+03  0.50150426425E+03  0.12500000000E+03 0.  0.
         25    1    1    2    0    0  0.11745670261E+03  0.45916916355E+02  0.16871115672E+03  0.24493447001E+03  0.12500000000E+03 0.  0.
         25    1    1    2    0    0 -0.81669705634E+02  0.19698488258E+03  0.44774290138E+03  0.51144079865E+03  0.12500000000E+03 0.  0.
</event>
<event>
 5    0  0.5626800E-005  0.2155831E+03  0.7546771E-02  0.1137220E+00
         21   -1    0    0  502  501  0.00000000000E+00  0.00000000000E+00  0.46125584792E+03  0.46125584792E+03  0.00000000000E+00 0. -1.
         21   -1    0    0  501  502 -0.00000000000E+00 -0.00000000000E+00 -0.10075986689E+03  0.10075986689E+03  0.00000000000E+00 0. -1.
         25    1    1    2    0    0  0.53957232771E+02 -0.84930741609E+01  0.11128192101E+03  0.17604596337E+03  0.12500000000E+03 0.  0.
         25    1    1    2    0    0  0.17544990731E+01  0.66361951938E+02  0.87686691031E+02  0.16649607418E+03  0.12500000000E+03 0.  0.
         25    1    1    2    0    0 -0.55711731844E+02 -0.57868877777E+02  0.16152736898E+03  0.21947367726E+03  0.12500000000E+03 0.  0.
</event>
<event>
 5    0  0.5626800E-005  0.2986242E+03  0.7546771E-02  0.1085930E+00
         21   -1    0    0  502  501  0.00000000000E+00  0.00000000000E+00  0.65289535853E+03  0.65289535853E+03  0.00000000000E+00 0.  1.
         21   -1    0    0  501  502 -0.00000000000E+00 -0.00000000000E+00 -0.13658604694E+03  0.13658604694E+03  0.00000000000E+00 0.  1.
         25    1    1    2    0    0 -0.25623534858E+02  0.13534994549E+02  0.51949642637E+02  0.13843239139E+03  0.12500000000E+03 0.  0.
         25    1    1    2    0    0 -0.10516002824E+03 -0.65986055532E+02  0.31483950430E+02  0.17896656168E+03  0.12500000000E+03 0.  0.
         25    1    1    2    0    0  0.13078356310E+03  0.52451060983E+02  0.43287571853E+03  0.47208245240E+03  0.12500000000E+03 0.  0.
</event>
<event>
 5    0  0.5626800E-005  0.3594827E+03  0.7546771E-02  0.1058789E+00
         21   -1    0    0  502  501  0.00000000000E+00  0.00000000000E+00  0.10647237841E+03  0.10647237841E+03  0.00000000000E+00 0.  1.
         21   -1    0    0  501  502 -0.00000000000E+00 -0.00000000000E+00 -0.12137217133E+04  0.12137217133E+04  0.00000000000E+00 0.  1.
         25    1    1    2    0    0  0.25259597847E+03  0.10858751888E+03 -0.49623756419E+03  0.58092400339E+03  0.12500000000E+03 0.  0.
         25    1    1    2    0    0 -0.12758075972E+03  0.40160937776E+02 -0.30680585742E+03  0.35727382401E+03  0.12500000000E+03 0.  0.
         25    1    1    2    0    0 -0.12501521875E+03 -0.14874845666E+03 -0.30420591326E+03  0.38199626430E+03  0.12500000000E+03 0.  0.
</event>
<event>
 5    0  0.5626800E-005  0.3113086E+03  0.7546771E-02  0.1079720E+00
         21   -1    0    0  502  501  0.00000000000E+00  0.00000000000E+00  0.26008650662E+03  0.26008650662E+03  0.00000000000E+00 0. -1.
         21   -1    0    0  501  502 -0.00000000000E+00 -0.00000000000E+00 -0.37261856980E+03  0.37261856980E+03  0.00000000000E+00 0. -1.
         25    1    1    2    0    0 -0.96626525059E+02  0.35756683400E+01 -0.13228131843E+03  0.20608934459E+03  0.12500000000E+03 0.  0.
         25    1    1    2    0    0  0.29861525414E+02 -0.14069541806E+03  0.98224737134E+02  0.21438285927E+03  0.12500000000E+03 0.  0.
         25    1    1    2    0    0  0.66764999644E+02  0.13711974972E+03 -0.78475481878E+02  0.21223287256E+03  0.12500000000E+03 0.  0.
</event>
<event>
 5    0  0.5626800E-005  0.3850806E+03  0.7546771E-02  0.1049072E+00
         21   -1    0    0  502  501  0.00000000000E+00  0.00000000000E+00  0.23665903843E+03  0.23665903843E+03  0.00000000000E+00 0.  1.
         21   -1    0    0  501  502 -0.00000000000E+00 -0.00000000000E+00 -0.62658533913E+03  0.62658533913E+03  0.00000000000E+00 0.  1.
         25    1    1    2    0    0 -0.36730466368E+02 -0.45105784255E+02 -0.10826565069E+03  0.17530005719E+03  0.12500000000E+03 0.  0.
         25    1    1    2    0    0  0.92404436413E+02  0.29701131795E+03 -0.10535325195E+03  0.35139523411E+03  0.12500000000E+03 0.  0.
         25    1    1    2    0    0 -0.55673970044E+02 -0.25190553369E+03 -0.17630739806E+03  0.33654908625E+03  0.12500000000E+03 0.  0.
</event>
<event>
 5    0  0.5626800E-005  0.2280889E+03  0.7546771E-02  0.1127992E+00
         21   -1    0    0  502  501  0.00000000000E+00  0.00000000000E+00  0.26833504274E+03  0.26833504274E+03  0.00000000000E+00 0. -1.
         21   -1    0    0  501  502 -0.00000000000E+00 -0.00000000000E+00 -0.19387912638E+03  0.19387912638E+03  0.00000000000E+00 0. -1.
         25    1    1    2    0    0  0.35396440521E+02  0.46176840978E+02 -0.61715273655E+02  0.15105953676E+03  0.12500000000E+03 0.  0.
         25    1    1    2    0    0 -0.37869428512E+02 -0.30419689324E+02  0.12655391239E+02  0.13470193036E+03  0.12500000000E+03 0.  0.
         25    1    1    2    0    0  0.24729879908E+01 -0.15757151654E+02  0.12351579878E+03  0.17645270201E+03  0.12500000000E+03 0.  0.
</event>
<event>
 5    0  0.5626800E-005  0.2365175E+03  0.7546771E-02  0.1122135E+00
         21   -1    0    0  502  501  0.00000000000E+00  0.00000000000E+00  0.16928399780E+03  0.16928399780E+03  0.00000000000E+00 0. -1.
         21   -1    0    0  501  502 -0.00000000000E+00 -0.00000000000E+00 -0.33045376595E+03  0.33045376595E+03  0.00000000000E+00 0. -1.
         25    1    1    2    0    0  0.10988598277E+03 -0.28133263414E+02 -0.11719043142E+03  0.20548724276E+03  0.12500000000E+03 0.  0.
         25    1    1    2    0    0 -0.67287201548E+02 -0.19330583882E+02 -0.55055914298E+02  0.15348417725E+03  0.12500000000E+03 0.  0.
         25    1    1    2    0    0 -0.42598781220E+02  0.47463847297E+02  0.11076577560E+02  0.14076634375E+03  0.12500000000E+03 0.  0.
</event>
<event>
 5    0  0.5626800E-005  0.3417677E+03  0.7546771E-02  0.1066046E+00
         21   -1    0    0  502  501  0.00000000000E+00  0.00000000000E+00  0.25725995262E+04  0.25725995262E+04  0.00000000000E+00 0.  1.
         21   -1    0    0  501  502 -0.00000000000E+00 -0.00000000000E+00 -0.45403549872E+02  0.45403549872E+02  0.00000000000E+00 0.  1.
         25    1    1    2    0    0  0.16395439208E+03 -0.23827662670E+02  0.14276434602E+04  0.14426502173E+04  0.12500000000E+03 0.  0.
         25    1    1    2    0    0 -0.24202449759E+02  0.13003632976E+03  0.33776495763E+03  0.38367352298E+03  0.12500000000E+03 0.  0.
         25    1    1    2    0    0 -0.13975194232E+03 -0.10620866709E+03  0.76178755850E+03  0.79167933574E+03  0.12500000000E+03 0.  0.
</event>
<event>
 5    0  0.5626800E-005  0.4098751E+03  0.7546771E-02  0.1040413E+00
         21   -1    0    0  502  501  0.00000000000E+00  0.00000000000E+00  0.17953088379E+03  0.17953088379E+03  0.00000000000E+00 0.  1.
         21   -1    0    0  501  502 -0.00000000000E+00 -0.00000000000E+00 -0.93575878289E+03  0.93575878289E+03  0.00000000000E+00 0.  1.
         25    1    1    2    0    0  0.38683191927E+02  0.80339798892E+02  0.67216446059E+02  0.16761241972E+03  0.12500000000E+03 0.  0.
         25    1    1    2    0    0  0.16269973617E+03  0.24881840950E+00 -0.26066466506E+03  0.33172629331E+03  0.12500000000E+03 0.  0.
         25    1    1    2    0    0 -0.20138292810E+03 -0.80588617302E+02 -0.56277968010E+03  0.61595095365E+03  0.12500000000E+03 0.  0.
</event>
<event>
 5    0  0.5626800E-005  0.2686424E+03  0.7546771E-02  0.1102059E+00
         21   -1    0    0  502  501  0.00000000000E+00  0.00000000000E+00  0.11346143642E+03  0.11346143642E+03  0.00000000000E+00 0.  1.
         21   -1    0    0  501  502 -0.00000000000E+00 -0.00000000000E+00 -0.63606384799E+03  0.63606384799E+03  0.00000000000E+00 0.  1.
         25    1    1    2    0    0 -0.15450239591E+02 -0.23211376352E+02 -0.91986564261E+01  0.12840207621E+03  0.12500000000E+03 0.  0.
         25    1    1    2    0    0 -0.53435574124E+02  0.52322816735E+02 -0.85040144396E+02  0.16867087446E+03  0.12500000000E+03 0.  0.
         25    1    1    2    0    0  0.68885813715E+02 -0.29111440383E+02 -0.42836361075E+03  0.45245233374E+03  0.12500000000E+03 0.  0.
</event>
<event>
 5    0  0.7042756E-005  0.2953628E+03  0.7546771E-02  0.1087582E+00
         21   -1    0    0  502  501  0.00000000000E+00  0.00000000000E+00  0.52945091945E+03  0.52945091945E+03  0.00000000000E+00 0.  1.
         21   -1    0    0  501  502 -0.00000000000E+00 -0.00000000000E+00 -0.16477294101E+03  0.16477294101E+03  0.00000000000E+00 0.  1.
         25    1    1    2    0    0  0.35559801714E+02 -0.58211649516E+02 -0.41770914296E+02  0.14840116212E+03  0.12500000000E+03 0.  0.
         25    1    1    2    0    0  0.76987026653E+02  0.10693663753E+03  0.26211064068E+03  0.31888780892E+03  0.12500000000E+03 0.  0.
         25    1    1    2    0    0 -0.11254682837E+03 -0.48724988017E+02  0.14433825206E+03  0.22693488943E+03  0.12500000000E+03 0.  0.
</event>
<event>
 5    0  0.5626800E-005  0.2874679E+03  0.7546771E-02  0.1091679E+00
         21   -1    0    0  502  501  0.00000000000E+00  0.00000000000E+00  0.12593637242E+04  0.12593637242E+04  0.00000000000E+00 0.  1.
         21   -1    0    0  501  502 -0.00000000000E+00 -0.00000000000E+00 -0.65618666305E+02  0.65618666305E+02  0.00000000000E+00 0.  1.
         25    1    1    2    0    0 -0.35187148293E+02 -0.21448390371E+02  0.59413065994E+03  0.60853464152E+03  0.12500000000E+03 0.  0.
         25    1    1    2    0    0 -0.33539198016E+02  0.46441431050E+02  0.54433881608E+03  0.56143693414E+03  0.12500000000E+03 0.  0.
         25    1    1    2    0    0  0.68726346309E+02 -0.24993040679E+02  0.55275581838E+02  0.15501081481E+03  0.12500000000E+03 0.  0.
</event>
<event>
 5    0  0.5626800E-005  0.2701853E+03  0.7546771E-02  0.1101174E+00
         21   -1    0    0  502  501  0.00000000000E+00  0.00000000000E+00  0.76426728810E+03  0.76426728810E+03  0.00000000000E+00 0.  1.
         21   -1    0    0  501  502 -0.00000000000E+00 -0.00000000000E+00 -0.95516421999E+02  0.95516421999E+02  0.00000000000E+00 0.  1.
         25    1    1    2    0    0  0.77131645943E+01  0.13718705996E+03  0.13613952060E+03  0.23030143594E+03  0.12500000000E+03 0.  0.
         25    1    1    2    0    0 -0.33455263766E+02 -0.70826142238E+02  0.42490259593E+03  0.44978085011E+03  0.12500000000E+03 0.  0.
         25    1    1    2    0    0  0.25742099171E+02 -0.66360917720E+02  0.10770874957E+03  0.17970142405E+03  0.12500000000E+03 0.  0.
</event>
<event>
 5    0  0.5626800E-005  0.2492110E+03  0.7546771E-02  0.1113804E+00
         21   -1    0    0  502  501  0.00000000000E+00  0.00000000000E+00  0.24798446926E+04  0.24798446926E+04  0.00000000000E+00 0.  1.
         21   -1    0    0  501  502 -0.00000000000E+00 -0.00000000000E+00 -0.25044364346E+02  0.25044364346E+02  0.00000000000E+00 0.  1.
         25    1    1    2    0    0 -0.38058691814E+02  0.63669195018E+02  0.60083212391E+03  0.61816379022E+03  0.12500000000E+03 0.  0.
         25    1    1    2    0    0 -0.79800349643E+02 -0.33652336342E+02  0.12114667337E+04  0.12209738828E+04  0.12500000000E+03 0.  0.
         25    1    1    2    0    0  0.11785904146E+03 -0.30016858676E+02  0.64250147061E+03  0.66575138392E+03  0.12500000000E+03 0.  0.
</event>
<event>
 5    0  0.5626800E-005  0.2739857E+03  0.7546771E-02  0.1099020E+00
         21   -1    0    0  502  501  0.00000000000E+00  0.00000000000E+00  0.89543028079E+03  0.89543028079E+03  0.00000000000E+00 0. -1.
         21   -1    0    0  501  502 -0.00000000000E+00 -0.00000000000E+00 -0.83834763504E+02  0.83834763504E+02  0.00000000000E+00 0. -1.
         25    1    1    2    0    0  0.57962217798E+02 -0.30745986946E+02  0.25616676282E+03  0.29249161489E+03  0.12500000000E+03 0.  0.
         25    1    1    2    0    0  0.50949435476E+02 -0.11936386610E+03  0.24082603590E+03  0.30077526007E+03  0.12500000000E+03 0.  0.
         25    1    1    2    0    0 -0.10891165327E+03  0.15010985305E+03  0.31460271857E+03  0.38599816934E+03  0.12500000000E+03 0.  0.
</event>
<event>
 5    0  0.5626800E-005  0.3968350E+03  0.7546771E-02  0.1044881E+00
         21   -1    0    0  502  501  0.00000000000E+00  0.00000000000E+00  0.30527623778E+03  0.30527623778E+03  0.00000000000E+00 0.  1.
         21   -1    0    0  501  502 -0.00000000000E+00 -0.00000000000E+00 -0.51585425530E+03  0.51585425530E+03  0.00000000000E+00 0.  1.
         25    1    1    2    0    0  0.27443302236E+03 -0.77655530798E+02 -0.27947287976E+03  0.41841839796E+03  0.12500000000E+03 0.  0.
         25    1    1    2    0    0 -0.10409160980E+03  0.42128356301E+02  0.84136904336E+02  0.18791987736E+03  0.12500000000E+03 0.  0.
         25    1    1    2    0    0 -0.17034141257E+03  0.35527174496E+02 -0.15242042101E+02  0.21479221776E+03  0.12500000000E+03 0.  0.
</event>
<event>
 5    0  0.5626800E-005  0.4000030E+03  0.7546771E-02  0.1043779E+00
         21   -1    0    0  502  501  0.00000000000E+00  0.00000000000E+00  0.60673272624E+03  0.60673272624E+03  0.00000000000E+00 0. -1.
         21   -1    0    0  501  502 -0.00000000000E+00 -0.00000000000E+00 -0.26371145007E+03  0.26371145007E+03  0.00000000000E+00 0. -1.
         25    1    1    2    0    0  0.74600514148E+02  0.18232914172E+03  0.42482725967E+03  0.48467757653E+03  0.12500000000E+03 0.  0.
         25    1    1    2    0    0  0.60513224992E+01 -0.50792667841E+02 -0.12332922739E+03  0.18289781830E+03  0.12500000000E+03 0.  0.
         25    1    1    2    0    0 -0.80651836648E+02 -0.13153647388E+03  0.41523243887E+02  0.20286878148E+03  0.12500000000E+03 0.  0.
</event>
<event>
 5    0  0.5626800E-005  0.4451909E+03  0.7546771E-02  0.1029166E+00
         21   -1    0    0  502  501  0.00000000000E+00  0.00000000000E+00  0.49856351674E+03  0.49856351674E+03  0.00000000000E+00 0. -1.
         21   -1    0    0  501  502 -0.00000000000E+00 -0.00000000000E+00 -0.39753191880E+03  0.39753191880E+03  0.00000000000E+00 0. -1.
         25    1    1    2    0    0  0.17553822913E+02  0.17428325312E+03 -0.59100840939E+02  0.22316070088E+03  0.12500000000E+03 0.  0.
         25    1    1    2    0    0  0.34984507383E+02 -0.30676135197E+03 -0.10297606457E+03  0.34864812160E+03  0.12500000000E+03 0.  0.
         25    1    1    2    0    0 -0.52538330296E+02  0.13247809885E+03  0.26310850345E+03  0.32428661306E+03  0.12500000000E+03 0.  0.
</event>
<event>
 5    0  0.5626800E-005  0.3493387E+03  0.7546771E-02  0.1062887E+00
         21   -1    0    0  502  501  0.00000000000E+00  0.00000000000E+00  0.89765179796E+03  0.89765179796E+03  0.00000000000E+00 0.  1.
         21   -1    0    0  501  502 -0.00000000000E+00 -0.00000000000E+00 -0.13595194052E+03  0.13595194052E+03  0.00000000000E+00 0.  1.
         25    1    1    2    0    0  0.19959351748E+03  0.30804033764E+02  0.11321587923E+03  0.26311460625E+03  0.12500000000E+03 0.  0.
         25    1    1    2    0    0 -0.21143767320E+03 -0.19632024776E+02  0.24382617161E+03  0.34665185418E+03  0.12500000000E+03 0.  0.
         25    1    1    2    0    0  0.11844155720E+02 -0.11172008987E+02  0.40465780660E+03  0.42383727804E+03  0.12500000000E+03 0.  0.
</event>
<event>
 5    0  0.5626800E-005  0.2605348E+03  0.7546771E-02  0.1106822E+00
         21   -1    0    0  502  501  0.00000000000E+00  0.00000000000E+00  0.99451693390E+03  0.99451693390E+03  0.00000000000E+00 0. -1.
         21   -1    0    0  501  502 -0.00000000000E+00 -0.00000000000E+00 -0.68252617867E+02  0.68252617867E+02  0.00000000000E+00 0. -1.
         25    1    1    2    0    0 -0.83793300390E+02  0.11884479079E+03  0.36043503020E+03  0.40826928917E+03  0.12500000000E+03 0.  0.
         25    1    1    2    0    0  0.11423980845E+02 -0.10903971200E+03  0.19411405669E+03  0.25558840572E+03  0.12500000000E+03 0.  0.
         25    1    1    2    0    0  0.72369319546E+02 -0.98050787870E+01  0.37171522914E+03  0.39891185688E+03  0.12500000000E+03 0.  0.
</event>
<event>
 5    0  0.5626800E-005  0.2917034E+03  0.7546771E-02  0.1089463E+00
         21   -1    0    0  502  501  0.00000000000E+00  0.00000000000E+00  0.90784435879E+03  0.90784435879E+03  0.00000000000E+00 0. -1.
         21   -1    0    0  501  502 -0.00000000000E+00 -0.00000000000E+00 -0.93728480305E+02  0.93728480305E+02  0.00000000000E+00 0.  1.
         25    1    1    2    0    0  0.12153321399E+03  0.84551173121E+02  0.32637057437E+03  0.37955496940E+03  0.12500000000E+03 0.  0.
         25    1    1    2    0    0 -0.40522176923E+01 -0.34267017080E+02  0.33600456897E+02  0.13395760386E+03  0.12500000000E+03 0.  0.
         25    1    1    2    0    0 -0.11748099630E+03 -0.50284156041E+02  0.45414484721E+03  0.48806026584E+03  0.12500000000E+03 0.  0.
</event>
<event>
 5    0  0.5626800E-005  0.3232798E+03  0.7546771E-02  0.1074150E+00
         21   -1    0    0  502  501  0.00000000000E+00  0.00000000000E+00  0.29908245522E+03  0.29908245522E+03  0.00000000000E+00 0.  1.
         21   -1    0    0  501  502 -0.00000000000E+00 -0.00000000000E+00 -0.34943491957E+03  0.34943491957E+03  0.00000000000E+00 0.  1.
         25    1    1    2    0    0 -0.13154432515E+03 -0.12997318720E+03 -0.62408742488E+02  0.23176882881E+03  0.12500000000E+03 0.  0.
         25    1    1    2    0    0  0.15725149260E+03 -0.12723360996E+02 -0.63318039983E+02  0.21100732221E+03  0.12500000000E+03 0.  0.
         25    1    1    2    0    0 -0.25707167444E+02  0.14269654820E+03  0.75374318120E+02  0.20574122377E+03  0.12500000000E+03 0.  0.
</event>
<event>
 5    0  0.5626800E-005  0.3014645E+03  0.7546771E-02  0.1084511E+00
         21   -1    0    0  502  501  0.00000000000E+00  0.00000000000E+00  0.49437517348E+03  0.49437517348E+03  0.00000000000E+00 0.  1.
         21   -1    0    0  501  502 -0.00000000000E+00 -0.00000000000E+00 -0.18382964957E+03  0.18382964957E+03  0.00000000000E+00 0.  1.
         25    1    1    2    0    0 -0.25773246525E+01  0.33436008955E+02  0.26265711903E+01  0.12944693188E+03  0.12500000000E+03 0.  0.
         25    1    1    2    0    0  0.16083831780E+03  0.66580290410E+02  0.21988849229E+03  0.30704698107E+03  0.12500000000E+03 0.  0.
         25    1    1    2    0    0 -0.15826099315E+03 -0.10001629937E+03  0.88030460435E+02  0.24171091009E+03  0.12500000000E+03 0.  0.
</event>
<event>
 5    0  0.5626800E-005  0.2737231E+03  0.7546771E-02  0.1099167E+00
         21   -1    0    0  502  501  0.00000000000E+00  0.00000000000E+00  0.94143811867E+03  0.94143811867E+03  0.00000000000E+00 0. -1.
         21   -1    0    0  501  502 -0.00000000000E+00 -0.00000000000E+00 -0.79584993227E+02  0.79584993227E+02  0.00000000000E+00 0. -1.
         25    1    1    2    0    0 -0.10870374681E+03 -0.17286785639E+02  0.49198938045E+03  0.51941687305E+03  0.12500000000E+03 0.  0.
         25    1    1    2    0    0  0.14767132755E+03 -0.59708734333E+01  0.28264892480E+03  0.34257537418E+03  0.12500000000E+03 0.  0.
         25    1    1    2    0    0 -0.38967580738E+02  0.23257659073E+02  0.87214820191E+02  0.15903086466E+03  0.12500000000E+03 0.  0.
</event>
<event>
 5    0  0.7553911E-005  0.7165293E+03  0.7546771E-02  0.9689375E-01
         21   -1    0    0  502  501  0.00000000000E+00  0.00000000000E+00  0.35276807401E+03  0.35276807401E+03  0.00000000000E+00 0. -1.
         21   -1    0    0  501  502 -0.00000000000E+00 -0.00000000000E+00 -0.14553875254E+04  0.14553875254E+04  0.00000000000E+00 0. -1.
         25    1    1    2    0    0 -0.41295313364E+03  0.33789271335E+03 -0.31295817389E+03  0.63108604399E+03  0.12500000000E+03 0.  0.
         25    1    1    2    0    0  0.27847980561E+03 -0.27833220133E+03 -0.87378908190E+03  0.96651548155E+03  0.12500000000E+03 0.  0.
         25    1    1    2    0    0  0.13447332803E+03 -0.59560512013E+02  0.84127804415E+02  0.21055407386E+03  0.12500000000E+03 0.  0.
</event>
<event>
 5    0  0.5626800E-005  0.3891131E+03  0.7546771E-02  0.1047616E+00
         21   -1    0    0  502  501  0.00000000000E+00  0.00000000000E+00  0.48163404829E+03  0.48163404829E+03  0.00000000000E+00 0. -1.
         21   -1    0    0  501  502 -0.00000000000E+00 -0.00000000000E+00 -0.31436518743E+03  0.31436518743E+03  0.00000000000E+00 0. -1.
         25    1    1    2    0    0  0.78999936217E+02  0.20228244351E+03 -0.37090401307E+02  0.25329799593E+03  0.12500000000E+03 0.  0.
         25    1    1    2    0    0 -0.16511732271E+03 -0.25949162874E+03  0.89232402573E+02  0.34378344537E+03  0.12500000000E+03 0.  0.
         25    1    1    2    0    0  0.86117386494E+02  0.57209185226E+02  0.11512685960E+03  0.19891779441E+03  0.12500000000E+03 0.  0.
</event>
<event>
 5    0  0.5626800E-005  0.2769037E+03  0.7546771E-02  0.1097392E+00
         21   -1    0    0  502  501  0.00000000000E+00  0.00000000000E+00  0.34946422176E+03  0.34946422176E+03  0.00000000000E+00 0.  1.
         21   -1    0    0  501  502 -0.00000000000E+00 -0.00000000000E+00 -0.21940923918E+03  0.21940923918E+03  0.00000000000E+00 0.  1.
         25    1    1    2    0    0  0.10805063168E+03  0.54814001514E+02 -0.23074957752E+02  0.17560457694E+03  0.12500000000E+03 0.  0.
         25    1    1    2    0    0 -0.16611411225E+03 -0.38786244979E+02  0.14059172570E+03  0.25394744422E+03  0.12500000000E+03 0.  0.
         25    1    1    2    0    0  0.58063480575E+02 -0.16027756535E+02  0.12538214631E+02  0.13932143978E+03  0.12500000000E+03 0.  0.
</event>
<event>
 5    0  0.5626800E-005  0.3073500E+03  0.7546771E-02  0.1081623E+00
         21   -1    0    0  502  501  0.00000000000E+00  0.00000000000E+00  0.92547401191E+03  0.92547401191E+03  0.00000000000E+00 0. -1.
         21   -1    0    0  501  502 -0.00000000000E+00 -0.00000000000E+00 -0.10207096662E+03  0.10207096662E+03  0.00000000000E+00 0. -1.
         25    1    1    2    0    0  0.40913404542E+02 -0.17678472496E+03  0.23444799111E+03  0.32174152076E+03  0.12500000000E+03 0.  0.
         25    1    1    2    0    0 -0.37884444500E+01 -0.43804422914E+02  0.21172853087E+03  0.24977419916E+03  0.12500000000E+03 0.  0.
         25    1    1    2    0    0 -0.37124960092E+02  0.22058914787E+03  0.37722652331E+03  0.45602925861E+03  0.12500000000E+03 0.  0.
</event>
<event>
 5    0  0.5626800E-005  0.2599306E+03  0.7546771E-02  0.1107185E+00
         21   -1    0    0  502  501  0.00000000000E+00  0.00000000000E+00  0.77784244212E+02  0.77784244212E+02  0.00000000000E+00 0.  1.
         21   -1    0    0  501  502 -0.00000000000E+00 -0.00000000000E+00 -0.86860688319E+03  0.86860688319E+03  0.00000000000E+00 0.  1.
         25    1    1    2    0    0  0.25031617765E+01  0.86772387288E+02 -0.10588288439E+03  0.18539659711E+03  0.12500000000E+03 0.  0.
         25    1    1    2    0    0 -0.38587971585E+02 -0.13760550903E+03 -0.43591990690E+03  0.47547394555E+03  0.12500000000E+03 0.  0.
         25    1    1    2    0    0  0.36084809809E+02  0.50833121743E+02 -0.24901984768E+03  0.28552058473E+03  0.12500000000E+03 0.  0.
</event>
<event>
 5    0  0.5626800E-005  0.2979832E+03  0.7546771E-02  0.1086253E+00
         21   -1    0    0  502  501  0.00000000000E+00  0.00000000000E+00  0.75684476394E+03  0.75684476394E+03  0.00000000000E+00 0.  1.
         21   -1    0    0  501  502 -0.00000000000E+00 -0.00000000000E+00 -0.11732125959E+03  0.11732125959E+03  0.00000000000E+00 0.  1.
         25    1    1    2    0    0 -0.18543421634E+02  0.13632512221E+03  0.26592515641E+03  0.32445274886E+03  0.12500000000E+03 0.  0.
         25    1    1    2    0    0 -0.65924661030E+02 -0.19490667164E+03  0.23872586371E+03  0.33904234188E+03  0.12500000000E+03 0.  0.
         25    1    1    2    0    0  0.84468082664E+02  0.58581549432E+02  0.13487248423E+03  0.21067093279E+03  0.12500000000E+03 0.  0.
</event>
<event>
 5    0  0.5626800E-005  0.5055239E+03  0.7546771E-02  0.1012347E+00
         21   -1    0    0  502  501  0.00000000000E+00  0.00000000000E+00  0.58458089002E+03  0.58458089002E+03  0.00000000000E+00 0.  1.
         21   -1    0    0  501  502 -0.00000000000E+00 -0.00000000000E+00 -0.43715841016E+03  0.43715841016E+03  0.00000000000E+00 0.  1.
         25    1    1    2    0    0 -0.94549111226E+02  0.26132918802E+03  0.29535320298E+03  0.42437129198E+03  0.12500000000E+03 0.  0.
         25    1    1    2    0    0  0.25986581504E+03 -0.22775586596E+03 -0.11361962088E+03  0.38462630508E+03  0.12500000000E+03 0.  0.
         25    1    1    2    0    0 -0.16531670382E+03 -0.33573322055E+02 -0.34311102241E+02  0.21274170313E+03  0.12500000000E+03 0.  0.
</event>
<event>
 5    0  0.5626800E-005  0.2892064E+03  0.7546771E-02  0.1090764E+00
         21   -1    0    0  502  501  0.00000000000E+00  0.00000000000E+00  0.82266226621E+03  0.82266226621E+03  0.00000000000E+00 0. -1.
         21   -1    0    0  501  502 -0.00000000000E+00 -0.00000000000E+00 -0.10167033809E+03  0.10167033809E+03  0.00000000000E+00 0. -1.
         25    1    1    2    0    0 -0.14791827502E+03  0.75043175431E+02  0.12608302329E+03  0.24296753492E+03  0.12500000000E+03 0.  0.
         25    1    1    2    0    0  0.84866460122E+02  0.19011395291E+02  0.19552505829E+03  0.24782816148E+03  0.12500000000E+03 0.  0.
         25    1    1    2    0    0  0.63051814897E+02 -0.94054570721E+02  0.39938384654E+03  0.43353690790E+03  0.12500000000E+03 0.  0.
</event>
<event>
 5    0  0.5626800E-005  0.2713037E+03  0.7546771E-02  0.1100536E+00
         21   -1    0    0  502  501  0.00000000000E+00  0.00000000000E+00  0.59715406508E+02  0.59715406508E+02  0.00000000000E+00 0. -1.
         21   -1    0    0  501  502 -0.00000000000E+00 -0.00000000000E+00 -0.12326084302E+04  0.12326084302E+04  0.00000000000E+00 0. -1.
         25    1    1    2    0    0 -0.89089623947E+02 -0.42189798303E+02 -0.31506155777E+03  0.35299536167E+03  0.12500000000E+03 0.  0.
         25    1    1    2    0    0  0.11602631911E+02 -0.30813310781E+02 -0.69911796262E+03  0.71096765528E+03  0.12500000000E+03 0.  0.
         25    1    1    2    0    0  0.77486992036E+02  0.73003109084E+02 -0.15871350329E+03  0.22836081975E+03  0.12500000000E+03 0.  0.
</event>
<event>
 5    0  0.5626800E-005  0.3063043E+03  0.7546771E-02  0.1082131E+00
         21   -1    0    0  502  501  0.00000000000E+00  0.00000000000E+00  0.15066433679E+03  0.15066433679E+03  0.00000000000E+00 0. -1.
         21   -1    0    0  501  502 -0.00000000000E+00 -0.00000000000E+00 -0.62272396762E+03  0.62272396762E+03  0.00000000000E+00 0. -1.
         25    1    1    2    0    0  0.23808813484E+02 -0.12142610121E+02 -0.38118581889E+03  0.40204717522E+03  0.12500000000E+03 0.  0.
         25    1    1    2    0    0 -0.55429680272E+02  0.11550331757E+03  0.72726381079E+01  0.17914060703E+03  0.12500000000E+03 0.  0.
         25    1    1    2    0    0  0.31620866788E+02 -0.10336070744E+03 -0.98146450052E+02  0.19220052216E+03  0.12500000000E+03 0.  0.
</event>
<event>
 5    0  0.5626800E-005  0.2569002E+03  0.7546771E-02  0.1109020E+00
         21   -1    0    0  502  501  0.00000000000E+00  0.00000000000E+00  0.78124977604E+02  0.78124977604E+02  0.00000000000E+00 0. -1.
         21   -1    0    0  501  502 -0.00000000000E+00 -0.00000000000E+00 -0.84477129340E+03  0.84477129340E+03  0.00000000000E+00 0. -1.
         25    1    1    2    0    0  0.88211382115E+02  0.13177320248E+02 -0.11991309519E+03  0.19483079865E+03  0.12500000000E+03 0.  0.
         25    1    1    2    0    0  0.44420239215E+01 -0.31310240843E+02 -0.11176880600E+03  0.17063800501E+03  0.12500000000E+03 0.  0.
         25    1    1    2    0    0 -0.92653406036E+02  0.18132920595E+02 -0.53496441461E+03  0.55742746735E+03  0.12500000000E+03 0.  0.
</event>
<event>
 5    0  0.5626800E-005  0.2509182E+03  0.7546771E-02  0.1112726E+00
         21   -1    0    0  502  501  0.00000000000E+00  0.00000000000E+00  0.46005409126E+02  0.46005409126E+02  0.00000000000E+00 0. -1.
         21   -1    0    0  501  502 -0.00000000000E+00 -0.00000000000E+00 -0.13685339609E+04  0.13685339609E+04  0.00000000000E+00 0. -1.
         25    1    1    2    0    0 -0.66181765391E+02 -0.10085031947E+03 -0.43910026169E+03  0.47221271989E+03  0.12500000000E+03 0.  0.
         25    1    1    2    0    0  0.12270903050E+02 -0.37443246451E+02 -0.29721542591E+03  0.32483008045E+03  0.12500000000E+03 0.  0.
         25    1    1    2    0    0  0.53910862341E+02  0.13829356592E+03 -0.58621286414E+03  0.61749656966E+03  0.12500000000E+03 0.  0.
</event>
<event>
 5    0  0.5626800E-005  0.1993713E+03  0.7546771E-02  0.1150271E+00
         21   -1    0    0  502  501  0.00000000000E+00  0.00000000000E+00  0.14113035709E+04  0.14113035709E+04  0.00000000000E+00 0. -1.
         21   -1    0    0  501  502 -0.00000000000E+00 -0.00000000000E+00 -0.28164668152E+02  0.28164668152E+02  0.00000000000E+00 0. -1.
         25    1    1    2    0    0 -0.35047178159E+02 -0.36819034561E+02  0.50887803443E+03  0.52646538341E+03  0.12500000000E+03 0.  0.
         25    1    1    2    0    0  0.17775941794E+02 -0.14097324420E+02  0.42831347916E+03  0.44675737833E+03  0.12500000000E+03 0.  0.
         25    1    1    2    0    0  0.17271236365E+02  0.50916358981E+02  0.44594738917E+03  0.46624547733E+03  0.12500000000E+03 0.  0.
</event>
<event>
 5    0  0.5626800E-005  0.2609115E+03  0.7546771E-02  0.1106597E+00
         21   -1    0    0  502  501  0.00000000000E+00  0.00000000000E+00  0.38503296555E+03  0.38503296555E+03  0.00000000000E+00 0. -1.
         21   -1    0    0  501  502 -0.00000000000E+00 -0.00000000000E+00 -0.17680255645E+03  0.17680255645E+03  0.00000000000E+00 0. -1.
         25    1    1    2    0    0  0.45274276576E+02  0.14898328240E+03  0.91785074771E+02  0.21976186773E+03  0.12500000000E+03 0.  0.
         25    1    1    2    0    0 -0.57288515605E+02 -0.13643135232E+03  0.53003480023E+02  0.20082294891E+03  0.12500000000E+03 0.  0.
         25    1    1    2    0    0  0.12014239029E+02 -0.12551930090E+02  0.63441854300E+02  0.14125070536E+03  0.12500000000E+03 0.  0.
</event>
<event>
 5    0  0.5626800E-005  0.3148194E+03  0.7546771E-02  0.1078059E+00
         21   -1    0    0  502  501  0.00000000000E+00  0.00000000000E+00  0.11207901280E+03  0.11207901280E+03  0.00000000000E+00 0.  1.
         21   -1    0    0  501  502 -0.00000000000E+00 -0.00000000000E+00 -0.88429818129E+03  0.88429818129E+03  0.00000000000E+00 0.  1.
         25    1    1    2    0    0 -0.42930630134E+02  0.24963719314E+02 -0.71872551759E+02  0.15250209829E+03  0.12500000000E+03 0.  0.
         25    1    1    2    0    0 -0.57299109118E+02 -0.14731472503E+03 -0.56807593688E+03  0.60276038869E+03  0.12500000000E+03 0.  0.
         25    1    1    2    0    0  0.10022973925E+03  0.12235100572E+03 -0.13227067985E+03  0.24111470710E+03  0.12500000000E+03 0.  0.
</event>
<event>
 5    0  0.8423719E-005  0.3267184E+03  0.7546771E-02  0.1072598E+00
         21   -1    0    0  502  501  0.00000000000E+00  0.00000000000E+00  0.14197145715E+03  0.14197145715E+03  0.00000000000E+00 0. -1.
         21   -1    0    0  501  502 -0.00000000000E+00 -0.00000000000E+00 -0.75187609095E+03  0.75187609095E+03  0.00000000000E+00 0. -1.
         25    1    1    2    0    0  0.91916741979E+02 -0.60982917833E+02 -0.58781468787E+01  0.16681473656E+03  0.12500000000E+03 0.  0.
         25    1    1    2    0    0 -0.17617325618E+03  0.83181126390E+02 -0.24522729415E+03  0.33722031638E+03  0.12500000000E+03 0.  0.
         25    1    1    2    0    0  0.84256514203E+02 -0.22198208557E+02 -0.35879919277E+03  0.38981249516E+03  0.12500000000E+03 0.  0.
</event>
<event>
 5    0  0.5961043E-005  0.3256898E+03  0.7546771E-02  0.1073060E+00
         21   -1    0    0  502  501  0.00000000000E+00  0.00000000000E+00  0.19910469553E+03  0.19910469553E+03  0.00000000000E+00 0. -1.
         21   -1    0    0  501  502 -0.00000000000E+00 -0.00000000000E+00 -0.53275418201E+03  0.53275418201E+03  0.00000000000E+00 0. -1.
         25    1    1    2    0    0  0.83556828019E+02 -0.16013563031E+02 -0.26651369197E+03  0.30641919932E+03  0.12500000000E+03 0.  0.
         25    1    1    2    0    0 -0.31708984506E+02  0.13900165267E+03 -0.13241884183E+03  0.23127185046E+03  0.12500000000E+03 0.  0.
         25    1    1    2    0    0 -0.51847843514E+02 -0.12298808964E+03  0.65283047310E+02  0.19416782776E+03  0.12500000000E+03 0.  0.
</event>
<event>
 5    0  0.5626800E-005  0.2783331E+03  0.7546771E-02  0.1096603E+00
         21   -1    0    0  502  501  0.00000000000E+00  0.00000000000E+00  0.68216319755E+02  0.68216319755E+02  0.00000000000E+00 0. -1.
         21   -1    0    0  501  502 -0.00000000000E+00 -0.00000000000E+00 -0.11356419033E+04  0.11356419033E+04  0.00000000000E+00 0. -1.
         25    1    1    2    0    0 -0.74693257497E+02 -0.58428609140E+02 -0.53021418122E+03  0.55294218780E+03  0.12500000000E+03 0.  0.
         25    1    1    2    0    0  0.15330580369E+03  0.14547026780E+02 -0.20779236664E+03  0.28725764231E+03  0.12500000000E+03 0.  0.
         25    1    1    2    0    0 -0.78612546189E+02  0.43881582361E+02 -0.32941903568E+03  0.36365839294E+03  0.12500000000E+03 0.  0.
</event>
<event>
 5    0  0.5626800E-005  0.3248916E+03  0.7546771E-02  0.1073420E+00
         21   -1    0    0  502  501  0.00000000000E+00  0.00000000000E+00  0.36266760697E+03  0.36266760697E+03  0.00000000000E+00 0. -1.
         21   -1    0    0  501  502 -0.00000000000E+00 -0.00000000000E+00 -0.29105047404E+03  0.29105047404E+03  0.00000000000E+00 0. -1.
         25    1    1    2    0    0  0.97384757493E+02  0.10902819081E+02  0.34743561372E+02  0.16258775327E+03  0.12500000000E+03 0.  0.
         25    1    1    2    0    0 -0.72644874457E+02 -0.18631047341E+03  0.11279852337E+03  0.26141418700E+03  0.12500000000E+03 0.  0.
         25    1    1    2    0    0 -0.24739883035E+02  0.17540765433E+03 -0.75924951818E+02  0.22971614075E+03  0.12500000000E+03 0.  0.
</event>
<event>
 5    0  0.5626800E-005  0.2183585E+03  0.7546771E-02  0.1135113E+00
         21   -1    0    0  502  501  0.00000000000E+00  0.00000000000E+00  0.15968202809E+03  0.15968202809E+03  0.00000000000E+00 0.  1.
         21   -1    0    0  501  502 -0.00000000000E+00 -0.00000000000E+00 -0.29859615714E+03  0.29859615714E+03  0.00000000000E+00 0.  1.
         25    1    1    2    0    0  0.83454126075E+02  0.11815817998E+02 -0.79297571343E+02  0.17034467862E+03  0.12500000000E+03 0.  0.
         25    1    1    2    0    0 -0.35078392677E+02 -0.54792487812E+02 -0.31578307124E+02  0.14441225652E+03  0.12500000000E+03 0.  0.
         25    1    1    2    0    0 -0.48375733397E+02  0.42976669814E+02 -0.28038250581E+02  0.14352125008E+03  0.12500000000E+03 0.  0.
</event>
<event>
 5    0  0.5626800E-005  0.3427522E+03  0.7546771E-02  0.1065630E+00
         21   -1    0    0  502  501  0.00000000000E+00  0.00000000000E+00  0.43292386768E+03  0.43292386768E+03  0.00000000000E+00 0.  1.
         21   -1    0    0  501  502 -0.00000000000E+00 -0.00000000000E+00 -0.27136200355E+03  0.27136200355E+03  0.00000000000E+00 0.  1.
         25    1    1    2    0    0 -0.57756737036E+02  0.18135079179E+02  0.25556504116E+03  0.29086631299E+03  0.12500000000E+03 0.  0.
         25    1    1    2    0    0  0.24581810459E+02 -0.85081222169E+02 -0.18615507157E+03  0.24108461262E+03  0.12500000000E+03 0.  0.
         25    1    1    2    0    0  0.33174926577E+02  0.66946142990E+02  0.92151894537E+02  0.17233494562E+03  0.12500000000E+03 0.  0.
</event>
<event>
 5    0  0.5626800E-005  0.2695009E+03  0.7546771E-02  0.1101566E+00
         21   -1    0    0  502  501  0.00000000000E+00  0.00000000000E+00  0.19259572838E+03  0.19259572838E+03  0.00000000000E+00 0. -1.
         21   -1    0    0  501  502 -0.00000000000E+00 -0.00000000000E+00 -0.37711502804E+03  0.37711502804E+03  0.00000000000E+00 0. -1.
         25    1    1    2    0    0  0.48751615704E+02  0.68860534995E+02  0.59005232425E+02  0.16194168940E+03  0.12500000000E+03 0.  0.
         25    1    1    2    0    0 -0.53051066196E+02 -0.56521117061E+02 -0.16147329528E+02  0.14796887696E+03  0.12500000000E+03 0.  0.
         25    1    1    2    0    0  0.42994504926E+01 -0.12339417934E+02 -0.22737720256E+03  0.25980019006E+03  0.12500000000E+03 0.  0.
</event>
<event>
 5    0  0.5626800E-005  0.3279803E+03  0.7546771E-02  0.1072034E+00
         21   -1    0    0  502  501  0.00000000000E+00  0.00000000000E+00  0.30141264069E+04  0.30141264069E+04  0.00000000000E+00 0. -1.
         21   -1    0    0  501  502 -0.00000000000E+00 -0.00000000000E+00 -0.35688964420E+02  0.35688964420E+02  0.00000000000E+00 0. -1.
         25    1    1    2    0    0  0.16827814993E+02  0.52231293317E+02  0.27614695603E+03  0.30804776364E+03  0.12500000000E+03 0.  0.
         25    1    1    2    0    0  0.49285837081E+02  0.13731730312E+03  0.71155322362E+03  0.73703332727E+03  0.12500000000E+03 0.  0.
         25    1    1    2    0    0 -0.66113652074E+02 -0.18954859643E+03  0.19907372628E+04  0.20047342804E+04  0.12500000000E+03 0.  0.
</event>
<event>
 5    0  0.5626800E-005  0.3552319E+03  0.7546771E-02  0.1060488E+00
         21   -1    0    0  502  501  0.00000000000E+00  0.00000000000E+00  0.46470892299E+03  0.46470892299E+03  0.00000000000E+00 0.  1.
         21   -1    0    0  501  502 -0.00000000000E+00 -0.00000000000E+00 -0.27154573006E+03  0.27154573006E+03  0.00000000000E+00 0.  1.
         25    1    1    2    0    0  0.10391425643E+03 -0.20496696821E+03  0.75860331997E+02  0.27237734986E+03  0.12500000000E+03 0.  0.
         25    1    1    2    0    0 -0.23035608591E+02  0.24629073395E+03  0.13007809199E+02  0.27745984933E+03  0.12500000000E+03 0.  0.
         25    1    1    2    0    0 -0.80878647836E+02 -0.41323765741E+02  0.10429505173E+03  0.18641745386E+03  0.12500000000E+03 0.  0.
</event>
<event>
 5    0  0.5626800E-005  0.2486487E+03  0.7546771E-02  0.1114162E+00
         21   -1    0    0  502  501  0.00000000000E+00  0.00000000000E+00  0.34673014229E+02  0.34673014229E+02  0.00000000000E+00 0. -1.
         21   -1    0    0  501  502 -0.00000000000E+00 -0.00000000000E+00 -0.17831210618E+04  0.17831210618E+04  0.00000000000E+00 0. -1.
         25    1    1    2    0    0  0.11620709594E+03  0.43598025593E+02 -0.67429011236E+03  0.69691967443E+03  0.12500000000E+03 0.  0.
         25    1    1    2    0    0 -0.60072153237E+02 -0.39622118326E+02 -0.81529172142E+03  0.82795179019E+03  0.12500000000E+03 0.  0.
         25    1    1    2    0    0 -0.56134942708E+02 -0.39759072670E+01 -0.25886621376E+03  0.29292261138E+03  0.12500000000E+03 0.  0.
</event>
<event>
 5    0  0.5626800E-005  0.2432820E+03  0.7546771E-02  0.1117626E+00
         21   -1    0    0  502  501  0.00000000000E+00  0.00000000000E+00  0.18943768306E+03  0.18943768306E+03  0.00000000000E+00 0.  1.
         21   -1    0    0  501  502 -0.00000000000E+00 -0.00000000000E+00 -0.31243052991E+03  0.31243052991E+03  0.00000000000E+00 0.  1.
         25    1    1    2    0    0  0.84231833523E+02  0.56233367446E+02 -0.12217815384E+03  0.20201409522E+03  0.12500000000E+03 0.  0.
         25    1    1    2    0    0 -0.13781823726E+02 -0.26605670756E+02 -0.59979608996E+02  0.14184623321E+03  0.12500000000E+03 0.  0.
         25    1    1    2    0    0 -0.70450009797E+02 -0.29627696689E+02  0.59164915986E+02  0.15800788453E+03  0.12500000000E+03 0.  0.
</event>
<event>
 5    0  0.5626800E-005  0.2805014E+03  0.7546771E-02  0.1095415E+00
         21   -1    0    0  502  501  0.00000000000E+00  0.00000000000E+00  0.62469484032E+03  0.62469484032E+03  0.00000000000E+00 0. -1.
         21   -1    0    0  501  502 -0.00000000000E+00 -0.00000000000E+00 -0.12595114413E+03  0.12595114413E+03  0.00000000000E+00 0. -1.
         25    1    1    2    0    0  0.44690423006E+02  0.32515806363E+02  0.15240775131E+03  0.20471354189E+03  0.12500000000E+03 0.  0.
         25    1    1    2    0    0  0.89654828384E+02 -0.27299919655E+01  0.11360973566E+01  0.15385620503E+03  0.12500000000E+03 0.  0.
         25    1    1    2    0    0 -0.13434525139E+03 -0.29785814397E+02  0.34519984752E+03  0.39207623753E+03  0.12500000000E+03 0.  0.
</event>
<event>
 5    0  0.5626800E-005  0.4900888E+03  0.7546771E-02  0.1016399E+00
         21   -1    0    0  502  501  0.00000000000E+00  0.00000000000E+00  0.57369567058E+03  0.57369567058E+03  0.00000000000E+00 0. -1.
         21   -1    0    0  501  502 -0.00000000000E+00 -0.00000000000E+00 -0.41866622016E+03  0.41866622016E+03  0.00000000000E+00 0. -1.
         25    1    1    2    0    0 -0.29433557272E+02  0.12290304107E+02  0.10209910109E+02  0.12940876374E+03  0.12500000000E+03 0.  0.
         25    1    1    2    0    0 -0.22210228854E+03 -0.14051444824E+03 -0.23457268748E+03  0.37379550887E+03  0.12500000000E+03 0.  0.
         25    1    1    2    0    0  0.25153584581E+03  0.12822414414E+03  0.37939222780E+03  0.48915761813E+03  0.12500000000E+03 0.  0.
</event>
<event>
 5    0  0.5626800E-005  0.4100169E+03  0.7546771E-02  0.1040365E+00
         21   -1    0    0  502  501  0.00000000000E+00  0.00000000000E+00  0.26991786414E+03  0.26991786414E+03  0.00000000000E+00 0. -1.
         21   -1    0    0  501  502 -0.00000000000E+00 -0.00000000000E+00 -0.62283331735E+03  0.62283331735E+03  0.00000000000E+00 0. -1.
         25    1    1    2    0    0  0.26101853589E+03 -0.61789017455E+02  0.20281738613E+02  0.29662250029E+03  0.12500000000E+03 0.  0.
         25    1    1    2    0    0 -0.21299940718E+03  0.16270182239E+03 -0.26038029258E+03  0.39403493149E+03  0.12500000000E+03 0.  0.
         25    1    1    2    0    0 -0.48019128704E+02 -0.10091280493E+03 -0.11281689923E+03  0.20209374971E+03  0.12500000000E+03 0.  0.
</event>
<event>
 5    0  0.5626800E-005  0.2961647E+03  0.7546771E-02  0.1087174E+00
         21   -1    0    0  502  501  0.00000000000E+00  0.00000000000E+00  0.14638191284E+04  0.14638191284E+04  0.00000000000E+00 0. -1.
         21   -1    0    0  501  502 -0.00000000000E+00 -0.00000000000E+00 -0.59921009808E+02  0.59921009808E+02  0.00000000000E+00 0. -1.
         25    1    1    2    0    0  0.61625181562E+02  0.16601234765E+03  0.59360891744E+03  0.63194486266E+03  0.12500000000E+03 0.  0.
         25    1    1    2    0    0 -0.18956044990E+02 -0.45094983629E+02  0.12473480482E+03  0.18323935365E+03  0.12500000000E+03 0.  0.
         25    1    1    2    0    0 -0.42669136572E+02 -0.12091736402E+03  0.68555439630E+03  0.70855592188E+03  0.12500000000E+03 0.  0.
</event>
<event>
 5    0  0.5626800E-005  0.2819725E+03  0.7546771E-02  0.1094616E+00
         21   -1    0    0  502  501  0.00000000000E+00  0.00000000000E+00  0.40006206709E+03  0.40006206709E+03  0.00000000000E+00 0. -1.
         21   -1    0    0  501  502 -0.00000000000E+00 -0.00000000000E+00 -0.19874035112E+03  0.19874035112E+03  0.00000000000E+00 0. -1.
         25    1    1    2    0    0  0.45353261372E+02  0.13677830907E+03  0.89507948823E+01  0.19097209450E+03  0.12500000000E+03 0.  0.
         25    1    1    2    0    0 -0.23828755074E+02 -0.79175785213E+02  0.21961914851E+03  0.26588378086E+03  0.12500000000E+03 0.  0.
         25    1    1    2    0    0 -0.21524506298E+02 -0.57602523859E+02 -0.27248227430E+02  0.14194654284E+03  0.12500000000E+03 0.  0.
</event>
<event>
 5    0  0.5626800E-005  0.3198399E+03  0.7546771E-02  0.1075723E+00
         21   -1    0    0  502  501  0.00000000000E+00  0.00000000000E+00  0.13865101741E+03  0.13865101741E+03  0.00000000000E+00 0.  1.
         21   -1    0    0  501  502 -0.00000000000E+00 -0.00000000000E+00 -0.73780612872E+03  0.73780612872E+03  0.00000000000E+00 0.  1.
         25    1    1    2    0    0 -0.76039591251E+02 -0.77013217060E+02 -0.16746543794E+03  0.23533535209E+03  0.12500000000E+03 0.  0.
         25    1    1    2    0    0 -0.10785681561E+03 -0.93274714803E+02 -0.21735060013E+03  0.28844331934E+03  0.12500000000E+03 0.  0.
         25    1    1    2    0    0  0.18389640686E+03  0.17028793186E+03 -0.21433907323E+03  0.35267847469E+03  0.12500000000E+03 0.  0.
</event>
<event>
 5    0  0.5626800E-005  0.3913007E+03  0.7546771E-02  0.1046834E+00
         21   -1    0    0  502  501  0.00000000000E+00  0.00000000000E+00  0.18880414070E+04  0.18880414070E+04  0.00000000000E+00 0. -1.
         21   -1    0    0  501  502 -0.00000000000E+00 -0.00000000000E+00 -0.81097927650E+02  0.81097927650E+02  0.00000000000E+00 0. -1.
         25    1    1    2    0    0 -0.56144673144E+02 -0.81060206022E+02  0.19078150733E+03  0.24848654865E+03  0.12500000000E+03 0.  0.
         25    1    1    2    0    0  0.20507301503E+03 -0.10590422862E+03  0.11717199926E+04  0.12007595048E+04  0.12500000000E+03 0.  0.
         25    1    1    2    0    0 -0.14892834189E+03  0.18696443464E+03  0.44444197942E+03  0.51989328127E+03  0.12500000000E+03 0.  0.
</event>
<event>
 5    0  0.5626800E-005  0.4015912E+03  0.7546771E-02  0.1043230E+00
         21   -1    0    0  502  501  0.00000000000E+00  0.00000000000E+00  0.15017997275E+03  0.15017997275E+03  0.00000000000E+00 0. -1.
         21   -1    0    0  501  502 -0.00000000000E+00 -0.00000000000E+00 -0.10738817048E+04  0.10738817048E+04  0.00000000000E+00 0.  1.
         25    1    1    2    0    0 -0.24737522746E+03  0.57575581113E+02 -0.99657482244E+02  0.30011008725E+03  0.12500000000E+03 0.  0.
         25    1    1    2    0    0 -0.12350452276E+02 -0.15058885982E+02 -0.25454280417E+03  0.28424697514E+03  0.12500000000E+03 0.  0.
         25    1    1    2    0    0  0.25972567974E+03 -0.42516695131E+02 -0.56950144565E+03  0.63970461517E+03  0.12500000000E+03 0.  0.
</event>
<event>
 5    0  0.5626800E-005  0.2837298E+03  0.7546771E-02  0.1093669E+00
         21   -1    0    0  502  501  0.00000000000E+00  0.00000000000E+00  0.43781521998E+02  0.43781521998E+02  0.00000000000E+00 0. -1.
         21   -1    0    0  501  502 -0.00000000000E+00 -0.00000000000E+00 -0.18387351991E+04  0.18387351991E+04  0.00000000000E+00 0. -1.
         25    1    1    2    0    0  0.76869640634E+02  0.16170652161E+03 -0.71258843809E+03  0.74529539303E+03  0.12500000000E+03 0.  0.
         25    1    1    2    0    0 -0.61841305232E+02 -0.12905158741E+03 -0.40338926601E+03  0.44589971875E+03  0.12500000000E+03 0.  0.
         25    1    1    2    0    0 -0.15028335402E+02 -0.32654934194E+02 -0.67897597297E+03  0.69132160929E+03  0.12500000000E+03 0.  0.
</event>
<event>
 5    0  0.5626800E-005  0.3711688E+03  0.7546771E-02  0.1054247E+00
         21   -1    0    0  502  501  0.00000000000E+00  0.00000000000E+00  0.10948930206E+04  0.10948930206E+04  0.00000000000E+00 0.  1.
         21   -1    0    0  501  502 -0.00000000000E+00 -0.00000000000E+00 -0.12582624472E+03  0.12582624472E+03  0.00000000000E+00 0.  1.
         25    1    1    2    0    0 -0.69590007860E+02  0.20312826875E+03  0.62989478218E+03  0.67712354809E+03  0.12500000000E+03 0.  0.
         25    1    1    2    0    0  0.10498666571E+03 -0.19519921382E+03  0.10416977759E+03  0.27495686137E+03  0.12500000000E+03 0.  0.
         25    1    1    2    0    0 -0.35396657849E+02 -0.79290549329E+01  0.23500221614E+03  0.26863885588E+03  0.12500000000E+03 0.  0.
</event>
<event>
 5    0  0.5626800E-005  0.4390171E+03  0.7546771E-02  0.1031049E+00
         21   -1    0    0  502  501  0.00000000000E+00  0.00000000000E+00  0.50731687569E+03  0.50731687569E+03  0.00000000000E+00 0. -1.
         21   -1    0    0  501  502 -0.00000000000E+00 -0.00000000000E+00 -0.37991242924E+03  0.37991242924E+03  0.00000000000E+00 0. -1.
         25    1    1    2    0    0 -0.70271906818E+02  0.13871111289E+02  0.28805548428E+03  0.32207376584E+03  0.12500000000E+03 0.  0.
         25    1    1    2    0    0  0.10892112430E+03 -0.71784064836E+02  0.14238842938E+03  0.23003527578E+03  0.12500000000E+03 0.  0.
         25    1    1    2    0    0 -0.38649217480E+02  0.57912953547E+02 -0.30303946720E+03  0.33512026331E+03  0.12500000000E+03 0.  0.
</event>
<event>
 5    0  0.5626800E-005  0.4809630E+03  0.7546771E-02  0.1018871E+00
         21   -1    0    0  502  501  0.00000000000E+00  0.00000000000E+00  0.17150170716E+03  0.17150170716E+03  0.00000000000E+00 0. -1.
         21   -1    0    0  501  502 -0.00000000000E+00 -0.00000000000E+00 -0.13488228906E+04  0.13488228906E+04  0.00000000000E+00 0. -1.
         25    1    1    2    0    0  0.37733868675E+03 -0.80449869380E+02 -0.43226900958E+03  0.59273785322E+03  0.12500000000E+03 0.  0.
         25    1    1    2    0    0  0.18567621376E+02  0.97100062442E+01 -0.22654325702E+03  0.25958791976E+03  0.12500000000E+03 0.  0.
         25    1    1    2    0    0 -0.39590630813E+03  0.70739863136E+02 -0.51850891683E+03  0.66799882476E+03  0.12500000000E+03 0.  0.
</event>
<event>
 5    0  0.5626800E-005  0.4034662E+03  0.7546771E-02  0.1042586E+00
         21   -1    0    0  502  501  0.00000000000E+00  0.00000000000E+00  0.55406813353E+03  0.55406813353E+03  0.00000000000E+00 0. -1.
         21   -1    0    0  501  502 -0.00000000000E+00 -0.00000000000E+00 -0.29379961080E+03  0.29379961080E+03  0.00000000000E+00 0. -1.
         25    1    1    2    0    0 -0.11527467783E+03 -0.16557474594E+02 -0.11378866914E+03  0.20526875685E+03  0.12500000000E+03 0.  0.
         25    1    1    2    0    0  0.18749875366E+03 -0.10113874202E+03  0.38342946639E+03  0.45610084790E+03  0.12500000000E+03 0.  0.
         25    1    1    2    0    0 -0.72224075830E+02  0.11769621662E+03 -0.93722745207E+01  0.18649813958E+03  0.12500000000E+03 0.  0.
</event>
<event>
 5    0  0.5626800E-005  0.3574839E+03  0.7546771E-02  0.1059585E+00
         21   -1    0    0  502  501  0.00000000000E+00  0.00000000000E+00  0.10025509676E+04  0.10025509676E+04  0.00000000000E+00 0.  1.
         21   -1    0    0  501  502 -0.00000000000E+00 -0.00000000000E+00 -0.12746955761E+03  0.12746955761E+03  0.00000000000E+00 0.  1.
         25    1    1    2    0    0 -0.55055758684E+02  0.51189075447E+02  0.35949755340E+03  0.38796256122E+03  0.12500000000E+03 0.  0.
         25    1    1    2    0    0  0.16832034414E+03  0.15734422691E+03  0.29630572867E+03  0.39561474800E+03  0.12500000000E+03 0.  0.
         25    1    1    2    0    0 -0.11326458546E+03 -0.20853330236E+03  0.21927812791E+03  0.34644321597E+03  0.12500000000E+03 0.  0.
</event>
<event>
 5    0  0.5626800E-005  0.6402018E+03  0.7546771E-02  0.9825341E-01
         21   -1    0    0  502  501  0.00000000000E+00  0.00000000000E+00  0.56120186494E+03  0.56120186494E+03  0.00000000000E+00 0.  1.
         21   -1    0    0  501  502 -0.00000000000E+00 -0.00000000000E+00 -0.73032238772E+03  0.73032238772E+03  0.00000000000E+00 0.  1.
         25    1    1    2    0    0  0.12563358716E+03  0.26050131405E+03 -0.59105510485E+03  0.66978792898E+03  0.12500000000E+03 0.  0.
         25    1    1    2    0    0 -0.78321174296E+02  0.52075257601E+01  0.77695428378E+02  0.16680199117E+03  0.12500000000E+03 0.  0.
         25    1    1    2    0    0 -0.47312412862E+02 -0.26570883981E+03  0.34423915369E+03  0.45493433251E+03  0.12500000000E+03 0.  0.
</event>
<event>
 5    0  0.5626800E-005  0.2460955E+03  0.7546771E-02  0.1115798E+00
         21   -1    0    0  502  501  0.00000000000E+00  0.00000000000E+00  0.17104156250E+03  0.17104156250E+03  0.00000000000E+00 0.  1.
         21   -1    0    0  501  502 -0.00000000000E+00 -0.00000000000E+00 -0.35408357499E+03  0.35408357499E+03  0.00000000000E+00 0.  1.
         25    1    1    2    0    0 -0.26527965891E+02 -0.32678914195E+02  0.30743969380E+01  0.13193216561E+03  0.12500000000E+03 0.  0.
         25    1    1    2    0    0  0.13916080348E+02  0.83118684906E+02 -0.20713635219E+03  0.25618907367E+03  0.12500000000E+03 0.  0.
         25    1    1    2    0    0  0.12611885542E+02 -0.50439770711E+02  0.21019942758E+02  0.13700389819E+03  0.12500000000E+03 0.  0.
</event>
<event>
 5    0  0.5626800E-005  0.3330520E+03  0.7546771E-02  0.1069794E+00
         21   -1    0    0  502  501  0.00000000000E+00  0.00000000000E+00  0.16936828235E+03  0.16936828235E+03  0.00000000000E+00 0.  1.
         21   -1    0    0  501  502 -0.00000000000E+00 -0.00000000000E+00 -0.65492569364E+03  0.65492569364E+03  0.00000000000E+00 0.  1.
         25    1    1    2    0    0 -0.12934066355E+03 -0.14716690948E+03 -0.97514425909E+02  0.25203406467E+03  0.12500000000E+03 0.  0.
         25    1    1    2    0    0 -0.76534234505E+02  0.24525252739E+02 -0.11341891996E+03  0.18694338308E+03  0.12500000000E+03 0.  0.
         25    1    1    2    0    0  0.20587489806E+03  0.12264165675E+03 -0.27462406542E+03  0.38531652823E+03  0.12500000000E+03 0.  0.
</event>
<event>
 5    0  0.5626800E-005  0.3645038E+03  0.7546771E-02  0.1056815E+00
         21   -1    0    0  502  501  0.00000000000E+00  0.00000000000E+00  0.78179266102E+03  0.78179266102E+03  0.00000000000E+00 0.  1.
         21   -1    0    0  501  502 -0.00000000000E+00 -0.00000000000E+00 -0.16994658647E+03  0.16994658647E+03  0.00000000000E+00 0.  1.
         25    1    1    2    0    0  0.19112940450E+03 -0.13780980130E+03  0.93081670532E+02  0.28250873966E+03  0.12500000000E+03 0.  0.
         25    1    1    2    0    0 -0.20652472873E+03  0.51434930213E+02  0.20725700253E+03  0.32230184722E+03  0.12500000000E+03 0.  0.
         25    1    1    2    0    0  0.15395324231E+02  0.86374871083E+02  0.31150740150E+03  0.34692866061E+03  0.12500000000E+03 0.  0.
</event>
<event>
 5    0  0.5626800E-005  0.3292084E+03  0.7546771E-02  0.1071488E+00
         21   -1    0    0  502  501  0.00000000000E+00  0.00000000000E+00  0.13033069268E+04  0.13033069268E+04  0.00000000000E+00 0.  1.
         21   -1    0    0  501  502 -0.00000000000E+00 -0.00000000000E+00 -0.83156314000E+02  0.83156314000E+02  0.00000000000E+00 0.  1.
         25    1    1    2    0    0 -0.87431972824E+01 -0.47938564573E+01  0.96752568295E+02  0.15838397656E+03  0.12500000000E+03 0.  0.
         25    1    1    2    0    0 -0.95618963479E+01  0.19031895979E+03  0.31303656121E+03  0.38720747019E+03  0.12500000000E+03 0.  0.
         25    1    1    2    0    0  0.18305093630E+02 -0.18552510334E+03  0.81036148328E+03  0.84087179403E+03  0.12500000000E+03 0.  0.
</event>
<event>
 5    0  0.5626800E-005  0.3054641E+03  0.7546771E-02  0.1082541E+00
         21   -1    0    0  502  501  0.00000000000E+00  0.00000000000E+00  0.49600496116E+03  0.49600496116E+03  0.00000000000E+00 0.  1.
         21   -1    0    0  501  502 -0.00000000000E+00 -0.00000000000E+00 -0.18811976305E+03  0.18811976305E+03  0.00000000000E+00 0.  1.
         25    1    1    2    0    0  0.14167151709E+02 -0.29828114995E+01 -0.10547776387E+03  0.16419550549E+03  0.12500000000E+03 0.  0.
         25    1    1    2    0    0  0.41487274009E+02 -0.51040195926E+01  0.67895838423E+02  0.14826358216E+03  0.12500000000E+03 0.  0.
         25    1    1    2    0    0 -0.55654425718E+02  0.80868310921E+01  0.34546712356E+03  0.37166563656E+03  0.12500000000E+03 0.  0.
</event>
<event>
 5    0  0.5626800E-005  0.3293695E+03  0.7546771E-02  0.1071416E+00
         21   -1    0    0  502  501  0.00000000000E+00  0.00000000000E+00  0.41508603015E+02  0.41508603015E+02  0.00000000000E+00 0. -1.
         21   -1    0    0  501  502 -0.00000000000E+00 -0.00000000000E+00 -0.26135368005E+04  0.26135368005E+04  0.00000000000E+00 0. -1.
         25    1    1    2    0    0  0.22540938494E+03 -0.26175690255E+02 -0.91824319846E+03  0.95409125827E+03  0.12500000000E+03 0.  0.
         25    1    1    2    0    0 -0.82962886147E+02 -0.51292837126E+02 -0.10833367858E+04  0.10948777955E+04  0.12500000000E+03 0.  0.
         25    1    1    2    0    0 -0.14244649879E+03  0.77468527381E+02 -0.57044821323E+03  0.60607634975E+03  0.12500000000E+03 0.  0.
</event>
<event>
 5    0  0.5626800E-005  0.2840156E+03  0.7546771E-02  0.1093516E+00
         21   -1    0    0  502  501  0.00000000000E+00  0.00000000000E+00  0.12305517360E+03  0.12305517360E+03  0.00000000000E+00 0.  1.
         21   -1    0    0  501  502 -0.00000000000E+00 -0.00000000000E+00 -0.65551770258E+03  0.65551770258E+03  0.00000000000E+00 0.  1.
         25    1    1    2    0    0  0.17605123079E+03 -0.97694014147E+02 -0.23670361361E+03  0.33495037985E+03  0.12500000000E+03 0.  0.
         25    1    1    2    0    0 -0.90054774996E+02  0.77925392296E+01 -0.13503641580E+03  0.20501321850E+03  0.12500000000E+03 0.  0.
         25    1    1    2    0    0 -0.85996455789E+02  0.89901474918E+02 -0.16072249957E+03  0.23860927783E+03  0.12500000000E+03 0.  0.
</event>
<event>
 5    0  0.5626800E-005  0.2568619E+03  0.7546771E-02  0.1109043E+00
         21   -1    0    0  502  501  0.00000000000E+00  0.00000000000E+00  0.17691830030E+03  0.17691830030E+03  0.00000000000E+00 0. -1.
         21   -1    0    0  501  502 -0.00000000000E+00 -0.00000000000E+00 -0.37292954351E+03  0.37292954351E+03  0.00000000000E+00 0. -1.
         25    1    1    2    0    0  0.57674060348E+02 -0.14908168655E+02 -0.82357980782E+02  0.16110986229E+03  0.12500000000E+03 0.  0.
         25    1    1    2    0    0 -0.24822014818E+02 -0.12337399076E+03 -0.22967807413E+02  0.17885690982E+03  0.12500000000E+03 0.  0.
         25    1    1    2    0    0 -0.32852045530E+02  0.13828215941E+03 -0.90685455011E+02  0.20988107170E+03  0.12500000000E+03 0.  0.
</event>
<event>
 5    0  0.5626800E-005  0.2603416E+03  0.7546771E-02  0.1106938E+00
         21   -1    0    0  502  501  0.00000000000E+00  0.00000000000E+00  0.21882630436E+03  0.21882630436E+03  0.00000000000E+00 0.  1.
         21   -1    0    0  501  502 -0.00000000000E+00 -0.00000000000E+00 -0.30973315742E+03  0.30973315742E+03  0.00000000000E+00 0.  1.
         25    1    1    2    0    0  0.54355093517E+02 -0.81385136796E+02  0.19553471250E+02  0.15995422758E+03  0.12500000000E+03 0.  0.
         25    1    1    2    0    0 -0.53487315906E+02  0.78169486376E+01  0.56498487329E+02  0.14744177400E+03  0.12500000000E+03 0.  0.
         25    1    1    2    0    0 -0.86777761124E+00  0.73568188158E+02 -0.16695881164E+03  0.22116346020E+03  0.12500000000E+03 0.  0.
</event>
<event>
 5    0  0.5626800E-005  0.3281597E+03  0.7546771E-02  0.1071954E+00
         21   -1    0    0  502  501  0.00000000000E+00  0.00000000000E+00  0.46801522363E+03  0.46801522363E+03  0.00000000000E+00 0. -1.
         21   -1    0    0  501  502 -0.00000000000E+00 -0.00000000000E+00 -0.23009681806E+03  0.23009681806E+03  0.00000000000E+00 0. -1.
         25    1    1    2    0    0  0.26707672463E+02  0.15717446310E+03  0.22306548809E+03  0.30133092041E+03  0.12500000000E+03 0.  0.
         25    1    1    2    0    0 -0.12074492496E+03 -0.46442692100E+02  0.76468433451E+02  0.19547041175E+03  0.12500000000E+03 0.  0.
         25    1    1    2    0    0  0.94037252499E+02 -0.11073177100E+03 -0.61615515972E+02  0.20131070954E+03  0.12500000000E+03 0.  0.
</event>
<event>
 5    0  0.5626800E-005  0.2299824E+03  0.7546771E-02  0.1126652E+00
         21   -1    0    0  502  501  0.00000000000E+00  0.00000000000E+00  0.81681833369E+02  0.81681833369E+02  0.00000000000E+00 0.  1.
         21   -1    0    0  501  502 -0.00000000000E+00 -0.00000000000E+00 -0.64753558604E+03  0.64753558604E+03  0.00000000000E+00 0.  1.
         25    1    1    2    0    0  0.33334855385E+02  0.51568056960E+01 -0.30462082554E+02  0.13300655511E+03  0.12500000000E+03 0.  0.
         25    1    1    2    0    0  0.19469698985E+02 -0.50456971475E+01 -0.25334216231E+03  0.28321684174E+03  0.12500000000E+03 0.  0.
         25    1    1    2    0    0 -0.52804554369E+02 -0.11110854850E+00 -0.28204950780E+03  0.31299402256E+03  0.12500000000E+03 0.  0.
</event>
<event>
 5    0  0.6602380E-005  0.3438142E+03  0.7546771E-02  0.1065183E+00
         21   -1    0    0  502  501  0.00000000000E+00  0.00000000000E+00  0.23532789367E+03  0.23532789367E+03  0.00000000000E+00 0. -1.
         21   -1    0    0  501  502 -0.00000000000E+00 -0.00000000000E+00 -0.50231273039E+03  0.50231273039E+03  0.00000000000E+00 0. -1.
         25    1    1    2    0    0 -0.12612849801E+02 -0.17356669879E+03  0.45569450230E+02  0.21905720189E+03  0.12500000000E+03 0.  0.
         25    1    1    2    0    0  0.40476700330E+00 -0.10690669621E+02 -0.26118351527E+03  0.28975210595E+03  0.12500000000E+03 0.  0.
         25    1    1    2    0    0  0.12208082797E+02  0.18425736841E+03 -0.51370771689E+02  0.22883131622E+03  0.12500000000E+03 0.  0.
</event>
<event>
 5    0  0.5626800E-005  0.2492773E+03  0.7546771E-02  0.1113762E+00
         21   -1    0    0  502  501  0.00000000000E+00  0.00000000000E+00  0.37845478960E+03  0.37845478960E+03  0.00000000000E+00 0. -1.
         21   -1    0    0  501  502 -0.00000000000E+00 -0.00000000000E+00 -0.16419182488E+03  0.16419182488E+03  0.00000000000E+00 0. -1.
         25    1    1    2    0    0  0.57559194676E+01  0.15355354151E+02  0.75270430211E+02  0.14683172400E+03  0.12500000000E+03 0.  0.
         25    1    1    2    0    0 -0.98331058333E+02  0.89988629512E+02  0.70033475401E+02  0.19569526860E+03  0.12500000000E+03 0.  0.
         25    1    1    2    0    0  0.92575138865E+02 -0.10534398366E+03  0.68959059102E+02  0.20011962188E+03  0.12500000000E+03 0.  0.
</event>
<event>
 5    0  0.5626800E-005  0.3305844E+03  0.7546771E-02  0.1070879E+00
         21   -1    0    0  502  501  0.00000000000E+00  0.00000000000E+00  0.24391623637E+03  0.24391623637E+03  0.00000000000E+00 0. -1.
         21   -1    0    0  501  502 -0.00000000000E+00 -0.00000000000E+00 -0.44804751910E+03  0.44804751910E+03  0.00000000000E+00 0. -1.
         25    1    1    2    0    0 -0.13268071551E+03 -0.14654561176E+03 -0.25280694821E+03  0.34440694194E+03  0.12500000000E+03 0.  0.
         25    1    1    2    0    0  0.72073036614E+01  0.29022311212E+02  0.40825419168E+02  0.13485530996E+03  0.12500000000E+03 0.  0.
         25    1    1    2    0    0  0.12547341185E+03  0.11752330055E+03  0.78502463015E+01  0.21270150357E+03  0.12500000000E+03 0.  0.
</event>
<event>
 5    0  0.5626800E-005  0.2590665E+03  0.7546771E-02  0.1107705E+00
         21   -1    0    0  502  501  0.00000000000E+00  0.00000000000E+00  0.78068710602E+02  0.78068710602E+02  0.00000000000E+00 0. -1.
         21   -1    0    0  501  502 -0.00000000000E+00 -0.00000000000E+00 -0.85969719972E+03  0.85969719972E+03  0.00000000000E+00 0. -1.
         25    1    1    2    0    0  0.88094709295E+02  0.25310345312E+02 -0.36490033687E+03  0.39645749738E+03  0.12500000000E+03 0.  0.
         25    1    1    2    0    0 -0.77302034739E+02 -0.31646513707E+01 -0.38191883611E+03  0.40923418352E+03  0.12500000000E+03 0.  0.
         25    1    1    2    0    0 -0.10792674556E+02 -0.22145693941E+02 -0.34809316141E+02  0.13207422941E+03  0.12500000000E+03 0.  0.
</event>
<event>
 5    0  0.5741367E-005  0.3684793E+03  0.7546771E-02  0.1055276E+00
         21   -1    0    0  502  501  0.00000000000E+00  0.00000000000E+00  0.44755007849E+03  0.44755007849E+03  0.00000000000E+00 0.  1.
         21   -1    0    0  501  502 -0.00000000000E+00 -0.00000000000E+00 -0.30337827101E+03  0.30337827101E+03  0.00000000000E+00 0.  1.
         25    1    1    2    0    0 -0.67200337052E+02 -0.10562701078E+03  0.23354962647E+03  0.29299040723E+03  0.12500000000E+03 0.  0.
         25    1    1    2    0    0  0.41224245857E+02 -0.63807194189E+02 -0.17594425557E+03  0.22880598232E+03  0.12500000000E+03 0.  0.
         25    1    1    2    0    0  0.25976091194E+02  0.16943420497E+03  0.86566436587E+02  0.22913195995E+03  0.12500000000E+03 0.  0.
</event>
<event>
 5    0  0.5626800E-005  0.3026611E+03  0.7546771E-02  0.1083918E+00
         21   -1    0    0  502  501  0.00000000000E+00  0.00000000000E+00  0.12579816573E+04  0.12579816573E+04  0.00000000000E+00 0. -1.
         21   -1    0    0  501  502 -0.00000000000E+00 -0.00000000000E+00 -0.72818011252E+02  0.72818011252E+02  0.00000000000E+00 0. -1.
         25    1    1    2    0    0  0.74191535894E+01 -0.20494441451E+03  0.55377036726E+03  0.60360904279E+03  0.12500000000E+03 0.  0.
         25    1    1    2    0    0 -0.19688298699E+02  0.19601317775E+03  0.44124047431E+03  0.49912618757E+03  0.12500000000E+03 0.  0.
         25    1    1    2    0    0  0.12269145110E+02  0.89312367609E+01  0.19015280444E+03  0.22806443815E+03  0.12500000000E+03 0.  0.
</event>
<event>
 5    0  0.5626800E-005  0.5628836E+03  0.7546771E-02  0.9985551E-01
         21   -1    0    0  502  501  0.00000000000E+00  0.00000000000E+00  0.44929552731E+03  0.44929552731E+03  0.00000000000E+00 0.  1.
         21   -1    0    0  501  502 -0.00000000000E+00 -0.00000000000E+00 -0.70518819393E+03  0.70518819393E+03  0.00000000000E+00 0.  1.
         25    1    1    2    0    0  0.27312295100E+02 -0.14372639901E+03 -0.60649608372E+02  0.20175880212E+03  0.12500000000E+03 0.  0.
         25    1    1    2    0    0  0.20562651742E+02 -0.90180454936E+02 -0.51301346349E+03  0.53606263703E+03  0.12500000000E+03 0.  0.
         25    1    1    2    0    0 -0.47874946842E+02  0.23390685395E+03  0.31777040525E+03  0.41666228209E+03  0.12500000000E+03 0.  0.
</event>
