<event>
 6    0  0.2781617E+002  0.1095276E+03  0.7546771E-02  0.1261447E+00
          2   -1    0    0  505    0 -0.00000000000E+00  0.00000000000E+00  0.17043281285E+04  0.17043281285E+04  0.00000000000E+00 0.  1.
         21   -1    0    0  504  502  0.00000000000E+00 -0.00000000000E+00 -0.13838635126E+03  0.13838635126E+03  0.00000000000E+00 0. -1.
         21    1    1    2  503  502 -0.61175839008E+02 -0.26574516876E+02 -0.54433252756E+01  0.66920236219E+02  0.00000000000E+00 0. -1.
         21    1    1    2  504  501 -0.40201217402E+02 -0.61281848777E+02 -0.77812726706E+02  0.10689444938E+03  0.00000000000E+00 0. -1.
         21    1    1    2  505  503  0.81315691605E+02  0.14404319327E+02  0.18350767704E+03  0.20123318228E+03  0.00000000000E+00 0. -1.
          2    1    1    2  501    0  0.20061364805E+02  0.73452046325E+02  0.14656901522E+04  0.14676666119E+04  0.00000000000E+00 0.  1.
<scales pt_clust_3="66.69849" pt_clust_4="14000.00000" pt_clust_5="109.52760" pt_clust_6="75.74032"></scales>
<clustering>
<clus scale="   66.698">  2  3  1 -1</clus>
<clus scale="   75.740">  1  6  2 -1</clus>
<clus scale="  109.528">  1  5  2 -1</clus>
<clus scale="   66.698">  2  3  1 -1</clus>
</clustering>
</event>
<event>
 6    0  0.2781617E+002  0.2938316E+03  0.7546771E-02  0.1088365E+00
         21   -1    0    0  503  502  0.00000000000E+00  0.00000000000E+00  0.65785663270E+03  0.65785663270E+03  0.00000000000E+00 0.  1.
          2   -1    0    0  504    0 -0.00000000000E+00 -0.00000000000E+00 -0.33020917190E+03  0.33020917190E+03  0.00000000000E+00 0.  1.
         21    1    1    2  503  501  0.83013213995E+02  0.28437455983E+03  0.22808211191E+03  0.37387368690E+03  0.00000000000E+00 0.  1.
         21    1    1    2  504  505 -0.86101906734E+02 -0.98811959924E+02  0.95146798688E+02  0.16195757181E+03  0.00000000000E+00 0.  1.
         21    1    1    2  505  502 -0.81218149357E+02 -0.13800705870E+03  0.18662776790E+03  0.24591108105E+03  0.00000000000E+00 0.  1.
          2    1    1    2  501    0  0.84306842096E+02 -0.47555541212E+02 -0.18220921770E+03  0.20632346483E+03  0.00000000000E+00 0.  1.
<scales pt_clust_3="288.88810" pt_clust_4="48.55649" pt_clust_5="48.55649" pt_clust_6="96.79449"></scales>
<clustering>
<clus scale="   48.556">  4  5 -1 -1</clus>
<clus scale="   96.794">  2  6  1 -1</clus>
<clus scale="  288.888">  2  3  1 -1</clus>
<clus scale="  293.832">  1  3  2 -1</clus>
</clustering>
</event>
<event>
 6    0  0.2781617E+002  0.1133764E+03  0.7546771E-02  0.1254442E+00
         21   -1    0    0  504  502  0.00000000000E+00  0.00000000000E+00  0.17763469610E+02  0.17763469610E+02  0.00000000000E+00 0. -1.
         -2   -1    0    0    0  501 -0.00000000000E+00 -0.00000000000E+00 -0.15265420689E+04  0.15265420689E+04  0.00000000000E+00 0. -1.
         21    1    1    2  503  502 -0.32600561003E+02 -0.10559281204E+03 -0.28476270855E+03  0.30545447896E+03  0.00000000000E+00 0. -1.
         21    1    1    2  504  505  0.61625476265E+01  0.48314834470E+02 -0.13993457249E+03  0.14816877135E+03  0.00000000000E+00 0.  1.
         21    1    1    2  505  501 -0.15076319450E+02  0.56884248957E+02 -0.31299717053E+03  0.31848130550E+03  0.00000000000E+00 0. -1.
         -2    1    1    2    0  503  0.41514332826E+02  0.39372861728E+00 -0.77108414772E+03  0.77220098272E+03  0.00000000000E+00 0. -1.
<scales pt_clust_3="106.70234" pt_clust_4="34.86673" pt_clust_5="34.86673" pt_clust_6="41.51620"></scales>
<clustering>
<clus scale="   34.867">  4  5 -1 -1</clus>
<clus scale="   41.516">  2  6  1 -1</clus>
<clus scale="  106.702">  1  3  2 -1</clus>
<clus scale="  106.702">  1  3  2 -1</clus>
</clustering>
</event>
<event>
 6    0  0.2781617E+002  0.1949145E+03  0.7546771E-02  0.1154102E+00
          2   -1    0    0  505    0 -0.00000000000E+00  0.00000000000E+00  0.12639748187E+04  0.12639748187E+04  0.00000000000E+00 0.  1.
         21   -1    0    0  504  502  0.00000000000E+00 -0.00000000000E+00 -0.27821591051E+03  0.27821591051E+03  0.00000000000E+00 0.  1.
         21    1    1    2  503  501  0.33665792419E+01  0.60520617381E+02  0.50091578974E+02  0.78633614111E+02  0.00000000000E+00 0.  1.
         21    1    1    2  504  503 -0.28376577720E+02 -0.13339248836E+02 -0.33456351761E+02  0.45852951876E+02  0.00000000000E+00 0. -1.
         21    1    1    2  505  502  0.14302205083E+03 -0.19985948020E+03 -0.14609926421E+03  0.28590927556E+03  0.00000000000E+00 0.  1.
          2    1    1    2  501    0 -0.11801205235E+03  0.15267811165E+03  0.11152229452E+04  0.11317948876E+04  0.00000000000E+00 0.  1.
<scales pt_clust_3="59.74597" pt_clust_4="31.35547" pt_clust_5="14000.00000" pt_clust_6="194.91449"></scales>
<clustering>
<clus scale="   31.355">  2  4  1 -1</clus>
<clus scale="   59.746">  2  3  1 -1</clus>
<clus scale="  194.914">  1  6  2 -1</clus>
<clus scale="   31.355">  2  3  1 -1</clus>
</clustering>
</event>
<event>
 6    0  0.2781617E+002  0.1760608E+03  0.7546771E-02  0.1171671E+00
         21   -1    0    0  504  502  0.00000000000E+00  0.00000000000E+00  0.48107390365E+03  0.48107390365E+03  0.00000000000E+00 0. -1.
          2   -1    0    0  502    0 -0.00000000000E+00 -0.00000000000E+00 -0.12468313137E+04  0.12468313137E+04  0.00000000000E+00 0. -1.
         21    1    1    2  503  505 -0.10505985011E+03 -0.67089114623E+00  0.31136517557E+03  0.32861268198E+03  0.00000000000E+00 0. -1.
         21    1    1    2  504  503 -0.44708869088E+02 -0.53900336510E+02  0.14249899687E+03  0.15877686658E+03  0.00000000000E+00 0. -1.
         21    1    1    2  505  501  0.11879902796E+03  0.20771767652E+02 -0.35982734476E+03  0.37950018895E+03  0.00000000000E+00 0.  1.
          2    1    1    2  501    0  0.30969691242E+02  0.33799460004E+02 -0.85979423776E+03  0.86101547986E+03  0.00000000000E+00 0. -1.
<scales pt_clust_3="63.77975" pt_clust_4="63.77975" pt_clust_5="157.63951" pt_clust_6="45.84240"></scales>
<clustering>
<clus scale="   45.842">  2  6  1 -1</clus>
<clus scale="   63.780">  3  4 -1 -1</clus>
<clus scale="  157.640">  2  5  1 -1</clus>
<clus scale="  176.061">  1  3  2 -1</clus>
</clustering>
</event>
<event>
 6    0  0.2781617E+002  0.7985610E+02  0.7546771E-02  0.1329460E+00
          2   -1    0    0  503    0 -0.00000000000E+00  0.00000000000E+00  0.39493668817E+03  0.39493668817E+03  0.00000000000E+00 0. -1.
         21   -1    0    0  504  502  0.00000000000E+00 -0.00000000000E+00 -0.15682683205E+03  0.15682683205E+03  0.00000000000E+00 0.  1.
         21    1    1    2  503  505  0.85165494422E+02 -0.19746383828E+02 -0.63443766173E+02  0.10801940835E+03  0.00000000000E+00 0.  1.
         21    1    1    2  504  501 -0.12464659469E+02 -0.55841301604E+02 -0.20988588655E+01  0.57254029631E+02  0.00000000000E+00 0.  1.
         21    1    1    2  505  502  0.59465486629E+01  0.64436866829E+02 -0.76975505810E+01  0.65166889849E+02  0.00000000000E+00 0.  1.
          2    1    1    2  501    0 -0.78647383616E+02  0.11150818603E+02  0.31135003174E+03  0.32132319239E+03  0.00000000000E+00 0. -1.
<scales pt_clust_3="79.85610" pt_clust_4="57.21555" pt_clust_5="48.49493" pt_clust_6="14000.00000"></scales>
<clustering>
<clus scale="   57.216">  2  4  1 -1</clus>
<clus scale="   48.495">  2  5  1 -1</clus>
<clus scale="   79.856">  2  3  1 -1</clus>
<clus scale="   57.216">  2  3  1 -1</clus>
</clustering>
</event>
<event>
 6    0  0.2781617E+002  0.2779105E+03  0.7546771E-02  0.1096836E+00
         21   -1    0    0  503  502  0.00000000000E+00  0.00000000000E+00  0.44635472829E+03  0.44635472829E+03  0.00000000000E+00 0.  1.
          2   -1    0    0  502    0 -0.00000000000E+00 -0.00000000000E+00 -0.30514598408E+04  0.30514598408E+04  0.00000000000E+00 0.  1.
         21    1    1    2  503  505 -0.26498947524E+02  0.14119575287E+02  0.45725623886E+02  0.54702735817E+02  0.00000000000E+00 0.  1.
         21    1    1    2  504  501  0.11881111438E+02  0.15909401426E+03  0.27968104638E+03  0.32198377891E+03  0.00000000000E+00 0.  1.
         21    1    1    2  505  504 -0.12016901637E+02  0.90529629721E+02  0.66149924170E+02  0.11276449907E+03  0.00000000000E+00 0.  1.
          2    1    1    2  501    0  0.26634737723E+02 -0.26374321927E+03 -0.29966617069E+04  0.30083635553E+04  0.00000000000E+00 0.  1.
<scales pt_clust_3="30.02593" pt_clust_4="63.10688" pt_clust_5="63.10688" pt_clust_6="264.83814"></scales>
<clustering>
<clus scale="   30.026">  1  3  2 -1</clus>
<clus scale="   63.107">  4  5 -1 -1</clus>
<clus scale="  264.838">  2  6  1 -1</clus>
<clus scale="   30.026">  1  3  2 -1</clus>
</clustering>
</event>
<event>
 6    0  0.2781617E+002  0.1501917E+03  0.7546771E-02  0.1200238E+00
         -2   -1    0    0    0  501 -0.00000000000E+00  0.00000000000E+00  0.76968337366E+03  0.76968337366E+03  0.00000000000E+00 0. -1.
         21   -1    0    0  503  502  0.00000000000E+00 -0.00000000000E+00 -0.28600894474E+03  0.28600894474E+03  0.00000000000E+00 0. -1.
         21    1    1    2  503  504  0.12470976803E+03 -0.15920397095E+03 -0.53908404621E+02  0.20929535756E+03  0.00000000000E+00 0. -1.
         21    1    1    2  504  501 -0.42996004012E+02 -0.74119194625E+01  0.66729680760E+02  0.79727305269E+02  0.00000000000E+00 0. -1.
         21    1    1    2  505  502  0.12939626207E+01  0.13969557058E+03 -0.11092452782E+03  0.17838379313E+03  0.00000000000E+00 0. -1.
         -2    1    1    2    0  505 -0.83007726637E+02  0.26920319831E+02  0.58177768060E+03  0.58828586244E+03  0.00000000000E+00 0. -1.
<scales pt_clust_3="14000.00000" pt_clust_4="43.63018" pt_clust_5="150.19174" pt_clust_6="120.90909"></scales>
<clustering>
<clus scale="   43.630">  1  4  2 -1</clus>
<clus scale="  120.909">  1  6  2 -1</clus>
<clus scale="  150.192">  2  5  1 -1</clus>
<clus scale="  150.192">  2  3  1 -1</clus>
</clustering>
</event>
<event>
 6    0  0.3264221E+002  0.9108000E+02  0.7546771E-02  0.1300257E+00
         -4   -1    0    0    0  501 -0.00000000000E+00  0.00000000000E+00  0.18996454003E+04  0.18996454003E+04  0.00000000000E+00 0.  1.
         21   -1    0    0  505  502  0.00000000000E+00 -0.00000000000E+00 -0.12662603085E+03  0.12662603085E+03  0.00000000000E+00 0.  1.
         21    1    1    2  503  504 -0.39011244324E+02 -0.49242267274E+02 -0.15408985535E+02  0.64684734715E+02  0.00000000000E+00 0.  1.
         21    1    1    2  504  502 -0.64654202209E+02 -0.99122686399E+01 -0.67799739161E+02  0.94208404950E+02  0.00000000000E+00 0.  1.
         21    1    1    2  505  501  0.31845469232E+02  0.17332875268E+01  0.53344057019E+02  0.62150837609E+02  0.00000000000E+00 0.  1.
         -4    1    1    2    0  503  0.71819977301E+02  0.57421248387E+02  0.18028840372E+04  0.18052274539E+04  0.00000000000E+00 0.  1.
<scales pt_clust_3="91.08000" pt_clust_4="44.42137" pt_clust_5="31.89260" pt_clust_6="14000.00000"></scales>
<clustering>
<clus scale="   31.893">  2  5  1 -1</clus>
<clus scale="   44.421">  2  4  1 -1</clus>
<clus scale="   91.080">  2  3  1 -1</clus>
<clus scale="   31.893">  2  3  1 -1</clus>
</clustering>
</event>
<event>
 6    0  0.2781617E+002  0.9983101E+02  0.7546771E-02  0.1280652E+00
         21   -1    0    0  503  502  0.00000000000E+00  0.00000000000E+00  0.12835869367E+03  0.12835869367E+03  0.00000000000E+00 0. -1.
          2   -1    0    0  505    0 -0.00000000000E+00 -0.00000000000E+00 -0.65092791743E+03  0.65092791743E+03  0.00000000000E+00 0.  1.
         21    1    1    2  503  501  0.60513467711E+02 -0.67952100229E+02 -0.68657435480E+02  0.11398776753E+03  0.00000000000E+00 0.  1.
         21    1    1    2  504  502 -0.24960552656E+02  0.34797172346E+02  0.31427258487E+02  0.53118216915E+02  0.00000000000E+00 0. -1.
         21    1    1    2  505  504 -0.10644137734E+03  0.58341376164E+01  0.13623019663E+02  0.10746809124E+03  0.00000000000E+00 0. -1.
          2    1    1    2  501    0  0.70888462281E+02  0.27320790266E+02 -0.49896206643E+03  0.50471253541E+03  0.00000000000E+00 0.  1.
<scales pt_clust_3="99.83101" pt_clust_4="42.82374" pt_clust_5="14000.00000" pt_clust_6="75.62377"></scales>
<clustering>
<clus scale="   42.824">  1  4  2 -1</clus>
<clus scale="   75.624">  2  6  1 -1</clus>
<clus scale="   99.831">  2  3  1 -1</clus>
<clus scale="   42.824">  1  3  2 -1</clus>
</clustering>
</event>
<event>
 6    0  0.2781617E+002  0.1370635E+03  0.7546771E-02  0.1217336E+00
          1   -1    0    0  505    0 -0.00000000000E+00  0.00000000000E+00  0.10299220218E+04  0.10299220218E+04  0.00000000000E+00 0.  1.
         21   -1    0    0  503  502  0.00000000000E+00 -0.00000000000E+00 -0.10261451900E+03  0.10261451900E+03  0.00000000000E+00 0.  1.
         21    1    1    2  503  501 -0.91069355924E+02  0.36896964261E+02  0.31345912334E+02  0.10313864349E+03  0.00000000000E+00 0.  1.
         21    1    1    2  504  502  0.20811369175E+03 -0.46460637351E+02  0.16362518319E+03  0.26878076585E+03  0.00000000000E+00 0.  1.
         21    1    1    2  505  504  0.12461632543E+02  0.50277102582E+02  0.87812964898E+02  0.10195193051E+03  0.00000000000E+00 0.  1.
          1    1    1    2  501    0 -0.12950596837E+03 -0.40713429491E+02  0.64452344235E+03  0.65866520094E+03  0.00000000000E+00 0.  1.
<scales pt_clust_3="98.85582" pt_clust_4="137.06346" pt_clust_5="51.79845" pt_clust_6="14000.00000"></scales>
<clustering>
<clus scale="   51.798">  1  5  2 -1</clus>
<clus scale="   98.856">  2  3  1 -1</clus>
<clus scale="  137.063">  2  4  1 -1</clus>
<clus scale="   98.856">  2  3  1 -1</clus>
</clustering>
</event>
<event>
 6    0  0.2781617E+002  0.1815954E+03  0.7546771E-02  0.1166268E+00
          2   -1    0    0  502    0 -0.00000000000E+00  0.00000000000E+00  0.36270118615E+03  0.36270118615E+03  0.00000000000E+00 0. -1.
         21   -1    0    0  504  502  0.00000000000E+00 -0.00000000000E+00 -0.23041389874E+03  0.23041389874E+03  0.00000000000E+00 0. -1.
         21    1    1    2  503  505  0.61740354409E+02  0.37480682754E+02 -0.34676252732E+02  0.80119382460E+02  0.00000000000E+00 0. -1.
         21    1    1    2  504  503  0.69473313768E+02 -0.84449294391E+02  0.11216548341E+02  0.10992741062E+03  0.00000000000E+00 0. -1.
         21    1    1    2  505  501  0.60501202540E+02  0.35307260377E+02 -0.75145526272E+02  0.10273192426E+03  0.00000000000E+00 0. -1.
          2    1    1    2  501    0 -0.19171487072E+03  0.11661351260E+02  0.23089251808E+03  0.30033636755E+03  0.00000000000E+00 0. -1.
<scales pt_clust_3="33.14454" pt_clust_4="109.35367" pt_clust_5="33.14454" pt_clust_6="178.44944"></scales>
<clustering>
<clus scale="   33.145">  3  5 -1 -1</clus>
<clus scale="  109.354">  2  4  1 -1</clus>
<clus scale="  178.449">  1  6  2 -1</clus>
<clus scale="  109.354">  2  3  1 -1</clus>
</clustering>
</event>
<event>
 6    0  0.2781617E+002  0.2532653E+03  0.7546771E-02  0.1111258E+00
         21   -1    0    0  504  502  0.00000000000E+00  0.00000000000E+00  0.89265064001E+02  0.89265064001E+02  0.00000000000E+00 0. -1.
         -2   -1    0    0    0  501 -0.00000000000E+00 -0.00000000000E+00 -0.74111859651E+03  0.74111859651E+03  0.00000000000E+00 0. -1.
         21    1    1    2  503  505  0.30488620095E+02  0.58907327275E+02 -0.54141173667E+02  0.85620650827E+02  0.00000000000E+00 0. -1.
         21    1    1    2  504  503  0.19955737725E+01  0.73886254297E+02 -0.37127386081E+02  0.82713987245E+02  0.00000000000E+00 0. -1.
         21    1    1    2  505  501 -0.19831727196E+02  0.10579246674E+03 -0.12266686741E+03  0.16319468062E+03  0.00000000000E+00 0. -1.
         -2    1    1    2    0  502 -0.12652466671E+02 -0.23858604831E+03 -0.43791810535E+03  0.49885434182E+03  0.00000000000E+00 0. -1.
<scales pt_clust_3="34.38158" pt_clust_4="61.59409" pt_clust_5="61.59409" pt_clust_6="238.92130"></scales>
<clustering>
<clus scale="   34.382">  3  4 -1 -1</clus>
<clus scale="   61.594">  3  5 -1 -1</clus>
<clus scale="  238.921">  2  6  1 -1</clus>
<clus scale="  253.265">  1  3  2 -1</clus>
</clustering>
</event>
<event>
 6    0  0.2781617E+002  0.3113466E+03  0.7546771E-02  0.1079702E+00
          2   -1    0    0  505    0 -0.00000000000E+00  0.00000000000E+00  0.22174342147E+04  0.22174342147E+04  0.00000000000E+00 0. -1.
         21   -1    0    0  503  502  0.00000000000E+00 -0.00000000000E+00 -0.43124039279E+03  0.43124039279E+03  0.00000000000E+00 0. -1.
         21    1    1    2  503  501 -0.14863339880E+02  0.33038228093E+02  0.55386709713E+01  0.36648605213E+02  0.00000000000E+00 0.  1.
         21    1    1    2  504  502  0.19417674337E+03  0.39104003106E+02 -0.17853829052E+03  0.26666393064E+03  0.00000000000E+00 0. -1.
         21    1    1    2  505  504  0.67793877368E+02  0.79326966351E+02 -0.16840445563E+03  0.19811319511E+03  0.00000000000E+00 0. -1.
          2    1    1    2  501    0 -0.24710728085E+03 -0.15146919755E+03  0.21275978971E+04  0.21472488765E+04  0.00000000000E+00 0. -1.
<scales pt_clust_3="36.22766" pt_clust_4="86.49784" pt_clust_5="86.49784" pt_clust_6="289.72870"></scales>
<clustering>
<clus scale="   36.228">  2  3  1 -1</clus>
<clus scale="   86.498">  4  5 -1 -1</clus>
<clus scale="  289.729">  1  6  2 -1</clus>
<clus scale="   36.228">  2  3  1 -1</clus>
</clustering>
</event>
<event>
 6    0  0.2781617E+002  0.1158353E+03  0.7546771E-02  0.1250130E+00
         21   -1    0    0  505  502  0.00000000000E+00  0.00000000000E+00  0.14850988086E+04  0.14850988086E+04  0.00000000000E+00 0. -1.
          1   -1    0    0  504    0 -0.00000000000E+00 -0.00000000000E+00 -0.75764846059E+02  0.75764846059E+02  0.00000000000E+00 0. -1.
         21    1    1    2  503  502 -0.98220509912E+02 -0.56007088867E+02  0.11196993420E+04  0.11253935663E+04  0.00000000000E+00 0. -1.
         21    1    1    2  504  503  0.46951689114E+02  0.34170142510E+02  0.76604599504E+02  0.96126606177E+02  0.00000000000E+00 0.  1.
         21    1    1    2  505  501 -0.22325340438E+02  0.40885578506E+02  0.25035719788E+03  0.25465423202E+03  0.00000000000E+00 0.  1.
          1    1    1    2  501    0  0.73594161236E+02 -0.19048632149E+02 -0.37327176880E+02  0.84689250136E+02  0.00000000000E+00 0. -1.
<scales pt_clust_3="14000.00000" pt_clust_4="58.57987" pt_clust_5="46.58381" pt_clust_6="115.83526"></scales>
<clustering>
<clus scale="   46.584">  1  5  2 -1</clus>
<clus scale="   58.580">  2  4  1 -1</clus>
<clus scale="  115.835">  2  6  1 -1</clus>
<clus scale="   46.584">  1  3  2 -1</clus>
</clustering>
</event>
<event>
 6    0  0.2781617E+002  0.1242377E+03  0.7546771E-02  0.1236265E+00
          2   -1    0    0  504    0 -0.00000000000E+00  0.00000000000E+00  0.41301466089E+04  0.41301466089E+04  0.00000000000E+00 0. -1.
         21   -1    0    0  505  502  0.00000000000E+00 -0.00000000000E+00 -0.94191816438E+01  0.94191816438E+01  0.00000000000E+00 0.  1.
         21    1    1    2  503  502  0.24001386572E+02  0.20693840542E+02  0.30030301916E+03  0.30197053649E+03  0.00000000000E+00 0. -1.
         21    1    1    2  504  503  0.95060074344E+02 -0.29454060971E+02  0.12897546232E+04  0.12935883996E+04  0.00000000000E+00 0.  1.
         21    1    1    2  505  501  0.44190424494E+02  0.79930909524E+01  0.12531758188E+03  0.13312092040E+03  0.00000000000E+00 0.  1.
          2    1    1    2  501    0 -0.16325188541E+03  0.76712947690E+00  0.24053522030E+04  0.24108859341E+04  0.00000000000E+00 0. -1.
<scales pt_clust_3="31.69072" pt_clust_4="124.23774" pt_clust_5="57.77934" pt_clust_6="14000.00000"></scales>
<clustering>
<clus scale="   31.691">  2  3  1 -1</clus>
<clus scale="   57.779">  2  5  1 -1</clus>
<clus scale="  124.238">  1  4  2 -1</clus>
<clus scale="   31.691">  2  3  1 -1</clus>
</clustering>
</event>
<event>
 6    0  0.2781617E+002  0.1085261E+03  0.7546771E-02  0.1263324E+00
         -1   -1    0    0    0  501 -0.00000000000E+00  0.00000000000E+00  0.33881470143E+03  0.33881470143E+03  0.00000000000E+00 0. -1.
         21   -1    0    0  504  502  0.00000000000E+00 -0.00000000000E+00 -0.11748016917E+04  0.11748016917E+04  0.00000000000E+00 0. -1.
         21    1    1    2  503  502  0.22359934376E+02  0.95713785998E+02 -0.73643132552E+03  0.74296177068E+03  0.00000000000E+00 0. -1.
         21    1    1    2  504  505  0.45944331052E+02  0.17872519291E+02 -0.25590022662E+03  0.26060551508E+03  0.00000000000E+00 0. -1.
         21    1    1    2  505  501 -0.59580333706E+02 -0.70442755931E+02 -0.16320745552E+03  0.18747978975E+03  0.00000000000E+00 0. -1.
         -1    1    1    2    0  503 -0.87239317214E+01 -0.43143549358E+02  0.31955201740E+03  0.32256931760E+03  0.00000000000E+00 0. -1.
<scales pt_clust_3="108.52615" pt_clust_4="46.40847" pt_clust_5="14000.00000" pt_clust_6="44.01673"></scales>
<clustering>
<clus scale="   44.017">  1  6  2 -1</clus>
<clus scale="   46.408">  2  4  1 -1</clus>
<clus scale="  108.526">  2  3  1 -1</clus>
<clus scale="   46.408">  2  3  1 -1</clus>
</clustering>
</event>
<event>
 6    0  0.2781617E+002  0.1481756E+03  0.7546771E-02  0.1202733E+00
          1   -1    0    0  505    0 -0.00000000000E+00  0.00000000000E+00  0.82223400812E+03  0.82223400812E+03  0.00000000000E+00 0.  1.
         21   -1    0    0  503  502  0.00000000000E+00 -0.00000000000E+00 -0.16098950980E+03  0.16098950980E+03  0.00000000000E+00 0.  1.
         21    1    1    2  503  504  0.40047007537E+02 -0.25161018921E+02 -0.44792557931E+02  0.65139948817E+02  0.00000000000E+00 0.  1.
         21    1    1    2  504  501 -0.96056716790E+02 -0.12583603779E+03  0.45327350019E+01  0.15837344138E+03  0.00000000000E+00 0.  1.
         21    1    1    2  505  502  0.39462755931E+02  0.26852939923E+01 -0.29107627586E+01  0.39660968840E+02  0.00000000000E+00 0.  1.
          1    1    1    2  501    0  0.16546953322E+02  0.14831176272E+03  0.70441508401E+03  0.72004915888E+03  0.00000000000E+00 0.  1.
<scales pt_clust_3="60.57599" pt_clust_4="14000.00000" pt_clust_5="39.55401" pt_clust_6="148.17557"></scales>
<clustering>
<clus scale="   39.554">  2  5  1 -1</clus>
<clus scale="   60.576">  2  3  1 -1</clus>
<clus scale="  148.176">  1  6  2 -1</clus>
<clus scale="   39.554">  2  3  1 -1</clus>
</clustering>
</event>
<event>
 6    0  0.2781617E+002  0.6967570E+02  0.7546771E-02  0.1361199E+00
         21   -1    0    0  505  502  0.00000000000E+00  0.00000000000E+00  0.85489846661E+03  0.85489846661E+03  0.00000000000E+00 0. -1.
          3   -1    0    0  504    0 -0.00000000000E+00 -0.00000000000E+00 -0.86325697869E+02  0.86325697869E+02  0.00000000000E+00 0.  1.
         21    1    1    2  503  502 -0.13757704084E+02  0.42150847914E+02  0.44483732792E+03  0.44704162749E+03  0.00000000000E+00 0. -1.
         21    1    1    2  504  503  0.28237693241E+02 -0.74985248892E+02  0.17656378900E+03  0.19389411145E+03  0.00000000000E+00 0. -1.
         21    1    1    2  505  501 -0.67704226463E+02  0.35180719366E+02  0.20674085078E+03  0.22037087983E+03  0.00000000000E+00 0. -1.
          3    1    1    2  501    0  0.53224237306E+02 -0.23463183884E+01 -0.59569198956E+02  0.79917545702E+02  0.00000000000E+00 0.  1.
<scales pt_clust_3="44.33924" pt_clust_4="69.67570" pt_clust_5="14000.00000" pt_clust_6="52.89789"></scales>
<clustering>
<clus scale="   44.339">  1  3  2 -1</clus>
<clus scale="   52.898">  2  6  1 -1</clus>
<clus scale="   69.676">  1  4  2 -1</clus>
<clus scale="   44.339">  1  3  2 -1</clus>
</clustering>
</event>
<event>
 6    0  0.2781617E+002  0.3018613E+03  0.7546771E-02  0.1084314E+00
          1   -1    0    0  504    0 -0.00000000000E+00  0.00000000000E+00  0.14100581136E+04  0.14100581136E+04  0.00000000000E+00 0.  1.
         21   -1    0    0  505  502  0.00000000000E+00 -0.00000000000E+00 -0.18985756909E+04  0.18985756909E+04  0.00000000000E+00 0.  1.
         21    1    1    2  503  502 -0.54812769373E+02  0.99068835551E+02 -0.59967429481E+03  0.61026906665E+03  0.00000000000E+00 0. -1.
         21    1    1    2  504  503 -0.48195955558E+02  0.18160738750E+03 -0.11867122967E+04  0.12014949723E+04  0.00000000000E+00 0.  1.
         21    1    1    2  505  501 -0.61253053326E+02 -0.31163419918E+02 -0.69208636685E+02  0.97534253852E+02  0.00000000000E+00 0.  1.
          1    1    1    2  501    0  0.16426177826E+03 -0.24951280313E+03  0.13670776508E+04  0.13993355116E+04  0.00000000000E+00 0.  1.
<scales pt_clust_3="34.03123" pt_clust_4="34.03123" pt_clust_5="68.72478" pt_clust_6="298.66088"></scales>
<clustering>
<clus scale="   34.031">  3  4 -1 -1</clus>
<clus scale="   68.725">  2  5  1 -1</clus>
<clus scale="  298.661">  1  6  2 -1</clus>
<clus scale="   68.725">  2  3  1 -1</clus>
</clustering>
</event>
<event>
 6    0  0.2781617E+002  0.1796207E+03  0.7546771E-02  0.1168171E+00
         21   -1    0    0  505  502  0.00000000000E+00  0.00000000000E+00  0.59308371470E+03  0.59308371470E+03  0.00000000000E+00 0. -1.
          2   -1    0    0  504    0 -0.00000000000E+00 -0.00000000000E+00 -0.49501772340E+03  0.49501772340E+03  0.00000000000E+00 0.  1.
         21    1    1    2  503  501 -0.41307568452E+02 -0.18849961648E+02  0.17002542456E+03  0.17598375283E+03  0.00000000000E+00 0. -1.
         21    1    1    2  504  502  0.18490937759E+03  0.28759611739E+02  0.19088204089E+02  0.18810356914E+03  0.00000000000E+00 0. -1.
         21    1    1    2  505  503 -0.12676063036E+03  0.20470350839E+02  0.30266320105E+03  0.32877394353E+03  0.00000000000E+00 0. -1.
          2    1    1    2  501    0 -0.16841178778E+02 -0.30380000930E+02 -0.39371083840E+03  0.39524017259E+03  0.00000000000E+00 0.  1.
<scales pt_clust_3="33.08900" pt_clust_4="170.78449" pt_clust_5="33.08900" pt_clust_6="34.73571"></scales>
<clustering>
<clus scale="   33.089">  3  5 -1 -1</clus>
<clus scale="   34.736">  2  6  1 -1</clus>
<clus scale="  170.784">  2  4  1 -1</clus>
<clus scale="  179.621">  1  3  2 -1</clus>
</clustering>
</event>
<event>
 6    0  0.2781617E+002  0.1302092E+03  0.7546771E-02  0.1227146E+00
         21   -1    0    0  503  502  0.00000000000E+00  0.00000000000E+00  0.20569347933E+03  0.20569347933E+03  0.00000000000E+00 0.  1.
          2   -1    0    0  505    0 -0.00000000000E+00 -0.00000000000E+00 -0.21891317652E+04  0.21891317652E+04  0.00000000000E+00 0.  1.
         21    1    1    2  503  501  0.42250542158E+02 -0.61673326675E+02  0.14330000460E+03  0.16162796433E+03  0.00000000000E+00 0.  1.
         21    1    1    2  504  502  0.15960060609E+02 -0.86447665807E+02  0.42568387984E+01  0.88011607954E+02  0.00000000000E+00 0.  1.
         21    1    1    2  505  504 -0.11049062739E+02  0.97429372611E+02 -0.36823687880E+03  0.38106818726E+03  0.00000000000E+00 0. -1.
          2    1    1    2  501    0 -0.47161540028E+02  0.50691619871E+02 -0.17627582504E+04  0.17641174849E+04  0.00000000000E+00 0.  1.
<scales pt_clust_3="73.28395" pt_clust_4="130.20917" pt_clust_5="14000.00000" pt_clust_6="69.23764"></scales>
<clustering>
<clus scale="   69.238">  2  6  1 -1</clus>
<clus scale="   73.284">  1  3  2 -1</clus>
<clus scale="  130.209">  1  4  2 -1</clus>
<clus scale="   73.284">  1  3  2 -1</clus>
</clustering>
</event>
<event>
 6    0  0.2781617E+002  0.1047938E+03  0.7546771E-02  0.1270526E+00
         21   -1    0    0  505  502  0.00000000000E+00  0.00000000000E+00  0.12300736402E+04  0.12300736402E+04  0.00000000000E+00 0. -1.
         -1   -1    0    0    0  501 -0.00000000000E+00 -0.00000000000E+00 -0.70985317615E+02  0.70985317615E+02  0.00000000000E+00 0. -1.
         21    1    1    2  503  502 -0.17215524729E+02 -0.54628527519E+02  0.71608743215E+03  0.71837445723E+03  0.00000000000E+00 0. -1.
         21    1    1    2  504  501  0.27657068514E+02 -0.53188056101E+02  0.37587514881E+03  0.38062581395E+03  0.00000000000E+00 0. -1.
         21    1    1    2  505  504  0.32229749126E+02  0.59622140181E+01  0.84163404960E+02  0.90320448732E+02  0.00000000000E+00 0. -1.
         -1    1    1    2    0  503 -0.42671292911E+02  0.10185436960E+03 -0.17037663309E+02  0.11173823794E+03  0.00000000000E+00 0. -1.
<scales pt_clust_3="50.97573" pt_clust_4="104.79382" pt_clust_5="32.77659" pt_clust_6="14000.00000"></scales>
<clustering>
<clus scale="   32.777">  1  5  2 -1</clus>
<clus scale="   50.976">  1  3  2 -1</clus>
<clus scale="  104.794">  1  4  2 -1</clus>
<clus scale="   32.777">  1  3  2 -1</clus>
</clustering>
</event>
<event>
 6    0  0.2781617E+002  0.1016715E+03  0.7546771E-02  0.1276820E+00
          2   -1    0    0  505    0 -0.00000000000E+00  0.00000000000E+00  0.17375465317E+04  0.17375465317E+04  0.00000000000E+00 0.  1.
         21   -1    0    0  504  502  0.00000000000E+00 -0.00000000000E+00 -0.29487271370E+02  0.29487271370E+02  0.00000000000E+00 0. -1.
         21    1    1    2  503  501 -0.44875606502E+02  0.26019379638E+02  0.54877002400E+02  0.75513664778E+02  0.00000000000E+00 0. -1.
         21    1    1    2  504  503 -0.43629279363E+02  0.27374902452E+00  0.18567957301E+02  0.47416853487E+02  0.00000000000E+00 0. -1.
         21    1    1    2  505  502  0.12068514694E+03 -0.42507700263E+02  0.95488664444E+03  0.96342115038E+03  0.00000000000E+00 0.  1.
          2    1    1    2  501    0 -0.32180261078E+02  0.16214571600E+02  0.67972765616E+03  0.68068213439E+03  0.00000000000E+00 0.  1.
<scales pt_clust_3="31.68093" pt_clust_4="31.68093" pt_clust_5="95.62316" pt_clust_6="36.03445"></scales>
<clustering>
<clus scale="   31.681">  3  4 -1 -1</clus>
<clus scale="   36.034">  1  6  2 -1</clus>
<clus scale="   95.623">  1  5  2 -1</clus>
<clus scale="  101.672">  2  3  1 -1</clus>
</clustering>
</event>
<event>
 6    0  0.2781617E+002  0.9544907E+02  0.7546771E-02  0.1290168E+00
         21   -1    0    0  503  502  0.00000000000E+00  0.00000000000E+00  0.20069826241E+03  0.20069826241E+03  0.00000000000E+00 0. -1.
          2   -1    0    0  505    0 -0.00000000000E+00 -0.00000000000E+00 -0.26367489101E+04  0.26367489101E+04  0.00000000000E+00 0. -1.
         21    1    1    2  503  501  0.16049486304E+02  0.48706599557E+02 -0.22084305676E+02  0.55835789672E+02  0.00000000000E+00 0. -1.
         21    1    1    2  504  502  0.37002279491E+02  0.46696079562E+02  0.12881863748E+03  0.14192932712E+03  0.00000000000E+00 0. -1.
         21    1    1    2  505  504 -0.99035671856E+02 -0.57865725618E+02 -0.20282523389E+02  0.11648127427E+03  0.00000000000E+00 0. -1.
          2    1    1    2  501    0  0.45983906061E+02 -0.37536953502E+02 -0.25225024561E+04  0.25232007814E+04  0.00000000000E+00 0. -1.
<scales pt_clust_3="51.28273" pt_clust_4="14000.00000" pt_clust_5="95.44907" pt_clust_6="59.32462"></scales>
<clustering>
<clus scale="   51.283">  1  3  2 -1</clus>
<clus scale="   59.325">  2  6  1 -1</clus>
<clus scale="   95.449">  2  5  1 -1</clus>
<clus scale="   51.283">  1  3  2 -1</clus>
</clustering>
</event>
<event>
 6    0  0.2781617E+002  0.1783551E+03  0.7546771E-02  0.1169405E+00
          2   -1    0    0  504    0 -0.00000000000E+00  0.00000000000E+00  0.91817474074E+03  0.91817474074E+03  0.00000000000E+00 0. -1.
         21   -1    0    0  503  502  0.00000000000E+00 -0.00000000000E+00 -0.79927720161E+03  0.79927720161E+03  0.00000000000E+00 0. -1.
         21    1    1    2  503  501 -0.76940919222E+02  0.14598846702E+03 -0.27024127474E+03  0.31664314950E+03  0.00000000000E+00 0. -1.
         21    1    1    2  504  505  0.80543459445E+02 -0.61511084235E+02 -0.24186628368E+03  0.26224065575E+03  0.00000000000E+00 0. -1.
         21    1    1    2  505  502  0.26547770476E+02 -0.75104550678E+02 -0.24723991687E+03  0.25975575863E+03  0.00000000000E+00 0. -1.
          2    1    1    2  501    0 -0.30150310700E+02 -0.93728321070E+01  0.87824501442E+03  0.87881237848E+03  0.00000000000E+00 0. -1.
<scales pt_clust_3="169.37395" pt_clust_4="50.66390" pt_clust_5="50.66390" pt_clust_6="31.57358"></scales>
<clustering>
<clus scale="   31.574">  1  6  2 -1</clus>
<clus scale="   50.664">  4  5 -1 -1</clus>
<clus scale="  169.374">  1  3  2 -1</clus>
<clus scale="  178.355">  2  3  1 -1</clus>
</clustering>
</event>
<event>
 6    0  0.2781617E+002  0.1110982E+03  0.7546771E-02  0.1258550E+00
         21   -1    0    0  505  502  0.00000000000E+00  0.00000000000E+00  0.56146188924E+03  0.56146188924E+03  0.00000000000E+00 0. -1.
          2   -1    0    0  503    0 -0.00000000000E+00 -0.00000000000E+00 -0.24160807484E+03  0.24160807484E+03  0.00000000000E+00 0.  1.
         21    1    1    2  503  502 -0.37402768861E+02  0.23244652690E+02  0.78433098596E+02  0.89950163716E+02  0.00000000000E+00 0. -1.
         21    1    1    2  504  501  0.89156080665E+02 -0.39873192466E+02  0.23470319731E+02  0.10044667294E+03  0.00000000000E+00 0.  1.
         21    1    1    2  505  504 -0.82454434701E+02  0.10557236186E+02  0.40987195178E+03  0.41821669729E+03  0.00000000000E+00 0. -1.
          2    1    1    2  501    0  0.30701122897E+02  0.60713035893E+01 -0.19192155571E+03  0.19445643013E+03  0.00000000000E+00 0.  1.
<scales pt_clust_3="41.39522" pt_clust_4="111.09820" pt_clust_5="14000.00000" pt_clust_6="31.29568"></scales>
<clustering>
<clus scale="   31.296">  2  6  1 -1</clus>
<clus scale="   41.395">  1  3  2 -1</clus>
<clus scale="  111.098">  2  4  1 -1</clus>
<clus scale="   41.395">  1  3  2 -1</clus>
</clustering>
</event>
<event>
 6    0  0.2781617E+002  0.1481137E+03  0.7546771E-02  0.1202810E+00
          2   -1    0    0  505    0 -0.00000000000E+00  0.00000000000E+00  0.10274238941E+03  0.10274238941E+03  0.00000000000E+00 0.  1.
         21   -1    0    0  504  502  0.00000000000E+00 -0.00000000000E+00 -0.10480187876E+04  0.10480187876E+04  0.00000000000E+00 0.  1.
         21    1    1    2  503  501  0.45923606922E+02  0.39775674494E+01 -0.13196553433E+03  0.13978448042E+03  0.00000000000E+00 0. -1.
         21    1    1    2  504  503  0.10254630525E+03  0.56413318189E+01 -0.62091109663E+03  0.62934740745E+03  0.00000000000E+00 0.  1.
         21    1    1    2  505  502 -0.12335960577E+03  0.85704715844E+01 -0.27059512453E+03  0.29751095230E+03  0.00000000000E+00 0.  1.
          2    1    1    2  501    0 -0.25110306397E+02 -0.18189370853E+02  0.78195357269E+02  0.84118336870E+02  0.00000000000E+00 0.  1.
<scales pt_clust_3="33.22215" pt_clust_4="33.22215" pt_clust_5="139.04270" pt_clust_6="31.00614"></scales>
<clustering>
<clus scale="   31.006">  1  6  2 -1</clus>
<clus scale="   33.222">  3  4 -1 -1</clus>
<clus scale="  139.043">  1  5  2 -1</clus>
<clus scale="  148.114">  2  3  1 -1</clus>
</clustering>
</event>
<event>
 6    0  0.2781617E+002  0.7116974E+02  0.7546771E-02  0.1356160E+00
         21   -1    0    0  505  502  0.00000000000E+00  0.00000000000E+00  0.17063411816E+03  0.17063411816E+03  0.00000000000E+00 0.  1.
          2   -1    0    0  503    0 -0.00000000000E+00 -0.00000000000E+00 -0.11094086846E+04  0.11094086846E+04  0.00000000000E+00 0. -1.
         21    1    1    2  503  502 -0.51267020748E+02 -0.55526873622E+02  0.32746609695E+02  0.82364322113E+02  0.00000000000E+00 0.  1.
         21    1    1    2  504  501  0.26409352941E+02 -0.72262952774E+02  0.45641751966E+01  0.77072822458E+02  0.00000000000E+00 0.  1.
         21    1    1    2  505  504  0.29168502145E+02  0.56830546633E+02  0.56677960498E+02  0.85398499719E+02  0.00000000000E+00 0.  1.
          2    1    1    2  501    0 -0.43108343377E+01  0.70959279763E+02 -0.10327633118E+04  0.10352071585E+04  0.00000000000E+00 0. -1.
<scales pt_clust_3="41.21551" pt_clust_4="14000.00000" pt_clust_5="63.87889" pt_clust_6="71.16974"></scales>
<clustering>
<clus scale="   63.879">  1  5  2 -1</clus>
<clus scale="   41.216">  1  3  2 -1</clus>
<clus scale="   71.170">  2  6  1 -1</clus>
<clus scale="   63.879">  1  3  2 -1</clus>
</clustering>
</event>
<event>
 6    0  0.2781617E+002  0.1192595E+03  0.7546771E-02  0.1244324E+00
          3   -1    0    0  504    0 -0.00000000000E+00  0.00000000000E+00  0.38222821333E+03  0.38222821333E+03  0.00000000000E+00 0.  1.
         21   -1    0    0  503  502  0.00000000000E+00 -0.00000000000E+00 -0.69675701071E+03  0.69675701071E+03  0.00000000000E+00 0. -1.
         21    1    1    2  503  501 -0.59659865065E+02  0.24096214182E+02 -0.52751217686E+03  0.53142170051E+03  0.00000000000E+00 0. -1.
         21    1    1    2  504  505 -0.18770781709E+02 -0.64407326124E+02 -0.36694262855E+00  0.67087856959E+02  0.00000000000E+00 0. -1.
         21    1    1    2  505  502 -0.57224566554E+02  0.17906662078E+02 -0.11212500757E+03  0.12715076439E+03  0.00000000000E+00 0. -1.
          3    1    1    2  501    0  0.13565521333E+03  0.22404449864E+02  0.32547532967E+03  0.35332490218E+03  0.00000000000E+00 0.  1.
<scales pt_clust_3="119.25949" pt_clust_4="67.10940" pt_clust_5="59.96082" pt_clust_6="14000.00000"></scales>
<clustering>
<clus scale="   59.961">  2  5  1 -1</clus>
<clus scale="   67.109">  1  4  2 -1</clus>
<clus scale="  119.259">  2  3  1 -1</clus>
<clus scale="   59.961">  2  3  1 -1</clus>
</clustering>
</event>
<event>
 6    0  0.2781617E+002  0.1032503E+03  0.7546771E-02  0.1273606E+00
         -1   -1    0    0    0  501 -0.00000000000E+00  0.00000000000E+00  0.42678210749E+03  0.42678210749E+03  0.00000000000E+00 0. -1.
         21   -1    0    0  503  502  0.00000000000E+00 -0.00000000000E+00 -0.13260008215E+03  0.13260008215E+03  0.00000000000E+00 0. -1.
         21    1    1    2  503  505 -0.35147199879E+02 -0.10605801198E+02 -0.77648749121E+01  0.37524684686E+02  0.00000000000E+00 0. -1.
         21    1    1    2  504  502 -0.58826509498E+01 -0.84315511954E+02 -0.72666731582E+02  0.11146373857E+03  0.00000000000E+00 0. -1.
         21    1    1    2  505  501 -0.42248702704E+01 -0.30889011906E+02  0.45478356098E+02  0.55138565983E+02  0.00000000000E+00 0. -1.
         -1    1    1    2    0  504  0.45254721099E+02  0.12581032506E+03  0.32913527574E+03  0.35525520039E+03  0.00000000000E+00 0. -1.
<scales pt_clust_3="37.24194" pt_clust_4="103.25035" pt_clust_5="31.17660" pt_clust_6="14000.00000"></scales>
<clustering>
<clus scale="   31.177">  1  5  2 -1</clus>
<clus scale="   37.242">  2  3  1 -1</clus>
<clus scale="  103.250">  2  4  1 -1</clus>
<clus scale="   37.242">  2  3  1 -1</clus>
</clustering>
</event>
<event>
 6    0  0.2781617E+002  0.1433431E+03  0.7546771E-02  0.1208900E+00
         21   -1    0    0  503  502  0.00000000000E+00  0.00000000000E+00  0.44694951065E+02  0.44694951065E+02  0.00000000000E+00 0. -1.
          2   -1    0    0  505    0 -0.00000000000E+00 -0.00000000000E+00 -0.80979217583E+03  0.80979217583E+03  0.00000000000E+00 0. -1.
         21    1    1    2  503  501 -0.13670563163E+02 -0.27456778007E+02 -0.20490352600E+02  0.36886494892E+02  0.00000000000E+00 0. -1.
         21    1    1    2  504  502  0.29728533117E+02 -0.38204860738E+02 -0.25147045672E+02  0.54550627598E+02  0.00000000000E+00 0. -1.
         21    1    1    2  505  504  0.72715059262E+02 -0.40519516676E+02 -0.10929421928E+03  0.13738463321E+03  0.00000000000E+00 0. -1.
          2    1    1    2  501    0 -0.88773029217E+02  0.10618115542E+03 -0.61016560722E+03  0.62566537120E+03  0.00000000000E+00 0. -1.
<scales pt_clust_3="30.67179" pt_clust_4="36.66869" pt_clust_5="36.66869" pt_clust_6="135.92192"></scales>
<clustering>
<clus scale="   30.672">  1  3  2 -1</clus>
<clus scale="   36.669">  4  5 -1 -1</clus>
<clus scale="  135.922">  2  6  1 -1</clus>
<clus scale="   30.672">  1  3  2 -1</clus>
</clustering>
</event>
<event>
 6    0  0.2781617E+002  0.7465807E+02  0.7546771E-02  0.1344933E+00
          2   -1    0    0  503    0 -0.00000000000E+00  0.00000000000E+00  0.56716239107E+03  0.56716239107E+03  0.00000000000E+00 0.  1.
         21   -1    0    0  504  502  0.00000000000E+00 -0.00000000000E+00 -0.37450586745E+03  0.37450586745E+03  0.00000000000E+00 0. -1.
         21    1    1    2  503  502 -0.59920355494E+02 -0.36710197256E+02 -0.22806394593E+02  0.73879761907E+02  0.00000000000E+00 0. -1.
         21    1    1    2  504  505  0.46979530194E+02  0.85873964623E+02 -0.19378446309E+03  0.21710327541E+03  0.00000000000E+00 0. -1.
         21    1    1    2  505  501  0.86697961177E+02 -0.38535646316E+02 -0.98930811878E+02  0.13707238251E+03  0.00000000000E+00 0. -1.
          2    1    1    2  501    0 -0.73757135876E+02 -0.10628121051E+02  0.50817819318E+03  0.51361283870E+03  0.00000000000E+00 0.  1.
<scales pt_clust_3="70.27153" pt_clust_4="63.42707" pt_clust_5="14000.00000" pt_clust_6="74.65807"></scales>
<clustering>
<clus scale="   70.272">  2  3  1 -1</clus>
<clus scale="   63.427">  2  4  1 -1</clus>
<clus scale="   74.658">  1  6  2 -1</clus>
<clus scale="   70.272">  2  3  1 -1</clus>
</clustering>
</event>
<event>
 6    0  0.2781617E+002  0.1921433E+03  0.7546771E-02  0.1156542E+00
         21   -1    0    0  505  502  0.00000000000E+00  0.00000000000E+00  0.24144234714E+03  0.24144234714E+03  0.00000000000E+00 0.  1.
         -4   -1    0    0    0  501 -0.00000000000E+00 -0.00000000000E+00 -0.33932893302E+03  0.33932893302E+03  0.00000000000E+00 0.  1.
         21    1    1    2  503  501  0.14297625124E+03 -0.17458698129E+02 -0.11200059222E+03  0.18245861782E+03  0.00000000000E+00 0.  1.
         21    1    1    2  504  503 -0.99081748446E+01  0.11253302303E+03 -0.15361780692E+02  0.11400805895E+03  0.00000000000E+00 0.  1.
         21    1    1    2  505  504 -0.49755831572E+02  0.74508313941E+02  0.32587523837E+02  0.95336657858E+02  0.00000000000E+00 0.  1.
         -4    1    1    2    0  502 -0.83312244818E+02 -0.16958263884E+03 -0.31117368033E+01  0.18896794553E+03  0.00000000000E+00 0.  1.
<scales pt_clust_3="144.03824" pt_clust_4="62.87249" pt_clust_5="62.87249" pt_clust_6="178.70319"></scales>
<clustering>
<clus scale="   62.872">  4  5 -1 -1</clus>
<clus scale="  144.038">  2  3  1 -1</clus>
<clus scale="  178.703">  2  6  1 -1</clus>
<clus scale="  192.143">  1  3  2 -1</clus>
</clustering>
</event>
<event>
 6    0  0.2781617E+002  0.1355090E+03  0.7546771E-02  0.1219503E+00
          1   -1    0    0  503    0 -0.00000000000E+00  0.00000000000E+00  0.88817887649E+03  0.88817887649E+03  0.00000000000E+00 0. -1.
         21   -1    0    0  504  502  0.00000000000E+00 -0.00000000000E+00 -0.51181780029E+03  0.51181780029E+03  0.00000000000E+00 0.  1.
         21    1    1    2  503  505  0.33243271211E+02  0.77956665212E+02 -0.23823710569E+03  0.25286216652E+03  0.00000000000E+00 0.  1.
         21    1    1    2  504  501 -0.39255178338E+01 -0.66262168264E+02 -0.58073283255E+02  0.88196319999E+02  0.00000000000E+00 0.  1.
         21    1    1    2  505  502  0.62199795316E+02  0.76307001721E+02 -0.17554885879E+03  0.20126841499E+03  0.00000000000E+00 0.  1.
          1    1    1    2  501    0 -0.91517548693E+02 -0.88001498669E+02  0.84822032393E+03  0.85766977528E+03  0.00000000000E+00 0. -1.
<scales pt_clust_3="42.61054" pt_clust_4="66.37834" pt_clust_5="42.61054" pt_clust_6="127.48953"></scales>
<clustering>
<clus scale="   42.611">  3  5 -1 -1</clus>
<clus scale="   66.378">  2  4  1 -1</clus>
<clus scale="  127.490">  1  6  2 -1</clus>
<clus scale="   66.378">  2  3  1 -1</clus>
</clustering>
</event>
<event>
 6    0  0.2781617E+002  0.1757386E+03  0.7546771E-02  0.1171992E+00
         21   -1    0    0  505  502  0.00000000000E+00  0.00000000000E+00  0.31361742728E+03  0.31361742728E+03  0.00000000000E+00 0.  1.
          1   -1    0    0  503    0 -0.00000000000E+00 -0.00000000000E+00 -0.21259848227E+03  0.21259848227E+03  0.00000000000E+00 0.  1.
         21    1    1    2  503  502 -0.15035977966E+03 -0.74400711283E+02  0.18207063094E+03  0.24757472373E+03  0.00000000000E+00 0.  1.
         21    1    1    2  504  501  0.36030495039E+02  0.28829065564E+02 -0.24709355708E+02  0.52343708825E+02  0.00000000000E+00 0. -1.
         21    1    1    2  505  504  0.82565850578E+02  0.56784712528E+02  0.51959726932E+02  0.11287797164E+03  0.00000000000E+00 0.  1.
          1    1    1    2  501    0  0.31763434047E+02 -0.11213066808E+02 -0.10830205716E+03  0.11341950536E+03  0.00000000000E+00 0.  1.
<scales pt_clust_3="160.38472" pt_clust_4="51.15635" pt_clust_5="51.15635" pt_clust_6="33.68455"></scales>
<clustering>
<clus scale="   33.685">  2  6  1 -1</clus>
<clus scale="   51.156">  4  5 -1 -1</clus>
<clus scale="  160.385">  1  3  2 -1</clus>
<clus scale="  160.385">  1  3  2 -1</clus>
</clustering>
</event>
<event>
 6    0  0.2781617E+002  0.7741860E+02  0.7546771E-02  0.1336541E+00
          2   -1    0    0  504    0 -0.00000000000E+00  0.00000000000E+00  0.57063205697E+03  0.57063205697E+03  0.00000000000E+00 0. -1.
         21   -1    0    0  505  502  0.00000000000E+00 -0.00000000000E+00 -0.95569297597E+02  0.95569297597E+02  0.00000000000E+00 0. -1.
         21    1    1    2  503  502 -0.39345322596E+02 -0.37461023897E+02 -0.44933031058E+02  0.70500780149E+02  0.00000000000E+00 0. -1.
         21    1    1    2  504  503 -0.28946869443E+02 -0.17824316511E+02  0.69668842849E+02  0.77520159788E+02  0.00000000000E+00 0. -1.
         21    1    1    2  505  501  0.57207641538E+02 -0.42493575289E+02  0.16254368960E+02  0.73093246620E+02  0.00000000000E+00 0. -1.
          2    1    1    2  501    0  0.11084550501E+02  0.97778915697E+02  0.43407257862E+03  0.44508716801E+03  0.00000000000E+00 0. -1.
<scales pt_clust_3="55.18226" pt_clust_4="33.99452" pt_clust_5="14000.00000" pt_clust_6="77.41860"></scales>
<clustering>
<clus scale="   33.995">  1  4  2 -1</clus>
<clus scale="   55.182">  2  3  1 -1</clus>
<clus scale="   77.419">  1  6  2 -1</clus>
<clus scale="   55.182">  2  3  1 -1</clus>
</clustering>
</event>
<event>
 6    0  0.2781617E+002  0.2283661E+03  0.7546771E-02  0.1127795E+00
         -1   -1    0    0    0  501 -0.00000000000E+00  0.00000000000E+00  0.32120095181E+03  0.32120095181E+03  0.00000000000E+00 0. -1.
         21   -1    0    0  503  502  0.00000000000E+00 -0.00000000000E+00 -0.63616197705E+03  0.63616197705E+03  0.00000000000E+00 0.  1.
         21    1    1    2  503  504 -0.39001407643E+02  0.14595359307E+03 -0.16280120609E+03  0.22209861285E+03  0.00000000000E+00 0.  1.
         21    1    1    2  504  501  0.72599511373E+01  0.33971228399E+02 -0.11306634408E+01  0.34756720922E+02  0.00000000000E+00 0.  1.
         21    1    1    2  505  502 -0.64809809193E+02  0.84678677946E+02 -0.34329494640E+03  0.35947490885E+03  0.00000000000E+00 0.  1.
         -1    1    1    2    0  505  0.96551265699E+02 -0.26460349942E+03  0.19226579068E+03  0.34103268623E+03  0.00000000000E+00 0. -1.
<scales pt_clust_3="14000.00000" pt_clust_4="34.73833" pt_clust_5="107.23592" pt_clust_6="228.36614"></scales>
<clustering>
<clus scale="   34.738">  1  4  2 -1</clus>
<clus scale="  107.236">  2  5  1 -1</clus>
<clus scale="  228.366">  1  6  2 -1</clus>
<clus scale="  107.236">  2  3  1 -1</clus>
</clustering>
</event>
<event>
 6    0  0.2781617E+002  0.7932824E+02  0.7546771E-02  0.1330969E+00
          2   -1    0    0  503    0 -0.00000000000E+00  0.00000000000E+00  0.11468235531E+04  0.11468235531E+04  0.00000000000E+00 0. -1.
         21   -1    0    0  504  502  0.00000000000E+00 -0.00000000000E+00 -0.21144739596E+02  0.21144739596E+02  0.00000000000E+00 0.  1.
         21    1    1    2  503  505 -0.49360007969E+02 -0.54528386707E+02  0.35546936992E+03  0.36299893704E+03  0.00000000000E+00 0. -1.
         21    1    1    2  504  501  0.23055125164E+02 -0.24547531821E+02  0.57625199510E+02  0.66744166288E+02  0.00000000000E+00 0. -1.
         21    1    1    2  505  502 -0.23018697970E+02  0.10557064030E+03  0.25115468043E+03  0.27341121786E+03  0.00000000000E+00 0.  1.
          2    1    1    2  501    0  0.49323580775E+02 -0.26494721772E+02  0.46142956363E+03  0.46481397149E+03  0.00000000000E+00 0. -1.
<scales pt_clust_3="79.32824" pt_clust_4="33.67670" pt_clust_5="14000.00000" pt_clust_6="59.25673"></scales>
<clustering>
<clus scale="   33.677">  2  4  1 -1</clus>
<clus scale="   59.257">  1  6  2 -1</clus>
<clus scale="   79.328">  1  3  2 -1</clus>
<clus scale="   33.677">  2  3  1 -1</clus>
</clustering>
</event>
<event>
 6    0  0.2781617E+002  0.8517035E+02  0.7546771E-02  0.1314988E+00
          1   -1    0    0  504    0 -0.00000000000E+00  0.00000000000E+00  0.17993648989E+04  0.17993648989E+04  0.00000000000E+00 0.  1.
         21   -1    0    0  505  502  0.00000000000E+00 -0.00000000000E+00 -0.39927893624E+02  0.39927893624E+02  0.00000000000E+00 0.  1.
         21    1    1    2  503  501  0.29908810344E+01  0.95751674860E+02  0.97945118715E+02  0.13700574765E+03  0.00000000000E+00 0. -1.
         21    1    1    2  504  502 -0.29735481183E+02 -0.72747114951E+02  0.84673448964E+02  0.11552460575E+03  0.00000000000E+00 0.  1.
         21    1    1    2  505  503 -0.31796517760E+02  0.11582572604E+02  0.63819820490E+02  0.72236722082E+02  0.00000000000E+00 0. -1.
          1    1    1    2  501    0  0.58541117908E+02 -0.34587132514E+02  0.15129986171E+04  0.15145257171E+04  0.00000000000E+00 0.  1.
<scales pt_clust_3="14000.00000" pt_clust_4="85.17035" pt_clust_5="33.84043" pt_clust_6="67.28409"></scales>
<clustering>
<clus scale="   33.840">  2  5  1 -1</clus>
<clus scale="   67.284">  1  6  2 -1</clus>
<clus scale="   85.170">  2  4  1 -1</clus>
<clus scale="   33.840">  2  3  1 -1</clus>
</clustering>
</event>
<event>
 6    0  0.2781617E+002  0.1006781E+03  0.7546771E-02  0.1278876E+00
         21   -1    0    0  503  502  0.00000000000E+00  0.00000000000E+00  0.23423661132E+02  0.23423661132E+02  0.00000000000E+00 0. -1.
          2   -1    0    0  504    0 -0.00000000000E+00 -0.00000000000E+00 -0.40553309757E+04  0.40553309757E+04  0.00000000000E+00 0. -1.
         21    1    1    2  503  505  0.18540015910E+02 -0.56555068428E+02 -0.48227944017E+02  0.76603802379E+02  0.00000000000E+00 0. -1.
         21    1    1    2  504  502  0.33018482903E+02  0.40863879623E+02 -0.21265460472E+03  0.21904807184E+03  0.00000000000E+00 0. -1.
         21    1    1    2  505  501  0.32905655611E+02 -0.50470416650E+02 -0.16793392776E+03  0.17841482343E+03  0.00000000000E+00 0. -1.
          2    1    1    2  501    0 -0.84464154425E+02  0.66161605455E+02 -0.36030908381E+04  0.36046879392E+04  0.00000000000E+00 0. -1.
<scales pt_clust_3="50.16839" pt_clust_4="52.53643" pt_clust_5="100.67810" pt_clust_6="14000.00000"></scales>
<clustering>
<clus scale="   52.536">  1  4  2 -1</clus>
<clus scale="   50.168">  1  3  2 -1</clus>
<clus scale="  100.678">  1  5  2 -1</clus>
<clus scale="   52.536">  1  3  2 -1</clus>
</clustering>
</event>
<event>
 6    0  0.2781617E+002  0.1167249E+03  0.7546771E-02  0.1248600E+00
          3   -1    0    0  504    0 -0.00000000000E+00  0.00000000000E+00  0.55419225428E+03  0.55419225428E+03  0.00000000000E+00 0.  1.
         21   -1    0    0  505  502  0.00000000000E+00 -0.00000000000E+00 -0.16639696448E+04  0.16639696448E+04  0.00000000000E+00 0.  1.
         21    1    1    2  503  502  0.68172555408E+02 -0.47752678947E+02 -0.10986411111E+04  0.11017895020E+04  0.00000000000E+00 0.  1.
         21    1    1    2  504  503  0.63315534914E+02  0.78261543290E+02 -0.19815226128E+03  0.22225670917E+03  0.00000000000E+00 0.  1.
         21    1    1    2  505  501 -0.12814120512E+03 -0.63263262714E+02 -0.33857268080E+03  0.36749676059E+03  0.00000000000E+00 0.  1.
          3    1    1    2  501    0 -0.33468852063E+01  0.32754398371E+02  0.52558866269E+03  0.52661892732E+03  0.00000000000E+00 0.  1.
<scales pt_clust_3="82.03857" pt_clust_4="14000.00000" pt_clust_5="116.72487" pt_clust_6="32.92495"></scales>
<clustering>
<clus scale="   32.925">  1  6  2 -1</clus>
<clus scale="   82.039">  2  3  1 -1</clus>
<clus scale="  116.725">  2  5  1 -1</clus>
<clus scale="   82.039">  2  3  1 -1</clus>
</clustering>
</event>
<event>
 6    0  0.2781617E+002  0.1417412E+03  0.7546771E-02  0.1211005E+00
         21   -1    0    0  504  502  0.00000000000E+00  0.00000000000E+00  0.25225840994E+04  0.25225840994E+04  0.00000000000E+00 0. -1.
          2   -1    0    0  503    0 -0.00000000000E+00 -0.00000000000E+00 -0.12795571087E+03  0.12795571087E+03  0.00000000000E+00 0. -1.
         21    1    1    2  503  502  0.65605610590E+02  0.24250444267E+02  0.18832515672E+04  0.18845499849E+04  0.00000000000E+00 0. -1.
         21    1    1    2  504  505  0.14228766705E+02 -0.38410923319E+02  0.23193155089E+03  0.23552091442E+03  0.00000000000E+00 0. -1.
         21    1    1    2  505  501  0.63152930694E+02  0.22318931055E+01  0.36028112671E+03  0.36578103322E+03  0.00000000000E+00 0. -1.
          2    1    1    2  501    0 -0.14298730799E+03  0.11928585947E+02 -0.80835856283E+02  0.16468787773E+03  0.00000000000E+00 0. -1.
<scales pt_clust_3="14000.00000" pt_clust_4="40.96165" pt_clust_5="65.52354" pt_clust_6="141.74120"></scales>
<clustering>
<clus scale="   40.962">  1  4  2 -1</clus>
<clus scale="   65.524">  1  5  2 -1</clus>
<clus scale="  141.741">  2  6  1 -1</clus>
<clus scale="   40.962">  1  3  2 -1</clus>
</clustering>
</event>
<event>
 6    0  0.2781617E+002  0.1453857E+03  0.7546771E-02  0.1206260E+00
         21   -1    0    0  505  502  0.00000000000E+00  0.00000000000E+00  0.36880201885E+02  0.36880201885E+02  0.00000000000E+00 0.  1.
          1   -1    0    0  503    0 -0.00000000000E+00 -0.00000000000E+00 -0.97413063096E+03  0.97413063096E+03  0.00000000000E+00 0.  1.
         21    1    1    2  503  504  0.63513117707E+02  0.57215663229E+02 -0.31819795569E+03  0.32948063258E+03  0.00000000000E+00 0.  1.
         21    1    1    2  504  502  0.25391654950E+02  0.80882145318E+02 -0.20342427998E+03  0.22038170355E+03  0.00000000000E+00 0.  1.
         21    1    1    2  505  501 -0.44574719720E+02 -0.11533778576E+03 -0.16824751826E+03  0.20879879756E+03  0.00000000000E+00 0.  1.
          1    1    1    2  501    0 -0.44330052937E+02 -0.22760022785E+02 -0.24738067514E+03  0.25234969916E+03  0.00000000000E+00 0.  1.
<scales pt_clust_3="52.92799" pt_clust_4="52.92799" pt_clust_5="133.61603" pt_clust_6="49.83144"></scales>
<clustering>
<clus scale="   49.831">  2  6  1 -1</clus>
<clus scale="   52.928">  3  4 -1 -1</clus>
<clus scale="  133.616">  1  5  2 -1</clus>
<clus scale="  133.616">  1  3  2 -1</clus>
</clustering>
</event>
<event>
 6    0  0.2781617E+002  0.1364158E+03  0.7546771E-02  0.1218235E+00
         21   -1    0    0  503  502  0.00000000000E+00  0.00000000000E+00  0.22103045893E+03  0.22103045893E+03  0.00000000000E+00 0.  1.
          2   -1    0    0  504    0 -0.00000000000E+00 -0.00000000000E+00 -0.79543144621E+03  0.79543144621E+03  0.00000000000E+00 0.  1.
         21    1    1    2  503  501  0.84598187145E+02  0.82768473380E+02  0.15113024216E+03  0.19195786921E+03  0.00000000000E+00 0.  1.
         21    1    1    2  504  505 -0.31607871921E+02 -0.10881359209E+03 -0.56100975403E+02  0.12643881854E+03  0.00000000000E+00 0.  1.
         21    1    1    2  505  502 -0.43379221042E+02 -0.20141410914E+02 -0.29068236606E+02  0.55967808884E+02  0.00000000000E+00 0.  1.
          2    1    1    2  501    0 -0.96110941821E+01  0.46186529626E+02 -0.64036201743E+03  0.64209740851E+03  0.00000000000E+00 0.  1.
<scales pt_clust_3="121.83329" pt_clust_4="39.86909" pt_clust_5="39.86909" pt_clust_6="47.17593"></scales>
<clustering>
<clus scale="   39.869">  4  5 -1 -1</clus>
<clus scale="   47.176">  2  6  1 -1</clus>
<clus scale="  121.833">  1  3  2 -1</clus>
<clus scale="  121.833">  1  3  2 -1</clus>
</clustering>
</event>
<event>
 6    0  0.2781617E+002  0.7585552E+02  0.7546771E-02  0.1341242E+00
         21   -1    0    0  503  502  0.00000000000E+00  0.00000000000E+00  0.47318794405E+02  0.47318794405E+02  0.00000000000E+00 0.  1.
          1   -1    0    0  505    0 -0.00000000000E+00 -0.00000000000E+00 -0.19699722711E+04  0.19699722711E+04  0.00000000000E+00 0. -1.
         21    1    1    2  503  501  0.74493231914E+02 -0.55725956689E+01 -0.20159463717E+03  0.21498998385E+03  0.00000000000E+00 0.  1.
         21    1    1    2  504  502 -0.70574036553E+02 -0.32687857439E+02 -0.97696787028E+01  0.78387736804E+02  0.00000000000E+00 0.  1.
         21    1    1    2  505  504 -0.69965807753E+02  0.73503249656E+01 -0.22288956204E+03  0.23372847152E+03  0.00000000000E+00 0. -1.
          1    1    1    2  501    0  0.66046612392E+02  0.30910128142E+02 -0.14883995987E+04  0.14901848733E+04  0.00000000000E+00 0. -1.
<scales pt_clust_3="75.85552" pt_clust_4="14000.00000" pt_clust_5="70.35085" pt_clust_6="37.71170"></scales>
<clustering>
<clus scale="   70.351">  2  5  1 -1</clus>
<clus scale="   37.712">  2  6  1 -1</clus>
<clus scale="   75.856">  2  3  1 -1</clus>
<clus scale="   75.856">  1  3  2 -1</clus>
</clustering>
</event>
<event>
 6    0  0.2781617E+002  0.1283325E+03  0.7546771E-02  0.1229951E+00
         21   -1    0    0  505  502  0.00000000000E+00  0.00000000000E+00  0.13005342036E+03  0.13005342036E+03  0.00000000000E+00 0.  1.
          2   -1    0    0  504    0 -0.00000000000E+00 -0.00000000000E+00 -0.92327743928E+03  0.92327743928E+03  0.00000000000E+00 0.  1.
         21    1    1    2  503  502  0.43406340921E+02 -0.53137521556E+02 -0.68410962444E+02  0.96890486694E+02  0.00000000000E+00 0.  1.
         21    1    1    2  504  503  0.12208281145E+03  0.46254930858E+02 -0.50567918326E+02  0.14000302083E+03  0.00000000000E+00 0.  1.
         21    1    1    2  505  501 -0.50144440957E+02 -0.61725251492E+02  0.40469484893E+02  0.89231445344E+02  0.00000000000E+00 0.  1.
          2    1    1    2  501    0 -0.11534471141E+03  0.68607842190E+02 -0.71471462304E+03  0.72720590677E+03  0.00000000000E+00 0.  1.
<scales pt_clust_3="68.61273" pt_clust_4="128.33250" pt_clust_5="95.05901" pt_clust_6="14000.00000"></scales>
<clustering>
<clus scale="   68.613">  1  3  2 -1</clus>
<clus scale="   95.059">  1  5  2 -1</clus>
<clus scale="  128.332">  1  4  2 -1</clus>
<clus scale="   68.613">  1  3  2 -1</clus>
</clustering>
</event>
<event>
 6    0  0.2781617E+002  0.9646572E+02  0.7546771E-02  0.1287909E+00
         21   -1    0    0  503  502  0.00000000000E+00  0.00000000000E+00  0.11413640300E+04  0.11413640300E+04  0.00000000000E+00 0. -1.
          1   -1    0    0  505    0 -0.00000000000E+00 -0.00000000000E+00 -0.20131776922E+04  0.20131776922E+04  0.00000000000E+00 0. -1.
         21    1    1    2  503  504  0.67025155099E+01  0.64717733250E+02  0.50495910295E+02  0.82359854709E+02  0.00000000000E+00 0. -1.
         21    1    1    2  504  501  0.35279816940E+02  0.33956389430E+02  0.90134662465E+01  0.49788999189E+02  0.00000000000E+00 0. -1.
         21    1    1    2  505  502 -0.69519165122E+02 -0.20380945503E+02  0.10434072910E+04  0.10459192475E+04  0.00000000000E+00 0. -1.
          1    1    1    2  501    0  0.27536832672E+02 -0.78293177178E+02 -0.19747303298E+04  0.19764736209E+04  0.00000000000E+00 0. -1.
<scales pt_clust_3="42.70144" pt_clust_4="42.70144" pt_clust_5="72.44513" pt_clust_6="82.96253"></scales>
<clustering>
<clus scale="   42.701">  3  4 -1 -1</clus>
<clus scale="   72.445">  1  5  2 -1</clus>
<clus scale="   82.963">  2  6  1 -1</clus>
<clus scale="   72.445">  1  3  2 -1</clus>
</clustering>
</event>
<event>
 6    0  0.2781617E+002  0.9494145E+02  0.7546771E-02  0.1291308E+00
         21   -1    0    0  501  502  0.00000000000E+00  0.00000000000E+00  0.25307643692E+03  0.25307643692E+03  0.00000000000E+00 0. -1.
          2   -1    0    0  505    0 -0.00000000000E+00 -0.00000000000E+00 -0.16257987880E+04  0.16257987880E+04  0.00000000000E+00 0.  1.
         21    1    1    2  503  502 -0.82519513131E+02  0.59062335758E+02  0.15073666656E+03  0.18171233364E+03  0.00000000000E+00 0. -1.
         21    1    1    2  504  503  0.30402611020E+02  0.16861607126E+02  0.44095023772E+02  0.56151613273E+02  0.00000000000E+00 0.  1.
         21    1    1    2  505  504  0.47502052835E+02 -0.87605002557E+01  0.19819241721E+02  0.52211049891E+02  0.00000000000E+00 0. -1.
          2    1    1    2  501    0  0.46148492752E+01 -0.67163442628E+02 -0.15873732831E+04  0.15888002281E+04  0.00000000000E+00 0.  1.
<scales pt_clust_3="86.55178" pt_clust_4="33.10463" pt_clust_5="33.10463" pt_clust_6="67.32180"></scales>
<clustering>
<clus scale="   33.105">  4  5 -1 -1</clus>
<clus scale="   67.322">  2  6  1 -1</clus>
<clus scale="   86.552">  1  3  2 -1</clus>
<clus scale="   86.552">  1  3  2 -1</clus>
</clustering>
</event>
<event>
 6    0  0.2781617E+002  0.3249213E+03  0.7546771E-02  0.1073406E+00
          2   -1    0    0  503    0 -0.00000000000E+00  0.00000000000E+00  0.44531421542E+03  0.44531421542E+03  0.00000000000E+00 0. -1.
         21   -1    0    0  501  502  0.00000000000E+00 -0.00000000000E+00 -0.35633981181E+03  0.35633981181E+03  0.00000000000E+00 0.  1.
         21    1    1    2  503  504 -0.14145648901E+03  0.33566929993E+02 -0.82600856346E+02  0.16721117948E+03  0.00000000000E+00 0.  1.
         21    1    1    2  504  505 -0.59163826122E+02  0.77689129914E+02 -0.46308328511E+02  0.10807599418E+03  0.00000000000E+00 0.  1.
         21    1    1    2  505  502 -0.58900969218E+02  0.52974132507E+02 -0.69777852999E+02  0.10556766389E+03  0.00000000000E+00 0.  1.
          2    1    1    2  501    0  0.25952128435E+03 -0.16423019241E+03  0.28766144147E+03  0.42079918969E+03  0.00000000000E+00 0. -1.
<scales pt_clust_3="87.10738" pt_clust_4="87.10738" pt_clust_5="30.61566" pt_clust_6="307.12026"></scales>
<clustering>
<clus scale="   30.616">  4  5 -1 -1</clus>
<clus scale="   87.107">  3  4 -1 -1</clus>
<clus scale="  307.120">  1  6  2 -1</clus>
<clus scale="  324.921">  2  3  1 -1</clus>
</clustering>
</event>
<event>
 6    0  0.2781617E+002  0.1267927E+03  0.7546771E-02  0.1232294E+00
          1   -1    0    0  503    0 -0.00000000000E+00  0.00000000000E+00  0.12549463733E+04  0.12549463733E+04  0.00000000000E+00 0.  1.
         21   -1    0    0  504  502  0.00000000000E+00 -0.00000000000E+00 -0.32149707242E+02  0.32149707242E+02  0.00000000000E+00 0. -1.
         21    1    1    2  503  502  0.11197534619E+03  0.10601100592E+02  0.24784342164E+03  0.27217131211E+03  0.00000000000E+00 0. -1.
         21    1    1    2  504  505 -0.35256420664E+02 -0.11080329047E+02  0.58904327030E+02  0.69537821598E+02  0.00000000000E+00 0. -1.
         21    1    1    2  505  501 -0.81784446168E+02  0.53540458061E+02  0.16024995789E+03  0.18771074900E+03  0.00000000000E+00 0.  1.
          1    1    1    2  501    0  0.50655206404E+01 -0.53061229606E+02  0.75579895952E+03  0.75767619785E+03  0.00000000000E+00 0.  1.
<scales pt_clust_3="115.88615" pt_clust_4="31.63338" pt_clust_5="31.63338" pt_clust_6="53.30247"></scales>
<clustering>
<clus scale="   31.633">  4  5 -1 -1</clus>
<clus scale="   53.302">  1  6  2 -1</clus>
<clus scale="  115.886">  1  3  2 -1</clus>
<clus scale="  126.793">  2  3  1 -1</clus>
</clustering>
</event>
<event>
 6    0  0.2781617E+002  0.1454640E+03  0.7546771E-02  0.1206160E+00
          1   -1    0    0  504    0 -0.00000000000E+00  0.00000000000E+00  0.16765279504E+04  0.16765279504E+04  0.00000000000E+00 0. -1.
         21   -1    0    0  503  502  0.00000000000E+00 -0.00000000000E+00 -0.72690773008E+03  0.72690773008E+03  0.00000000000E+00 0. -1.
         21    1    1    2  503  505  0.14738064353E+03  0.35752085488E+02 -0.62820193086E+03  0.64624835136E+03  0.00000000000E+00 0. -1.
         21    1    1    2  504  502 -0.20031840944E+02  0.29827378542E+02  0.28674353240E+01  0.36043991838E+02  0.00000000000E+00 0.  1.
         21    1    1    2  505  501 -0.96986540343E+02 -0.69962888974E+02 -0.23935018971E+02  0.12195933738E+03  0.00000000000E+00 0.  1.
          1    1    1    2  501    0 -0.30362262243E+02  0.43834249436E+01  0.15988897348E+04  0.15991839999E+04  0.00000000000E+00 0. -1.
<scales pt_clust_3="145.46401" pt_clust_4="41.48892" pt_clust_5="14000.00000" pt_clust_6="30.67705"></scales>
<clustering>
<clus scale="   30.677">  1  6  2 -1</clus>
<clus scale="   41.489">  1  4  2 -1</clus>
<clus scale="  145.464">  2  3  1 -1</clus>
<clus scale="  145.464">  2  3  1 -1</clus>
</clustering>
</event>
<event>
 6    0  0.2781617E+002  0.1804631E+03  0.7546771E-02  0.1167356E+00
          2   -1    0    0  504    0 -0.00000000000E+00  0.00000000000E+00  0.24216929736E+04  0.24216929736E+04  0.00000000000E+00 0.  1.
         21   -1    0    0  503  502  0.00000000000E+00 -0.00000000000E+00 -0.45624889131E+03  0.45624889131E+03  0.00000000000E+00 0.  1.
         21    1    1    2  503  501  0.13168921186E+02 -0.29006224667E+02  0.19192112321E+02  0.37190304247E+02  0.00000000000E+00 0.  1.
         21    1    1    2  504  505 -0.27142291193E+02  0.22733437150E+03 -0.37518731541E+03  0.43952604255E+03  0.00000000000E+00 0.  1.
         21    1    1    2  505  502  0.49472714101E+02 -0.21713701286E+02 -0.16394871591E+02  0.56460836680E+02  0.00000000000E+00 0.  1.
          2    1    1    2  501    0 -0.35499344094E+02 -0.17661444555E+03  0.23378341570E+04  0.23447646815E+04  0.00000000000E+00 0.  1.
<scales pt_clust_3="31.85564" pt_clust_4="180.46310" pt_clust_5="55.98653" pt_clust_6="14000.00000"></scales>
<clustering>
<clus scale="   31.856">  2  3  1 -1</clus>
<clus scale="   55.987">  2  5  1 -1</clus>
<clus scale="  180.463">  2  4  1 -1</clus>
<clus scale="   31.856">  2  3  1 -1</clus>
</clustering>
</event>
<event>
 6    0  0.2781617E+002  0.1458584E+03  0.7546771E-02  0.1205657E+00
         21   -1    0    0  505  502  0.00000000000E+00  0.00000000000E+00  0.12712279085E+03  0.12712279085E+03  0.00000000000E+00 0. -1.
          1   -1    0    0  504    0 -0.00000000000E+00 -0.00000000000E+00 -0.11729357198E+04  0.11729357198E+04  0.00000000000E+00 0. -1.
         21    1    1    2  503  502  0.43386935459E+02  0.63791933131E+02 -0.23339821504E+02  0.80601390615E+02  0.00000000000E+00 0. -1.
         21    1    1    2  504  503 -0.33831242025E+02 -0.48203653747E-01 -0.51816389451E+02  0.61882901324E+02  0.00000000000E+00 0. -1.
         21    1    1    2  505  501  0.10088725046E+03 -0.10848470266E+03  0.28901170451E+02  0.15093854932E+03  0.00000000000E+00 0. -1.
          1    1    1    2  501    0 -0.11044294390E+03  0.44740973182E+02 -0.99955788841E+03  0.10066356694E+04  0.00000000000E+00 0. -1.
<scales pt_clust_3="76.27144" pt_clust_4="33.83128" pt_clust_5="145.85838" pt_clust_6="14000.00000"></scales>
<clustering>
<clus scale="   33.831">  2  4  1 -1</clus>
<clus scale="   76.271">  1  3  2 -1</clus>
<clus scale="  145.858">  1  5  2 -1</clus>
<clus scale="   76.271">  1  3  2 -1</clus>
</clustering>
</event>
<event>
 6    0  0.2781617E+002  0.2611728E+03  0.7546771E-02  0.1106441E+00
          4   -1    0    0  505    0 -0.00000000000E+00  0.00000000000E+00  0.42076309442E+03  0.42076309442E+03  0.00000000000E+00 0. -1.
         21   -1    0    0  501  502  0.00000000000E+00 -0.00000000000E+00 -0.41287918649E+03  0.41287918649E+03  0.00000000000E+00 0.  1.
         21    1    1    2  503  502  0.18128149513E+02  0.46747960007E+02 -0.43033955570E+02  0.66075130735E+02  0.00000000000E+00 0. -1.
         21    1    1    2  504  503  0.24018993554E+03  0.26307585395E+02 -0.18299225920E+03  0.30309975439E+03  0.00000000000E+00 0.  1.
         21    1    1    2  505  504  0.21011257695E+02 -0.80927584015E+02  0.15164870016E+03  0.17317065301E+03  0.00000000000E+00 0.  1.
          4    1    1    2  501    0 -0.27932934274E+03  0.78720386133E+01  0.82261422542E+02  0.29129674277E+03  0.00000000000E+00 0. -1.
<scales pt_clust_3="50.13982" pt_clust_4="261.17284" pt_clust_5="82.39334" pt_clust_6="14000.00000"></scales>
<clustering>
<clus scale="   50.140">  2  3  1 -1</clus>
<clus scale="   82.393">  1  5  2 -1</clus>
<clus scale="  261.173">  2  4  1 -1</clus>
<clus scale="   50.140">  2  3  1 -1</clus>
</clustering>
</event>
<event>
 6    0  0.2781617E+002  0.1603423E+03  0.7546771E-02  0.1188311E+00
         -2   -1    0    0    0  501 -0.00000000000E+00  0.00000000000E+00  0.63684356383E+03  0.63684356383E+03  0.00000000000E+00 0. -1.
         21   -1    0    0  504  502  0.00000000000E+00 -0.00000000000E+00 -0.92769635307E+03  0.92769635307E+03  0.00000000000E+00 0.  1.
         21    1    1    2  503  502  0.11902833092E+03  0.23546909886E+02 -0.70979958291E+03  0.72009558285E+03  0.00000000000E+00 0.  1.
         21    1    1    2  504  501 -0.10497463995E+03 -0.69424017229E+02 -0.65670632434E+02  0.14195774430E+03  0.00000000000E+00 0. -1.
         21    1    1    2  505  503  0.22417784422E+02  0.29023507596E+02 -0.10514508880E+03  0.11135713157E+03  0.00000000000E+00 0.  1.
         -2    1    1    2    0  505 -0.36471475391E+02  0.16853599746E+02  0.58976251491E+03  0.59112945819E+03  0.00000000000E+00 0. -1.
<scales pt_clust_3="36.50136" pt_clust_4="145.95038" pt_clust_5="36.50136" pt_clust_6="40.17726"></scales>
<clustering>
<clus scale="   36.501">  3  5 -1 -1</clus>
<clus scale="   40.177">  1  6  2 -1</clus>
<clus scale="  145.950">  1  4  2 -1</clus>
<clus scale="  160.342">  2  3  1 -1</clus>
</clustering>
</event>
<event>
 6    0  0.2781617E+002  0.1516371E+03  0.7546771E-02  0.1198476E+00
          2   -1    0    0  504    0 -0.00000000000E+00  0.00000000000E+00  0.19975628716E+04  0.19975628716E+04  0.00000000000E+00 0. -1.
         21   -1    0    0  501  502  0.00000000000E+00 -0.00000000000E+00 -0.28662453340E+03  0.28662453340E+03  0.00000000000E+00 0. -1.
         21    1    1    2  503  502 -0.38026782136E+02 -0.47124562369E+02 -0.51354311945E+02  0.79397896026E+02  0.00000000000E+00 0.  1.
         21    1    1    2  504  505  0.12743216440E+03 -0.32095879753E+02  0.30847149941E+03  0.33529653736E+03  0.00000000000E+00 0.  1.
         21    1    1    2  505  503 -0.10512819667E+03  0.10893143517E+03 -0.18007267224E+03  0.23525340081E+03  0.00000000000E+00 0. -1.
          2    1    1    2  501    0  0.15722814404E+02 -0.29710993053E+02  0.16338938229E+04  0.16342395708E+04  0.00000000000E+00 0. -1.
<scales pt_clust_3="61.07646" pt_clust_4="14000.00000" pt_clust_5="151.63709" pt_clust_6="33.61473"></scales>
<clustering>
<clus scale="   33.615">  1  6  2 -1</clus>
<clus scale="   61.076">  2  3  1 -1</clus>
<clus scale="  151.637">  2  5  1 -1</clus>
<clus scale="   61.076">  2  3  1 -1</clus>
</clustering>
</event>
<event>
 6    0  0.2781617E+002  0.9404249E+02  0.7546771E-02  0.1293347E+00
          1   -1    0    0  503    0 -0.00000000000E+00  0.00000000000E+00  0.49061421512E+03  0.49061421512E+03  0.00000000000E+00 0.  1.
         21   -1    0    0  504  502  0.00000000000E+00 -0.00000000000E+00 -0.71968668427E+02  0.71968668427E+02  0.00000000000E+00 0.  1.
         21    1    1    2  503  505 -0.59922298204E+01 -0.34356453635E+02  0.89261542498E+01  0.35999291025E+02  0.00000000000E+00 0. -1.
         21    1    1    2  504  501 -0.10178274482E+03  0.45728511246E+02  0.13978960882E+03  0.17886296044E+03  0.00000000000E+00 0.  1.
         21    1    1    2  505  502  0.35219744811E+02 -0.44523872072E+02 -0.91158349634E+01  0.57496991712E+02  0.00000000000E+00 0.  1.
          1    1    1    2  501    0  0.72555229828E+02  0.33151814461E+02  0.27904561858E+03  0.29022364037E+03  0.00000000000E+00 0.  1.
<scales pt_clust_3="31.98364" pt_clust_4="84.72794" pt_clust_5="31.98364" pt_clust_6="79.77032"></scales>
<clustering>
<clus scale="   31.984">  3  5 -1 -1</clus>
<clus scale="   79.770">  1  6  2 -1</clus>
<clus scale="   84.728">  1  4  2 -1</clus>
<clus scale="   94.042">  2  3  1 -1</clus>
</clustering>
</event>
<event>
 6    0  0.2781617E+002  0.1015546E+03  0.7546771E-02  0.1277060E+00
         21   -1    0    0  504  502  0.00000000000E+00  0.00000000000E+00  0.30495780757E+02  0.30495780757E+02  0.00000000000E+00 0. -1.
          2   -1    0    0  505    0 -0.00000000000E+00 -0.00000000000E+00 -0.19453404860E+04  0.19453404860E+04  0.00000000000E+00 0. -1.
         21    1    1    2  503  501 -0.74935841068E+02  0.51937124153E+02 -0.76395833211E+02  0.11895027732E+03  0.00000000000E+00 0. -1.
         21    1    1    2  504  503  0.27976351246E+02  0.22075598034E+02 -0.57887538965E+02  0.67977756840E+02  0.00000000000E+00 0. -1.
         21    1    1    2  505  502 -0.31309617309E+02 -0.80773466911E+01 -0.97165663115E+02  0.10240459831E+03  0.00000000000E+00 0. -1.
          2    1    1    2  501    0  0.78269107131E+02 -0.65935375496E+02 -0.16833956699E+04  0.16865036343E+04  0.00000000000E+00 0. -1.
<scales pt_clust_3="101.55456" pt_clust_4="30.37527" pt_clust_5="32.33474" pt_clust_6="14000.00000"></scales>
<clustering>
<clus scale="   32.335">  1  5  2 -1</clus>
<clus scale="   30.375">  1  4  2 -1</clus>
<clus scale="  101.555">  1  3  2 -1</clus>
<clus scale="   32.335">  1  3  2 -1</clus>
</clustering>
</event>
<event>
 6    0  0.2781617E+002  0.8881132E+02  0.7546771E-02  0.1305756E+00
         21   -1    0    0  504  502  0.00000000000E+00  0.00000000000E+00  0.61440009277E+02  0.61440009277E+02  0.00000000000E+00 0.  1.
          2   -1    0    0  503    0 -0.00000000000E+00 -0.00000000000E+00 -0.66543297310E+03  0.66543297310E+03  0.00000000000E+00 0. -1.
         21    1    1    2  503  502 -0.42582064766E+02  0.60854893210E+01  0.12199976735E+02  0.44711350375E+02  0.00000000000E+00 0.  1.
         21    1    1    2  504  505 -0.19316767862E+02 -0.32422459595E+02 -0.45422642264E+01  0.38012965829E+02  0.00000000000E+00 0.  1.
         21    1    1    2  505  501  0.68537929121E+02 -0.66868561253E+02 -0.19619872141E+03  0.21831809475E+03  0.00000000000E+00 0.  1.
          2    1    1    2  501    0 -0.66390964922E+01  0.93205531527E+02 -0.41545195492E+03  0.42583057143E+03  0.00000000000E+00 0. -1.
<scales pt_clust_3="56.77436" pt_clust_4="37.74061" pt_clust_5="88.81132" pt_clust_6="14000.00000"></scales>
<clustering>
<clus scale="   37.741">  1  4  2 -1</clus>
<clus scale="   56.774">  1  3  2 -1</clus>
<clus scale="   88.811">  1  5  2 -1</clus>
<clus scale="   37.741">  1  3  2 -1</clus>
</clustering>
</event>
<event>
 6    0  0.2781617E+002  0.1238781E+03  0.7546771E-02  0.1236833E+00
         21   -1    0    0  504  502  0.00000000000E+00  0.00000000000E+00  0.13022907223E+04  0.13022907223E+04  0.00000000000E+00 0. -1.
          2   -1    0    0  505    0 -0.00000000000E+00 -0.00000000000E+00 -0.95184849589E+03  0.95184849589E+03  0.00000000000E+00 0. -1.
         21    1    1    2  503  502  0.50696268586E+02  0.67828385298E+01  0.85045349284E+03  0.85199017719E+03  0.00000000000E+00 0. -1.
         21    1    1    2  504  501  0.73898565872E+02 -0.25976118357E+02  0.42914699068E+03  0.43623720196E+03  0.00000000000E+00 0. -1.
         21    1    1    2  505  503 -0.22083413303E+02 -0.26566916430E+02 -0.49371664494E+01  0.34897762167E+02  0.00000000000E+00 0. -1.
          2    1    1    2  501    0 -0.10251142115E+03  0.45760196257E+02 -0.92422109063E+03  0.93101407691E+03  0.00000000000E+00 0. -1.
<scales pt_clust_3="51.12706" pt_clust_4="123.87809" pt_clust_5="34.54675" pt_clust_6="14000.00000"></scales>
<clustering>
<clus scale="   34.547">  2  5  1 -1</clus>
<clus scale="   51.127">  1  3  2 -1</clus>
<clus scale="  123.878">  1  4  2 -1</clus>
<clus scale="   51.127">  1  3  2 -1</clus>
</clustering>
</event>
<event>
 6    0  0.2781617E+002  0.1630960E+03  0.7546771E-02  0.1185245E+00
         21   -1    0    0  505  502  0.00000000000E+00  0.00000000000E+00  0.20751869736E+03  0.20751869736E+03  0.00000000000E+00 0. -1.
         -3   -1    0    0    0  501 -0.00000000000E+00 -0.00000000000E+00 -0.29636032722E+03  0.29636032722E+03  0.00000000000E+00 0. -1.
         21    1    1    2  503  504  0.48513528067E+02  0.67585201248E+02  0.29252020517E+02  0.88187315060E+02  0.00000000000E+00 0. -1.
         21    1    1    2  504  501  0.81487306843E+02  0.18259858226E+02  0.17752630171E+02  0.85374231926E+02  0.00000000000E+00 0. -1.
         21    1    1    2  505  503  0.11082499877E+02 -0.31447005645E+02  0.68457049488E+02  0.76145279514E+02  0.00000000000E+00 0. -1.
         -3    1    1    2    0  502 -0.14108333479E+03 -0.54398053829E+02 -0.20430333003E+03  0.25417219808E+03  0.00000000000E+00 0. -1.
<scales pt_clust_3="56.71206" pt_clust_4="56.71206" pt_clust_5="33.34270" pt_clust_6="151.51142"></scales>
<clustering>
<clus scale="   33.343">  1  5  2 -1</clus>
<clus scale="   56.712">  3  4 -1 -1</clus>
<clus scale="  151.511">  2  6  1 -1</clus>
<clus scale="   33.343">  1  3  2 -1</clus>
</clustering>
</event>
<event>
 6    0  0.2781617E+002  0.7508441E+02  0.7546771E-02  0.1343610E+00
         21   -1    0    0  503  502  0.00000000000E+00  0.00000000000E+00  0.13016569251E+04  0.13016569251E+04  0.00000000000E+00 0. -1.
          3   -1    0    0  504    0 -0.00000000000E+00 -0.00000000000E+00 -0.10831342958E+03  0.10831342958E+03  0.00000000000E+00 0.  1.
         21    1    1    2  503  505 -0.37324067577E+02 -0.42170859099E+02  0.92983069425E+02  0.10870749090E+03  0.00000000000E+00 0. -1.
         21    1    1    2  504  502 -0.94443214389E+02 -0.13083755366E+02  0.36973398895E+03  0.38182971071E+03  0.00000000000E+00 0. -1.
         21    1    1    2  505  501  0.63719009314E+02  0.86399350921E+02  0.80605854646E+03  0.81317608199E+03  0.00000000000E+00 0. -1.
          3    1    1    2  501    0  0.68048272652E+02 -0.31144736456E+02 -0.75432109365E+02  0.10625707103E+03  0.00000000000E+00 0.  1.
<scales pt_clust_3="56.31578" pt_clust_4="75.08441" pt_clust_5="69.61727" pt_clust_6="14000.00000"></scales>
<clustering>
<clus scale="   56.316">  1  3  2 -1</clus>
<clus scale="   69.617">  1  5  2 -1</clus>
<clus scale="   75.084">  1  4  2 -1</clus>
<clus scale="   56.316">  1  3  2 -1</clus>
</clustering>
</event>
<event>
 6    0  0.2781617E+002  0.1255074E+03  0.7546771E-02  0.1234278E+00
         21   -1    0    0  504  502  0.00000000000E+00  0.00000000000E+00  0.51997956837E+02  0.51997956837E+02  0.00000000000E+00 0.  1.
          2   -1    0    0  505    0 -0.00000000000E+00 -0.00000000000E+00 -0.73663890519E+03  0.73663890519E+03  0.00000000000E+00 0. -1.
         21    1    1    2  503  502  0.17272028960E+02 -0.44858596749E+02 -0.34813548748E+02  0.59351494194E+02  0.00000000000E+00 0. -1.
         21    1    1    2  504  501 -0.24622906520E+02 -0.28008724596E+02 -0.17294599395E+02  0.41108142104E+02  0.00000000000E+00 0.  1.
         21    1    1    2  505  503  0.59131999272E+02 -0.37265733797E+02 -0.34609374079E+02  0.77994467929E+02  0.00000000000E+00 0.  1.
          2    1    1    2  501    0 -0.51781121712E+02  0.11013305514E+03 -0.59792342613E+03  0.61018275780E+03  0.00000000000E+00 0. -1.
<scales pt_clust_3="31.71320" pt_clust_4="37.29311" pt_clust_5="31.71320" pt_clust_6="119.53957"></scales>
<clustering>
<clus scale="   31.713">  3  5 -1 -1</clus>
<clus scale="   37.293">  1  4  2 -1</clus>
<clus scale="  119.540">  2  6  1 -1</clus>
<clus scale="   37.293">  1  3  2 -1</clus>
</clustering>
</event>
<event>
 6    0  0.2781617E+002  0.1127575E+03  0.7546771E-02  0.1255547E+00
         21   -1    0    0  504  502  0.00000000000E+00  0.00000000000E+00  0.14691167920E+04  0.14691167920E+04  0.00000000000E+00 0.  1.
         -4   -1    0    0    0  501 -0.00000000000E+00 -0.00000000000E+00 -0.66174150012E+02  0.66174150012E+02  0.00000000000E+00 0.  1.
         21    1    1    2  503  501 -0.70732223991E+02 -0.14463154639E+02  0.47768376947E+03  0.48310869788E+03  0.00000000000E+00 0.  1.
         21    1    1    2  504  503 -0.31134023428E+02  0.34139743296E+02  0.71968585105E+03  0.72116750737E+03  0.00000000000E+00 0.  1.
         21    1    1    2  505  502  0.38191483156E+01  0.50686012042E+02  0.20408917892E+03  0.21032368070E+03  0.00000000000E+00 0.  1.
         -4    1    1    2    0  505  0.98047099103E+02 -0.70362600698E+02  0.14838425277E+01  0.12069105604E+03  0.00000000000E+00 0.  1.
<scales pt_clust_3="112.75747" pt_clust_4="46.20443" pt_clust_5="60.32554" pt_clust_6="14000.00000"></scales>
<clustering>
<clus scale="   46.204">  1  4  2 -1</clus>
<clus scale="   60.326">  1  5  2 -1</clus>
<clus scale="  112.757">  1  3  2 -1</clus>
<clus scale="   46.204">  1  3  2 -1</clus>
</clustering>
</event>
<event>
 6    0  0.2781617E+002  0.1173584E+03  0.7546771E-02  0.1247520E+00
          1   -1    0    0  505    0 -0.00000000000E+00  0.00000000000E+00  0.21143412737E+04  0.21143412737E+04  0.00000000000E+00 0.  1.
         21   -1    0    0  503  502  0.00000000000E+00 -0.00000000000E+00 -0.87746507130E+03  0.87746507130E+03  0.00000000000E+00 0. -1.
         21    1    1    2  503  504  0.70529980728E+01  0.83007532982E+02 -0.71782396518E+03  0.72264184788E+03  0.00000000000E+00 0. -1.
         21    1    1    2  504  501 -0.12503697468E+03 -0.20835527302E+00 -0.21764702007E+01  0.12505608931E+03  0.00000000000E+00 0.  1.
         21    1    1    2  505  502  0.45496565440E+02  0.10860852293E+02 -0.85948964357E+02  0.97852542396E+02  0.00000000000E+00 0.  1.
          1    1    1    2  501    0  0.72487411172E+02 -0.93660030003E+02  0.20428256021E+04  0.20462558654E+04  0.00000000000E+00 0.  1.
<scales pt_clust_3="104.97917" pt_clust_4="14000.00000" pt_clust_5="46.77495" pt_clust_6="117.35839"></scales>
<clustering>
<clus scale="   46.775">  2  5  1 -1</clus>
<clus scale="  104.979">  2  3  1 -1</clus>
<clus scale="  117.358">  1  6  2 -1</clus>
<clus scale="   46.775">  2  3  1 -1</clus>
</clustering>
</event>
<event>
 6    0  0.2781617E+002  0.2603929E+03  0.7546771E-02  0.1106907E+00
         21   -1    0    0  505  502  0.00000000000E+00  0.00000000000E+00  0.66356450562E+03  0.66356450562E+03  0.00000000000E+00 0. -1.
          3   -1    0    0  504    0 -0.00000000000E+00 -0.00000000000E+00 -0.22903239891E+03  0.22903239891E+03  0.00000000000E+00 0. -1.
         21    1    1    2  503  502  0.15310695556E+03  0.15923611691E+02  0.15692742338E+03  0.21982155822E+03  0.00000000000E+00 0. -1.
         21    1    1    2  504  503  0.44030187995E+02  0.23989041020E+02  0.14261674598E+03  0.15117429602E+03  0.00000000000E+00 0. -1.
         21    1    1    2  505  501  0.59960695990E+02 -0.88761226743E+02  0.22144562567E+03  0.24599188109E+03  0.00000000000E+00 0. -1.
          3    1    1    2  501    0 -0.25709783954E+03  0.48848574033E+02 -0.86457688311E+02  0.27560916921E+03  0.00000000000E+00 0. -1.
<scales pt_clust_3="49.27872" pt_clust_4="49.27872" pt_clust_5="107.11601" pt_clust_6="245.66100"></scales>
<clustering>
<clus scale="   49.279">  3  4 -1 -1</clus>
<clus scale="  107.116">  1  5  2 -1</clus>
<clus scale="  245.661">  2  6  1 -1</clus>
<clus scale="  107.116">  1  3  2 -1</clus>
</clustering>
</event>
<event>
 6    0  0.2781617E+002  0.1621457E+03  0.7546771E-02  0.1186295E+00
          1   -1    0    0  503    0 -0.00000000000E+00  0.00000000000E+00  0.20242243121E+04  0.20242243121E+04  0.00000000000E+00 0.  1.
         21   -1    0    0  505  502  0.00000000000E+00 -0.00000000000E+00 -0.71296999099E+02  0.71296999099E+02  0.00000000000E+00 0. -1.
         21    1    1    2  503  504  0.66170567324E+02 -0.10897922819E+03  0.11603859260E+03  0.17239481178E+03  0.00000000000E+00 0. -1.
         21    1    1    2  504  502  0.40577877388E+02 -0.17947267132E+02  0.90300885538E+02  0.10061271520E+03  0.00000000000E+00 0. -1.
         21    1    1    2  505  501  0.33487622040E+01  0.30568126175E+02 -0.28189128817E+02  0.41716322101E+02  0.00000000000E+00 0. -1.
          1    1    1    2  501    0 -0.11009720692E+03  0.96358369146E+02  0.17747769637E+04  0.17807974621E+04  0.00000000000E+00 0.  1.
<scales pt_clust_3="41.92208" pt_clust_4="41.92208" pt_clust_5="30.75101" pt_clust_6="147.78251"></scales>
<clustering>
<clus scale="   30.751">  2  5  1 -1</clus>
<clus scale="   41.922">  3  4 -1 -1</clus>
<clus scale="  147.783">  1  6  2 -1</clus>
<clus scale="   30.751">  2  3  1 -1</clus>
</clustering>
</event>
<event>
 6    0  0.2781617E+002  0.1125489E+03  0.7546771E-02  0.1255921E+00
         21   -1    0    0  503  502  0.00000000000E+00  0.00000000000E+00  0.16160014139E+03  0.16160014139E+03  0.00000000000E+00 0. -1.
          2   -1    0    0  502    0 -0.00000000000E+00 -0.00000000000E+00 -0.25239592313E+04  0.25239592313E+04  0.00000000000E+00 0.  1.
         21    1    1    2  503  505 -0.33878621277E+02  0.10953337689E+01 -0.25097509249E+02  0.42176364307E+02  0.00000000000E+00 0. -1.
         21    1    1    2  504  501  0.13300246728E+03  0.21218176062E+02  0.67578454026E+02  0.15068747375E+03  0.00000000000E+00 0. -1.
         21    1    1    2  505  504 -0.45387835130E+02  0.76993573279E+02 -0.42767943323E+01  0.89478248048E+02  0.00000000000E+00 0. -1.
          2    1    1    2  501    0 -0.53736010874E+02 -0.99307083110E+02 -0.24005632404E+04  0.24032172866E+04  0.00000000000E+00 0.  1.
<scales pt_clust_3="33.89632" pt_clust_4="14000.00000" pt_clust_5="94.76268" pt_clust_6="112.54892"></scales>
<clustering>
<clus scale="   33.896">  1  3  2 -1</clus>
<clus scale="   94.763">  1  5  2 -1</clus>
<clus scale="  112.549">  2  6  1 -1</clus>
<clus scale="   33.896">  1  3  2 -1</clus>
</clustering>
</event>
<event>
 6    0  0.2781617E+002  0.1905856E+03  0.7546771E-02  0.1157934E+00
         21   -1    0    0  503  502  0.00000000000E+00  0.00000000000E+00  0.66325476335E+02  0.66325476335E+02  0.00000000000E+00 0.  1.
          4   -1    0    0  504    0 -0.00000000000E+00 -0.00000000000E+00 -0.66086830998E+03  0.66086830998E+03  0.00000000000E+00 0. -1.
         21    1    1    2  503  501  0.35874030857E+02 -0.64659633953E+01 -0.32031663307E+02  0.48526098409E+02  0.00000000000E+00 0.  1.
         21    1    1    2  504  505 -0.68816041616E+02 -0.84274254802E+02 -0.18580330850E+03  0.21531527362E+03  0.00000000000E+00 0.  1.
         21    1    1    2  505  502 -0.42136475468E+02 -0.67435494540E+02 -0.53730211176E+02  0.95968557777E+02  0.00000000000E+00 0.  1.
          4    1    1    2  501    0  0.75078486227E+02  0.15817571274E+03 -0.32297765066E+03  0.36738385650E+03  0.00000000000E+00 0. -1.
<scales pt_clust_3="36.45209" pt_clust_4="55.05985" pt_clust_5="55.05985" pt_clust_6="179.24249"></scales>
<clustering>
<clus scale="   36.452">  1  3  2 -1</clus>
<clus scale="   55.060">  4  5 -1 -1</clus>
<clus scale="  179.242">  2  6  1 -1</clus>
<clus scale="   36.452">  1  3  2 -1</clus>
</clustering>
</event>
<event>
 6    0  0.2781617E+002  0.7543828E+02  0.7546771E-02  0.1342519E+00
         21   -1    0    0  505  502  0.00000000000E+00  0.00000000000E+00  0.75443267356E+02  0.75443267356E+02  0.00000000000E+00 0. -1.
          1   -1    0    0  503    0 -0.00000000000E+00 -0.00000000000E+00 -0.11953617972E+04  0.11953617972E+04  0.00000000000E+00 0. -1.
         21    1    1    2  503  502  0.21224328376E+02  0.73155171209E+02  0.28951609889E+02  0.81488323733E+02  0.00000000000E+00 0. -1.
         21    1    1    2  504  501 -0.57660651657E+02 -0.35103830908E+02 -0.90849337158E+02  0.11318406140E+03  0.00000000000E+00 0. -1.
         21    1    1    2  505  504  0.36464853049E+02  0.37444985854E+02 -0.82291113865E+02  0.97486613925E+02  0.00000000000E+00 0. -1.
          1    1    1    2  501    0 -0.28529768484E-01 -0.75496326155E+02 -0.97572968871E+03  0.97864606550E+03  0.00000000000E+00 0. -1.
<scales pt_clust_3="75.43828" pt_clust_4="59.21276" pt_clust_5="52.26674" pt_clust_6="14000.00000"></scales>
<clustering>
<clus scale="   52.267">  1  5  2 -1</clus>
<clus scale="   59.213">  1  4  2 -1</clus>
<clus scale="   75.438">  1  3  2 -1</clus>
<clus scale="   52.267">  1  3  2 -1</clus>
</clustering>
</event>
<event>
 6    0  0.2781617E+002  0.1745293E+03  0.7546771E-02  0.1173205E+00
         21   -1    0    0  504  502  0.00000000000E+00  0.00000000000E+00  0.34135865293E+03  0.34135865293E+03  0.00000000000E+00 0. -1.
          1   -1    0    0  505    0 -0.00000000000E+00 -0.00000000000E+00 -0.33760960624E+03  0.33760960624E+03  0.00000000000E+00 0. -1.
         21    1    1    2  503  502 -0.26758572426E+02 -0.18281284110E+02  0.55939957201E+02  0.64649094028E+02  0.00000000000E+00 0. -1.
         21    1    1    2  504  501 -0.12550257377E+02 -0.19767080428E+03  0.17458078175E+03  0.26402595551E+03  0.00000000000E+00 0. -1.
         21    1    1    2  505  503  0.33903538225E+02  0.44471071742E+02  0.11093447101E+02  0.57010443733E+02  0.00000000000E+00 0.  1.
          1    1    1    2  501    0  0.54052915777E+01  0.17148101665E+03 -0.23786513936E+03  0.29328276590E+03  0.00000000000E+00 0. -1.
<scales pt_clust_3="32.40720" pt_clust_4="14000.00000" pt_clust_5="52.20848" pt_clust_6="174.52928"></scales>
<clustering>
<clus scale="   32.407">  1  3  2 -1</clus>
<clus scale="   52.208">  1  5  2 -1</clus>
<clus scale="  174.529">  2  6  1 -1</clus>
<clus scale="   32.407">  1  3  2 -1</clus>
</clustering>
</event>
<event>
 6    0  0.2781617E+002  0.7494492E+02  0.7546771E-02  0.1344042E+00
          2   -1    0    0  502    0 -0.00000000000E+00  0.00000000000E+00  0.52715092749E+03  0.52715092749E+03  0.00000000000E+00 0.  1.
         21   -1    0    0  505  502  0.00000000000E+00 -0.00000000000E+00 -0.96679857447E+02  0.96679857447E+02  0.00000000000E+00 0.  1.
         21    1    1    2  503  501  0.74722392149E+02  0.38636171808E+02 -0.22067298750E+02  0.86966403482E+02  0.00000000000E+00 0.  1.
         21    1    1    2  504  503 -0.39279963790E+02 -0.40014113298E+02  0.32016027528E+02  0.64568342375E+02  0.00000000000E+00 0.  1.
         21    1    1    2  505  504  0.22744602964E+02 -0.50231941482E+02  0.11995115482E+02  0.56430910895E+02  0.00000000000E+00 0.  1.
          2    1    1    2  501    0 -0.58187031322E+02  0.51609882971E+02  0.40852722579E+03  0.41586512819E+03  0.00000000000E+00 0.  1.
<scales pt_clust_3="14000.00000" pt_clust_4="61.46097" pt_clust_5="55.14132" pt_clust_6="74.94492"></scales>
<clustering>
<clus scale="   55.141">  2  5  1 -1</clus>
<clus scale="   61.461">  2  4  1 -1</clus>
<clus scale="   74.945">  1  6  2 -1</clus>
<clus scale="   55.141">  2  3  1 -1</clus>
</clustering>
</event>
<event>
 6    0  0.2781617E+002  0.2327026E+03  0.7546771E-02  0.1124752E+00
          2   -1    0    0  503    0 -0.00000000000E+00  0.00000000000E+00  0.16835240517E+04  0.16835240517E+04  0.00000000000E+00 0. -1.
         21   -1    0    0  501  502  0.00000000000E+00 -0.00000000000E+00 -0.71847976462E+02  0.71847976462E+02  0.00000000000E+00 0.  1.
         21    1    1    2  503  504 -0.41437805815E+02 -0.14843267049E+03  0.54122734985E+03  0.56274007645E+03  0.00000000000E+00 0.  1.
         21    1    1    2  504  505 -0.11633265444E+03 -0.24091917811E+02  0.24034577946E+03  0.26810408557E+03  0.00000000000E+00 0.  1.
         21    1    1    2  505  502 -0.74515365032E+02 -0.20842506989E+02  0.62164883683E+02  0.99254332332E+02  0.00000000000E+00 0.  1.
          2    1    1    2  501    0  0.23228582528E+03  0.19336709528E+03  0.76793806222E+03  0.82527353379E+03  0.00000000000E+00 0. -1.
<scales pt_clust_3="154.10824" pt_clust_4="57.05120" pt_clust_5="57.05120" pt_clust_6="221.70487"></scales>
<clustering>
<clus scale="   57.051">  4  5 -1 -1</clus>
<clus scale="  154.108">  1  3  2 -1</clus>
<clus scale="  221.705">  1  6  2 -1</clus>
<clus scale="  232.703">  2  3  1 -1</clus>
</clustering>
</event>
<event>
 6    0  0.2781617E+002  0.1959504E+03  0.7546771E-02  0.1153201E+00
          3   -1    0    0  503    0 -0.00000000000E+00  0.00000000000E+00  0.25045355656E+03  0.25045355656E+03  0.00000000000E+00 0. -1.
         21   -1    0    0  504  502  0.00000000000E+00 -0.00000000000E+00 -0.13621075439E+04  0.13621075439E+04  0.00000000000E+00 0. -1.
         21    1    1    2  503  505  0.44172154621E+02 -0.23263788861E+03 -0.19558151365E+03  0.30712162891E+03  0.00000000000E+00 0. -1.
         21    1    1    2  504  501 -0.13759430396E+03  0.91644312269E+02 -0.30342500915E+03  0.34553959054E+03  0.00000000000E+00 0. -1.
         21    1    1    2  505  502  0.61736173514E+02  0.18231823674E+03 -0.77023949677E+03  0.79392706022E+03  0.00000000000E+00 0. -1.
          3    1    1    2  501    0  0.31685975821E+02 -0.41324660395E+02  0.15759203222E+03  0.16597282079E+03  0.00000000000E+00 0. -1.
<scales pt_clust_3="14000.00000" pt_clust_4="153.66968" pt_clust_5="195.95044" pt_clust_6="52.07426"></scales>
<clustering>
<clus scale="   52.074">  1  6  2 -1</clus>
<clus scale="  153.670">  1  4  2 -1</clus>
<clus scale="  195.950">  2  5  1 -1</clus>
<clus scale="  195.950">  2  3  1 -1</clus>
</clustering>
</event>
<event>
 6    0  0.2781617E+002  0.9625594E+02  0.7546771E-02  0.1288372E+00
          2   -1    0    0  502    0 -0.00000000000E+00  0.00000000000E+00  0.99425723725E+03  0.99425723725E+03  0.00000000000E+00 0.  1.
         21   -1    0    0  504  502  0.00000000000E+00 -0.00000000000E+00 -0.16229115222E+03  0.16229115222E+03  0.00000000000E+00 0. -1.
         21    1    1    2  503  501 -0.62149751256E+02  0.23014003347E+02 -0.68034571881E+02  0.94978623396E+02  0.00000000000E+00 0. -1.
         21    1    1    2  504  505 -0.14674875826E+02  0.39879964857E+02  0.49741073917E+00  0.42497188083E+02  0.00000000000E+00 0. -1.
         21    1    1    2  505  503  0.50842108548E+02  0.31641620621E+02 -0.41574946234E+02  0.72901222977E+02  0.00000000000E+00 0. -1.
          2    1    1    2  501    0  0.25982518533E+02 -0.94535588825E+02  0.94107819241E+03  0.94617135502E+03  0.00000000000E+00 0.  1.
<scales pt_clust_3="96.25594" pt_clust_4="42.49428" pt_clust_5="65.57697" pt_clust_6="14000.00000"></scales>
<clustering>
<clus scale="   42.494">  2  4  1 -1</clus>
<clus scale="   65.577">  2  5  1 -1</clus>
<clus scale="   96.256">  2  3  1 -1</clus>
<clus scale="   42.494">  2  3  1 -1</clus>
</clustering>
</event>
<event>
 6    0  0.2781617E+002  0.1800210E+03  0.7546771E-02  0.1167783E+00
         21   -1    0    0  504  502  0.00000000000E+00  0.00000000000E+00  0.15493398342E+04  0.15493398342E+04  0.00000000000E+00 0. -1.
         -3   -1    0    0    0  501 -0.00000000000E+00 -0.00000000000E+00 -0.30009200719E+03  0.30009200719E+03  0.00000000000E+00 0.  1.
         21    1    1    2  503  502  0.91647784162E+02 -0.85425599402E+02  0.44592347080E+03  0.46318958450E+03  0.00000000000E+00 0. -1.
         21    1    1    2  504  501 -0.94697371204E+02  0.57277938798E+02  0.39480088885E+03  0.41001962907E+03  0.00000000000E+00 0.  1.
         21    1    1    2  505  503  0.93119933096E+02 -0.12121966867E+03  0.65593404297E+03  0.67350946447E+03  0.00000000000E+00 0. -1.
         -3    1    1    2    0  505 -0.90070346054E+02  0.14936732927E+03 -0.24741057565E+03  0.30271316330E+03  0.00000000000E+00 0.  1.
<scales pt_clust_3="30.74636" pt_clust_4="110.67228" pt_clust_5="30.74636" pt_clust_6="176.78853"></scales>
<clustering>
<clus scale="   30.746">  3  5 -1 -1</clus>
<clus scale="  110.672">  1  4  2 -1</clus>
<clus scale="  176.789">  2  6  1 -1</clus>
<clus scale="  110.672">  1  3  2 -1</clus>
</clustering>
</event>
<event>
 6    0  0.2781617E+002  0.1357450E+03  0.7546771E-02  0.1219172E+00
         21   -1    0    0  504  502  0.00000000000E+00  0.00000000000E+00  0.10877885047E+03  0.10877885047E+03  0.00000000000E+00 0. -1.
          1   -1    0    0  503    0 -0.00000000000E+00 -0.00000000000E+00 -0.82384026061E+03  0.82384026061E+03  0.00000000000E+00 0.  1.
         21    1    1    2  503  502 -0.18064012788E+01  0.83336934705E+02 -0.11592161037E+03  0.14277999692E+03  0.00000000000E+00 0. -1.
         21    1    1    2  504  505  0.49103364242E+02 -0.20669822473E+02  0.28350596072E+02  0.60350130395E+02  0.00000000000E+00 0. -1.
         21    1    1    2  505  501  0.43907128526E+02 -0.71929082265E+02  0.10520809874E+02  0.84925356939E+02  0.00000000000E+00 0. -1.
          1    1    1    2  501    0 -0.91204091489E+02  0.92619700330E+01 -0.63801120572E+03  0.64456362682E+03  0.00000000000E+00 0.  1.
<scales pt_clust_3="83.35651" pt_clust_4="38.69567" pt_clust_5="38.69567" pt_clust_6="126.72103"></scales>
<clustering>
<clus scale="   38.696">  4  5 -1 -1</clus>
<clus scale="   83.357">  2  3  1 -1</clus>
<clus scale="  126.721">  2  6  1 -1</clus>
<clus scale="  135.745">  1  3  2 -1</clus>
</clustering>
</event>
<event>
 6    0  0.2781617E+002  0.1765991E+03  0.7546771E-02  0.1171136E+00
          2   -1    0    0  504    0 -0.00000000000E+00  0.00000000000E+00  0.16240805140E+04  0.16240805140E+04  0.00000000000E+00 0. -1.
         21   -1    0    0  505  502  0.00000000000E+00 -0.00000000000E+00 -0.31105679809E+03  0.31105679809E+03  0.00000000000E+00 0. -1.
         21    1    1    2  503  502  0.46959220582E+02  0.96048187393E+02 -0.20054245605E+03  0.22726130198E+03  0.00000000000E+00 0. -1.
         21    1    1    2  504  503 -0.18266914789E+02  0.64582767996E+02 -0.74062373130E+02  0.99949233171E+02  0.00000000000E+00 0. -1.
         21    1    1    2  505  501 -0.37530363404E+02 -0.13126431143E+03  0.45880246478E+03  0.47868418537E+03  0.00000000000E+00 0. -1.
          2    1    1    2  501    0  0.88380576110E+01 -0.29366643959E+02  0.11288260803E+04  0.11292425916E+04  0.00000000000E+00 0. -1.
<scales pt_clust_3="56.03411" pt_clust_4="56.03411" pt_clust_5="161.72163" pt_clust_6="30.66775"></scales>
<clustering>
<clus scale="   30.668">  1  6  2 -1</clus>
<clus scale="   56.034">  3  4 -1 -1</clus>
<clus scale="  161.722">  1  5  2 -1</clus>
<clus scale="  176.599">  2  3  1 -1</clus>
</clustering>
</event>
<event>
 6    0  0.2781617E+002  0.1340246E+03  0.7546771E-02  0.1221603E+00
         21   -1    0    0  503  502  0.00000000000E+00  0.00000000000E+00  0.29053299519E+03  0.29053299519E+03  0.00000000000E+00 0. -1.
          1   -1    0    0  504    0 -0.00000000000E+00 -0.00000000000E+00 -0.29521731140E+04  0.29521731140E+04  0.00000000000E+00 0. -1.
         21    1    1    2  503  505 -0.30557474180E+02 -0.63072706771E+02  0.72048364217E+02  0.10051314518E+03  0.00000000000E+00 0. -1.
         21    1    1    2  504  502  0.36926896189E+02 -0.15770406341E+02  0.21471480386E+01  0.40210839621E+02  0.00000000000E+00 0.  1.
         21    1    1    2  505  501  0.90119546249E+02 -0.14901918604E+02  0.17002554961E+03  0.19300851617E+03  0.00000000000E+00 0. -1.
          1    1    1    2  501    0 -0.96488968258E+02  0.93745031716E+02 -0.29058611807E+04  0.29089736082E+04  0.00000000000E+00 0. -1.
<scales pt_clust_3="70.65196" pt_clust_4="40.15347" pt_clust_5="14000.00000" pt_clust_6="134.02462"></scales>
<clustering>
<clus scale="   40.153">  1  4  2 -1</clus>
<clus scale="   70.652">  1  3  2 -1</clus>
<clus scale="  134.025">  2  6  1 -1</clus>
<clus scale="   40.153">  1  3  2 -1</clus>
</clustering>
</event>
<event>
 6    0  0.2781617E+002  0.1589986E+03  0.7546771E-02  0.1189832E+00
         21   -1    0    0  503  502  0.00000000000E+00  0.00000000000E+00  0.63592703827E+02  0.63592703827E+02  0.00000000000E+00 0.  1.
         -2   -1    0    0    0  501 -0.00000000000E+00 -0.00000000000E+00 -0.11246235534E+04  0.11246235534E+04  0.00000000000E+00 0.  1.
         21    1    1    2  503  505  0.31747391505E+02 -0.12043328386E+02 -0.25666304401E+02  0.42564043600E+02  0.00000000000E+00 0.  1.
         21    1    1    2  504  501 -0.12922924874E+03 -0.22147056706E+02 -0.19560087301E+03  0.23547906992E+03  0.00000000000E+00 0.  1.
         21    1    1    2  505  504  0.10800509836E+03  0.84693229626E+02 -0.10298940415E+03  0.17159505175E+03  0.00000000000E+00 0.  1.
         -2    1    1    2    0  502 -0.10523241128E+02 -0.50502844534E+02 -0.73677426798E+03  0.73857809192E+03  0.00000000000E+00 0.  1.
<scales pt_clust_3="33.37694" pt_clust_4="144.14402" pt_clust_5="33.37694" pt_clust_6="51.58756"></scales>
<clustering>
<clus scale="   33.377">  3  5 -1 -1</clus>
<clus scale="   51.588">  2  6  1 -1</clus>
<clus scale="  144.144">  2  4  1 -1</clus>
<clus scale="  158.999">  1  3  2 -1</clus>
</clustering>
</event>
<event>
 6    0  0.2781617E+002  0.1050598E+03  0.7546771E-02  0.1270002E+00
         21   -1    0    0  503  502  0.00000000000E+00  0.00000000000E+00  0.10490561147E+02  0.10490561147E+02  0.00000000000E+00 0.  1.
         -3   -1    0    0    0  501 -0.00000000000E+00 -0.00000000000E+00 -0.20407140129E+04  0.20407140129E+04  0.00000000000E+00 0.  1.
         21    1    1    2  503  505 -0.33359664486E+02 -0.48599800430E+02 -0.23888531679E+03  0.24605081263E+03  0.00000000000E+00 0.  1.
         21    1    1    2  504  502  0.21449428983E+02  0.83500491630E+02 -0.45778939094E+03  0.46583638389E+03  0.00000000000E+00 0.  1.
         21    1    1    2  505  501 -0.45081462208E+02 -0.40779751533E+02 -0.47757461841E+03  0.48142792038E+03  0.00000000000E+00 0.  1.
         -3    1    1    2    0  504  0.56991697711E+02  0.58790603331E+01 -0.85597412565E+03  0.85788945718E+03  0.00000000000E+00 0.  1.
<scales pt_clust_3="41.41457" pt_clust_4="96.27461" pt_clust_5="41.41457" pt_clust_6="57.29413"></scales>
<clustering>
<clus scale="   41.415">  3  5 -1 -1</clus>
<clus scale="   57.294">  2  6  1 -1</clus>
<clus scale="   96.275">  1  4  2 -1</clus>
<clus scale="   96.275">  1  3  2 -1</clus>
</clustering>
</event>
<event>
 6    0  0.2781617E+002  0.1102452E+03  0.7546771E-02  0.1260116E+00
          2   -1    0    0  504    0 -0.00000000000E+00  0.00000000000E+00  0.38722987549E+03  0.38722987549E+03  0.00000000000E+00 0.  1.
         21   -1    0    0  505  502  0.00000000000E+00 -0.00000000000E+00 -0.16748249713E+03  0.16748249713E+03  0.00000000000E+00 0. -1.
         21    1    1    2  503  501  0.76333779294E+02 -0.15690772657E+02 -0.73642689681E+02  0.10722076269E+03  0.00000000000E+00 0. -1.
         21    1    1    2  504  502 -0.36212841340E+02  0.44246903090E+02 -0.99443623851E+01  0.58034891697E+02  0.00000000000E+00 0. -1.
         21    1    1    2  505  503  0.57430429145E+02 -0.10117589524E+02 -0.11414671250E+02  0.59421498881E+02  0.00000000000E+00 0. -1.
          2    1    1    2  501    0 -0.97551367100E+02 -0.18438540910E+02  0.31474910168E+03  0.33003521936E+03  0.00000000000E+00 0.  1.
<scales pt_clust_3="38.45265" pt_clust_4="57.17655" pt_clust_5="38.45265" pt_clust_6="100.88637"></scales>
<clustering>
<clus scale="   38.453">  3  5 -1 -1</clus>
<clus scale="   57.177">  2  4  1 -1</clus>
<clus scale="  100.886">  1  6  2 -1</clus>
<clus scale="   57.177">  2  3  1 -1</clus>
</clustering>
</event>
<event>
 6    0  0.2781617E+002  0.9773543E+02  0.7546771E-02  0.1285131E+00
         21   -1    0    0  503  502  0.00000000000E+00  0.00000000000E+00  0.25522341536E+03  0.25522341536E+03  0.00000000000E+00 0. -1.
          2   -1    0    0  505    0 -0.00000000000E+00 -0.00000000000E+00 -0.41753220477E+03  0.41753220477E+03  0.00000000000E+00 0.  1.
         21    1    1    2  503  504 -0.41596750496E+02  0.22733631357E+01  0.81207466537E+02  0.91269438768E+02  0.00000000000E+00 0. -1.
         21    1    1    2  504  501  0.23306571881E+02 -0.84548799337E+02  0.58068237715E+02  0.10518372495E+03  0.00000000000E+00 0. -1.
         21    1    1    2  505  502  0.14299236902E+02  0.12162487027E+03  0.42745529749E+02  0.12970835578E+03  0.00000000000E+00 0. -1.
          2    1    1    2  501    0  0.39909417135E+01 -0.39349434071E+02 -0.34433002341E+03  0.34659410064E+03  0.00000000000E+00 0.  1.
<scales pt_clust_3="41.32087" pt_clust_4="97.73543" pt_clust_5="14000.00000" pt_clust_6="39.55130"></scales>
<clustering>
<clus scale="   39.551">  2  6  1 -1</clus>
<clus scale="   41.321">  1  3  2 -1</clus>
<clus scale="   97.735">  1  4  2 -1</clus>
<clus scale="   41.321">  1  3  2 -1</clus>
</clustering>
</event>
<event>
 6    0  0.2781617E+002  0.2389987E+03  0.7546771E-02  0.1120462E+00
          1   -1    0    0  505    0 -0.00000000000E+00  0.00000000000E+00  0.30486030707E+03  0.30486030707E+03  0.00000000000E+00 0. -1.
         21   -1    0    0  504  502  0.00000000000E+00 -0.00000000000E+00 -0.22705631581E+03  0.22705631581E+03  0.00000000000E+00 0. -1.
         21    1    1    2  503  501  0.69067342118E+02  0.16536193582E+03  0.23784495629E+02  0.18077768058E+03  0.00000000000E+00 0. -1.
         21    1    1    2  504  503  0.37312880901E+02  0.43300229940E+02 -0.45198254747E+02  0.72870043407E+02  0.00000000000E+00 0. -1.
         21    1    1    2  505  502 -0.51631432000E+02 -0.12088299256E+02  0.37968545799E+02  0.65219185975E+02  0.00000000000E+00 0.  1.
          1    1    1    2  501    0 -0.54748791020E+02 -0.19657386650E+03  0.61249204574E+02  0.21304971291E+03  0.00000000000E+00 0. -1.
<scales pt_clust_3="54.34022" pt_clust_4="54.34022" pt_clust_5="53.02765" pt_clust_6="219.31345"></scales>
<clustering>
<clus scale="   53.028">  1  5  2 -1</clus>
<clus scale="   54.340">  3  4 -1 -1</clus>
<clus scale="  219.313">  1  6  2 -1</clus>
<clus scale="  238.999">  2  3  1 -1</clus>
</clustering>
</event>
<event>
 6    0  0.2781617E+002  0.1340659E+03  0.7546771E-02  0.1221544E+00
         21   -1    0    0  503  502  0.00000000000E+00  0.00000000000E+00  0.38289662910E+04  0.38289662910E+04  0.00000000000E+00 0.  1.
          2   -1    0    0  504    0 -0.00000000000E+00 -0.00000000000E+00 -0.22940940373E+04  0.22940940373E+04  0.00000000000E+00 0. -1.
         21    1    1    2  503  501 -0.12028075776E+03 -0.29051909429E+02  0.35678356135E+04  0.35699807337E+04  0.00000000000E+00 0.  1.
         21    1    1    2  504  505 -0.42206242119E+02  0.75095338101E+01  0.18921864115E+03  0.19401405653E+03  0.00000000000E+00 0.  1.
         21    1    1    2  505  502  0.33549285977E+02 -0.15203597757E+02  0.61373299518E+02  0.71577830842E+02  0.00000000000E+00 0.  1.
          2    1    1    2  501    0  0.12893771390E+03  0.36745973376E+02 -0.22835553005E+04  0.22874877073E+04  0.00000000000E+00 0. -1.
<scales pt_clust_3="134.06588" pt_clust_4="41.05390" pt_clust_5="36.83346" pt_clust_6="14000.00000"></scales>
<clustering>
<clus scale="   36.833">  1  5  2 -1</clus>
<clus scale="   41.054">  1  4  2 -1</clus>
<clus scale="  134.066">  1  3  2 -1</clus>
<clus scale="   36.833">  1  3  2 -1</clus>
</clustering>
</event>
<event>
 6    0  0.2781617E+002  0.1321905E+03  0.7546771E-02  0.1224241E+00
         21   -1    0    0  503  502  0.00000000000E+00  0.00000000000E+00  0.50027496764E+03  0.50027496764E+03  0.00000000000E+00 0.  1.
         -1   -1    0    0    0  501 -0.00000000000E+00 -0.00000000000E+00 -0.15884138207E+03  0.15884138207E+03  0.00000000000E+00 0.  1.
         21    1    1    2  503  501  0.65094865078E+02 -0.12362053031E+02  0.10045247691E+03  0.12033645305E+03  0.00000000000E+00 0. -1.
         21    1    1    2  504  505 -0.12386409131E+02 -0.64106395073E+02  0.23367879269E+03  0.24262899903E+03  0.00000000000E+00 0.  1.
         21    1    1    2  505  502  0.22782300088E+02 -0.28386730534E+02  0.11956906228E+03  0.12498640055E+03  0.00000000000E+00 0.  1.
         -1    1    1    2    0  504 -0.75490756034E+02  0.10485517864E+03 -0.11226674631E+03  0.17116449708E+03  0.00000000000E+00 0.  1.
<scales pt_clust_3="66.25830" pt_clust_4="30.73018" pt_clust_5="30.73018" pt_clust_6="125.61985"></scales>
<clustering>
<clus scale="   30.730">  4  5 -1 -1</clus>
<clus scale="   66.258">  1  3  2 -1</clus>
<clus scale="  125.620">  2  6  1 -1</clus>
<clus scale="   66.258">  1  3  2 -1</clus>
</clustering>
</event>
<event>
 6    0  0.2781617E+002  0.2122241E+03  0.7546771E-02  0.1139817E+00
          1   -1    0    0  504    0 -0.00000000000E+00  0.00000000000E+00  0.15270605844E+04  0.15270605844E+04  0.00000000000E+00 0.  1.
         21   -1    0    0  503  502  0.00000000000E+00 -0.00000000000E+00 -0.47819562874E+03  0.47819562874E+03  0.00000000000E+00 0. -1.
         21    1    1    2  503  501  0.82947637257E+02 -0.15865265922E+03  0.12351660843E+03  0.21750248127E+03  0.00000000000E+00 0. -1.
         21    1    1    2  504  505 -0.16168022321E+03  0.15078025641E+03 -0.30505064144E+03  0.37673740741E+03  0.00000000000E+00 0. -1.
         21    1    1    2  505  502  0.44083168615E+02  0.38285091515E+02 -0.80423591967E+02  0.99383238689E+02  0.00000000000E+00 0.  1.
          1    1    1    2  501    0  0.34649417337E+02 -0.30412688705E+02  0.13108225807E+04  0.13116330858E+04  0.00000000000E+00 0.  1.
<scales pt_clust_3="212.22408" pt_clust_4="14000.00000" pt_clust_5="58.69473" pt_clust_6="46.10329"></scales>
<clustering>
<clus scale="   46.103">  1  6  2 -1</clus>
<clus scale="   58.695">  2  5  1 -1</clus>
<clus scale="  212.224">  1  3  2 -1</clus>
<clus scale="   58.695">  2  3  1 -1</clus>
</clustering>
</event>
<event>
 6    0  0.2781617E+002  0.1584761E+03  0.7546771E-02  0.1190428E+00
         -1   -1    0    0    0  501 -0.00000000000E+00  0.00000000000E+00  0.10501667279E+04  0.10501667279E+04  0.00000000000E+00 0.  1.
         21   -1    0    0  505  502  0.00000000000E+00 -0.00000000000E+00 -0.42662177363E+03  0.42662177363E+03  0.00000000000E+00 0. -1.
         21    1    1    2  503  504 -0.94797803735E+02  0.65275325166E+02 -0.51065537314E+02  0.12591735690E+03  0.00000000000E+00 0. -1.
         21    1    1    2  504  502 -0.52761281535E+02  0.89239460406E+01 -0.31849241730E+03  0.32295635853E+03  0.00000000000E+00 0. -1.
         21    1    1    2  505  501 -0.28612647444E+02 -0.16010234747E+02  0.22564001147E+02  0.39801323573E+02  0.00000000000E+00 0.  1.
         -1    1    1    2    0  503  0.17617173271E+03 -0.58189036460E+02  0.97053890776E+03  0.98811346253E+03  0.00000000000E+00 0.  1.
<scales pt_clust_3="158.47607" pt_clust_4="53.56662" pt_clust_5="32.78736" pt_clust_6="14000.00000"></scales>
<clustering>
<clus scale="   32.787">  1  5  2 -1</clus>
<clus scale="   53.567">  2  4  1 -1</clus>
<clus scale="  158.476">  2  3  1 -1</clus>
<clus scale="   53.567">  2  3  1 -1</clus>
</clustering>
</event>
<event>
 6    0  0.2781617E+002  0.1012125E+03  0.7546771E-02  0.1277767E+00
          2   -1    0    0  505    0 -0.00000000000E+00  0.00000000000E+00  0.29107388337E+03  0.29107388337E+03  0.00000000000E+00 0.  1.
         21   -1    0    0  503  502  0.00000000000E+00 -0.00000000000E+00 -0.31024211529E+04  0.31024211529E+04  0.00000000000E+00 0.  1.
         21    1    1    2  503  501 -0.27987650283E+02 -0.21987743821E+02 -0.15338683833E+03  0.15746203231E+03  0.00000000000E+00 0. -1.
         21    1    1    2  504  502  0.10421542612E+03 -0.48091124269E+02 -0.20010012531E+04  0.20042903049E+04  0.00000000000E+00 0.  1.
         21    1    1    2  505  504 -0.87366649178E+02  0.32228553759E+02 -0.94068686142E+03  0.94528481545E+03  0.00000000000E+00 0.  1.
          2    1    1    2  501    0  0.11138873344E+02  0.37850314331E+02  0.28372768334E+03  0.28645788362E+03  0.00000000000E+00 0.  1.
<scales pt_clust_3="35.59170" pt_clust_4="14000.00000" pt_clust_5="101.21247" pt_clust_6="39.44187"></scales>
<clustering>
<clus scale="   35.592">  2  3  1 -1</clus>
<clus scale="   39.442">  1  6  2 -1</clus>
<clus scale="  101.212">  1  5  2 -1</clus>
<clus scale="   35.592">  2  3  1 -1</clus>
</clustering>
</event>
<event>
 6    0  0.2781617E+002  0.3353072E+03  0.7546771E-02  0.1068812E+00
         21   -1    0    0  501  502  0.00000000000E+00  0.00000000000E+00  0.39747008398E+03  0.39747008398E+03  0.00000000000E+00 0.  1.
          1   -1    0    0  504    0 -0.00000000000E+00 -0.00000000000E+00 -0.51291373166E+03  0.51291373166E+03  0.00000000000E+00 0. -1.
         21    1    1    2  503  505 -0.14736906959E+02  0.70552545504E+02  0.19223443650E+02  0.74594764492E+02  0.00000000000E+00 0. -1.
         21    1    1    2  504  503 -0.64991696311E+02  0.17223714158E+02 -0.16987197921E+02  0.69347976264E+02  0.00000000000E+00 0. -1.
         21    1    1    2  505  502 -0.11944298237E+03  0.22063599461E+03  0.16740768467E+03  0.30161598274E+03  0.00000000000E+00 0.  1.
          1    1    1    2  501    0  0.19917158564E+03 -0.30841225427E+03 -0.28508757808E+03  0.46482509215E+03  0.00000000000E+00 0. -1.
<scales pt_clust_3="33.50778" pt_clust_4="67.23524" pt_clust_5="33.50778" pt_clust_6="329.42770"></scales>
<clustering>
<clus scale="   33.508">  3  5 -1 -1</clus>
<clus scale="   67.235">  2  4  1 -1</clus>
<clus scale="  329.428">  2  6  1 -1</clus>
<clus scale="  335.307">  1  3  2 -1</clus>
</clustering>
</event>
<event>
 6    0  0.2781617E+002  0.1730232E+03  0.7546771E-02  0.1174731E+00
         -2   -1    0    0    0  501 -0.00000000000E+00  0.00000000000E+00  0.82892764192E+03  0.82892764192E+03  0.00000000000E+00 0. -1.
         21   -1    0    0  503  502  0.00000000000E+00 -0.00000000000E+00 -0.26739674474E+04  0.26739674474E+04  0.00000000000E+00 0.  1.
         21    1    1    2  503  505  0.23830671865E+01  0.63253322100E+02 -0.23002449646E+03  0.23857479066E+03  0.00000000000E+00 0.  1.
         21    1    1    2  504  502  0.44002558737E+02 -0.16205226723E+03 -0.22648585336E+04  0.22710749304E+04  0.00000000000E+00 0.  1.
         21    1    1    2  505  501 -0.57083960740E+02  0.47901253181E+02 -0.16274492500E+03  0.17899446707E+03  0.00000000000E+00 0.  1.
         -2    1    1    2    0  504  0.10698334817E+02  0.50897691953E+02  0.81258814950E+03  0.81425090121E+03  0.00000000000E+00 0. -1.
<scales pt_clust_3="63.71782" pt_clust_4="158.70821" pt_clust_5="63.71782" pt_clust_6="52.00990"></scales>
<clustering>
<clus scale="   52.010">  1  6  2 -1</clus>
<clus scale="   63.718">  3  5 -1 -1</clus>
<clus scale="  158.708">  2  4  1 -1</clus>
<clus scale="  158.708">  2  3  1 -1</clus>
</clustering>
</event>
<event>
 6    0  0.2781617E+002  0.9988644E+02  0.7546771E-02  0.1280535E+00
          3   -1    0    0  503    0 -0.00000000000E+00  0.00000000000E+00  0.84691205644E+03  0.84691205644E+03  0.00000000000E+00 0. -1.
         21   -1    0    0  505  502  0.00000000000E+00 -0.00000000000E+00 -0.12715618726E+04  0.12715618726E+04  0.00000000000E+00 0. -1.
         21    1    1    2  503  504  0.35875544026E+01  0.66635036033E+02 -0.46093827004E+03  0.46574369277E+03  0.00000000000E+00 0. -1.
         21    1    1    2  504  502 -0.99787816472E+01  0.29543955691E+02 -0.62699424429E+03  0.62776922812E+03  0.00000000000E+00 0. -1.
         21    1    1    2  505  501 -0.93012858758E+02 -0.83713139181E+02 -0.15576733322E+03  0.19980676581E+03  0.00000000000E+00 0.  1.
          3    1    1    2  501    0  0.99404086003E+02 -0.12465852543E+02  0.81905003137E+03  0.82515424236E+03  0.00000000000E+00 0. -1.
<scales pt_clust_3="87.95848" pt_clust_4="31.18367" pt_clust_5="14000.00000" pt_clust_6="99.88644"></scales>
<clustering>
<clus scale="   31.184">  2  4  1 -1</clus>
<clus scale="   87.958">  2  3  1 -1</clus>
<clus scale="   99.886">  1  6  2 -1</clus>
<clus scale="   31.184">  2  3  1 -1</clus>
</clustering>
</event>
<event>
 6    0  0.2781617E+002  0.1401481E+03  0.7546771E-02  0.1213130E+00
          1   -1    0    0  504    0 -0.00000000000E+00  0.00000000000E+00  0.13785032487E+04  0.13785032487E+04  0.00000000000E+00 0.  1.
         21   -1    0    0  501  502  0.00000000000E+00 -0.00000000000E+00 -0.56069807982E+02  0.56069807982E+02  0.00000000000E+00 0. -1.
         21    1    1    2  503  502  0.10557022619E+02 -0.54952688597E+02 -0.86129535905E+01  0.56616531863E+02  0.00000000000E+00 0. -1.
         21    1    1    2  504  505 -0.36772262742E+02 -0.33351371467E+02  0.66222290458E+02  0.82764153106E+02  0.00000000000E+00 0. -1.
         21    1    1    2  505  503 -0.12864496665E+02 -0.52162021621E+02  0.55988001598E+02  0.77595283987E+02  0.00000000000E+00 0. -1.
          1    1    1    2  501    0  0.39079736787E+02  0.14046608169E+03  0.12088361022E+04  0.12175970877E+04  0.00000000000E+00 0.  1.
<scales pt_clust_3="55.95756" pt_clust_4="30.45030" pt_clust_5="30.45030" pt_clust_6="136.52125"></scales>
<clustering>
<clus scale="   30.450">  4  5 -1 -1</clus>
<clus scale="   55.958">  2  3  1 -1</clus>
<clus scale="  136.521">  1  6  2 -1</clus>
<clus scale="   55.958">  2  3  1 -1</clus>
</clustering>
</event>
<event>
 6    0  0.2781617E+002  0.1363225E+03  0.7546771E-02  0.1218365E+00
          2   -1    0    0  505    0 -0.00000000000E+00  0.00000000000E+00  0.92771034646E+03  0.92771034646E+03  0.00000000000E+00 0. -1.
         21   -1    0    0  501  502  0.00000000000E+00 -0.00000000000E+00 -0.10555928586E+03  0.10555928586E+03  0.00000000000E+00 0. -1.
         21    1    1    2  503  504  0.93330250219E+00  0.71633495169E+02  0.30744304937E+00  0.71640234540E+02  0.00000000000E+00 0. -1.
         21    1    1    2  504  502 -0.14132246777E+02  0.53529954513E+02 -0.47984673793E+02  0.73264625489E+02  0.00000000000E+00 0. -1.
         21    1    1    2  505  503 -0.28704303693E+02 -0.13375072903E+02  0.45493804901E+02  0.55430279722E+02  0.00000000000E+00 0.  1.
          2    1    1    2  501    0  0.41903247967E+02 -0.11178837678E+03  0.82433448644E+03  0.83293449257E+03  0.00000000000E+00 0. -1.
<scales pt_clust_3="47.36160" pt_clust_4="47.36160" pt_clust_5="31.66749" pt_clust_6="125.29817"></scales>
<clustering>
<clus scale="   31.667">  1  5  2 -1</clus>
<clus scale="   47.362">  3  4 -1 -1</clus>
<clus scale="  125.298">  1  6  2 -1</clus>
<clus scale="  136.323">  2  3  1 -1</clus>
</clustering>
</event>
<event>
 6    0  0.2781617E+002  0.2655672E+03  0.7546771E-02  0.1103844E+00
          2   -1    0    0  505    0 -0.00000000000E+00  0.00000000000E+00  0.21971414869E+04  0.21971414869E+04  0.00000000000E+00 0. -1.
         21   -1    0    0  501  502  0.00000000000E+00 -0.00000000000E+00 -0.32748512100E+02  0.32748512100E+02  0.00000000000E+00 0. -1.
         21    1    1    2  503  502  0.38747864952E+02  0.14142473956E+02  0.15281434214E+03  0.15828338438E+03  0.00000000000E+00 0.  1.
         21    1    1    2  504  503  0.56194602224E+02  0.15769606638E+03  0.88350826338E+03  0.89922896647E+03  0.00000000000E+00 0. -1.
         21    1    1    2  505  504  0.26006843856E+02  0.29904015632E+02  0.50226526091E+03  0.50382635739E+03  0.00000000000E+00 0.  1.
          2    1    1    2  501    0 -0.12094931103E+03 -0.20174255596E+03  0.62580510839E+03  0.66855129079E+03  0.00000000000E+00 0. -1.
<scales pt_clust_3="37.88527" pt_clust_4="38.82955" pt_clust_5="38.82955" pt_clust_6="235.22074"></scales>
<clustering>
<clus scale="   37.885">  3  4 -1 -1</clus>
<clus scale="   38.830">  3  5 -1 -1</clus>
<clus scale="  235.221">  2  6  1 -1</clus>
<clus scale="  235.221">  2  3  1 -1</clus>
</clustering>
</event>
<event>
 6    0  0.2781617E+002  0.1219527E+03  0.7546771E-02  0.1239910E+00
         21   -1    0    0  503  502  0.00000000000E+00  0.00000000000E+00  0.12176710611E+03  0.12176710611E+03  0.00000000000E+00 0. -1.
          1   -1    0    0  505    0 -0.00000000000E+00 -0.00000000000E+00 -0.57137219249E+03  0.57137219249E+03  0.00000000000E+00 0. -1.
         21    1    1    2  503  504 -0.13682206303E+02  0.64959549926E+02  0.41176234573E+01  0.66512410262E+02  0.00000000000E+00 0. -1.
         21    1    1    2  504  501 -0.20549209704E+02  0.45869773177E+02  0.33355557995E+02  0.60323290361E+02  0.00000000000E+00 0. -1.
         21    1    1    2  505  502 -0.81862470632E+01 -0.12396326246E+03 -0.61877027443E+02  0.13879002704E+03  0.00000000000E+00 0. -1.
          1    1    1    2  501    0  0.42417663070E+02  0.13133939358E+02 -0.42520124039E+03  0.42751357093E+03  0.00000000000E+00 0. -1.
<scales pt_clust_3="30.49360" pt_clust_4="30.49360" pt_clust_5="116.80900" pt_clust_6="44.40449"></scales>
<clustering>
<clus scale="   30.494">  3  4 -1 -1</clus>
<clus scale="   44.404">  2  6  1 -1</clus>
<clus scale="  116.809">  2  5  1 -1</clus>
<clus scale="  121.953">  1  3  2 -1</clus>
</clustering>
</event>
<event>
 6    0  0.2781617E+002  0.1382201E+03  0.7546771E-02  0.1215744E+00
         21   -1    0    0  503  502  0.00000000000E+00  0.00000000000E+00  0.60122996909E+02  0.60122996909E+02  0.00000000000E+00 0. -1.
          2   -1    0    0  504    0 -0.00000000000E+00 -0.00000000000E+00 -0.21702946977E+04  0.21702946977E+04  0.00000000000E+00 0. -1.
         21    1    1    2  503  501  0.28171939063E+02 -0.22066015210E+02 -0.10253681744E+03  0.10860186973E+03  0.00000000000E+00 0.  1.
         21    1    1    2  504  505  0.91020464791E+02 -0.46187539767E+01 -0.11340650039E+04  0.11377211833E+04  0.00000000000E+00 0. -1.
         21    1    1    2  505  502 -0.12900926429E+03  0.60727945414E+02 -0.37717895030E+02  0.14749207854E+03  0.00000000000E+00 0. -1.
          2    1    1    2  501    0  0.98168604343E+01 -0.34043176228E+02 -0.83585198445E+03  0.83660256305E+03  0.00000000000E+00 0. -1.
<scales pt_clust_3="38.09315" pt_clust_4="14000.00000" pt_clust_5="138.22009" pt_clust_6="35.43033"></scales>
<clustering>
<clus scale="   35.430">  2  6  1 -1</clus>
<clus scale="   38.093">  2  3  1 -1</clus>
<clus scale="  138.220">  1  5  2 -1</clus>
<clus scale="  138.220">  1  3  2 -1</clus>
</clustering>
</event>
<event>
 6    0  0.2781617E+002  0.1077891E+03  0.7546771E-02  0.1264720E+00
         -1   -1    0    0    0  501 -0.00000000000E+00  0.00000000000E+00  0.67733876436E+03  0.67733876436E+03  0.00000000000E+00 0.  1.
         21   -1    0    0  504  502  0.00000000000E+00 -0.00000000000E+00 -0.17650656318E+03  0.17650656318E+03  0.00000000000E+00 0. -1.
         21    1    1    2  503  501 -0.39029676703E+02 -0.59615130779E+02  0.34273075188E+02  0.79069103727E+02  0.00000000000E+00 0. -1.
         21    1    1    2  504  505  0.15375977931E+02 -0.28676064971E+02 -0.85139611523E+02  0.91145437899E+02  0.00000000000E+00 0. -1.
         21    1    1    2  505  503 -0.35836874987E+02 -0.12359960550E+02 -0.54429268527E+02  0.66329446749E+02  0.00000000000E+00 0. -1.
         -1    1    1    2    0  502  0.59490573759E+02  0.10065115630E+03  0.60612800604E+03  0.61730133916E+03  0.00000000000E+00 0.  1.
<scales pt_clust_3="14000.00000" pt_clust_4="32.53825" pt_clust_5="40.77638" pt_clust_6="107.78907"></scales>
<clustering>
<clus scale="   32.538">  2  4  1 -1</clus>
<clus scale="   40.776">  2  5  1 -1</clus>
<clus scale="  107.789">  1  6  2 -1</clus>
<clus scale="   32.538">  2  3  1 -1</clus>
</clustering>
</event>
<event>
 6    0  0.2781617E+002  0.1017341E+03  0.7546771E-02  0.1276691E+00
         21   -1    0    0  503  502  0.00000000000E+00  0.00000000000E+00  0.35062190545E+02  0.35062190545E+02  0.00000000000E+00 0. -1.
          1   -1    0    0  504    0 -0.00000000000E+00 -0.00000000000E+00 -0.19525163228E+04  0.19525163228E+04  0.00000000000E+00 0.  1.
         21    1    1    2  503  501 -0.63771900166E+02  0.10575099971E+03 -0.14754922278E+03  0.19240816597E+03  0.00000000000E+00 0. -1.
         21    1    1    2  504  505  0.36407194421E+02 -0.68615633218E+02 -0.18892455293E+03  0.20426961504E+03  0.00000000000E+00 0.  1.
         21    1    1    2  505  502  0.31516415722E+02  0.22312814900E+02 -0.80965818223E+02  0.89702897887E+02  0.00000000000E+00 0. -1.
          1    1    1    2  501    0 -0.41517099765E+01 -0.59448181396E+02 -0.15000145383E+04  0.15011978344E+04  0.00000000000E+00 0.  1.
<scales pt_clust_3="101.73406" pt_clust_4="14000.00000" pt_clust_5="38.61536" pt_clust_6="59.12441"></scales>
<clustering>
<clus scale="   38.615">  1  5  2 -1</clus>
<clus scale="   59.124">  2  6  1 -1</clus>
<clus scale="  101.734">  1  3  2 -1</clus>
<clus scale="   38.615">  1  3  2 -1</clus>
</clustering>
</event>
<event>
 6    0  0.2781617E+002  0.2134448E+03  0.7546771E-02  0.1138867E+00
         21   -1    0    0  504  502  0.00000000000E+00  0.00000000000E+00  0.46916213457E+02  0.46916213457E+02  0.00000000000E+00 0. -1.
          2   -1    0    0  505    0 -0.00000000000E+00 -0.00000000000E+00 -0.16423164817E+04  0.16423164817E+04  0.00000000000E+00 0. -1.
         21    1    1    2  503  502  0.30517656120E+02  0.90171636349E+01 -0.78639820092E+02  0.84834296597E+02  0.00000000000E+00 0. -1.
         21    1    1    2  504  501  0.67883722473E+02  0.19158922062E+03 -0.29400203352E+03  0.35742387294E+03  0.00000000000E+00 0. -1.
         21    1    1    2  505  503  0.20532873056E+02 -0.26479453823E+02 -0.15187802613E+03  0.15553036736E+03  0.00000000000E+00 0. -1.
          2    1    1    2  501    0 -0.11893425165E+03 -0.17412693043E+03 -0.10708803885E+04  0.10914441583E+04  0.00000000000E+00 0. -1.
<scales pt_clust_3="31.82195" pt_clust_4="213.44478" pt_clust_5="34.01244" pt_clust_6="14000.00000"></scales>
<clustering>
<clus scale="   31.822">  1  3  2 -1</clus>
<clus scale="   34.012">  2  5  1 -1</clus>
<clus scale="  213.445">  1  4  2 -1</clus>
<clus scale="   31.822">  1  3  2 -1</clus>
</clustering>
</event>
<event>
 6    0  0.3094237E+002  0.9596891E+02  0.7546771E-02  0.1289009E+00
         21   -1    0    0  505  502  0.00000000000E+00  0.00000000000E+00  0.93413261402E+02  0.93413261402E+02  0.00000000000E+00 0. -1.
         -1   -1    0    0    0  501 -0.00000000000E+00 -0.00000000000E+00 -0.11347641613E+04  0.11347641613E+04  0.00000000000E+00 0.  1.
         21    1    1    2  503  504  0.81313681820E+02 -0.57787146554E+02  0.42661723427E+02  0.10849558426E+03  0.00000000000E+00 0. -1.
         21    1    1    2  504  502  0.12478396572E+02  0.34037682943E+02 -0.17153275771E+02  0.40106222844E+02  0.00000000000E+00 0. -1.
         21    1    1    2  505  501 -0.17918814970E+02 -0.26960164871E+02 -0.56605195527E+02  0.65207994758E+02  0.00000000000E+00 0.  1.
         -1    1    1    2    0  503 -0.75873263422E+02  0.50709628482E+02 -0.10102541520E+04  0.10143676208E+04  0.00000000000E+00 0.  1.
<scales pt_clust_3="95.96891" pt_clust_4="35.41420" pt_clust_5="32.37182" pt_clust_6="14000.00000"></scales>
<clustering>
<clus scale="   32.372">  2  5  1 -1</clus>
<clus scale="   35.414">  1  4  2 -1</clus>
<clus scale="   95.969">  1  3  2 -1</clus>
<clus scale="   35.414">  1  3  2 -1</clus>
</clustering>
</event>
<event>
 6    0  0.2781617E+002  0.2611094E+03  0.7546771E-02  0.1106479E+00
         21   -1    0    0  505  502  0.00000000000E+00  0.00000000000E+00  0.33352111869E+03  0.33352111869E+03  0.00000000000E+00 0.  1.
          2   -1    0    0  503    0 -0.00000000000E+00 -0.00000000000E+00 -0.93506087950E+03  0.93506087950E+03  0.00000000000E+00 0.  1.
         21    1    1    2  503  502 -0.39715089550E+02  0.86349334552E+02 -0.77850667655E+02  0.12285854618E+03  0.00000000000E+00 0. -1.
         21    1    1    2  504  501  0.52143871259E+02 -0.66966308809E+02  0.47146310276E+02  0.97088847959E+02  0.00000000000E+00 0.  1.
         21    1    1    2  505  504  0.16808583686E+03 -0.52742237982E+02  0.19401581487E+03  0.26206245180E+03  0.00000000000E+00 0.  1.
          2    1    1    2  501    0 -0.18051461857E+03  0.33359212239E+02 -0.76485121830E+03  0.78657215225E+03  0.00000000000E+00 0.  1.
<scales pt_clust_3="95.04470" pt_clust_4="62.07945" pt_clust_5="62.07945" pt_clust_6="245.31387"></scales>
<clustering>
<clus scale="   62.079">  4  5 -1 -1</clus>
<clus scale="   95.045">  2  3  1 -1</clus>
<clus scale="  245.314">  2  6  1 -1</clus>
<clus scale="  261.109">  1  3  2 -1</clus>
</clustering>
</event>
<event>
 6    0  0.2781617E+002  0.1021365E+03  0.7546771E-02  0.1275866E+00
         21   -1    0    0  505  502  0.00000000000E+00  0.00000000000E+00  0.13450518696E+03  0.13450518696E+03  0.00000000000E+00 0.  1.
          2   -1    0    0  503    0 -0.00000000000E+00 -0.00000000000E+00 -0.30927623821E+04  0.30927623821E+04  0.00000000000E+00 0.  1.
         21    1    1    2  503  502 -0.48888164176E+02  0.40265238687E+01 -0.29297020829E+02  0.57136511273E+02  0.00000000000E+00 0.  1.
         21    1    1    2  504  501  0.88897614210E+02 -0.11329694882E+03 -0.16456855799E+03  0.21868194874E+03  0.00000000000E+00 0.  1.
         21    1    1    2  505  504 -0.33881769213E+02  0.53483570112E+02  0.82505872936E+02  0.10399848857E+03  0.00000000000E+00 0.  1.
          2    1    1    2  501    0 -0.61276808205E+01  0.55786854844E+02 -0.28468974893E+04  0.28474506205E+04  0.00000000000E+00 0.  1.
<scales pt_clust_3="49.05370" pt_clust_4="102.13653" pt_clust_5="14000.00000" pt_clust_6="56.14391"></scales>
<clustering>
<clus scale="   49.054">  1  3  2 -1</clus>
<clus scale="   56.144">  2  6  1 -1</clus>
<clus scale="  102.137">  2  4  1 -1</clus>
<clus scale="   49.054">  1  3  2 -1</clus>
</clustering>
</event>
<event>
 6    0  0.2781617E+002  0.1094398E+03  0.7546771E-02  0.1261611E+00
         -4   -1    0    0    0  501 -0.00000000000E+00  0.00000000000E+00  0.13247168256E+04  0.13247168256E+04  0.00000000000E+00 0.  1.
         21   -1    0    0  505  502  0.00000000000E+00 -0.00000000000E+00 -0.72925281628E+02  0.72925281628E+02  0.00000000000E+00 0.  1.
         21    1    1    2  503  502  0.55271830080E+02  0.16534333534E+02 -0.72229733120E+01  0.58142331647E+02  0.00000000000E+00 0.  1.
         21    1    1    2  504  501  0.20399626715E+02 -0.39650985591E+02  0.14127167684E+02  0.46775231643E+02  0.00000000000E+00 0. -1.
         21    1    1    2  505  504 -0.21234133547E+02 -0.62573697852E+02  0.28258118314E+02  0.71867081066E+02  0.00000000000E+00 0.  1.
         -4    1    1    2    0  503 -0.54437323248E+02  0.85690349909E+02  0.12166292313E+04  0.12208574629E+04  0.00000000000E+00 0.  1.
<scales pt_clust_3="57.69194" pt_clust_4="35.13084" pt_clust_5="35.13084" pt_clust_6="100.73814"></scales>
<clustering>
<clus scale="   35.131">  4  5 -1 -1</clus>
<clus scale="   57.692">  2  3  1 -1</clus>
<clus scale="  100.738">  1  6  2 -1</clus>
<clus scale="   57.692">  2  3  1 -1</clus>
</clustering>
</event>
<event>
 6    0  0.2781617E+002  0.1459068E+03  0.7546771E-02  0.1205595E+00
         21   -1    0    0  501  502  0.00000000000E+00  0.00000000000E+00  0.37735857935E+02  0.37735857935E+02  0.00000000000E+00 0. -1.
          2   -1    0    0  505    0 -0.00000000000E+00 -0.00000000000E+00 -0.12152560043E+04  0.12152560043E+04  0.00000000000E+00 0. -1.
         21    1    1    2  503  504 -0.49799187106E+02  0.88830891421E+02 -0.12291828948E+03  0.15962390860E+03  0.00000000000E+00 0. -1.
         21    1    1    2  504  502 -0.44103841624E+02  0.16199665005E+02 -0.28320564426E+02  0.54860116311E+02  0.00000000000E+00 0. -1.
         21    1    1    2  505  503  0.47565976130E+02 -0.10167260619E+03 -0.70288923432E+03  0.71179569868E+03  0.00000000000E+00 0. -1.
          2    1    1    2  501    0  0.46337052599E+02 -0.33579502356E+01 -0.32339205814E+03  0.32671213865E+03  0.00000000000E+00 0. -1.
<scales pt_clust_3="38.90709" pt_clust_4="38.90709" pt_clust_5="134.19305" pt_clust_6="46.45857"></scales>
<clustering>
<clus scale="   38.907">  3  4 -1 -1</clus>
<clus scale="   46.459">  2  6  1 -1</clus>
<clus scale="  134.193">  2  5  1 -1</clus>
<clus scale="  145.907">  1  3  2 -1</clus>
</clustering>
</event>
<event>
 6    0  0.2781617E+002  0.9834539E+02  0.7546771E-02  0.1283814E+00
         -4   -1    0    0    0  501 -0.00000000000E+00  0.00000000000E+00  0.83760975338E+03  0.83760975338E+03  0.00000000000E+00 0. -1.
         21   -1    0    0  503  502  0.00000000000E+00 -0.00000000000E+00 -0.47548037632E+02  0.47548037632E+02  0.00000000000E+00 0. -1.
         21    1    1    2  503  505 -0.64934168675E+01  0.37433023987E+02  0.64236675896E+02  0.74630732796E+02  0.00000000000E+00 0. -1.
         21    1    1    2  504  502  0.42807190879E+02  0.76934856260E+02  0.23491462194E+02  0.91122316118E+02  0.00000000000E+00 0. -1.
         21    1    1    2  505  501 -0.10290156054E+02 -0.83287034344E+02  0.22148727469E+03  0.23685276070E+03  0.00000000000E+00 0. -1.
         -4    1    1    2    0  504 -0.26023617957E+02 -0.31080845904E+02  0.48084630297E+03  0.48255198140E+03  0.00000000000E+00 0. -1.
<scales pt_clust_3="37.99205" pt_clust_4="14000.00000" pt_clust_5="98.34539" pt_clust_6="40.04723"></scales>
<clustering>
<clus scale="   37.992">  2  3  1 -1</clus>
<clus scale="   40.047">  1  6  2 -1</clus>
<clus scale="   98.345">  1  5  2 -1</clus>
<clus scale="   37.992">  2  3  1 -1</clus>
</clustering>
</event>
<event>
 6    0  0.3102156E+002  0.1361013E+03  0.7546771E-02  0.1218673E+00
         21   -1    0    0  504  502  0.00000000000E+00  0.00000000000E+00  0.74161075452E+03  0.74161075452E+03  0.00000000000E+00 0. -1.
          2   -1    0    0  503    0 -0.00000000000E+00 -0.00000000000E+00 -0.18486354887E+04  0.18486354887E+04  0.00000000000E+00 0. -1.
         21    1    1    2  503  502  0.49365559319E+02  0.44879356826E+02  0.22858078499E+02  0.70523803560E+02  0.00000000000E+00 0. -1.
         21    1    1    2  504  505  0.31871665057E+02  0.10609525580E+02  0.53685071559E+03  0.53790060039E+03  0.00000000000E+00 0. -1.
         21    1    1    2  505  501  0.40371620126E+02  0.14274699012E+02  0.15188574003E+03  0.15780656757E+03  0.00000000000E+00 0. -1.
          2    1    1    2  501    0 -0.12160884450E+03 -0.69763581418E+02 -0.18186192683E+04  0.18240152717E+04  0.00000000000E+00 0. -1.
<scales pt_clust_3="136.10132" pt_clust_4="33.59115" pt_clust_5="68.28622" pt_clust_6="14000.00000"></scales>
<clustering>
<clus scale="   33.591">  1  4  2 -1</clus>
<clus scale="   68.286">  1  5  2 -1</clus>
<clus scale="  136.101">  1  3  2 -1</clus>
<clus scale="   33.591">  1  3  2 -1</clus>
</clustering>
</event>
<event>
 6    0  0.4526017E+002  0.1346037E+03  0.7546771E-02  0.1220780E+00
         21   -1    0    0  504  502  0.00000000000E+00  0.00000000000E+00  0.32936891442E+03  0.32936891442E+03  0.00000000000E+00 0. -1.
          2   -1    0    0  505    0 -0.00000000000E+00 -0.00000000000E+00 -0.10846463637E+04  0.10846463637E+04  0.00000000000E+00 0. -1.
         21    1    1    2  503  502  0.21561165129E+02  0.38636229367E+02  0.29559146066E+02  0.53210761858E+02  0.00000000000E+00 0. -1.
         21    1    1    2  504  501  0.58948047394E+02 -0.52419470768E+01  0.25542333155E+03  0.26218968058E+03  0.00000000000E+00 0. -1.
         21    1    1    2  505  503  0.13860852630E+02  0.56167676675E+02 -0.82520239318E+01  0.58438232670E+02  0.00000000000E+00 0. -1.
          2    1    1    2  501    0 -0.94370065153E+02 -0.89561958965E+02 -0.10320079030E+04  0.10401766030E+04  0.00000000000E+00 0. -1.
<scales pt_clust_3="36.78206" pt_clust_4="59.18066" pt_clust_5="36.78206" pt_clust_6="127.86376"></scales>
<clustering>
<clus scale="   36.782">  3  5 -1 -1</clus>
<clus scale="   59.181">  1  4  2 -1</clus>
<clus scale="  127.864">  2  6  1 -1</clus>
<clus scale="   59.181">  1  3  2 -1</clus>
</clustering>
</event>
<event>
 6    0  0.2781617E+002  0.9267283E+02  0.7546771E-02  0.1296505E+00
          1   -1    0    0  503    0 -0.00000000000E+00  0.00000000000E+00  0.36213651114E+04  0.36213651114E+04  0.00000000000E+00 0.  1.
         21   -1    0    0  505  502  0.00000000000E+00 -0.00000000000E+00 -0.20483055986E+02  0.20483055986E+02  0.00000000000E+00 0. -1.
         21    1    1    2  503  502 -0.65043092977E+02  0.74872239406E+02  0.13066973478E+03  0.16404583435E+03  0.00000000000E+00 0. -1.
         21    1    1    2  504  501 -0.34336720283E+01 -0.47373970692E+02  0.40137244989E+03  0.40417313955E+03  0.00000000000E+00 0. -1.
         21    1    1    2  505  504  0.84318607597E+02  0.77838726704E+00  0.77733181441E+03  0.78189192551E+03  0.00000000000E+00 0. -1.
          1    1    1    2  501    0 -0.15841842591E+02 -0.28276655982E+02  0.22915080563E+04  0.22917372679E+04  0.00000000000E+00 0.  1.
<scales pt_clust_3="14000.00000" pt_clust_4="56.54132" pt_clust_5="92.67283" pt_clust_6="32.41193"></scales>
<clustering>
<clus scale="   32.412">  1  6  2 -1</clus>
<clus scale="   56.541">  1  4  2 -1</clus>
<clus scale="   92.673">  1  5  2 -1</clus>
<clus scale="   92.673">  2  3  1 -1</clus>
</clustering>
</event>
<event>
 6    0  0.2781617E+002  0.8530619E+02  0.7546771E-02  0.1314634E+00
          2   -1    0    0  503    0 -0.00000000000E+00  0.00000000000E+00  0.14535570029E+04  0.14535570029E+04  0.00000000000E+00 0. -1.
         21   -1    0    0  505  502  0.00000000000E+00 -0.00000000000E+00 -0.30701992330E+02  0.30701992330E+02  0.00000000000E+00 0. -1.
         21    1    1    2  503  502 -0.32049807453E+01 -0.42216546597E+02  0.98523937467E+02  0.10723560492E+03  0.00000000000E+00 0.  1.
         21    1    1    2  504  501  0.94096217456E+02  0.28458676136E+02  0.65123772308E+03  0.65861564387E+03  0.00000000000E+00 0. -1.
         21    1    1    2  505  504 -0.80110580537E+02 -0.24339918999E+02  0.57563019530E+02  0.10160530492E+03  0.00000000000E+00 0. -1.
          2    1    1    2  501    0 -0.10780656173E+02  0.38097789460E+02  0.61553033053E+03  0.61680244156E+03  0.00000000000E+00 0. -1.
<scales pt_clust_3="37.80824" pt_clust_4="85.30619" pt_clust_5="14000.00000" pt_clust_6="39.59374"></scales>
<clustering>
<clus scale="   39.594">  1  6  2 -1</clus>
<clus scale="   37.808">  1  3  2 -1</clus>
<clus scale="   85.306">  1  4  2 -1</clus>
<clus scale="   85.306">  2  3  1 -1</clus>
</clustering>
</event>
<event>
 6    0  0.2781617E+002  0.1205529E+03  0.7546771E-02  0.1242188E+00
         -2   -1    0    0    0  501 -0.00000000000E+00  0.00000000000E+00  0.87359980935E+03  0.87359980935E+03  0.00000000000E+00 0. -1.
         21   -1    0    0  503  502  0.00000000000E+00 -0.00000000000E+00 -0.34821628204E+03  0.34821628204E+03  0.00000000000E+00 0. -1.
         21    1    1    2  503  504 -0.50053748349E+02 -0.29216723608E+02 -0.21375167228E+03  0.22146957368E+03  0.00000000000E+00 0. -1.
         21    1    1    2  504  501 -0.33026927743E+01 -0.34150854356E+02 -0.83311634459E+02  0.90100039229E+02  0.00000000000E+00 0. -1.
         21    1    1    2  505  502 -0.48595782278E+02  0.15686809298E+02 -0.23947696831E+02  0.56401402684E+02  0.00000000000E+00 0. -1.
         -2    1    1    2    0  505  0.10195222340E+03  0.47680768666E+02  0.84639453088E+03  0.85384507580E+03  0.00000000000E+00 0. -1.
<scales pt_clust_3="34.12113" pt_clust_4="34.12113" pt_clust_5="51.06492" pt_clust_6="112.09974"></scales>
<clustering>
<clus scale="   34.121">  3  4 -1 -1</clus>
<clus scale="   51.065">  2  5  1 -1</clus>
<clus scale="  112.100">  1  6  2 -1</clus>
<clus scale="   51.065">  2  3  1 -1</clus>
</clustering>
</event>
<event>
 6    0  0.2781617E+002  0.7148309E+02  0.7546771E-02  0.1355121E+00
         21   -1    0    0  505  502  0.00000000000E+00  0.00000000000E+00  0.26947212712E+04  0.26947212712E+04  0.00000000000E+00 0. -1.
          2   -1    0    0  503    0 -0.00000000000E+00 -0.00000000000E+00 -0.18391813485E+04  0.18391813485E+04  0.00000000000E+00 0. -1.
         21    1    1    2  503  504 -0.47558195469E+02 -0.55898051951E+02  0.14061190459E+04  0.14080330768E+04  0.00000000000E+00 0. -1.
         21    1    1    2  504  502  0.81239388239E+02  0.64728988352E+01  0.10877608057E+04  0.10908094733E+04  0.00000000000E+00 0. -1.
         21    1    1    2  505  501 -0.26382329764E+02 -0.21694637903E+02  0.19618820118E+03  0.19913938565E+03  0.00000000000E+00 0.  1.
          2    1    1    2  501    0 -0.72988630061E+01  0.71119791019E+02 -0.18345281300E+04  0.18359206840E+04  0.00000000000E+00 0. -1.
<scales pt_clust_3="71.48309" pt_clust_4="69.79480" pt_clust_5="34.15677" pt_clust_6="14000.00000"></scales>
<clustering>
<clus scale="   34.157">  1  5  2 -1</clus>
<clus scale="   69.795">  1  4  2 -1</clus>
<clus scale="   71.483">  1  3  2 -1</clus>
<clus scale="   34.157">  1  3  2 -1</clus>
</clustering>
</event>
<event>
 6    0  0.2781617E+002  0.1384420E+03  0.7546771E-02  0.1215441E+00
         21   -1    0    0  503  502  0.00000000000E+00  0.00000000000E+00  0.24689904920E+03  0.24689904920E+03  0.00000000000E+00 0.  1.
          1   -1    0    0  505    0 -0.00000000000E+00 -0.00000000000E+00 -0.13745406026E+04  0.13745406026E+04  0.00000000000E+00 0.  1.
         21    1    1    2  503  501 -0.83028677588E+02 -0.68330867823E+02 -0.63848471610E+02  0.12505797106E+03  0.00000000000E+00 0.  1.
         21    1    1    2  504  502 -0.33538519359E+02  0.31922625009E+02  0.78209687154E+02  0.90888070905E+02  0.00000000000E+00 0.  1.
         21    1    1    2  505  504 -0.69167064927E+01  0.82340266682E+02  0.11499856166E+03  0.14160660129E+03  0.00000000000E+00 0.  1.
          1    1    1    2  501    0  0.12348390344E+03 -0.45932023868E+02 -0.12570013306E+04  0.12638870085E+04  0.00000000000E+00 0.  1.
<scales pt_clust_3="107.53078" pt_clust_4="33.74131" pt_clust_5="33.74131" pt_clust_6="130.89873"></scales>
<clustering>
<clus scale="   33.741">  4  5 -1 -1</clus>
<clus scale="  107.531">  1  3  2 -1</clus>
<clus scale="  130.899">  2  6  1 -1</clus>
<clus scale="  107.531">  1  3  2 -1</clus>
</clustering>
</event>
<event>
 6    0  0.3140753E+002  0.7960633E+02  0.7546771E-02  0.1330172E+00
          2   -1    0    0  503    0 -0.00000000000E+00  0.00000000000E+00  0.12804115240E+04  0.12804115240E+04  0.00000000000E+00 0. -1.
         21   -1    0    0  505  502  0.00000000000E+00 -0.00000000000E+00 -0.45497036117E+03  0.45497036117E+03  0.00000000000E+00 0.  1.
         21    1    1    2  503  502 -0.79198602766E+02 -0.43285869040E+02 -0.21780335340E+02  0.92846476218E+02  0.00000000000E+00 0.  1.
         21    1    1    2  504  501  0.14010749443E+02  0.45435593288E+02  0.25732808425E+02  0.54063589104E+02  0.00000000000E+00 0.  1.
         21    1    1    2  505  504  0.76016080347E+02 -0.30589226524E+02 -0.37891954770E+03  0.38767791900E+03  0.00000000000E+00 0.  1.
          2    1    1    2  501    0 -0.10828227023E+02  0.28439502276E+02  0.12004082375E+04  0.12007939009E+04  0.00000000000E+00 0. -1.
<scales pt_clust_3="14000.00000" pt_clust_4="60.26923" pt_clust_5="79.60633" pt_clust_6="30.43116"></scales>
<clustering>
<clus scale="   30.431">  1  6  2 -1</clus>
<clus scale="   60.269">  1  4  2 -1</clus>
<clus scale="   79.606">  2  5  1 -1</clus>
<clus scale="   79.606">  2  3  1 -1</clus>
</clustering>
</event>
<event>
 6    0  0.2781617E+002  0.3058864E+03  0.7546771E-02  0.1082335E+00
         21   -1    0    0  505  502  0.00000000000E+00  0.00000000000E+00  0.42856972472E+03  0.42856972472E+03  0.00000000000E+00 0. -1.
          2   -1    0    0  504    0 -0.00000000000E+00 -0.00000000000E+00 -0.44809014010E+03  0.44809014010E+03  0.00000000000E+00 0. -1.
         21    1    1    2  503  502 -0.22471313913E+03  0.13444937000E+03  0.90829407127E+02  0.27716891815E+03  0.00000000000E+00 0. -1.
         21    1    1    2  504  503 -0.49724855590E+02 -0.14800369520E+02  0.69296142244E+01  0.52341491713E+02  0.00000000000E+00 0. -1.
         21    1    1    2  505  501  0.24846445181E+03 -0.13584031845E+03  0.12025599662E+03  0.30765025703E+03  0.00000000000E+00 0. -1.
          2    1    1    2  501    0  0.25973542912E+02  0.16191317971E+02 -0.23753543336E+03  0.23949919793E+03  0.00000000000E+00 0. -1.
<scales pt_clust_3="42.26190" pt_clust_4="42.26190" pt_clust_5="290.13496" pt_clust_6="30.60692"></scales>
<clustering>
<clus scale="   30.607">  2  6  1 -1</clus>
<clus scale="   42.262">  3  4 -1 -1</clus>
<clus scale="  290.135">  1  5  2 -1</clus>
<clus scale="  290.135">  1  3  2 -1</clus>
</clustering>
</event>
<event>
 6    0  0.2781617E+002  0.9374434E+02  0.7546771E-02  0.1294029E+00
          1   -1    0    0  503    0 -0.00000000000E+00  0.00000000000E+00  0.11862317647E+04  0.11862317647E+04  0.00000000000E+00 0. -1.
         21   -1    0    0  504  502  0.00000000000E+00 -0.00000000000E+00 -0.21530569142E+03  0.21530569142E+03  0.00000000000E+00 0.  1.
         21    1    1    2  503  505 -0.47053827505E+02 -0.12940003594E+02  0.10477100340E+02  0.49912683833E+02  0.00000000000E+00 0. -1.
         21    1    1    2  504  501 -0.67181555243E+02 -0.22604351166E+02 -0.91055522198E+02  0.11539248753E+03  0.00000000000E+00 0.  1.
         21    1    1    2  505  502  0.19990246658E+02  0.36381036541E+02 -0.85649668445E+02  0.95179070630E+02  0.00000000000E+00 0.  1.
          1    1    1    2  501    0  0.94245136090E+02 -0.83668178123E+00  0.11371541636E+04  0.11410532141E+04  0.00000000000E+00 0. -1.
<scales pt_clust_3="44.48370" pt_clust_4="93.74434" pt_clust_5="41.51132" pt_clust_6="14000.00000"></scales>
<clustering>
<clus scale="   41.511">  2  5  1 -1</clus>
<clus scale="   44.484">  2  3  1 -1</clus>
<clus scale="   93.744">  2  4  1 -1</clus>
<clus scale="   41.511">  2  3  1 -1</clus>
</clustering>
</event>
<event>
 6    0  0.2781617E+002  0.1449566E+03  0.7546771E-02  0.1206811E+00
         21   -1    0    0  503  502  0.00000000000E+00  0.00000000000E+00  0.27817354539E+04  0.27817354539E+04  0.00000000000E+00 0. -1.
         -1   -1    0    0    0  501 -0.00000000000E+00 -0.00000000000E+00 -0.31897684542E+02  0.31897684542E+02  0.00000000000E+00 0. -1.
         21    1    1    2  503  505 -0.42243210023E+02  0.41185802822E+02  0.74065980121E+03  0.74300585480E+03  0.00000000000E+00 0. -1.
         21    1    1    2  504  502  0.88406532600E+02 -0.90215960378E+02  0.35608079264E+03  0.37782028188E+03  0.00000000000E+00 0. -1.
         21    1    1    2  505  501 -0.80689251469E+02  0.30018882318E+02  0.16510993294E+04  0.16533423373E+04  0.00000000000E+00 0. -1.
         -1    1    1    2    0  504  0.34525928892E+02  0.19011275238E+02  0.19978460622E+01  0.39464664460E+02  0.00000000000E+00 0. -1.
<scales pt_clust_3="35.02788" pt_clust_4="138.64345" pt_clust_5="35.02788" pt_clust_6="39.41406"></scales>
<clustering>
<clus scale="   35.028">  3  5 -1 -1</clus>
<clus scale="   39.414">  2  6  1 -1</clus>
<clus scale="  138.643">  2  4  1 -1</clus>
<clus scale="  144.957">  1  3  2 -1</clus>
</clustering>
</event>
<event>
 6    0  0.2781617E+002  0.1066990E+03  0.7546771E-02  0.1266808E+00
          2   -1    0    0  505    0 -0.00000000000E+00  0.00000000000E+00  0.19030707672E+04  0.19030707672E+04  0.00000000000E+00 0.  1.
         21   -1    0    0  504  502  0.00000000000E+00 -0.00000000000E+00 -0.18008982785E+03  0.18008982785E+03  0.00000000000E+00 0. -1.
         21    1    1    2  503  501 -0.15694747318E+03 -0.30665062920E+02  0.44847693041E+02  0.16608483071E+03  0.00000000000E+00 0. -1.
         21    1    1    2  504  503  0.78470010741E+02 -0.33685222735E+01 -0.73968352638E+02  0.10788978969E+03  0.00000000000E+00 0. -1.
         21    1    1    2  505  502  0.82767936391E+02 -0.48200811724E+01  0.32359141551E+02  0.88999317519E+02  0.00000000000E+00 0. -1.
          2    1    1    2  501    0 -0.42904739487E+01  0.38853666366E+02  0.17197424574E+04  0.17201866571E+04  0.00000000000E+00 0.  1.
<scales pt_clust_3="14000.00000" pt_clust_4="78.07293" pt_clust_5="106.69901" pt_clust_6="39.08984"></scales>
<clustering>
<clus scale="   39.090">  1  6  2 -1</clus>
<clus scale="   78.073">  2  4  1 -1</clus>
<clus scale="  106.699">  1  5  2 -1</clus>
<clus scale="   78.073">  2  3  1 -1</clus>
</clustering>
</event>
<event>
 6    0  0.2781617E+002  0.1318666E+03  0.7546771E-02  0.1224712E+00
          1   -1    0    0  505    0 -0.00000000000E+00  0.00000000000E+00  0.45749764510E+04  0.45749764510E+04  0.00000000000E+00 0. -1.
         21   -1    0    0  504  502  0.00000000000E+00 -0.00000000000E+00 -0.28520194662E+03  0.28520194662E+03  0.00000000000E+00 0.  1.
         21    1    1    2  503  502  0.32076317226E+02  0.11642960392E+02 -0.13149094881E+02  0.36569760044E+02  0.00000000000E+00 0. -1.
         21    1    1    2  504  501 -0.12962809115E+03 -0.66387793500E+02 -0.17222139889E+03  0.22554598506E+03  0.00000000000E+00 0.  1.
         21    1    1    2  505  503  0.17846596206E+03 -0.49022061699E+02  0.81129528035E+02  0.20207736752E+03  0.00000000000E+00 0. -1.
          1    1    1    2  501    0 -0.80914188135E+02  0.10376689481E+03  0.43940154701E+04  0.43959852850E+04  0.00000000000E+00 0. -1.
<scales pt_clust_3="34.12402" pt_clust_4="119.81880" pt_clust_5="14000.00000" pt_clust_6="131.86662"></scales>
<clustering>
<clus scale="   34.124">  2  3  1 -1</clus>
<clus scale="  119.819">  2  4  1 -1</clus>
<clus scale="  131.867">  1  6  2 -1</clus>
<clus scale="   34.124">  2  3  1 -1</clus>
</clustering>
</event>
<event>
 6    0  0.2781617E+002  0.1175309E+03  0.7546771E-02  0.1247227E+00
         21   -1    0    0  504  502  0.00000000000E+00  0.00000000000E+00  0.91189199563E+03  0.91189199563E+03  0.00000000000E+00 0. -1.
          2   -1    0    0  503    0 -0.00000000000E+00 -0.00000000000E+00 -0.10783954622E+03  0.10783954622E+03  0.00000000000E+00 0.  1.
         21    1    1    2  503  502 -0.96119627786E+02  0.69998599051E+02  0.46704721675E+03  0.48194594031E+03  0.00000000000E+00 0. -1.
         21    1    1    2  504  505 -0.21592258997E+02 -0.52385388611E+02  0.26159775167E+03  0.26766366632E+03  0.00000000000E+00 0. -1.
         21    1    1    2  505  501  0.90739918311E+01 -0.75887771699E+02  0.11722735845E+03  0.13994121905E+03  0.00000000000E+00 0. -1.
          2    1    1    2  501    0  0.10863789495E+03  0.58274561259E+02 -0.41819877452E+02  0.13018071616E+03  0.00000000000E+00 0.  1.
<scales pt_clust_3="14000.00000" pt_clust_4="56.66087" pt_clust_5="86.42713" pt_clust_6="117.53092"></scales>
<clustering>
<clus scale="   56.661">  1  4  2 -1</clus>
<clus scale="   86.427">  1  5  2 -1</clus>
<clus scale="  117.531">  2  6  1 -1</clus>
<clus scale="   56.661">  1  3  2 -1</clus>
</clustering>
</event>
<event>
 6    0  0.2781617E+002  0.1225411E+03  0.7546771E-02  0.1238963E+00
          1   -1    0    0  504    0 -0.00000000000E+00  0.00000000000E+00  0.16672179136E+04  0.16672179136E+04  0.00000000000E+00 0. -1.
         21   -1    0    0  505  502  0.00000000000E+00 -0.00000000000E+00 -0.34367599186E+03  0.34367599186E+03  0.00000000000E+00 0. -1.
         21    1    1    2  503  501 -0.73925941990E+01  0.86191183332E+02  0.16601246554E+03  0.18719965077E+03  0.00000000000E+00 0. -1.
         21    1    1    2  504  502  0.95944697038E+01 -0.15976377017E+03 -0.29368345230E+03  0.33446447683E+03  0.00000000000E+00 0. -1.
         21    1    1    2  505  503 -0.26725255772E+02  0.32013916578E+02  0.47616579039E+01  0.41973843483E+02  0.00000000000E+00 0. -1.
          1    1    1    2  501    0  0.24523380267E+02  0.41558670258E+02  0.14464512506E+04  0.14472559344E+04  0.00000000000E+00 0. -1.
<scales pt_clust_3="122.54110" pt_clust_4="14000.00000" pt_clust_5="41.70288" pt_clust_6="48.27207"></scales>
<clustering>
<clus scale="   41.703">  2  5  1 -1</clus>
<clus scale="   48.272">  1  6  2 -1</clus>
<clus scale="  122.541">  1  3  2 -1</clus>
<clus scale="   41.703">  2  3  1 -1</clus>
</clustering>
</event>
<event>
 6    0  0.2781617E+002  0.8856923E+02  0.7546771E-02  0.1306354E+00
         21   -1    0    0  505  502  0.00000000000E+00  0.00000000000E+00  0.91843285404E+03  0.91843285404E+03  0.00000000000E+00 0. -1.
         -1   -1    0    0    0  501 -0.00000000000E+00 -0.00000000000E+00 -0.41980309793E+03  0.41980309793E+03  0.00000000000E+00 0. -1.
         21    1    1    2  503  502  0.55989909300E+02 -0.56624503973E+02  0.55875055271E+03  0.56439647815E+03  0.00000000000E+00 0. -1.
         21    1    1    2  504  503  0.45677468644E+02 -0.24424672841E+01  0.38389104674E+02  0.59717000476E+02  0.00000000000E+00 0. -1.
         21    1    1    2  505  501 -0.94803976896E+02  0.98948171766E+02  0.29145528161E+03  0.32206321726E+03  0.00000000000E+00 0. -1.
         -1    1    1    2    0  504 -0.68634010481E+01 -0.39881200508E+02 -0.38996518288E+03  0.39205925609E+03  0.00000000000E+00 0. -1.
<scales pt_clust_3="14000.00000" pt_clust_4="46.44334" pt_clust_5="88.56923" pt_clust_6="40.46747"></scales>
<clustering>
<clus scale="   40.467">  2  6  1 -1</clus>
<clus scale="   46.443">  2  4  1 -1</clus>
<clus scale="   88.569">  2  5  1 -1</clus>
<clus scale="   88.569">  1  3  2 -1</clus>
</clustering>
</event>
<event>
 6    0  0.2781617E+002  0.7953288E+02  0.7546771E-02  0.1330382E+00
         21   -1    0    0  503  502  0.00000000000E+00  0.00000000000E+00  0.25236987190E+02  0.25236987190E+02  0.00000000000E+00 0.  1.
          2   -1    0    0  504    0 -0.00000000000E+00 -0.00000000000E+00 -0.26856551526E+04  0.26856551526E+04  0.00000000000E+00 0.  1.
         21    1    1    2  503  505  0.35492222984E+02  0.34705674613E+02 -0.84787580854E+02  0.98250270278E+02  0.00000000000E+00 0.  1.
         21    1    1    2  504  502 -0.85533983223E+02 -0.50649011578E+02 -0.50654500651E+03  0.51620657520E+03  0.00000000000E+00 0.  1.
         21    1    1    2  505  501 -0.12184098497E+02  0.63423582800E+02 -0.67862124016E+02  0.93681753759E+02  0.00000000000E+00 0.  1.
          2    1    1    2  501    0  0.62225858736E+02 -0.47480245834E+02 -0.20012234541E+04  0.20027535406E+04  0.00000000000E+00 0.  1.
<scales pt_clust_3="49.64053" pt_clust_4="14000.00000" pt_clust_5="79.53288" pt_clust_6="78.59391"></scales>
<clustering>
<clus scale="   49.641">  1  3  2 -1</clus>
<clus scale="   78.594">  2  6  1 -1</clus>
<clus scale="   79.533">  1  5  2 -1</clus>
<clus scale="   49.641">  1  3  2 -1</clus>
</clustering>
</event>
<event>
 6    0  0.2781617E+002  0.8346679E+02  0.7546771E-02  0.1319491E+00
         21   -1    0    0  505  502  0.00000000000E+00  0.00000000000E+00  0.68620298193E+02  0.68620298193E+02  0.00000000000E+00 0.  1.
          2   -1    0    0  504    0 -0.00000000000E+00 -0.00000000000E+00 -0.14773020617E+04  0.14773020617E+04  0.00000000000E+00 0.  1.
         21    1    1    2  503  502 -0.10330666479E+03  0.67000111160E+02 -0.30368580012E+02  0.12682086791E+03  0.00000000000E+00 0.  1.
         21    1    1    2  504  503  0.53485997270E+02 -0.25448792410E+02 -0.39699597149E+02  0.71305336075E+02  0.00000000000E+00 0.  1.
         21    1    1    2  505  501  0.14597955181E+02 -0.31809610443E+02 -0.66413902295E+02  0.75071685941E+02  0.00000000000E+00 0.  1.
          2    1    1    2  501    0  0.35222712342E+02 -0.97417083069E+01 -0.12721996841E+04  0.12727244700E+04  0.00000000000E+00 0.  1.
<scales pt_clust_3="14000.00000" pt_clust_4="83.46679" pt_clust_5="34.99931" pt_clust_6="36.63724"></scales>
<clustering>
<clus scale="   34.999">  1  5  2 -1</clus>
<clus scale="   36.637">  2  6  1 -1</clus>
<clus scale="   83.467">  2  4  1 -1</clus>
<clus scale="   34.999">  1  3  2 -1</clus>
</clustering>
</event>
<event>
 6    0  0.2781617E+002  0.1397435E+03  0.7546771E-02  0.1213674E+00
         21   -1    0    0  504  502  0.00000000000E+00  0.00000000000E+00  0.29279694366E+04  0.29279694366E+04  0.00000000000E+00 0. -1.
          4   -1    0    0  503    0 -0.00000000000E+00 -0.00000000000E+00 -0.14785130983E+03  0.14785130983E+03  0.00000000000E+00 0. -1.
         21    1    1    2  503  502  0.10676403466E+03 -0.91478033773E+02  0.72618291969E+03  0.73966777854E+03  0.00000000000E+00 0. -1.
         21    1    1    2  504  505  0.47317543604E+02  0.72518521554E+02  0.16118152568E+04  0.16141394946E+04  0.00000000000E+00 0. -1.
         21    1    1    2  505  501 -0.88441622473E+02  0.11691681802E+03  0.54570959783E+03  0.56505789799E+03  0.00000000000E+00 0.  1.
          4    1    1    2  501    0 -0.65639955790E+02 -0.97957305803E+02 -0.10358964753E+03  0.15695557534E+03  0.00000000000E+00 0. -1.
<scales pt_clust_3="139.74355" pt_clust_4="86.59033" pt_clust_5="14000.00000" pt_clust_6="116.15933"></scales>
<clustering>
<clus scale="   86.590">  1  4  2 -1</clus>
<clus scale="  116.159">  2  6  1 -1</clus>
<clus scale="  139.744">  1  3  2 -1</clus>
<clus scale="   86.590">  1  3  2 -1</clus>
</clustering>
</event>
<event>
 6    0  0.2781617E+002  0.1529947E+03  0.7546771E-02  0.1196841E+00
         21   -1    0    0  503  502  0.00000000000E+00  0.00000000000E+00  0.39681856259E+02  0.39681856259E+02  0.00000000000E+00 0. -1.
          2   -1    0    0  505    0 -0.00000000000E+00 -0.00000000000E+00 -0.27648790189E+04  0.27648790189E+04  0.00000000000E+00 0. -1.
         21    1    1    2  503  501  0.26559626005E+02 -0.19368330275E+03 -0.29848223263E+03  0.35680565956E+03  0.00000000000E+00 0. -1.
         21    1    1    2  504  502  0.53015273022E+01  0.38749781153E+02 -0.60651638233E+02  0.72168365310E+02  0.00000000000E+00 0.  1.
         21    1    1    2  505  504  0.25569360891E+02  0.81886660395E+02 -0.50727859287E+03  0.51448108629E+03  0.00000000000E+00 0. -1.
          2    1    1    2  501    0 -0.57430514198E+02  0.73046861203E+02 -0.18587846989E+04  0.18611057640E+04  0.00000000000E+00 0. -1.
<scales pt_clust_3="152.99468" pt_clust_4="39.11076" pt_clust_5="89.88289" pt_clust_6="14000.00000"></scales>
<clustering>
<clus scale="   39.111">  1  4  2 -1</clus>
<clus scale="   89.883">  2  5  1 -1</clus>
<clus scale="  152.995">  1  3  2 -1</clus>
<clus scale="   39.111">  1  3  2 -1</clus>
</clustering>
</event>
<event>
 6    0  0.2781617E+002  0.1396642E+03  0.7546771E-02  0.1213782E+00
         -1   -1    0    0    0  501 -0.00000000000E+00  0.00000000000E+00  0.62259731282E+03  0.62259731282E+03  0.00000000000E+00 0.  1.
         21   -1    0    0  504  502  0.00000000000E+00 -0.00000000000E+00 -0.43128064657E+03  0.43128064657E+03  0.00000000000E+00 0.  1.
         21    1    1    2  503  501 -0.16697654799E+03  0.31343731978E+02 -0.28196007822E+03  0.32918852171E+03  0.00000000000E+00 0.  1.
         21    1    1    2  504  503  0.61612873198E+02 -0.34451245462E+02 -0.39610675291E+02  0.80944672800E+02  0.00000000000E+00 0.  1.
         21    1    1    2  505  502  0.29653788724E+01  0.97865054638E+02 -0.13813323397E+02  0.98879574708E+02  0.00000000000E+00 0.  1.
         -1    1    1    2    0  505  0.10239829591E+03 -0.94757541154E+02  0.52670074317E+03  0.54486519018E+03  0.00000000000E+00 0.  1.
<scales pt_clust_3="139.66417" pt_clust_4="70.59061" pt_clust_5="93.44880" pt_clust_6="14000.00000"></scales>
<clustering>
<clus scale="   70.591">  2  4  1 -1</clus>
<clus scale="   93.449">  2  5  1 -1</clus>
<clus scale="  139.664">  2  3  1 -1</clus>
<clus scale="   70.591">  2  3  1 -1</clus>
</clustering>
</event>
<event>
 6    0  0.2781617E+002  0.1157737E+03  0.7546771E-02  0.1250237E+00
          1   -1    0    0  504    0 -0.00000000000E+00  0.00000000000E+00  0.44290289494E+04  0.44290289494E+04  0.00000000000E+00 0.  1.
         21   -1    0    0  505  502  0.00000000000E+00 -0.00000000000E+00 -0.11557911963E+02  0.11557911963E+02  0.00000000000E+00 0.  1.
         21    1    1    2  503  502  0.39494933737E+02 -0.55292943863E+01  0.12601222272E+03  0.13217224808E+03  0.00000000000E+00 0.  1.
         21    1    1    2  504  503  0.38423523335E+02 -0.20554912850E+02  0.29238375600E+03  0.29561314647E+03  0.00000000000E+00 0.  1.
         21    1    1    2  505  501 -0.30777002063E+01 -0.65391528270E+02  0.17410114896E+03  0.18600197385E+03  0.00000000000E+00 0.  1.
          1    1    1    2  501    0 -0.74840756866E+02  0.91475735506E+02  0.38249739098E+04  0.38267994930E+04  0.00000000000E+00 0.  1.
<scales pt_clust_3="33.04922" pt_clust_4="33.04922" pt_clust_5="65.46392" pt_clust_6="110.49920"></scales>
<clustering>
<clus scale="   33.049">  3  4 -1 -1</clus>
<clus scale="   65.464">  2  5  1 -1</clus>
<clus scale="  110.499">  1  6  2 -1</clus>
<clus scale="   65.464">  2  3  1 -1</clus>
</clustering>
</event>
<event>
 6    0  0.2781617E+002  0.2074221E+03  0.7546771E-02  0.1143624E+00
         21   -1    0    0  504  502  0.00000000000E+00  0.00000000000E+00  0.23470445058E+03  0.23470445058E+03  0.00000000000E+00 0.  1.
          2   -1    0    0  503    0 -0.00000000000E+00 -0.00000000000E+00 -0.80505964241E+03  0.80505964241E+03  0.00000000000E+00 0.  1.
         21    1    1    2  503  502  0.35104223790E+02  0.47117354194E+02  0.13292885841E+02  0.60241616911E+02  0.00000000000E+00 0. -1.
         21    1    1    2  504  505 -0.25247335094E+02 -0.20673147121E+02 -0.15124312068E+02  0.35965980548E+02  0.00000000000E+00 0.  1.
         21    1    1    2  505  501 -0.20808748301E+03  0.34091732756E+02  0.10735046627E+03  0.23661523500E+03  0.00000000000E+00 0.  1.
          2    1    1    2  501    0  0.19823059431E+03 -0.60535939828E+02 -0.67587423188E+03  0.70694126053E+03  0.00000000000E+00 0.  1.
<scales pt_clust_3="53.58194" pt_clust_4="32.63138" pt_clust_5="207.42212" pt_clust_6="14000.00000"></scales>
<clustering>
<clus scale="   32.631">  1  4  2 -1</clus>
<clus scale="   53.582">  1  3  2 -1</clus>
<clus scale="  207.422">  1  5  2 -1</clus>
<clus scale="   32.631">  1  3  2 -1</clus>
</clustering>
</event>
<event>
 6    0  0.2781617E+002  0.1475935E+03  0.7546771E-02  0.1203462E+00
          2   -1    0    0  502    0 -0.00000000000E+00  0.00000000000E+00  0.13952331404E+03  0.13952331404E+03  0.00000000000E+00 0. -1.
         21   -1    0    0  505  502  0.00000000000E+00 -0.00000000000E+00 -0.56177121994E+03  0.56177121994E+03  0.00000000000E+00 0. -1.
         21    1    1    2  503  501 -0.76668184908E+02  0.68852560034E+02 -0.28240646963E+03  0.30061952646E+03  0.00000000000E+00 0. -1.
         21    1    1    2  504  503 -0.69469837441E+01  0.48565987518E+02 -0.98302738715E+02  0.10986511806E+03  0.00000000000E+00 0. -1.
         21    1    1    2  505  504  0.48251401169E+02  0.16041604824E+02 -0.12118334786E+03  0.13141892786E+03  0.00000000000E+00 0. -1.
          2    1    1    2  501    0  0.35363767483E+02 -0.13346015238E+03  0.79644650303E+02  0.15939096162E+03  0.00000000000E+00 0. -1.
<scales pt_clust_3="36.37753" pt_clust_4="36.37753" pt_clust_5="50.84812" pt_clust_6="137.85610"></scales>
<clustering>
<clus scale="   36.378">  3  4 -1 -1</clus>
<clus scale="   50.848">  2  5  1 -1</clus>
<clus scale="  137.856">  1  6  2 -1</clus>
<clus scale="   50.848">  2  3  1 -1</clus>
</clustering>
</event>
<event>
 6    0  0.2781617E+002  0.9335818E+02  0.7546771E-02  0.1294917E+00
         21   -1    0    0  503  502  0.00000000000E+00  0.00000000000E+00  0.20207913816E+03  0.20207913816E+03  0.00000000000E+00 0.  1.
          2   -1    0    0  504    0 -0.00000000000E+00 -0.00000000000E+00 -0.46738398611E+03  0.46738398611E+03  0.00000000000E+00 0. -1.
         21    1    1    2  503  505 -0.19380821787E+01 -0.31459642773E+02  0.39872447309E+02  0.50825951445E+02  0.00000000000E+00 0.  1.
         21    1    1    2  504  502  0.71258603855E+02 -0.42819357027E+02  0.88334399396E+02  0.12130231686E+03  0.00000000000E+00 0.  1.
         21    1    1    2  505  501 -0.50853278814E+02 -0.19110007788E+02  0.30817744920E+02  0.62457839906E+02  0.00000000000E+00 0.  1.
          2    1    1    2  501    0 -0.18467242862E+02  0.93389007588E+02 -0.42432943958E+03  0.43487701606E+03  0.00000000000E+00 0. -1.
<scales pt_clust_3="31.51928" pt_clust_4="93.35818" pt_clust_5="58.78489" pt_clust_6="14000.00000"></scales>
<clustering>
<clus scale="   31.519">  1  3  2 -1</clus>
<clus scale="   58.785">  1  5  2 -1</clus>
<clus scale="   93.358">  1  4  2 -1</clus>
<clus scale="   31.519">  1  3  2 -1</clus>
</clustering>
</event>
<event>
 6    0  0.2781617E+002  0.1119225E+03  0.7546771E-02  0.1257051E+00
         21   -1    0    0  505  502  0.00000000000E+00  0.00000000000E+00  0.19403766231E+03  0.19403766231E+03  0.00000000000E+00 0. -1.
          2   -1    0    0  504    0 -0.00000000000E+00 -0.00000000000E+00 -0.86051491344E+03  0.86051491344E+03  0.00000000000E+00 0.  1.
         21    1    1    2  503  502  0.33724535566E+02  0.57955172168E+02  0.13753701138E+03  0.15301168511E+03  0.00000000000E+00 0. -1.
         21    1    1    2  504  503 -0.71853069849E+02  0.22794823591E+01 -0.93622276790E+02  0.11803893594E+03  0.00000000000E+00 0.  1.
         21    1    1    2  505  501  0.38803060098E+02  0.36584702662E+02  0.11989009775E+02  0.54661268712E+02  0.00000000000E+00 0. -1.
          2    1    1    2  501    0 -0.67452581509E+00 -0.96819357189E+02 -0.72238099549E+03  0.72884068599E+03  0.00000000000E+00 0.  1.
<scales pt_clust_3="14000.00000" pt_clust_4="69.09088" pt_clust_5="53.33027" pt_clust_6="111.92249"></scales>
<clustering>
<clus scale="   53.330">  1  5  2 -1</clus>
<clus scale="   69.091">  2  4  1 -1</clus>
<clus scale="  111.922">  2  6  1 -1</clus>
<clus scale="   53.330">  1  3  2 -1</clus>
</clustering>
</event>
<event>
 6    0  0.2781617E+002  0.6889141E+02  0.7546771E-02  0.1363904E+00
          2   -1    0    0  504    0 -0.00000000000E+00  0.00000000000E+00  0.29405080113E+04  0.29405080113E+04  0.00000000000E+00 0.  1.
         21   -1    0    0  503  502  0.00000000000E+00 -0.00000000000E+00 -0.77038140674E+03  0.77038140674E+03  0.00000000000E+00 0. -1.
         21    1    1    2  503  501  0.10455970334E+03 -0.73223993611E+02 -0.52114783959E+03  0.53655340416E+03  0.00000000000E+00 0. -1.
         21    1    1    2  504  505 -0.40844524680E+02  0.50595415251E+02  0.48193338013E+02  0.80936821470E+02  0.00000000000E+00 0.  1.
         21    1    1    2  505  502 -0.23915464141E+02 -0.33554016227E+02 -0.22285697810E+03  0.22663418568E+03  0.00000000000E+00 0. -1.
          2    1    1    2  501    0 -0.39799714522E+02  0.56182594587E+02  0.28659380842E+04  0.28667650067E+04  0.00000000000E+00 0.  1.
<scales pt_clust_3="68.89141" pt_clust_4="64.70271" pt_clust_5="41.20463" pt_clust_6="14000.00000"></scales>
<clustering>
<clus scale="   41.205">  2  5  1 -1</clus>
<clus scale="   64.703">  2  4  1 -1</clus>
<clus scale="   68.891">  2  3  1 -1</clus>
<clus scale="   41.205">  2  3  1 -1</clus>
</clustering>
</event>
<event>
 6    0  0.2781617E+002  0.1015212E+03  0.7546771E-02  0.1277129E+00
         21   -1    0    0  504  502  0.00000000000E+00  0.00000000000E+00  0.21166949374E+03  0.21166949374E+03  0.00000000000E+00 0.  1.
          1   -1    0    0  503    0 -0.00000000000E+00 -0.00000000000E+00 -0.21156129435E+03  0.21156129435E+03  0.00000000000E+00 0.  1.
         21    1    1    2  503  502  0.36145014795E+01 -0.83958364923E+02 -0.48896852097E+02  0.97226404883E+02  0.00000000000E+00 0.  1.
         21    1    1    2  504  505 -0.61278304333E+01 -0.39939570623E+02  0.93380769967E+02  0.10174815874E+03  0.00000000000E+00 0.  1.
         21    1    1    2  505  501 -0.62144410349E+02 -0.16544376962E+02 -0.38612611541E+01  0.64424789362E+02  0.00000000000E+00 0.  1.
          1    1    1    2  501    0  0.64657739303E+02  0.14044231251E+03 -0.40514457331E+02  0.15983143510E+03  0.00000000000E+00 0.  1.
<scales pt_clust_3="14000.00000" pt_clust_4="40.40693" pt_clust_5="69.30713" pt_clust_6="101.52119"></scales>
<clustering>
<clus scale="   40.407">  1  4  2 -1</clus>
<clus scale="   69.307">  1  5  2 -1</clus>
<clus scale="  101.521">  1  6  2 -1</clus>
<clus scale="   40.407">  1  3  2 -1</clus>
</clustering>
</event>
<event>
 6    0  0.2781617E+002  0.1787438E+03  0.7546771E-02  0.1169024E+00
         21   -1    0    0  503  502  0.00000000000E+00  0.00000000000E+00  0.15405898348E+02  0.15405898348E+02  0.00000000000E+00 0.  1.
          2   -1    0    0  504    0 -0.00000000000E+00 -0.00000000000E+00 -0.24202455540E+04  0.24202455540E+04  0.00000000000E+00 0. -1.
         21    1    1    2  503  501 -0.51075730160E+02 -0.31156262269E+02 -0.34801320063E+03  0.35311843722E+03  0.00000000000E+00 0. -1.
         21    1    1    2  504  505  0.32805137369E+02  0.17955947397E+02 -0.30215355025E+03  0.30445912864E+03  0.00000000000E+00 0.  1.
         21    1    1    2  505  502  0.98284316282E+02  0.85489608219E+02 -0.43713984465E+03  0.45613542257E+03  0.00000000000E+00 0.  1.
          2    1    1    2  501    0 -0.80013723491E+02 -0.72289293347E+02 -0.13175330601E+04  0.13219384639E+04  0.00000000000E+00 0. -1.
<scales pt_clust_3="46.43239" pt_clust_4="34.15749" pt_clust_5="34.15749" pt_clust_6="178.24499"></scales>
<clustering>
<clus scale="   34.157">  4  5 -1 -1</clus>
<clus scale="   46.432">  3  6 -1 -1</clus>
<clus scale="  178.245">  2  3  1 -1</clus>
<clus scale="  178.744">  1  3  2 -1</clus>
</clustering>
</event>
<event>
 6    0  0.2781617E+002  0.1447058E+03  0.7546771E-02  0.1207134E+00
          2   -1    0    0  505    0 -0.00000000000E+00  0.00000000000E+00  0.15190659240E+04  0.15190659240E+04  0.00000000000E+00 0.  1.
         21   -1    0    0  504  502  0.00000000000E+00 -0.00000000000E+00 -0.45553602715E+03  0.45553602715E+03  0.00000000000E+00 0.  1.
         21    1    1    2  503  501 -0.42694444934E+02 -0.16998779165E+03 -0.17440232473E+03  0.24725459715E+03  0.00000000000E+00 0.  1.
         21    1    1    2  504  503  0.31253627719E+02  0.30001645360E+02 -0.22848602315E+03  0.23255698387E+03  0.00000000000E+00 0.  1.
         21    1    1    2  505  502 -0.37833144274E+02  0.44657069726E+01  0.23662834548E+02  0.44846617300E+02  0.00000000000E+00 0.  1.
          2    1    1    2  501    0  0.49273961489E+02  0.13552043931E+03  0.14427554102E+04  0.14499437528E+04  0.00000000000E+00 0.  1.
<scales pt_clust_3="144.70585" pt_clust_4="34.35202" pt_clust_5="38.09579" pt_clust_6="14000.00000"></scales>
<clustering>
<clus scale="   38.096">  2  5  1 -1</clus>
<clus scale="   34.352">  2  4  1 -1</clus>
<clus scale="  144.706">  2  3  1 -1</clus>
<clus scale="   38.096">  2  3  1 -1</clus>
</clustering>
</event>
<event>
 6    0  0.2781617E+002  0.1339769E+03  0.7546771E-02  0.1221671E+00
          2   -1    0    0  503    0 -0.00000000000E+00  0.00000000000E+00  0.75527743358E+03  0.75527743358E+03  0.00000000000E+00 0. -1.
         21   -1    0    0  501  502  0.00000000000E+00 -0.00000000000E+00 -0.37292412023E+03  0.37292412023E+03  0.00000000000E+00 0.  1.
         21    1    1    2  503  505  0.31319433469E+02 -0.83499516870E+02  0.78756677389E+01  0.89527104123E+02  0.00000000000E+00 0.  1.
         21    1    1    2  504  502 -0.87356268779E+02  0.88256347247E+02 -0.27797312144E+03  0.30444926797E+03  0.00000000000E+00 0.  1.
         21    1    1    2  505  504  0.54767387794E+02 -0.54652649379E+02 -0.24643117138E+01  0.77410927408E+02  0.00000000000E+00 0.  1.
          2    1    1    2  501    0  0.12694475165E+01  0.49895819002E+02  0.65491507877E+03  0.65681425430E+03  0.00000000000E+00 0. -1.
<scales pt_clust_3="34.12271" pt_clust_4="128.87101" pt_clust_5="34.12271" pt_clust_6="49.91197"></scales>
<clustering>
<clus scale="   34.123">  3  5 -1 -1</clus>
<clus scale="   49.912">  1  6  2 -1</clus>
<clus scale="  128.871">  2  4  1 -1</clus>
<clus scale="  128.871">  2  3  1 -1</clus>
</clustering>
</event>
<event>
 6    0  0.2781617E+002  0.1100480E+03  0.7546771E-02  0.1260481E+00
         21   -1    0    0  504  502  0.00000000000E+00  0.00000000000E+00  0.11956656702E+04  0.11956656702E+04  0.00000000000E+00 0. -1.
          2   -1    0    0  505    0 -0.00000000000E+00 -0.00000000000E+00 -0.53272653179E+03  0.53272653179E+03  0.00000000000E+00 0.  1.
         21    1    1    2  503  502  0.16877543875E+02  0.25491279209E+02  0.18542366449E+03  0.18792709266E+03  0.00000000000E+00 0. -1.
         21    1    1    2  504  501  0.88963520812E+02 -0.78984081438E+01  0.67564518715E+03  0.68152278891E+03  0.00000000000E+00 0. -1.
         21    1    1    2  505  503 -0.13887733549E+03  0.87078252858E+02  0.30377322026E+03  0.34517778866E+03  0.00000000000E+00 0. -1.
          2    1    1    2  501    0  0.33036270800E+02 -0.10467112392E+03 -0.50190293353E+03  0.51376453173E+03  0.00000000000E+00 0.  1.
<scales pt_clust_3="30.57216" pt_clust_4="100.73946" pt_clust_5="110.04802" pt_clust_6="14000.00000"></scales>
<clustering>
<clus scale="   30.572">  1  3  2 -1</clus>
<clus scale="  100.739">  1  4  2 -1</clus>
<clus scale="  110.048">  1  5  2 -1</clus>
<clus scale="   30.572">  1  3  2 -1</clus>
</clustering>
</event>
<event>
 6    0  0.2781617E+002  0.1122519E+03  0.7546771E-02  0.1256456E+00
         21   -1    0    0  503  502  0.00000000000E+00  0.00000000000E+00  0.95834100699E+02  0.95834100699E+02  0.00000000000E+00 0. -1.
          2   -1    0    0  505    0 -0.00000000000E+00 -0.00000000000E+00 -0.11841926216E+04  0.11841926216E+04  0.00000000000E+00 0. -1.
         21    1    1    2  503  501 -0.78994562967E+02 -0.35772474654E+02  0.50105103149E+02  0.10015154658E+03  0.00000000000E+00 0. -1.
         21    1    1    2  504  502  0.47628642489E+02  0.10094879142E+03 -0.20135721172E+03  0.23022569967E+03  0.00000000000E+00 0. -1.
         21    1    1    2  505  504  0.44465832341E+02  0.78852481902E+01 -0.10578786959E+03  0.11502373989E+03  0.00000000000E+00 0. -1.
          2    1    1    2  501    0 -0.13099911863E+02 -0.73061564960E+02 -0.83131854278E+03  0.83462573621E+03  0.00000000000E+00 0. -1.
<scales pt_clust_3="89.82011" pt_clust_4="42.82405" pt_clust_5="42.82405" pt_clust_6="74.22668"></scales>
<clustering>
<clus scale="   42.824">  4  5 -1 -1</clus>
<clus scale="   74.227">  2  6  1 -1</clus>
<clus scale="   89.820">  1  3  2 -1</clus>
<clus scale="   89.820">  1  3  2 -1</clus>
</clustering>
</event>
<event>
 6    0  0.2781617E+002  0.1583573E+03  0.7546771E-02  0.1190564E+00
          2   -1    0    0  502    0 -0.00000000000E+00  0.00000000000E+00  0.22530669233E+03  0.22530669233E+03  0.00000000000E+00 0.  1.
         21   -1    0    0  504  502  0.00000000000E+00 -0.00000000000E+00 -0.67576099895E+03  0.67576099895E+03  0.00000000000E+00 0. -1.
         21    1    1    2  503  501  0.41134067098E+02  0.77826584615E+02  0.16384983885E+02  0.89540250422E+02  0.00000000000E+00 0.  1.
         21    1    1    2  504  505 -0.62336985547E+02 -0.14152750200E+03 -0.59300330795E+03  0.61283672934E+03  0.00000000000E+00 0. -1.
         21    1    1    2  505  503  0.19871421705E+02  0.26434434060E+02 -0.25972802997E+02  0.42050436385E+02  0.00000000000E+00 0.  1.
          2    1    1    2  501    0  0.13314967445E+01  0.37266483325E+02  0.15213682044E+03  0.15664027514E+03  0.00000000000E+00 0.  1.
<scales pt_clust_3="31.44591" pt_clust_4="149.81617" pt_clust_5="31.44591" pt_clust_6="37.29026"></scales>
<clustering>
<clus scale="   31.446">  3  5 -1 -1</clus>
<clus scale="   37.290">  1  6  2 -1</clus>
<clus scale="  149.816">  2  4  1 -1</clus>
<clus scale="  149.816">  2  3  1 -1</clus>
</clustering>
</event>
<event>
 6    0  0.2781617E+002  0.2680812E+03  0.7546771E-02  0.1102383E+00
          1   -1    0    0  503    0 -0.00000000000E+00  0.00000000000E+00  0.78316841426E+03  0.78316841426E+03  0.00000000000E+00 0. -1.
         21   -1    0    0  505  502  0.00000000000E+00 -0.00000000000E+00 -0.10955223462E+04  0.10955223462E+04  0.00000000000E+00 0.  1.
         21    1    1    2  503  504  0.84729398084E+02 -0.15405043998E+01 -0.33208959985E+03  0.34273159525E+03  0.00000000000E+00 0. -1.
         21    1    1    2  504  502  0.19048716087E+03 -0.37224537654E+02 -0.45813862846E+03  0.49755605467E+03  0.00000000000E+00 0.  1.
         21    1    1    2  505  501 -0.22519932029E+03  0.24824287563E+02 -0.23337488023E+03  0.32526114714E+03  0.00000000000E+00 0.  1.
          1    1    1    2  501    0 -0.50017238656E+02  0.13940754490E+02  0.71124917658E+03  0.71314196342E+03  0.00000000000E+00 0. -1.
<scales pt_clust_3="43.70990" pt_clust_4="43.70990" pt_clust_5="259.79171" pt_clust_6="51.92368"></scales>
<clustering>
<clus scale="   43.710">  3  4 -1 -1</clus>
<clus scale="   51.924">  1  6  2 -1</clus>
<clus scale="  259.792">  1  5  2 -1</clus>
<clus scale="  268.081">  2  3  1 -1</clus>
</clustering>
</event>
<event>
 6    0  0.2781617E+002  0.4630677E+03  0.7546771E-02  0.1023895E+00
         21   -1    0    0  501  502  0.00000000000E+00  0.00000000000E+00  0.23766296838E+03  0.23766296838E+03  0.00000000000E+00 0.  1.
          2   -1    0    0  504    0 -0.00000000000E+00 -0.00000000000E+00 -0.94178186861E+03  0.94178186861E+03  0.00000000000E+00 0.  1.
         21    1    1    2  503  502 -0.82429134525E+02  0.25886330415E+02 -0.30383481581E+02  0.91585043942E+02  0.00000000000E+00 0.  1.
         21    1    1    2  504  505 -0.15686698341E+03 -0.10950423160E+03 -0.10588518886E+03  0.21865520905E+03  0.00000000000E+00 0. -1.
         21    1    1    2  505  503 -0.13900818695E+03 -0.11241335577E+03 -0.27185116212E+02  0.18082883934E+03  0.00000000000E+00 0.  1.
          2    1    1    2  501    0  0.37830430488E+03  0.19603125695E+03 -0.54066511357E+03  0.68837574465E+03  0.00000000000E+00 0.  1.
<scales pt_clust_3="78.85963" pt_clust_4="78.85963" pt_clust_5="68.96941" pt_clust_6="426.07793"></scales>
<clustering>
<clus scale="   68.969">  4  5 -1 -1</clus>
<clus scale="   78.860">  3  4 -1 -1</clus>
<clus scale="  426.078">  2  6  1 -1</clus>
<clus scale="  463.068">  1  3  2 -1</clus>
</clustering>
</event>
<event>
 6    0  0.2781617E+002  0.9420158E+02  0.7546771E-02  0.1292985E+00
          2   -1    0    0  505    0 -0.00000000000E+00  0.00000000000E+00  0.89850274969E+03  0.89850274969E+03  0.00000000000E+00 0. -1.
         21   -1    0    0  503  502  0.00000000000E+00 -0.00000000000E+00 -0.15095778393E+03  0.15095778393E+03  0.00000000000E+00 0.  1.
         21    1    1    2  503  501 -0.35536336768E+02  0.22886823238E+02  0.16397752253E+02  0.45337889097E+02  0.00000000000E+00 0.  1.
         21    1    1    2  504  502  0.35945730881E+02 -0.11755308238E+03 -0.99735035457E+02  0.15829687313E+03  0.00000000000E+00 0.  1.
         21    1    1    2  505  504  0.18697034465E+02  0.29273035523E+02  0.44275983581E+02  0.56274793901E+02  0.00000000000E+00 0.  1.
          2    1    1    2  501    0 -0.19106428578E+02  0.65393223623E+02  0.78660626538E+03  0.78955097748E+03  0.00000000000E+00 0. -1.
<scales pt_clust_3="42.29231" pt_clust_4="14000.00000" pt_clust_5="34.73456" pt_clust_6="94.20158"></scales>
<clustering>
<clus scale="   34.735">  1  5  2 -1</clus>
<clus scale="   42.292">  2  3  1 -1</clus>
<clus scale="   94.202">  1  6  2 -1</clus>
<clus scale="   42.292">  2  3  1 -1</clus>
</clustering>
</event>
<event>
 6    0  0.2781617E+002  0.1323181E+03  0.7546771E-02  0.1224056E+00
          2   -1    0    0  503    0 -0.00000000000E+00  0.00000000000E+00  0.37257330109E+04  0.37257330109E+04  0.00000000000E+00 0. -1.
         21   -1    0    0  504  502  0.00000000000E+00 -0.00000000000E+00 -0.33408060755E+02  0.33408060755E+02  0.00000000000E+00 0.  1.
         21    1    1    2  503  502 -0.43177912089E+02 -0.29908429038E+02  0.93935993444E+02  0.10762349690E+03  0.00000000000E+00 0.  1.
         21    1    1    2  504  505  0.23690498892E+02 -0.35901146293E+02  0.21954201921E+02  0.48292018231E+02  0.00000000000E+00 0.  1.
         21    1    1    2  505  501 -0.93797564447E+02  0.13058150499E+03  0.52652287624E+03  0.55052325268E+03  0.00000000000E+00 0.  1.
          2    1    1    2  501    0  0.11328497764E+03 -0.64771929658E+02  0.30499118785E+04  0.30527023038E+04  0.00000000000E+00 0. -1.
<scales pt_clust_3="54.81584" pt_clust_4="43.01316" pt_clust_5="132.31807" pt_clust_6="14000.00000"></scales>
<clustering>
<clus scale="   43.013">  2  4  1 -1</clus>
<clus scale="   54.816">  2  3  1 -1</clus>
<clus scale="  132.318">  2  5  1 -1</clus>
<clus scale="   43.013">  2  3  1 -1</clus>
</clustering>
</event>
<event>
 6    0  0.2781617E+002  0.1576396E+03  0.7546771E-02  0.1191388E+00
          2   -1    0    0  503    0 -0.00000000000E+00  0.00000000000E+00  0.11211569029E+04  0.11211569029E+04  0.00000000000E+00 0. -1.
         21   -1    0    0  504  502  0.00000000000E+00 -0.00000000000E+00 -0.41610174337E+03  0.41610174337E+03  0.00000000000E+00 0. -1.
         21    1    1    2  503  505  0.16807207248E+02 -0.64966872982E+02 -0.95601303265E+02  0.11680233725E+03  0.00000000000E+00 0.  1.
         21    1    1    2  504  501 -0.32950047619E+02 -0.63638771292E+02  0.26163603717E+02  0.76289796232E+02  0.00000000000E+00 0. -1.
         21    1    1    2  505  502  0.15485241563E+02 -0.34520291169E+02 -0.27726443674E+03  0.27983389911E+03  0.00000000000E+00 0. -1.
          2    1    1    2  501    0  0.65759880867E+00  0.16312593544E+03  0.10517572958E+04  0.10643326137E+04  0.00000000000E+00 0. -1.
<scales pt_clust_3="157.63960" pt_clust_4="76.14289" pt_clust_5="37.83442" pt_clust_6="14000.00000"></scales>
<clustering>
<clus scale="   37.834">  2  5  1 -1</clus>
<clus scale="   76.143">  2  4  1 -1</clus>
<clus scale="  157.640">  2  3  1 -1</clus>
<clus scale="   37.834">  2  3  1 -1</clus>
</clustering>
</event>
<event>
 6    0  0.2781617E+002  0.1185375E+03  0.7546771E-02  0.1245529E+00
         -2   -1    0    0    0  501 -0.00000000000E+00  0.00000000000E+00  0.65880228006E+02  0.65880228006E+02  0.00000000000E+00 0.  1.
         21   -1    0    0  505  502  0.00000000000E+00 -0.00000000000E+00 -0.40045209561E+03  0.40045209561E+03  0.00000000000E+00 0.  1.
         21    1    1    2  503  501  0.49815795632E+02 -0.25289780378E+01  0.19636290093E+01  0.49918584348E+02  0.00000000000E+00 0.  1.
         21    1    1    2  504  503  0.42019961561E+02  0.40380159989E+02 -0.30649286091E+02  0.65845373628E+02  0.00000000000E+00 0.  1.
         21    1    1    2  505  504  0.37294345595E+02 -0.40399324495E+01 -0.59232862441E+02  0.70112204791E+02  0.00000000000E+00 0.  1.
         -2    1    1    2    0  502 -0.12913010279E+03 -0.33811249502E+02 -0.24665334808E+03  0.28045616085E+03  0.00000000000E+00 0.  1.
<scales pt_clust_3="47.99302" pt_clust_4="47.99302" pt_clust_5="37.51252" pt_clust_6="106.48581"></scales>
<clustering>
<clus scale="   37.513">  2  5  1 -1</clus>
<clus scale="   47.993">  3  4 -1 -1</clus>
<clus scale="  106.486">  2  6  1 -1</clus>
<clus scale="   37.513">  2  3  1 -1</clus>
</clustering>
</event>
<event>
 6    0  0.2781617E+002  0.1750826E+03  0.7546771E-02  0.1172649E+00
          2   -1    0    0  502    0 -0.00000000000E+00  0.00000000000E+00  0.14381021678E+04  0.14381021678E+04  0.00000000000E+00 0.  1.
         21   -1    0    0  505  502  0.00000000000E+00 -0.00000000000E+00 -0.15657229407E+03  0.15657229407E+03  0.00000000000E+00 0.  1.
         21    1    1    2  503  501 -0.35028306515E+02 -0.67891677761E+02  0.76270967574E+01  0.76775222379E+02  0.00000000000E+00 0.  1.
         21    1    1    2  504  503 -0.39678222560E+02 -0.44946565981E+02 -0.32193615269E+02  0.68051333588E+02  0.00000000000E+00 0.  1.
         21    1    1    2  505  504  0.32135965162E+02 -0.53517655631E+02 -0.51811853663E+02  0.81125383827E+02  0.00000000000E+00 0.  1.
          2    1    1    2  501    0  0.42570563913E+02  0.16635589937E+03  0.13579082459E+04  0.13687225220E+04  0.00000000000E+00 0.  1.
<scales pt_clust_3="40.18526" pt_clust_4="40.18526" pt_clust_5="62.42483" pt_clust_6="169.10419"></scales>
<clustering>
<clus scale="   40.185">  3  4 -1 -1</clus>
<clus scale="   62.425">  2  5  1 -1</clus>
<clus scale="  169.104">  1  6  2 -1</clus>
<clus scale="   62.425">  2  3  1 -1</clus>
</clustering>
</event>
<event>
 6    0  0.2781617E+002  0.9562922E+02  0.7546771E-02  0.1289765E+00
          2   -1    0    0  505    0 -0.00000000000E+00  0.00000000000E+00  0.65057478341E+03  0.65057478341E+03  0.00000000000E+00 0. -1.
         21   -1    0    0  504  502  0.00000000000E+00 -0.00000000000E+00 -0.36061088334E+03  0.36061088334E+03  0.00000000000E+00 0.  1.
         21    1    1    2  503  501  0.32813846218E+02 -0.61451658456E+02 -0.71188017887E+02  0.99603156181E+02  0.00000000000E+00 0.  1.
         21    1    1    2  504  503  0.24910635541E+02  0.21454702702E+02  0.87612121158E+01  0.34023563435E+02  0.00000000000E+00 0. -1.
         21    1    1    2  505  502  0.38496308057E+02  0.46245781887E+02 -0.25528512250E+03  0.26228063567E+03  0.00000000000E+00 0.  1.
          2    1    1    2  501    0 -0.96220789815E+02 -0.62488261334E+01  0.60767582833E+03  0.61527831147E+03  0.00000000000E+00 0. -1.
<scales pt_clust_3="68.35382" pt_clust_4="32.87619" pt_clust_5="95.62922" pt_clust_6="14000.00000"></scales>
<clustering>
<clus scale="   32.876">  2  4  1 -1</clus>
<clus scale="   68.354">  2  3  1 -1</clus>
<clus scale="   95.629">  2  5  1 -1</clus>
<clus scale="   32.876">  2  3  1 -1</clus>
</clustering>
</event>
<event>
 6    0  0.2781617E+002  0.1450004E+03  0.7546771E-02  0.1206755E+00
         21   -1    0    0  503  502  0.00000000000E+00  0.00000000000E+00  0.32141419357E+03  0.32141419357E+03  0.00000000000E+00 0. -1.
          2   -1    0    0  502    0 -0.00000000000E+00 -0.00000000000E+00 -0.27022946748E+04  0.27022946748E+04  0.00000000000E+00 0.  1.
         21    1    1    2  503  505 -0.39092642571E+02 -0.11652152147E+02 -0.57751604509E+01  0.41199027065E+02  0.00000000000E+00 0.  1.
         21    1    1    2  504  501  0.39791341036E+02 -0.49994685746E+02  0.16084495270E+03  0.17307200303E+03  0.00000000000E+00 0. -1.
         21    1    1    2  505  504  0.23843626208E+02 -0.75530854773E+02  0.12329491684E+03  0.14654373085E+03  0.00000000000E+00 0. -1.
          2    1    1    2  501    0 -0.24542324672E+02  0.13717769267E+03 -0.26592451903E+04  0.26628941074E+04  0.00000000000E+00 0.  1.
<scales pt_clust_3="40.79225" pt_clust_4="36.06933" pt_clust_5="36.06933" pt_clust_6="139.32849"></scales>
<clustering>
<clus scale="   36.069">  4  5 -1 -1</clus>
<clus scale="   40.792">  1  3  2 -1</clus>
<clus scale="  139.328">  2  6  1 -1</clus>
<clus scale="   40.792">  1  3  2 -1</clus>
</clustering>
</event>
<event>
 6    0  0.2781617E+002  0.1518202E+03  0.7546771E-02  0.1198254E+00
         21   -1    0    0  505  502  0.00000000000E+00  0.00000000000E+00  0.85196075756E+02  0.85196075756E+02  0.00000000000E+00 0.  1.
          2   -1    0    0  503    0 -0.00000000000E+00 -0.00000000000E+00 -0.26936713649E+04  0.26936713649E+04  0.00000000000E+00 0.  1.
         21    1    1    2  503  504  0.15239163355E+03 -0.29566636932E+02 -0.10552284659E+03  0.18770313569E+03  0.00000000000E+00 0.  1.
         21    1    1    2  504  502  0.23689419357E+02  0.18755392475E+02 -0.63355006244E+02  0.70191239856E+02  0.00000000000E+00 0.  1.
         21    1    1    2  505  501 -0.15322005766E+03 -0.21459776402E+02 -0.10716489851E+03  0.18820526970E+03  0.00000000000E+00 0.  1.
          2    1    1    2  501    0 -0.22860995245E+02  0.32271020859E+02 -0.23324325378E+04  0.23327677954E+04  0.00000000000E+00 0.  1.
<scales pt_clust_3="151.82016" pt_clust_4="30.21512" pt_clust_5="14000.00000" pt_clust_6="39.55134"></scales>
<clustering>
<clus scale="   30.215">  1  4  2 -1</clus>
<clus scale="   39.551">  2  6  1 -1</clus>
<clus scale="  151.820">  2  3  1 -1</clus>
<clus scale="   30.215">  1  3  2 -1</clus>
</clustering>
</event>
<event>
 6    0  0.2781617E+002  0.9047340E+02  0.7546771E-02  0.1301709E+00
          1   -1    0    0  503    0 -0.00000000000E+00  0.00000000000E+00  0.29850257415E+04  0.29850257415E+04  0.00000000000E+00 0. -1.
         21   -1    0    0  504  502  0.00000000000E+00 -0.00000000000E+00 -0.20159314219E+02  0.20159314219E+02  0.00000000000E+00 0.  1.
         21    1    1    2  503  502  0.73139680690E+00 -0.75437245694E+02  0.16521839066E+03  0.18162717195E+03  0.00000000000E+00 0.  1.
         21    1    1    2  504  505 -0.24753397563E+02  0.66395849816E+02  0.16976622619E+03  0.18396116742E+03  0.00000000000E+00 0.  1.
         21    1    1    2  505  501 -0.40652943767E+02  0.54466699808E+02  0.27104832950E+03  0.27943958229E+03  0.00000000000E+00 0.  1.
          1    1    1    2  501    0  0.64674944524E+02 -0.45425303930E+02  0.23588334810E+04  0.23601571341E+04  0.00000000000E+00 0. -1.
<scales pt_clust_3="75.44079" pt_clust_4="38.39593" pt_clust_5="38.39593" pt_clust_6="81.53771"></scales>
<clustering>
<clus scale="   38.396">  4  5 -1 -1</clus>
<clus scale="   75.441">  2  3  1 -1</clus>
<clus scale="   81.538">  1  6  2 -1</clus>
<clus scale="   75.441">  2  3  1 -1</clus>
</clustering>
</event>
<event>
 6    0  0.2781617E+002  0.1590134E+03  0.7546771E-02  0.1189815E+00
          1   -1    0    0  503    0 -0.00000000000E+00  0.00000000000E+00  0.23044783902E+04  0.23044783902E+04  0.00000000000E+00 0.  1.
         21   -1    0    0  501  502  0.00000000000E+00 -0.00000000000E+00 -0.18976272204E+02  0.18976272204E+02  0.00000000000E+00 0.  1.
         21    1    1    2  503  504  0.13145765579E+03  0.73971157708E+02  0.12353337367E+04  0.12445088543E+04  0.00000000000E+00 0.  1.
         21    1    1    2  504  505 -0.51607236919E+02 -0.20582315266E+02  0.20086323681E+03  0.20840580248E+03  0.00000000000E+00 0. -1.
         21    1    1    2  505  502 -0.61937721617E+02 -0.80714156742E+02  0.24410480538E+03  0.26445833786E+03  0.00000000000E+00 0.  1.
          1    1    1    2  501    0 -0.17912697253E+02  0.27325314300E+02  0.60520033907E+03  0.60608166772E+03  0.00000000000E+00 0.  1.
<scales pt_clust_3="151.11169" pt_clust_4="37.15828" pt_clust_5="37.15828" pt_clust_6="32.67319"></scales>
<clustering>
<clus scale="   32.673">  1  6  2 -1</clus>
<clus scale="   37.158">  4  5 -1 -1</clus>
<clus scale="  151.112">  1  3  2 -1</clus>
<clus scale="  159.013">  2  3  1 -1</clus>
</clustering>
</event>
<event>
 6    0  0.2781617E+002  0.1532278E+03  0.7546771E-02  0.1196562E+00
         21   -1    0    0  501  502  0.00000000000E+00  0.00000000000E+00  0.19931582284E+03  0.19931582284E+03  0.00000000000E+00 0.  1.
         -4   -1    0    0    0  501 -0.00000000000E+00 -0.00000000000E+00 -0.40313257145E+03  0.40313257145E+03  0.00000000000E+00 0. -1.
         21    1    1    2  503  504 -0.54714787689E+02  0.52050713579E+01 -0.15917969833E+02  0.57220472938E+02  0.00000000000E+00 0.  1.
         21    1    1    2  504  502 -0.70798291963E+02 -0.15175405230E+02  0.41918796386E+02  0.83665264950E+02  0.00000000000E+00 0.  1.
         21    1    1    2  505  503  0.15656669335E+03  0.11189951336E+02  0.61505898977E+02  0.16858623931E+03  0.00000000000E+00 0.  1.
         -4    1    1    2    0  505 -0.31053613696E+02 -0.12196174631E+01 -0.29132347414E+03  0.29297641709E+03  0.00000000000E+00 0. -1.
<scales pt_clust_3="52.59008" pt_clust_4="52.59008" pt_clust_5="141.98218" pt_clust_6="31.07755"></scales>
<clustering>
<clus scale="   31.078">  2  6  1 -1</clus>
<clus scale="   52.590">  3  4 -1 -1</clus>
<clus scale="  141.982">  2  5  1 -1</clus>
<clus scale="  153.228">  1  3  2 -1</clus>
</clustering>
</event>
<event>
 6    0  0.2781617E+002  0.1206288E+03  0.7546771E-02  0.1242063E+00
          3   -1    0    0  504    0 -0.00000000000E+00  0.00000000000E+00  0.71851916461E+02  0.71851916461E+02  0.00000000000E+00 0. -1.
         21   -1    0    0  505  502  0.00000000000E+00 -0.00000000000E+00 -0.68723688201E+03  0.68723688201E+03  0.00000000000E+00 0. -1.
         21    1    1    2  503  502 -0.21377571261E+02  0.10565336198E+03 -0.12864302895E+03  0.16783522380E+03  0.00000000000E+00 0. -1.
         21    1    1    2  504  503 -0.21386673332E+02  0.41553462398E+02 -0.19693519274E+02  0.50714048694E+02  0.00000000000E+00 0. -1.
         21    1    1    2  505  501  0.56897643967E+02 -0.87923049698E+02 -0.46801238147E+03  0.47958669057E+03  0.00000000000E+00 0. -1.
          3    1    1    2  501    0 -0.14133399374E+02 -0.59283774680E+02  0.96396414253E+00  0.60952835414E+02  0.00000000000E+00 0. -1.
<scales pt_clust_3="31.31194" pt_clust_4="31.31194" pt_clust_5="110.85975" pt_clust_6="60.94521"></scales>
<clustering>
<clus scale="   31.312">  3  4 -1 -1</clus>
<clus scale="   60.945">  1  6  2 -1</clus>
<clus scale="  110.860">  2  5  1 -1</clus>
<clus scale="  110.860">  2  3  1 -1</clus>
</clustering>
</event>
<event>
 6    0  0.2781617E+002  0.2619443E+03  0.7546771E-02  0.1105981E+00
          2   -1    0    0  502    0 -0.00000000000E+00  0.00000000000E+00  0.12379433801E+04  0.12379433801E+04  0.00000000000E+00 0.  1.
         21   -1    0    0  505  502  0.00000000000E+00 -0.00000000000E+00 -0.14593690014E+03  0.14593690014E+03  0.00000000000E+00 0.  1.
         21    1    1    2  503  504  0.89916636914E+02 -0.11317311558E+02  0.13147175652E+02  0.91574731025E+02  0.00000000000E+00 0.  1.
         21    1    1    2  504  501  0.15065022124E+03  0.37524525288E+02  0.25577314249E+02  0.15734604591E+03  0.00000000000E+00 0.  1.
         21    1    1    2  505  503  0.20300881760E+02 -0.37470585116E+02 -0.68336605487E+01  0.43160971556E+02  0.00000000000E+00 0.  1.
          2    1    1    2  501    0 -0.26086773992E+03  0.11263371386E+02  0.10601156506E+04  0.10917985318E+04  0.00000000000E+00 0.  1.
<scales pt_clust_3="33.32694" pt_clust_4="33.32694" pt_clust_5="42.61655" pt_clust_6="258.28680"></scales>
<clustering>
<clus scale="   33.327">  3  4 -1 -1</clus>
<clus scale="   42.617">  2  5  1 -1</clus>
<clus scale="  258.287">  1  6  2 -1</clus>
<clus scale="   42.617">  2  3  1 -1</clus>
</clustering>
</event>
<event>
 6    0  0.2781617E+002  0.7634799E+02  0.7546771E-02  0.1339747E+00
         21   -1    0    0  504  502  0.00000000000E+00  0.00000000000E+00  0.90571033624E+02  0.90571033624E+02  0.00000000000E+00 0. -1.
         -4   -1    0    0    0  501 -0.00000000000E+00 -0.00000000000E+00 -0.81833025023E+03  0.81833025023E+03  0.00000000000E+00 0. -1.
         21    1    1    2  503  505  0.56028664911E+02  0.12075898402E+02 -0.16240066884E+02  0.59571624002E+02  0.00000000000E+00 0. -1.
         21    1    1    2  504  501 -0.83241556504E+02  0.14140444401E+02 -0.95743508635E+02  0.12765550651E+03  0.00000000000E+00 0. -1.
         21    1    1    2  505  502  0.55688014805E+02 -0.53534546396E+02  0.23840247803E+02  0.80842192363E+02  0.00000000000E+00 0. -1.
         -4    1    1    2    0  503 -0.28475123211E+02  0.27318203594E+02 -0.63961588889E+03  0.64083196098E+03  0.00000000000E+00 0. -1.
<scales pt_clust_3="53.07438" pt_clust_4="76.34799" pt_clust_5="14000.00000" pt_clust_6="39.46032"></scales>
<clustering>
<clus scale="   39.460">  2  6  1 -1</clus>
<clus scale="   53.074">  2  3  1 -1</clus>
<clus scale="   76.348">  2  4  1 -1</clus>
<clus scale="   76.348">  1  3  2 -1</clus>
</clustering>
</event>
<event>
 6    0  0.2781617E+002  0.8016756E+02  0.7546771E-02  0.1328577E+00
         21   -1    0    0  505  502  0.00000000000E+00  0.00000000000E+00  0.73756047485E+03  0.73756047485E+03  0.00000000000E+00 0.  1.
          1   -1    0    0  504    0 -0.00000000000E+00 -0.00000000000E+00 -0.57119960640E+03  0.57119960640E+03  0.00000000000E+00 0.  1.
         21    1    1    2  503  501  0.58939062776E+02  0.86425079205E+02 -0.29921566871E+02  0.10880444660E+03  0.00000000000E+00 0.  1.
         21    1    1    2  504  502  0.15374881035E+02 -0.85142587907E+02  0.54356785255E+03  0.55041044464E+03  0.00000000000E+00 0.  1.
         21    1    1    2  505  503 -0.29527873384E+02  0.74642331471E+01  0.14853700911E+03  0.15162734964E+03  0.00000000000E+00 0.  1.
          1    1    1    2  501    0 -0.44786070428E+02 -0.87467244454E+01 -0.49582242634E+03  0.49791784037E+03  0.00000000000E+00 0.  1.
<scales pt_clust_3="80.16756" pt_clust_4="14000.00000" pt_clust_5="30.45669" pt_clust_6="45.68133"></scales>
<clustering>
<clus scale="   30.457">  1  5  2 -1</clus>
<clus scale="   45.681">  2  6  1 -1</clus>
<clus scale="   80.168">  2  3  1 -1</clus>
<clus scale="   30.457">  1  3  2 -1</clus>
</clustering>
</event>
<event>
 6    0  0.4463452E+002  0.1248355E+03  0.7546771E-02  0.1235327E+00
          1   -1    0    0  503    0 -0.00000000000E+00  0.00000000000E+00  0.10935408637E+04  0.10935408637E+04  0.00000000000E+00 0. -1.
         21   -1    0    0  505  502  0.00000000000E+00 -0.00000000000E+00 -0.24470797216E+03  0.24470797216E+03  0.00000000000E+00 0. -1.
         21    1    1    2  503  502 -0.22563361673E+02  0.68758352078E+02 -0.21302719222E+03  0.22498311247E+03  0.00000000000E+00 0. -1.
         21    1    1    2  504  501 -0.53795014280E+01  0.36509087710E+02  0.16975688530E+02  0.40620518487E+02  0.00000000000E+00 0. -1.
         21    1    1    2  505  504 -0.32497944133E+02  0.50332846409E+01  0.16860323888E+02  0.36955660578E+02  0.00000000000E+00 0. -1.
          1    1    1    2  501    0  0.60440807234E+02 -0.11030072443E+03  0.10280240714E+04  0.10356895444E+04  0.00000000000E+00 0. -1.
<scales pt_clust_3="14000.00000" pt_clust_4="37.42632" pt_clust_5="32.88541" pt_clust_6="124.83550"></scales>
<clustering>
<clus scale="   32.885">  2  5  1 -1</clus>
<clus scale="   37.426">  2  4  1 -1</clus>
<clus scale="  124.835">  1  6  2 -1</clus>
<clus scale="   32.885">  2  3  1 -1</clus>
</clustering>
</event>
<event>
 6    0  0.2781617E+002  0.1342945E+03  0.7546771E-02  0.1221219E+00
          1   -1    0    0  504    0 -0.00000000000E+00  0.00000000000E+00  0.41569610571E+04  0.41569610571E+04  0.00000000000E+00 0. -1.
         21   -1    0    0  505  502  0.00000000000E+00 -0.00000000000E+00 -0.89111182038E+03  0.89111182038E+03  0.00000000000E+00 0.  1.
         21    1    1    2  503  502  0.76765168727E+02 -0.52394369011E+01 -0.48573714201E+03  0.49179356843E+03  0.00000000000E+00 0.  1.
         21    1    1    2  504  503  0.33053039085E+02 -0.32811958684E+02 -0.24736081812E+03  0.25170717584E+03  0.00000000000E+00 0.  1.
         21    1    1    2  505  501  0.17237843183E+02  0.44800480461E+02 -0.14804284128E+03  0.15563068188E+03  0.00000000000E+00 0.  1.
          1    1    1    2  501    0 -0.12705605099E+03 -0.67490848761E+01  0.41469900381E+04  0.41489414513E+04  0.00000000000E+00 0. -1.
<scales pt_clust_3="33.48865" pt_clust_4="33.48865" pt_clust_5="48.00236" pt_clust_6="127.20933"></scales>
<clustering>
<clus scale="   33.489">  3  4 -1 -1</clus>
<clus scale="   48.002">  2  5  1 -1</clus>
<clus scale="  127.209">  1  6  2 -1</clus>
<clus scale="   48.002">  2  3  1 -1</clus>
</clustering>
</event>
<event>
 6    0  0.2781617E+002  0.1368233E+03  0.7546771E-02  0.1217668E+00
         -3   -1    0    0    0  501 -0.00000000000E+00  0.00000000000E+00  0.38815134145E+03  0.38815134145E+03  0.00000000000E+00 0. -1.
         21   -1    0    0  504  502  0.00000000000E+00 -0.00000000000E+00 -0.55734148105E+03  0.55734148105E+03  0.00000000000E+00 0.  1.
         21    1    1    2  503  505  0.56997267426E+02 -0.14071414425E+03 -0.23749209736E+02  0.15366581874E+03  0.00000000000E+00 0. -1.
         21    1    1    2  504  501 -0.52458745862E+02  0.21275274197E+02 -0.97615760379E+02  0.11284234127E+03  0.00000000000E+00 0. -1.
         21    1    1    2  505  502  0.92527302766E+02  0.11690491908E+03 -0.33991729208E+03  0.37117627527E+03  0.00000000000E+00 0.  1.
         -3    1    1    2    0  503 -0.97065824330E+02  0.25339509726E+01  0.29209212260E+03  0.30780838722E+03  0.00000000000E+00 0. -1.
<scales pt_clust_3="14000.00000" pt_clust_4="56.60881" pt_clust_5="136.82330" pt_clust_6="98.02063"></scales>
<clustering>
<clus scale="   56.609">  2  4  1 -1</clus>
<clus scale="   98.021">  1  6  2 -1</clus>
<clus scale="  136.823">  2  5  1 -1</clus>
<clus scale="   56.609">  2  3  1 -1</clus>
</clustering>
</event>
<event>
 6    0  0.2781617E+002  0.7194733E+02  0.7546771E-02  0.1353594E+00
          1   -1    0    0  505    0 -0.00000000000E+00  0.00000000000E+00  0.87665579803E+03  0.87665579803E+03  0.00000000000E+00 0. -1.
         21   -1    0    0  503  502  0.00000000000E+00 -0.00000000000E+00 -0.18615650048E+03  0.18615650048E+03  0.00000000000E+00 0. -1.
         21    1    1    2  503  501  0.13014714862E+03  0.20541513015E+02 -0.66649786158E+02  0.14765645277E+03  0.00000000000E+00 0. -1.
         21    1    1    2  504  502 -0.19130966374E+02 -0.26752385624E+02 -0.46081659732E+02  0.56614515582E+02  0.00000000000E+00 0.  1.
         21    1    1    2  505  504 -0.49437358355E+02  0.41917125860E+02  0.14259969482E+02  0.66365989566E+02  0.00000000000E+00 0. -1.
          1    1    1    2  501    0 -0.61578823889E+02 -0.35706253251E+02  0.78897077396E+03  0.79217534059E+03  0.00000000000E+00 0. -1.
<scales pt_clust_3="71.94733" pt_clust_4="32.88896" pt_clust_5="64.60360" pt_clust_6="14000.00000"></scales>
<clustering>
<clus scale="   32.889">  2  4  1 -1</clus>
<clus scale="   64.604">  2  5  1 -1</clus>
<clus scale="   71.947">  2  3  1 -1</clus>
<clus scale="   32.889">  2  3  1 -1</clus>
</clustering>
</event>
<event>
 6    0  0.2781617E+002  0.9124859E+02  0.7546771E-02  0.1299856E+00
         21   -1    0    0  504  502  0.00000000000E+00  0.00000000000E+00  0.41878123169E+03  0.41878123169E+03  0.00000000000E+00 0.  1.
         -3   -1    0    0    0  501 -0.00000000000E+00 -0.00000000000E+00 -0.38222138957E+03  0.38222138957E+03  0.00000000000E+00 0. -1.
         21    1    1    2  503  502  0.87880239856E+01  0.41376938087E+02  0.64190372399E+02  0.76874470924E+02  0.00000000000E+00 0. -1.
         21    1    1    2  504  501  0.70087317421E+02  0.55177181283E+01  0.15561433790E+03  0.17075859989E+03  0.00000000000E+00 0. -1.
         21    1    1    2  505  503 -0.10363028437E+03 -0.69453703117E+02  0.16313840165E+03  0.20537086163E+03  0.00000000000E+00 0.  1.
         -3    1    1    2    0  505  0.24754942964E+02  0.22559046901E+02 -0.34638326983E+03  0.34799868881E+03  0.00000000000E+00 0. -1.
<scales pt_clust_3="47.35821" pt_clust_4="91.24859" pt_clust_5="14000.00000" pt_clust_6="33.49206"></scales>
<clustering>
<clus scale="   33.492">  2  6  1 -1</clus>
<clus scale="   47.358">  1  3  2 -1</clus>
<clus scale="   91.249">  1  4  2 -1</clus>
<clus scale="   47.358">  1  3  2 -1</clus>
</clustering>
</event>
<event>
 6    0  0.2781617E+002  0.1058489E+03  0.7546771E-02  0.1268456E+00
         21   -1    0    0  504  502  0.00000000000E+00  0.00000000000E+00  0.41642795162E+03  0.41642795162E+03  0.00000000000E+00 0.  1.
         -3   -1    0    0    0  501 -0.00000000000E+00 -0.00000000000E+00 -0.66007689158E+03  0.66007689158E+03  0.00000000000E+00 0.  1.
         21    1    1    2  503  505  0.83686730191E+02 -0.69654006830E+02  0.10875879862E+03  0.15389485292E+03  0.00000000000E+00 0.  1.
         21    1    1    2  504  501 -0.55796059728E+00  0.52996300921E+02  0.45365715227E+02  0.69763653498E+02  0.00000000000E+00 0. -1.
         21    1    1    2  505  502 -0.14706175392E+00 -0.48888712391E+02  0.22036754683E+03  0.22572546051E+03  0.00000000000E+00 0.  1.
         -3    1    1    2    0  503 -0.82981707840E+02  0.65546418300E+02 -0.61814100063E+03  0.62712087627E+03  0.00000000000E+00 0.  1.
<scales pt_clust_3="105.84888" pt_clust_4="38.44810" pt_clust_5="48.88893" pt_clust_6="14000.00000"></scales>
<clustering>
<clus scale="   48.889">  1  5  2 -1</clus>
<clus scale="   38.448">  1  4  2 -1</clus>
<clus scale="  105.849">  1  3  2 -1</clus>
<clus scale="   48.889">  1  3  2 -1</clus>
</clustering>
</event>
<event>
 6    0  0.2781617E+002  0.1653804E+03  0.7546771E-02  0.1182753E+00
          2   -1    0    0  503    0 -0.00000000000E+00  0.00000000000E+00  0.94964625172E+03  0.94964625172E+03  0.00000000000E+00 0.  1.
         21   -1    0    0  504  502  0.00000000000E+00 -0.00000000000E+00 -0.30748239038E+03  0.30748239038E+03  0.00000000000E+00 0. -1.
         21    1    1    2  503  505  0.29271560925E+02 -0.12779420729E+02  0.39581986205E+02  0.50861296730E+02  0.00000000000E+00 0. -1.
         21    1    1    2  504  501 -0.89456790512E+02 -0.12623472836E+03 -0.21127351635E+03  0.26186680340E+03  0.00000000000E+00 0. -1.
         21    1    1    2  505  502 -0.42837258133E+02  0.24350227245E+02 -0.48047158057E+02  0.68822188636E+02  0.00000000000E+00 0.  1.
          2    1    1    2  501    0  0.10302248772E+03  0.11466392184E+03  0.86190254954E+03  0.87557835334E+03  0.00000000000E+00 0.  1.
<scales pt_clust_3="31.93960" pt_clust_4="165.38036" pt_clust_5="48.90959" pt_clust_6="14000.00000"></scales>
<clustering>
<clus scale="   31.940">  1  3  2 -1</clus>
<clus scale="   48.910">  2  5  1 -1</clus>
<clus scale="  165.380">  2  4  1 -1</clus>
<clus scale="   48.910">  2  3  1 -1</clus>
</clustering>
</event>
<event>
 6    0  0.2781617E+002  0.8798094E+02  0.7546771E-02  0.1307816E+00
         -2   -1    0    0    0  501 -0.00000000000E+00  0.00000000000E+00  0.72070482359E+03  0.72070482359E+03  0.00000000000E+00 0. -1.
         21   -1    0    0  505  502  0.00000000000E+00 -0.00000000000E+00 -0.17982570460E+03  0.17982570460E+03  0.00000000000E+00 0. -1.
         21    1    1    2  503  504  0.11942568662E+02  0.11924763721E+03 -0.11709879308E+03  0.16755521856E+03  0.00000000000E+00 0. -1.
         21    1    1    2  504  502  0.30078886516E+02  0.44326266218E+01 -0.36278639320E+01  0.30619421770E+02  0.00000000000E+00 0. -1.
         21    1    1    2  505  501 -0.34433735581E+02 -0.36690374727E+02  0.18907345507E+02  0.53752706516E+02  0.00000000000E+00 0. -1.
         -2    1    1    2    0  503 -0.75877195974E+01 -0.86989889101E+02  0.64269843049E+03  0.64860318134E+03  0.00000000000E+00 0. -1.
<scales pt_clust_3="87.98094" pt_clust_4="30.40374" pt_clust_5="47.81021" pt_clust_6="14000.00000"></scales>
<clustering>
<clus scale="   30.404">  2  4  1 -1</clus>
<clus scale="   47.810">  2  5  1 -1</clus>
<clus scale="   87.981">  2  3  1 -1</clus>
<clus scale="   30.404">  2  3  1 -1</clus>
</clustering>
</event>
<event>
 6    0  0.2781617E+002  0.1048110E+03  0.7546771E-02  0.1270492E+00
         21   -1    0    0  501  502  0.00000000000E+00  0.00000000000E+00  0.96399378200E+03  0.96399378200E+03  0.00000000000E+00 0.  1.
          1   -1    0    0  504    0 -0.00000000000E+00 -0.00000000000E+00 -0.28461562794E+02  0.28461562794E+02  0.00000000000E+00 0.  1.
         21    1    1    2  503  505  0.46874052587E+02 -0.35248590107E+02  0.23427734921E+03  0.24150676235E+03  0.00000000000E+00 0.  1.
         21    1    1    2  504  503  0.40342686402E+02  0.61740083627E+02  0.18751959521E+03  0.20150178376E+03  0.00000000000E+00 0.  1.
         21    1    1    2  505  502  0.37884942655E+02 -0.46523139309E+01  0.28735590218E+03  0.28987984997E+03  0.00000000000E+00 0.  1.
          1    1    1    2  501    0 -0.12510168164E+03 -0.21839179589E+02  0.22637937261E+03  0.25956694870E+03  0.00000000000E+00 0.  1.
<scales pt_clust_3="31.18538" pt_clust_4="73.75209" pt_clust_5="31.18538" pt_clust_6="97.42192"></scales>
<clustering>
<clus scale="   31.185">  3  5 -1 -1</clus>
<clus scale="   73.752">  2  4  1 -1</clus>
<clus scale="   97.422">  2  6  1 -1</clus>
<clus scale="  104.811">  1  3  2 -1</clus>
</clustering>
</event>
<event>
 6    0  0.2781617E+002  0.1802856E+03  0.7546771E-02  0.1167527E+00
         21   -1    0    0  503  502  0.00000000000E+00  0.00000000000E+00  0.14797165541E+03  0.14797165541E+03  0.00000000000E+00 0. -1.
          2   -1    0    0  504    0 -0.00000000000E+00 -0.00000000000E+00 -0.51865482140E+03  0.51865482140E+03  0.00000000000E+00 0. -1.
         21    1    1    2  503  501  0.64596332676E+02  0.19401802543E+03 -0.13082923885E+03  0.24275907836E+03  0.00000000000E+00 0. -1.
         21    1    1    2  504  505 -0.28917486646E+02 -0.77987696970E+02 -0.11406558680E+02  0.83954818168E+02  0.00000000000E+00 0. -1.
         21    1    1    2  505  502 -0.34453757374E+02 -0.74796738284E+02  0.22682413038E+02  0.85417242500E+02  0.00000000000E+00 0. -1.
          2    1    1    2  501    0 -0.12250886563E+01 -0.41233590174E+02 -0.25112978150E+03  0.25449533779E+03  0.00000000000E+00 0. -1.
<scales pt_clust_3="176.92412" pt_clust_4="34.47942" pt_clust_5="34.47942" pt_clust_6="41.25179"></scales>
<clustering>
<clus scale="   34.479">  4  5 -1 -1</clus>
<clus scale="   41.252">  2  6  1 -1</clus>
<clus scale="  176.924">  2  3  1 -1</clus>
<clus scale="  180.286">  1  3  2 -1</clus>
</clustering>
</event>
<event>
 6    0  0.2781617E+002  0.9939073E+02  0.7546771E-02  0.1281582E+00
         21   -1    0    0  504  502  0.00000000000E+00  0.00000000000E+00  0.18610739532E+03  0.18610739532E+03  0.00000000000E+00 0.  1.
          2   -1    0    0  503    0 -0.00000000000E+00 -0.00000000000E+00 -0.13011826820E+04  0.13011826820E+04  0.00000000000E+00 0.  1.
         21    1    1    2  503  505 -0.98169174396E+02 -0.11726448334E+02 -0.14863749296E+03  0.17851554752E+03  0.00000000000E+00 0.  1.
         21    1    1    2  504  501  0.53726840871E+02  0.61125124782E+02  0.13733264113E+03  0.15963429653E+03  0.00000000000E+00 0.  1.
         21    1    1    2  505  502  0.34772805125E+02 -0.61278363582E+01  0.82309228412E+01  0.36255295413E+02  0.00000000000E+00 0.  1.
          2    1    1    2  501    0  0.96695284009E+01 -0.43270840090E+02 -0.11120013577E+04  0.11128849379E+04  0.00000000000E+00 0.  1.
<scales pt_clust_3="14000.00000" pt_clust_4="99.39073" pt_clust_5="35.30862" pt_clust_6="44.37474"></scales>
<clustering>
<clus scale="   35.309">  1  5  2 -1</clus>
<clus scale="   44.375">  2  6  1 -1</clus>
<clus scale="   99.391">  1  4  2 -1</clus>
<clus scale="   35.309">  1  3  2 -1</clus>
</clustering>
</event>
<event>
 6    0  0.2781617E+002  0.2207278E+03  0.7546771E-02  0.1133342E+00
         21   -1    0    0  503  502  0.00000000000E+00  0.00000000000E+00  0.94996944138E+03  0.94996944138E+03  0.00000000000E+00 0.  1.
          1   -1    0    0  505    0 -0.00000000000E+00 -0.00000000000E+00 -0.61278766930E+03  0.61278766930E+03  0.00000000000E+00 0. -1.
         21    1    1    2  503  501  0.29321537239E+02 -0.61437750434E+02  0.25666248920E+02  0.72753735698E+02  0.00000000000E+00 0. -1.
         21    1    1    2  504  502  0.46851781197E+02  0.11416349276E+03  0.23598132377E+03  0.26629978905E+03  0.00000000000E+00 0.  1.
         21    1    1    2  505  504  0.12779635671E+03  0.39439373979E+02  0.62040207372E+03  0.63465432015E+03  0.00000000000E+00 0.  1.
          1    1    1    2  501    0 -0.20396967514E+03 -0.92165116308E+02 -0.54486787433E+03  0.58904926578E+03  0.00000000000E+00 0. -1.
<scales pt_clust_3="68.07606" pt_clust_4="111.55074" pt_clust_5="14000.00000" pt_clust_6="220.72782"></scales>
<clustering>
<clus scale="   68.076">  1  3  2 -1</clus>
<clus scale="  111.551">  1  4  2 -1</clus>
<clus scale="  220.728">  2  6  1 -1</clus>
<clus scale="   68.076">  1  3  2 -1</clus>
</clustering>
</event>
<event>
 6    0  0.2781617E+002  0.1127082E+03  0.7546771E-02  0.1255635E+00
         21   -1    0    0  504  502  0.00000000000E+00  0.00000000000E+00  0.30944627302E+03  0.30944627302E+03  0.00000000000E+00 0.  1.
          1   -1    0    0  503    0 -0.00000000000E+00 -0.00000000000E+00 -0.58900596449E+03  0.58900596449E+03  0.00000000000E+00 0. -1.
         21    1    1    2  503  505  0.53322136442E+02 -0.21287087124E+02  0.10798643052E+03  0.12230069293E+03  0.00000000000E+00 0.  1.
         21    1    1    2  504  501 -0.10881742320E+03  0.33442663965E+02 -0.12747624031E+03  0.17090885058E+03  0.00000000000E+00 0. -1.
         21    1    1    2  505  502  0.36730207923E+02 -0.36155901788E+02  0.16818530431E+03  0.17590524152E+03  0.00000000000E+00 0.  1.
          1    1    1    2  501    0  0.18765078832E+02  0.24000324947E+02 -0.42825518599E+03  0.42933745248E+03  0.00000000000E+00 0. -1.
<scales pt_clust_3="33.31531" pt_clust_4="107.03415" pt_clust_5="33.31531" pt_clust_6="30.46545"></scales>
<clustering>
<clus scale="   30.465">  2  6  1 -1</clus>
<clus scale="   33.315">  3  5 -1 -1</clus>
<clus scale="  107.034">  2  4  1 -1</clus>
<clus scale="  112.708">  1  3  2 -1</clus>
</clustering>
</event>
<event>
 6    0  0.2781617E+002  0.9325730E+02  0.7546771E-02  0.1295150E+00
         21   -1    0    0  505  502  0.00000000000E+00  0.00000000000E+00  0.55583249730E+02  0.55583249730E+02  0.00000000000E+00 0.  1.
          2   -1    0    0  503    0 -0.00000000000E+00 -0.00000000000E+00 -0.31799792661E+04  0.31799792661E+04  0.00000000000E+00 0.  1.
         21    1    1    2  503  504  0.93888030341E+02 -0.38948121271E+02 -0.10634386101E+03  0.14710858291E+03  0.00000000000E+00 0.  1.
         21    1    1    2  504  502 -0.25349650352E+02  0.25254779041E+02 -0.64804643605E+02  0.74027362982E+02  0.00000000000E+00 0.  1.
         21    1    1    2  505  501 -0.80712156692E+01  0.85762674231E+02 -0.32352033646E+02  0.92016492515E+02  0.00000000000E+00 0.  1.
          2    1    1    2  501    0 -0.60467164319E+02 -0.72069332001E+02 -0.29208954781E+04  0.29224100774E+04  0.00000000000E+00 0.  1.
<scales pt_clust_3="88.58090" pt_clust_4="35.78280" pt_clust_5="93.25730" pt_clust_6="14000.00000"></scales>
<clustering>
<clus scale="   35.783">  1  4  2 -1</clus>
<clus scale="   88.581">  1  3  2 -1</clus>
<clus scale="   93.257">  1  5  2 -1</clus>
<clus scale="   35.783">  1  3  2 -1</clus>
</clustering>
</event>
<event>
 6    0  0.2781617E+002  0.1414200E+03  0.7546771E-02  0.1211431E+00
         21   -1    0    0  503  502  0.00000000000E+00  0.00000000000E+00  0.84217464233E+02  0.84217464233E+02  0.00000000000E+00 0.  1.
          2   -1    0    0  504    0 -0.00000000000E+00 -0.00000000000E+00 -0.19357196938E+04  0.19357196938E+04  0.00000000000E+00 0.  1.
         21    1    1    2  503  505 -0.28387037956E+02  0.72237112337E+02  0.24793322958E+02  0.81478421598E+02  0.00000000000E+00 0.  1.
         21    1    1    2  504  502  0.49508947302E+02 -0.13684790133E+03 -0.33310112121E+03  0.36350356382E+03  0.00000000000E+00 0.  1.
         21    1    1    2  505  501  0.89709556252E+01  0.50146448702E+02 -0.25635786267E+02  0.57029272306E+02  0.00000000000E+00 0.  1.
          2    1    1    2  501    0 -0.30092864971E+02  0.14464340287E+02 -0.15175586450E+04  0.15179259003E+04  0.00000000000E+00 0.  1.
<scales pt_clust_3="50.07471" pt_clust_4="127.16392" pt_clust_5="50.07471" pt_clust_6="33.38859"></scales>
<clustering>
<clus scale="   33.389">  2  6  1 -1</clus>
<clus scale="   50.075">  3  5 -1 -1</clus>
<clus scale="  127.164">  2  4  1 -1</clus>
<clus scale="  141.420">  1  3  2 -1</clus>
</clustering>
</event>
<event>
 6    0  0.2781617E+002  0.1945587E+03  0.7546771E-02  0.1154413E+00
         21   -1    0    0  504  502  0.00000000000E+00  0.00000000000E+00  0.10151529218E+03  0.10151529218E+03  0.00000000000E+00 0. -1.
          2   -1    0    0  505    0 -0.00000000000E+00 -0.00000000000E+00 -0.18321809881E+04  0.18321809881E+04  0.00000000000E+00 0.  1.
         21    1    1    2  503  501  0.36115808814E+02 -0.55862727133E+02 -0.55300016314E+02  0.86504842254E+02  0.00000000000E+00 0. -1.
         21    1    1    2  504  503  0.21982634478E+02 -0.12542449681E+03  0.14017247653E+02  0.12810551843E+03  0.00000000000E+00 0. -1.
         21    1    1    2  505  502  0.12598466056E+02  0.13373745868E+03 -0.31994699985E+03  0.34700217854E+03  0.00000000000E+00 0.  1.
          2    1    1    2  501    0 -0.70696909349E+02  0.47549765270E+02 -0.13694359275E+04  0.13720837411E+04  0.00000000000E+00 0.  1.
<scales pt_clust_3="65.10118" pt_clust_4="65.10118" pt_clust_5="172.45356" pt_clust_6="85.19996"></scales>
<clustering>
<clus scale="   65.101">  3  4 -1 -1</clus>
<clus scale="   85.200">  2  6  1 -1</clus>
<clus scale="  172.454">  2  5  1 -1</clus>
<clus scale="  194.559">  1  3  2 -1</clus>
</clustering>
</event>
<event>
 6    0  0.2781617E+002  0.1089735E+03  0.7546771E-02  0.1262483E+00
         21   -1    0    0  504  502  0.00000000000E+00  0.00000000000E+00  0.81932084342E+03  0.81932084342E+03  0.00000000000E+00 0. -1.
          2   -1    0    0  505    0 -0.00000000000E+00 -0.00000000000E+00 -0.20613328719E+04  0.20613328719E+04  0.00000000000E+00 0.  1.
         21    1    1    2  503  502 -0.94411876589E+02 -0.33175100889E+02  0.74626684068E+03  0.75294647038E+03  0.00000000000E+00 0. -1.
         21    1    1    2  504  501 -0.14919044693E+02  0.29569685634E+02  0.49599067284E+02  0.59640688112E+02  0.00000000000E+00 0. -1.
         21    1    1    2  505  503  0.33382856074E+02 -0.66463075361E+02 -0.87019435647E+02  0.11447330539E+03  0.00000000000E+00 0. -1.
          2    1    1    2  501    0  0.75948065209E+02  0.70068490616E+02 -0.19508585008E+04  0.19535932514E+04  0.00000000000E+00 0.  1.
<scales pt_clust_3="14000.00000" pt_clust_4="33.12015" pt_clust_5="73.78124" pt_clust_6="108.97345"></scales>
<clustering>
<clus scale="   33.120">  1  4  2 -1</clus>
<clus scale="   73.781">  2  5  1 -1</clus>
<clus scale="  108.973">  2  6  1 -1</clus>
<clus scale="   33.120">  1  3  2 -1</clus>
</clustering>
</event>
<event>
 6    0  0.2781617E+002  0.1280231E+03  0.7546771E-02  0.1230419E+00
          2   -1    0    0  503    0 -0.00000000000E+00  0.00000000000E+00  0.66836155271E+03  0.66836155271E+03  0.00000000000E+00 0.  1.
         21   -1    0    0  505  502  0.00000000000E+00 -0.00000000000E+00 -0.91129032515E+02  0.91129032515E+02  0.00000000000E+00 0.  1.
         21    1    1    2  503  502  0.13880102010E+02 -0.15510637740E+03  0.20453376345E+03  0.25706945742E+03  0.00000000000E+00 0.  1.
         21    1    1    2  504  501 -0.44962428027E+02  0.62908326350E+02  0.20365135881E+02  0.79961342021E+02  0.00000000000E+00 0.  1.
         21    1    1    2  505  504 -0.12163187022E+02  0.33980197208E+02 -0.21262981499E+02  0.41889274320E+02  0.00000000000E+00 0.  1.
          2    1    1    2  501    0  0.43245513039E+02  0.58217853846E+02  0.37359660236E+03  0.38057051147E+03  0.00000000000E+00 0.  1.
<scales pt_clust_3="119.13805" pt_clust_4="32.01581" pt_clust_5="32.01581" pt_clust_6="72.52236"></scales>
<clustering>
<clus scale="   32.016">  4  5 -1 -1</clus>
<clus scale="   72.522">  1  6  2 -1</clus>
<clus scale="  119.138">  1  3  2 -1</clus>
<clus scale="  128.023">  2  3  1 -1</clus>
</clustering>
</event>
<event>
 6    0  0.2781617E+002  0.1235158E+03  0.7546771E-02  0.1237407E+00
         21   -1    0    0  505  502  0.00000000000E+00  0.00000000000E+00  0.53420460635E+03  0.53420460635E+03  0.00000000000E+00 0.  1.
         -2   -1    0    0    0  501 -0.00000000000E+00 -0.00000000000E+00 -0.13239233593E+04  0.13239233593E+04  0.00000000000E+00 0. -1.
         21    1    1    2  503  504  0.12740564451E+01  0.88098099554E+02  0.90312219449E+02  0.12617129367E+03  0.00000000000E+00 0.  1.
         21    1    1    2  504  502 -0.11513543779E+03 -0.62322073949E+02  0.37321031563E+03  0.39550745838E+03  0.00000000000E+00 0.  1.
         21    1    1    2  505  501  0.88102182657E+02  0.24761285433E+02 -0.10163935209E+02  0.92078343948E+02  0.00000000000E+00 0.  1.
         -2    1    1    2    0  503  0.25759198684E+02 -0.50537311039E+02 -0.12430773528E+04  0.12443708697E+04  0.00000000000E+00 0. -1.
<scales pt_clust_3="77.12120" pt_clust_4="14000.00000" pt_clust_5="123.51581" pt_clust_6="56.72351"></scales>
<clustering>
<clus scale="   56.724">  2  6  1 -1</clus>
<clus scale="   77.121">  2  3  1 -1</clus>
<clus scale="  123.516">  2  5  1 -1</clus>
<clus scale="  123.516">  1  3  2 -1</clus>
</clustering>
</event>
<event>
 6    0  0.2781617E+002  0.1034983E+03  0.7546771E-02  0.1273107E+00
          2   -1    0    0  502    0 -0.00000000000E+00  0.00000000000E+00  0.32287105659E+04  0.32287105659E+04  0.00000000000E+00 0.  1.
         21   -1    0    0  503  502  0.00000000000E+00 -0.00000000000E+00 -0.22644921644E+02  0.22644921644E+02  0.00000000000E+00 0.  1.
         21    1    1    2  503  504 -0.86602981013E+02 -0.82541672439E+02  0.27346830488E+03  0.29849307829E+03  0.00000000000E+00 0.  1.
         21    1    1    2  504  505  0.10990151768E+03 -0.36373359616E+02  0.55076565965E+03  0.56280029915E+03  0.00000000000E+00 0.  1.
         21    1    1    2  505  501 -0.30666410757E+02  0.78533217213E+02  0.45209406941E+03  0.45988796739E+03  0.00000000000E+00 0. -1.
          2    1    1    2  501    0  0.73678740887E+01  0.40381814842E+02  0.19297376103E+04  0.19301741427E+04  0.00000000000E+00 0.  1.
<scales pt_clust_3="103.49833" pt_clust_4="14000.00000" pt_clust_5="96.87018" pt_clust_6="41.04847"></scales>
<clustering>
<clus scale="   41.048">  1  6  2 -1</clus>
<clus scale="   96.870">  1  5  2 -1</clus>
<clus scale="  103.498">  2  3  1 -1</clus>
<clus scale="  103.498">  2  3  1 -1</clus>
</clustering>
</event>
<event>
 6    0  0.2781617E+002  0.1719526E+03  0.7546771E-02  0.1175827E+00
         21   -1    0    0  501  502  0.00000000000E+00  0.00000000000E+00  0.33877971443E+02  0.33877971443E+02  0.00000000000E+00 0. -1.
          4   -1    0    0  503    0 -0.00000000000E+00 -0.00000000000E+00 -0.11967560691E+04  0.11967560691E+04  0.00000000000E+00 0. -1.
         21    1    1    2  503  504 -0.16565712979E+02  0.73225328205E+02 -0.26101206958E+03  0.27159468332E+03  0.00000000000E+00 0. -1.
         21    1    1    2  504  505 -0.31917396221E+01  0.79331958025E+02 -0.15826466668E+03  0.17706341092E+03  0.00000000000E+00 0. -1.
         21    1    1    2  505  502  0.52522935169E+02  0.27027550371E+02 -0.16452921465E+03  0.17481135453E+03  0.00000000000E+00 0. -1.
          4    1    1    2  501    0 -0.32765482569E+02 -0.17958483660E+03 -0.57907214677E+03  0.60716459181E+03  0.00000000000E+00 0. -1.
<scales pt_clust_3="41.67804" pt_clust_4="41.67804" pt_clust_5="59.06900" pt_clust_6="166.52525"></scales>
<clustering>
<clus scale="   41.678">  3  4 -1 -1</clus>
<clus scale="   59.069">  1  5  2 -1</clus>
<clus scale="  166.525">  2  6  1 -1</clus>
<clus scale="   59.069">  1  3  2 -1</clus>
</clustering>
</event>
<event>
 6    0  0.2781617E+002  0.8244900E+02  0.7546771E-02  0.1322242E+00
         -3   -1    0    0    0  501 -0.00000000000E+00  0.00000000000E+00  0.47877753540E+02  0.47877753540E+02  0.00000000000E+00 0.  1.
         21   -1    0    0  505  502  0.00000000000E+00 -0.00000000000E+00 -0.71005786362E+03  0.71005786362E+03  0.00000000000E+00 0.  1.
         21    1    1    2  503  502 -0.20646353190E+02 -0.36847570162E+02 -0.16446576430E+03  0.16980283553E+03  0.00000000000E+00 0.  1.
         21    1    1    2  504  503 -0.50125513195E+02 -0.31105833294E+02 -0.85848816115E+02  0.10416409730E+03  0.00000000000E+00 0.  1.
         21    1    1    2  505  501  0.66368043553E+02  0.11026454540E+03 -0.42119477320E+03  0.44041801070E+03  0.00000000000E+00 0.  1.
         -3    1    1    2    0  504  0.44038228327E+01 -0.42311141943E+02  0.93292435428E+01  0.43550673624E+02  0.00000000000E+00 0.  1.
<scales pt_clust_3="42.23761" pt_clust_4="82.44900" pt_clust_5="14000.00000" pt_clust_6="43.63414"></scales>
<clustering>
<clus scale="   42.238">  2  3  1 -1</clus>
<clus scale="   43.634">  1  6  2 -1</clus>
<clus scale="   82.449">  1  4  2 -1</clus>
<clus scale="   42.238">  2  3  1 -1</clus>
</clustering>
</event>
<event>
 6    0  0.2781617E+002  0.1129293E+03  0.7546771E-02  0.1255239E+00
         -2   -1    0    0    0  501 -0.00000000000E+00  0.00000000000E+00  0.12495123023E+03  0.12495123023E+03  0.00000000000E+00 0.  1.
         21   -1    0    0  505  502  0.00000000000E+00 -0.00000000000E+00 -0.93092729039E+03  0.93092729039E+03  0.00000000000E+00 0.  1.
         21    1    1    2  503  502  0.33114935770E+02 -0.31469294131E+02 -0.62093657435E+02  0.77087857266E+02  0.00000000000E+00 0.  1.
         21    1    1    2  504  503  0.36836882458E+02  0.29573453051E+02 -0.96318731256E+02  0.10727927584E+03  0.00000000000E+00 0.  1.
         21    1    1    2  505  501  0.29503206159E+02  0.60174002351E+02 -0.72791789532E+03  0.73099645147E+03  0.00000000000E+00 0.  1.
         -2    1    1    2    0  504 -0.99455024387E+02 -0.58278161272E+02  0.80354223854E+02  0.14051493603E+03  0.00000000000E+00 0.  1.
<scales pt_clust_3="45.68277" pt_clust_4="48.26027" pt_clust_5="112.92931" pt_clust_6="14000.00000"></scales>
<clustering>
<clus scale="   45.683">  2  3  1 -1</clus>
<clus scale="   48.260">  2  4  1 -1</clus>
<clus scale="  112.929">  2  5  1 -1</clus>
<clus scale="   45.683">  2  3  1 -1</clus>
</clustering>
</event>
<event>
 6    0  0.2781617E+002  0.9446421E+02  0.7546771E-02  0.1292387E+00
         21   -1    0    0  503  502  0.00000000000E+00  0.00000000000E+00  0.10652940090E+04  0.10652940090E+04  0.00000000000E+00 0.  1.
          2   -1    0    0  505    0 -0.00000000000E+00 -0.00000000000E+00 -0.29477723707E+04  0.29477723707E+04  0.00000000000E+00 0. -1.
         21    1    1    2  503  501  0.24108964583E+02  0.28200607895E+02  0.59693906123E+02  0.70284271976E+02  0.00000000000E+00 0.  1.
         21    1    1    2  504  502 -0.35793310415E+02 -0.86953765160E+02  0.31560715174E+03  0.32931746473E+03  0.00000000000E+00 0.  1.
         21    1    1    2  505  504  0.88373524188E+02  0.35487741321E+01  0.67419317697E+03  0.67996978863E+03  0.00000000000E+00 0.  1.
          2    1    1    2  501    0 -0.76689178357E+02  0.55204383134E+02 -0.29319725965E+04  0.29334948544E+04  0.00000000000E+00 0. -1.
<scales pt_clust_3="37.10143" pt_clust_4="82.75164" pt_clust_5="14000.00000" pt_clust_6="94.46421"></scales>
<clustering>
<clus scale="   37.101">  1  3  2 -1</clus>
<clus scale="   82.752">  1  4  2 -1</clus>
<clus scale="   94.464">  2  6  1 -1</clus>
<clus scale="   37.101">  1  3  2 -1</clus>
</clustering>
</event>
<event>
 6    0  0.2781617E+002  0.8490672E+02  0.7546771E-02  0.1315677E+00
          2   -1    0    0  504    0 -0.00000000000E+00  0.00000000000E+00  0.16549216226E+04  0.16549216226E+04  0.00000000000E+00 0. -1.
         21   -1    0    0  503  502  0.00000000000E+00 -0.00000000000E+00 -0.18357983406E+03  0.18357983406E+03  0.00000000000E+00 0. -1.
         21    1    1    2  503  505  0.30390397141E+02 -0.32789528023E+02 -0.92543752549E+02  0.10277682386E+03  0.00000000000E+00 0. -1.
         21    1    1    2  504  502 -0.76544604109E+02  0.86761114982E+02  0.61543387677E+02  0.13105020434E+03  0.00000000000E+00 0. -1.
         21    1    1    2  505  501  0.15281673738E+01 -0.59798813777E+02 -0.33239669104E+02  0.68433245041E+02  0.00000000000E+00 0. -1.
          2    1    1    2  501    0  0.44626039594E+02  0.58272268179E+01  0.15355818226E+04  0.15362411835E+04  0.00000000000E+00 0. -1.
<scales pt_clust_3="44.70715" pt_clust_4="14000.00000" pt_clust_5="84.90672" pt_clust_6="45.10444"></scales>
<clustering>
<clus scale="   44.707">  2  3  1 -1</clus>
<clus scale="   45.104">  1  6  2 -1</clus>
<clus scale="   84.907">  2  5  1 -1</clus>
<clus scale="   44.707">  2  3  1 -1</clus>
</clustering>
</event>
<event>
 6    0  0.2781617E+002  0.1172706E+03  0.7546771E-02  0.1247669E+00
          2   -1    0    0  503    0 -0.00000000000E+00  0.00000000000E+00  0.10258387869E+04  0.10258387869E+04  0.00000000000E+00 0. -1.
         21   -1    0    0  505  502  0.00000000000E+00 -0.00000000000E+00 -0.73945647115E+03  0.73945647115E+03  0.00000000000E+00 0.  1.
         21    1    1    2  503  504  0.12932086031E+02 -0.93450767044E+02  0.10434182065E+03  0.14066804984E+03  0.00000000000E+00 0. -1.
         21    1    1    2  504  502 -0.90460138210E+02  0.77795643159E+02 -0.64685833558E+03  0.65776964433E+03  0.00000000000E+00 0.  1.
         21    1    1    2  505  501  0.42955099207E+02  0.55761430885E+02 -0.50016352398E+02  0.86348788233E+02  0.00000000000E+00 0.  1.
          2    1    1    2  501    0  0.34572952973E+02 -0.40106306999E+02  0.87891518308E+03  0.88050877564E+03  0.00000000000E+00 0. -1.
<scales pt_clust_3="14000.00000" pt_clust_4="117.27063" pt_clust_5="69.36144" pt_clust_6="52.95097"></scales>
<clustering>
<clus scale="   52.951">  1  6  2 -1</clus>
<clus scale="   69.361">  1  5  2 -1</clus>
<clus scale="  117.271">  2  4  1 -1</clus>
<clus scale="  117.271">  2  3  1 -1</clus>
</clustering>
</event>
<event>
 6    0  0.2781617E+002  0.7644641E+02  0.7546771E-02  0.1339450E+00
         21   -1    0    0  503  502  0.00000000000E+00  0.00000000000E+00  0.19261843604E+03  0.19261843604E+03  0.00000000000E+00 0.  1.
          1   -1    0    0  505    0 -0.00000000000E+00 -0.00000000000E+00 -0.11693576141E+04  0.11693576141E+04  0.00000000000E+00 0. -1.
         21    1    1    2  503  501  0.46823865979E+02  0.63496278755E+01  0.50900272389E+02  0.69452357258E+02  0.00000000000E+00 0.  1.
         21    1    1    2  504  502 -0.46862021205E+01  0.53606386280E+02  0.67528387216E+02  0.86346327196E+02  0.00000000000E+00 0.  1.
         21    1    1    2  505  504  0.32772310076E+02 -0.78082510904E+02  0.21085204161E+02  0.87266767164E+02  0.00000000000E+00 0.  1.
          1    1    1    2  501    0 -0.74909973935E+02  0.18126496748E+02 -0.11162530418E+04  0.11189105985E+04  0.00000000000E+00 0. -1.
<scales pt_clust_3="47.25243" pt_clust_4="61.55982" pt_clust_5="76.44641" pt_clust_6="14000.00000"></scales>
<clustering>
<clus scale="   47.252">  1  3  2 -1</clus>
<clus scale="   61.560">  1  4  2 -1</clus>
<clus scale="   76.446">  1  5  2 -1</clus>
<clus scale="   47.252">  1  3  2 -1</clus>
</clustering>
</event>
<event>
 6    0  0.2781617E+002  0.7478817E+02  0.7546771E-02  0.1344528E+00
          2   -1    0    0  503    0 -0.00000000000E+00  0.00000000000E+00  0.15658661150E+04  0.15658661150E+04  0.00000000000E+00 0. -1.
         21   -1    0    0  504  502  0.00000000000E+00 -0.00000000000E+00 -0.15842940693E+03  0.15842940693E+03  0.00000000000E+00 0.  1.
         21    1    1    2  503  502 -0.34001646369E+01  0.32862813258E+02  0.87714060354E+01  0.34182790679E+02  0.00000000000E+00 0.  1.
         21    1    1    2  504  505 -0.32059297351E+02  0.15048058454E+02 -0.97068025557E+02  0.10332688031E+03  0.00000000000E+00 0.  1.
         21    1    1    2  505  501  0.16625756205E+02 -0.11948764579E+03  0.37012957197E+02  0.12618903386E+03  0.00000000000E+00 0.  1.
          2    1    1    2  501    0  0.18833705782E+02  0.71576774079E+02  0.14587203704E+04  0.14605968170E+04  0.00000000000E+00 0. -1.
<scales pt_clust_3="33.03824" pt_clust_4="50.99256" pt_clust_5="14000.00000" pt_clust_6="74.78817"></scales>
<clustering>
<clus scale="   33.038">  2  3  1 -1</clus>
<clus scale="   50.993">  2  4  1 -1</clus>
<clus scale="   74.788">  1  6  2 -1</clus>
<clus scale="   33.038">  2  3  1 -1</clus>
</clustering>
</event>
<event>
 6    0  0.2781617E+002  0.1129218E+03  0.7546771E-02  0.1255253E+00
          2   -1    0    0  503    0 -0.00000000000E+00  0.00000000000E+00  0.39204197446E+03  0.39204197446E+03  0.00000000000E+00 0. -1.
         21   -1    0    0  504  502  0.00000000000E+00 -0.00000000000E+00 -0.19496638599E+03  0.19496638599E+03  0.00000000000E+00 0. -1.
         21    1    1    2  503  505  0.64361743060E+02 -0.65917774118E+02 -0.36984690134E+02  0.99274640361E+02  0.00000000000E+00 0. -1.
         21    1    1    2  504  501 -0.41651722131E+02 -0.13499967328E+02 -0.54500661047E+02  0.69910207616E+02  0.00000000000E+00 0. -1.
         21    1    1    2  505  502  0.71878873266E+02  0.11834426136E+02 -0.29947954838E+02  0.78762339115E+02  0.00000000000E+00 0. -1.
          2    1    1    2  501    0 -0.94588894195E+02  0.67583315311E+02  0.31850889448E+03  0.33906117336E+03  0.00000000000E+00 0. -1.
<scales pt_clust_3="14000.00000" pt_clust_4="43.78487" pt_clust_5="55.18738" pt_clust_6="112.92183"></scales>
<clustering>
<clus scale="   43.785">  2  4  1 -1</clus>
<clus scale="   55.187">  2  5  1 -1</clus>
<clus scale="  112.922">  1  6  2 -1</clus>
<clus scale="   43.785">  2  3  1 -1</clus>
</clustering>
</event>
<event>
 6    0  0.2781617E+002  0.8306864E+02  0.7546771E-02  0.1320562E+00
          2   -1    0    0  504    0 -0.00000000000E+00  0.00000000000E+00  0.17835202522E+04  0.17835202522E+04  0.00000000000E+00 0. -1.
         21   -1    0    0  505  502  0.00000000000E+00 -0.00000000000E+00 -0.40488032959E+02  0.40488032959E+02  0.00000000000E+00 0. -1.
         21    1    1    2  503  502 -0.56129793983E+02 -0.38572007172E+02  0.22799652457E+02  0.71820454343E+02  0.00000000000E+00 0. -1.
         21    1    1    2  504  503  0.86078290089E-01 -0.38507345360E+02  0.12815716896E+03  0.13381734944E+03  0.00000000000E+00 0.  1.
         21    1    1    2  505  501  0.30734447641E+02 -0.42491896755E+02  0.53386230967E+02  0.74834866329E+02  0.00000000000E+00 0. -1.
          2    1    1    2  501    0  0.25309268051E+02  0.11957124929E+03  0.15386891669E+04  0.15435356151E+04  0.00000000000E+00 0. -1.
<scales pt_clust_3="83.06864" pt_clust_4="38.50744" pt_clust_5="53.66155" pt_clust_6="14000.00000"></scales>
<clustering>
<clus scale="   38.507">  1  4  2 -1</clus>
<clus scale="   53.662">  2  5  1 -1</clus>
<clus scale="   83.069">  2  3  1 -1</clus>
<clus scale="   53.662">  2  3  1 -1</clus>
</clustering>
</event>
<event>
 6    0  0.2781617E+002  0.1277882E+03  0.7546771E-02  0.1230775E+00
          1   -1    0    0  504    0 -0.00000000000E+00  0.00000000000E+00  0.24238017535E+03  0.24238017535E+03  0.00000000000E+00 0.  1.
         21   -1    0    0  505  502  0.00000000000E+00 -0.00000000000E+00 -0.26478663507E+03  0.26478663507E+03  0.00000000000E+00 0.  1.
         21    1    1    2  503  502  0.15742805429E+02 -0.46978707202E+02 -0.38716000299E+02  0.62878959377E+02  0.00000000000E+00 0. -1.
         21    1    1    2  504  503  0.38245736013E+02 -0.13494374817E+03  0.10297993106E+03  0.17400407379E+03  0.00000000000E+00 0.  1.
         21    1    1    2  505  501 -0.62951464736E+02  0.15093354434E+03 -0.13508066053E+03  0.21210989267E+03  0.00000000000E+00 0.  1.
          1    1    1    2  501    0  0.89629232936E+01  0.30988911035E+02  0.48410270055E+02  0.58173884586E+02  0.00000000000E+00 0.  1.
<scales pt_clust_3="47.86522" pt_clust_4="14000.00000" pt_clust_5="127.78824" pt_clust_6="32.25905"></scales>
<clustering>
<clus scale="   32.259">  1  6  2 -1</clus>
<clus scale="   47.865">  2  3  1 -1</clus>
<clus scale="  127.788">  2  5  1 -1</clus>
<clus scale="   47.865">  2  3  1 -1</clus>
</clustering>
</event>
<event>
 6    0  0.2781617E+002  0.2155686E+03  0.7546771E-02  0.1137231E+00
         21   -1    0    0  503  502  0.00000000000E+00  0.00000000000E+00  0.35866809924E+03  0.35866809924E+03  0.00000000000E+00 0.  1.
          2   -1    0    0  505    0 -0.00000000000E+00 -0.00000000000E+00 -0.43404898914E+04  0.43404898914E+04  0.00000000000E+00 0.  1.
         21    1    1    2  503  501 -0.94396310544E+02  0.57476853350E+01 -0.74832789519E+02  0.12059703860E+03  0.00000000000E+00 0.  1.
         21    1    1    2  504  502 -0.33638212277E+02  0.27672664748E+02  0.12057514151E+03  0.12820167881E+03  0.00000000000E+00 0.  1.
         21    1    1    2  505  504 -0.32119346032E+02  0.10358586675E+03  0.19468452636E+03  0.22285364925E+03  0.00000000000E+00 0.  1.
          2    1    1    2  501    0  0.16015386885E+03 -0.13700621684E+03 -0.42222486705E+04  0.42275056240E+04  0.00000000000E+00 0.  1.
<scales pt_clust_3="94.57113" pt_clust_4="30.38245" pt_clust_5="30.38245" pt_clust_6="210.17018"></scales>
<clustering>
<clus scale="   30.382">  4  5 -1 -1</clus>
<clus scale="   94.571">  1  3  2 -1</clus>
<clus scale="  210.170">  2  6  1 -1</clus>
<clus scale="   94.571">  1  3  2 -1</clus>
</clustering>
</event>
<event>
 6    0  0.2781617E+002  0.9826750E+02  0.7546771E-02  0.1283982E+00
          2   -1    0    0  504    0 -0.00000000000E+00  0.00000000000E+00  0.17400577369E+04  0.17400577369E+04  0.00000000000E+00 0. -1.
         21   -1    0    0  505  502  0.00000000000E+00 -0.00000000000E+00 -0.30839772203E+02  0.30839772203E+02  0.00000000000E+00 0.  1.
         21    1    1    2  503  501  0.60549151878E+01 -0.52696416963E+02  0.10960965397E+03  0.12176966207E+03  0.00000000000E+00 0. -1.
         21    1    1    2  504  502  0.55454727371E+02 -0.15468394477E+02  0.72936552365E+02  0.92920604208E+02  0.00000000000E+00 0.  1.
         21    1    1    2  505  503 -0.13236622668E+02 -0.36776398389E+02  0.17847746433E+02  0.42968054539E+02  0.00000000000E+00 0.  1.
          2    1    1    2  501    0 -0.48273019891E+02  0.10494120983E+03  0.15088240120E+04  0.15132391883E+04  0.00000000000E+00 0. -1.
<scales pt_clust_3="98.26750" pt_clust_4="59.92002" pt_clust_5="39.08595" pt_clust_6="14000.00000"></scales>
<clustering>
<clus scale="   39.086">  2  5  1 -1</clus>
<clus scale="   59.920">  2  4  1 -1</clus>
<clus scale="   98.267">  2  3  1 -1</clus>
<clus scale="   39.086">  2  3  1 -1</clus>
</clustering>
</event>
<event>
 6    0  0.2781617E+002  0.1026095E+03  0.7546771E-02  0.1274902E+00
          2   -1    0    0  504    0 -0.00000000000E+00  0.00000000000E+00  0.24832595304E+04  0.24832595304E+04  0.00000000000E+00 0.  1.
         21   -1    0    0  505  502  0.00000000000E+00 -0.00000000000E+00 -0.21733109286E+03  0.21733109286E+03  0.00000000000E+00 0. -1.
         21    1    1    2  503  501  0.84682634852E+02 -0.50810981068E+02  0.81126061347E+02  0.12780587730E+03  0.00000000000E+00 0. -1.
         21    1    1    2  504  502 -0.19051703567E+03  0.10508416976E+03 -0.11873806648E+03  0.24786720648E+03  0.00000000000E+00 0. -1.
         21    1    1    2  505  503  0.51402200800E+02  0.32041405272E+02  0.86883856910E+02  0.10591337258E+03  0.00000000000E+00 0. -1.
          2    1    1    2  501    0  0.54432200016E+02 -0.86314593966E+02  0.22166565858E+04  0.22190041669E+04  0.00000000000E+00 0.  1.
<scales pt_clust_3="102.03544" pt_clust_4="14000.00000" pt_clust_5="60.57093" pt_clust_6="102.60954"></scales>
<clustering>
<clus scale="   60.571">  2  5  1 -1</clus>
<clus scale="  102.035">  2  3  1 -1</clus>
<clus scale="  102.610">  1  6  2 -1</clus>
<clus scale="   60.571">  2  3  1 -1</clus>
</clustering>
</event>
<event>
 6    0  0.2781617E+002  0.8636950E+02  0.7546771E-02  0.1311889E+00
          2   -1    0    0  503    0 -0.00000000000E+00  0.00000000000E+00  0.31604756146E+04  0.31604756146E+04  0.00000000000E+00 0. -1.
         21   -1    0    0  504  502  0.00000000000E+00 -0.00000000000E+00 -0.20244652798E+03  0.20244652798E+03  0.00000000000E+00 0. -1.
         21    1    1    2  503  505 -0.49361464433E+02 -0.18664028322E+02  0.20942524681E+03  0.21597183642E+03  0.00000000000E+00 0. -1.
         21    1    1    2  504  501 -0.35916302366E+02 -0.22357140068E+00  0.25534499338E+02  0.44068598983E+02  0.00000000000E+00 0.  1.
         21    1    1    2  505  502  0.11907561955E+03  0.41386636626E+02 -0.16882730154E+03  0.21070005839E+03  0.00000000000E+00 0. -1.
          2    1    1    2  501    0 -0.33797852751E+02 -0.22499036903E+02  0.28918966420E+04  0.28921816488E+04  0.00000000000E+00 0. -1.
<scales pt_clust_3="86.36950" pt_clust_4="35.91700" pt_clust_5="14000.00000" pt_clust_6="40.62389"></scales>
<clustering>
<clus scale="   35.917">  2  4  1 -1</clus>
<clus scale="   40.624">  1  6  2 -1</clus>
<clus scale="   86.370">  1  3  2 -1</clus>
<clus scale="   35.917">  2  3  1 -1</clus>
</clustering>
</event>
<event>
 6    0  0.2781617E+002  0.9158882E+02  0.7546771E-02  0.1299049E+00
         21   -1    0    0  503  502  0.00000000000E+00  0.00000000000E+00  0.79566621549E+02  0.79566621549E+02  0.00000000000E+00 0. -1.
          1   -1    0    0  504    0 -0.00000000000E+00 -0.00000000000E+00 -0.99250019400E+03  0.99250019400E+03  0.00000000000E+00 0. -1.
         21    1    1    2  503  501  0.58632412153E+02 -0.18029838976E+02 -0.35597022606E+02  0.70922372118E+02  0.00000000000E+00 0. -1.
         21    1    1    2  504  505 -0.57897760030E+02  0.51041053924E+02  0.14500533336E+02  0.78534102587E+02  0.00000000000E+00 0. -1.
         21    1    1    2  505  502 -0.82638853769E+01  0.60259520691E+02 -0.59693678111E+02  0.85222279023E+02  0.00000000000E+00 0. -1.
          1    1    1    2  501    0  0.75292332537E+01 -0.93270735638E+02 -0.83214340507E+03  0.83738806182E+03  0.00000000000E+00 0. -1.
<scales pt_clust_3="56.48636" pt_clust_4="14000.00000" pt_clust_5="60.82353" pt_clust_6="91.58882"></scales>
<clustering>
<clus scale="   60.824">  1  5  2 -1</clus>
<clus scale="   56.486">  1  3  2 -1</clus>
<clus scale="   91.589">  2  6  1 -1</clus>
<clus scale="   60.824">  1  3  2 -1</clus>
</clustering>
</event>
<event>
 6    0  0.2781617E+002  0.9719404E+02  0.7546771E-02  0.1286310E+00
          2   -1    0    0  503    0 -0.00000000000E+00  0.00000000000E+00  0.17696889118E+04  0.17696889118E+04  0.00000000000E+00 0. -1.
         21   -1    0    0  504  502  0.00000000000E+00 -0.00000000000E+00 -0.13822543972E+03  0.13822543972E+03  0.00000000000E+00 0. -1.
         21    1    1    2  503  502  0.79683092701E+02  0.10496600274E+02  0.18553822860E+03  0.20219794299E+03  0.00000000000E+00 0. -1.
         21    1    1    2  504  505 -0.50054259628E+02  0.20660823527E+01 -0.81938376032E+02  0.96039549509E+02  0.00000000000E+00 0. -1.
         21    1    1    2  505  501 -0.70327378945E+02  0.13150252283E+02 -0.89549162522E+01  0.72104506721E+02  0.00000000000E+00 0.  1.
          2    1    1    2  501    0  0.40698545872E+02 -0.25712934910E+02  0.15368185358E+04  0.15375723523E+04  0.00000000000E+00 0. -1.
<scales pt_clust_3="14000.00000" pt_clust_4="48.83698" pt_clust_5="97.19404" pt_clust_6="48.14070"></scales>
<clustering>
<clus scale="   48.141">  1  6  2 -1</clus>
<clus scale="   48.837">  2  4  1 -1</clus>
<clus scale="   97.194">  2  5  1 -1</clus>
<clus scale="   48.837">  2  3  1 -1</clus>
</clustering>
</event>
<event>
 6    0  0.2781617E+002  0.1370798E+03  0.7546771E-02  0.1217313E+00
         21   -1    0    0  503  502  0.00000000000E+00  0.00000000000E+00  0.46390620833E+02  0.46390620833E+02  0.00000000000E+00 0.  1.
          1   -1    0    0  505    0 -0.00000000000E+00 -0.00000000000E+00 -0.10610772082E+04  0.10610772082E+04  0.00000000000E+00 0. -1.
         21    1    1    2  503  501  0.98753616680E+00 -0.32781366684E+02 -0.65842235613E+02  0.73558094183E+02  0.00000000000E+00 0. -1.
         21    1    1    2  504  502 -0.10562231071E+03  0.95825591017E+02 -0.17549428631E+03  0.22613460801E+03  0.00000000000E+00 0.  1.
         21    1    1    2  505  504 -0.57129476280E+02 -0.29351130029E+02 -0.15624605436E+03  0.16893222131E+03  0.00000000000E+00 0.  1.
          1    1    1    2  501    0  0.16176425082E+03 -0.33693094303E+02 -0.61710401112E+03  0.63884290556E+03  0.00000000000E+00 0. -1.
<scales pt_clust_3="32.79624" pt_clust_4="14000.00000" pt_clust_5="66.47816" pt_clust_6="137.07980"></scales>
<clustering>
<clus scale="   32.796">  1  3  2 -1</clus>
<clus scale="   66.478">  2  5  1 -1</clus>
<clus scale="  137.080">  2  6  1 -1</clus>
<clus scale="   32.796">  1  3  2 -1</clus>
</clustering>
</event>
<event>
 6    0  0.2781617E+002  0.1184072E+03  0.7546771E-02  0.1245748E+00
          1   -1    0    0  503    0 -0.00000000000E+00  0.00000000000E+00  0.60784404781E+03  0.60784404781E+03  0.00000000000E+00 0.  1.
         21   -1    0    0  504  502  0.00000000000E+00 -0.00000000000E+00 -0.24248953353E+03  0.24248953353E+03  0.00000000000E+00 0.  1.
         21    1    1    2  503  505 -0.31969431022E+02 -0.11063664163E+02 -0.96002850464E+01  0.35165532238E+02  0.00000000000E+00 0.  1.
         21    1    1    2  504  501 -0.73390509202E+02  0.14924539573E+02 -0.17899190088E+03  0.19402837242E+03  0.00000000000E+00 0.  1.
         21    1    1    2  505  502 -0.97587599406E+01 -0.38336874841E+02 -0.12966275667E+02  0.41630201450E+02  0.00000000000E+00 0. -1.
          1    1    1    2  501    0  0.11511870016E+03  0.34475999431E+02  0.56691297588E+03  0.57950947523E+03  0.00000000000E+00 0.  1.
<scales pt_clust_3="32.12330" pt_clust_4="118.40722" pt_clust_5="73.40528" pt_clust_6="14000.00000"></scales>
<clustering>
<clus scale="   32.123">  3  5 -1 -1</clus>
<clus scale="   73.405">  2  3  1 -1</clus>
<clus scale="  118.407">  2  4  1 -1</clus>
<clus scale="   73.405">  2  3  1 -1</clus>
</clustering>
</event>
<event>
 6    0  0.2781617E+002  0.5846960E+02  0.7546771E-02  0.1404369E+00
          1   -1    0    0  504    0 -0.00000000000E+00  0.00000000000E+00  0.10090670418E+04  0.10090670418E+04  0.00000000000E+00 0.  1.
         21   -1    0    0  503  502  0.00000000000E+00 -0.00000000000E+00 -0.89294269779E+03  0.89294269779E+03  0.00000000000E+00 0. -1.
         21    1    1    2  503  505  0.20006504062E+02  0.37380579597E+02 -0.38793784394E+03  0.39024779140E+03  0.00000000000E+00 0. -1.
         21    1    1    2  504  502 -0.53475933091E+02 -0.36607622197E+02 -0.82875027078E+02  0.10520486460E+03  0.00000000000E+00 0.  1.
         21    1    1    2  505  501  0.88006731152E+02  0.20126329223E+02 -0.40396765285E+03  0.41393250465E+03  0.00000000000E+00 0. -1.
          1    1    1    2  501    0 -0.54537302123E+02 -0.20899286623E+02  0.99090486791E+03  0.99262457896E+03  0.00000000000E+00 0.  1.
<scales pt_clust_3="42.39774" pt_clust_4="57.89851" pt_clust_5="14000.00000" pt_clust_6="58.46960"></scales>
<clustering>
<clus scale="   42.398">  2  3  1 -1</clus>
<clus scale="   57.899">  2  4  1 -1</clus>
<clus scale="   58.470">  1  6  2 -1</clus>
<clus scale="   42.398">  2  3  1 -1</clus>
</clustering>
</event>
<event>
 6    0  0.2781617E+002  0.1293606E+03  0.7546771E-02  0.1228408E+00
         21   -1    0    0  505  502  0.00000000000E+00  0.00000000000E+00  0.21864411686E+03  0.21864411686E+03  0.00000000000E+00 0.  1.
         -1   -1    0    0    0  501 -0.00000000000E+00 -0.00000000000E+00 -0.43004183113E+03  0.43004183113E+03  0.00000000000E+00 0.  1.
         21    1    1    2  503  502 -0.70962415559E+01 -0.88322032112E+02 -0.25899651075E+02  0.92314299686E+02  0.00000000000E+00 0.  1.
         21    1    1    2  504  501  0.15556478610E+02  0.32746108796E+02  0.15185148470E+02  0.39305221053E+02  0.00000000000E+00 0.  1.
         21    1    1    2  505  504 -0.17136351818E+01  0.97637572253E+02  0.14167435062E+03  0.17206874697E+03  0.00000000000E+00 0.  1.
         -1    1    1    2    0  503 -0.67466018725E+01 -0.42061648937E+02 -0.34235756228E+03  0.34499768028E+03  0.00000000000E+00 0.  1.
<scales pt_clust_3="117.69304" pt_clust_4="32.71290" pt_clust_5="32.71290" pt_clust_6="42.59928"></scales>
<clustering>
<clus scale="   32.713">  4  5 -1 -1</clus>
<clus scale="   42.599">  2  6  1 -1</clus>
<clus scale="  117.693">  2  3  1 -1</clus>
<clus scale="  129.361">  1  3  2 -1</clus>
</clustering>
</event>
<event>
 6    0  0.2781617E+002  0.1521966E+03  0.7546771E-02  0.1197800E+00
         -4   -1    0    0    0  501 -0.00000000000E+00  0.00000000000E+00  0.23130162129E+03  0.23130162129E+03  0.00000000000E+00 0. -1.
         21   -1    0    0  503  502  0.00000000000E+00 -0.00000000000E+00 -0.12980248174E+04  0.12980248174E+04  0.00000000000E+00 0. -1.
         21    1    1    2  503  504 -0.47806149304E+02 -0.61221287708E+02 -0.34178776963E+03  0.35050300063E+03  0.00000000000E+00 0. -1.
         21    1    1    2  504  501 -0.75701236789E+02 -0.35022053550E+02 -0.71227577770E+03  0.71714294599E+03  0.00000000000E+00 0. -1.
         21    1    1    2  505  502 -0.59090037877E+01  0.50937695702E+02 -0.21290227877E+03  0.21899074290E+03  0.00000000000E+00 0. -1.
         -4    1    1    2    0  505  0.12941638988E+03  0.45305645556E+02  0.20024262999E+03  0.24268974917E+03  0.00000000000E+00 0. -1.
<scales pt_clust_3="60.15945" pt_clust_4="60.15945" pt_clust_5="51.27929" pt_clust_6="137.34171"></scales>
<clustering>
<clus scale="   51.279">  2  5  1 -1</clus>
<clus scale="   60.159">  3  4 -1 -1</clus>
<clus scale="  137.342">  1  6  2 -1</clus>
<clus scale="   51.279">  2  3  1 -1</clus>
</clustering>
</event>
<event>
 6    0  0.2781617E+002  0.7474000E+02  0.7546771E-02  0.1344678E+00
         21   -1    0    0  503  502  0.00000000000E+00  0.00000000000E+00  0.16926472760E+03  0.16926472760E+03  0.00000000000E+00 0.  1.
          2   -1    0    0  504    0 -0.00000000000E+00 -0.00000000000E+00 -0.82555230969E+03  0.82555230969E+03  0.00000000000E+00 0. -1.
         21    1    1    2  503  505 -0.26674401927E+02  0.40478890536E+02  0.39688290741E+02  0.62651613859E+02  0.00000000000E+00 0.  1.
         21    1    1    2  504  502 -0.35762045206E+02  0.40326466209E+01  0.71395082808E+02  0.79952760836E+02  0.00000000000E+00 0.  1.
         21    1    1    2  505  501  0.82761805257E+02 -0.94549265379E+02 -0.53944119029E+02  0.13674446230E+03  0.00000000000E+00 0.  1.
          2    1    1    2  501    0 -0.20325358124E+02  0.50037728222E+02 -0.71342683661E+03  0.71546820029E+03  0.00000000000E+00 0. -1.
<scales pt_clust_3="74.74000" pt_clust_4="35.98869" pt_clust_5="14000.00000" pt_clust_6="54.19690"></scales>
<clustering>
<clus scale="   35.989">  1  4  2 -1</clus>
<clus scale="   54.197">  2  6  1 -1</clus>
<clus scale="   74.740">  1  3  2 -1</clus>
<clus scale="   35.989">  1  3  2 -1</clus>
</clustering>
</event>
<event>
 6    0  0.2781617E+002  0.1525540E+03  0.7546771E-02  0.1197369E+00
         21   -1    0    0  505  502  0.00000000000E+00  0.00000000000E+00  0.12339786169E+03  0.12339786169E+03  0.00000000000E+00 0.  1.
          2   -1    0    0  502    0 -0.00000000000E+00 -0.00000000000E+00 -0.32594748019E+04  0.32594748019E+04  0.00000000000E+00 0. -1.
         21    1    1    2  503  504 -0.48142987942E+02 -0.42163214195E+02 -0.24039196751E+03  0.24876451106E+03  0.00000000000E+00 0.  1.
         21    1    1    2  504  501  0.26044902942E+01 -0.48739869816E+02 -0.18956470316E+03  0.19574763080E+03  0.00000000000E+00 0.  1.
         21    1    1    2  505  503  0.59629000650E+02  0.13679271113E+03  0.67885135794E+02  0.16393979138E+03  0.00000000000E+00 0.  1.
          2    1    1    2  501    0 -0.14090503002E+02 -0.45889627118E+02 -0.27740054053E+04  0.27744207303E+04  0.00000000000E+00 0. -1.
<scales pt_clust_3="42.70528" pt_clust_4="42.70528" pt_clust_5="144.50452" pt_clust_6="48.00417"></scales>
<clustering>
<clus scale="   42.705">  3  4 -1 -1</clus>
<clus scale="   48.004">  2  6  1 -1</clus>
<clus scale="  144.505">  1  5  2 -1</clus>
<clus scale="  144.505">  1  3  2 -1</clus>
</clustering>
</event>
<event>
 6    0  0.2781617E+002  0.1683338E+03  0.7546771E-02  0.1179597E+00
         21   -1    0    0  505  502  0.00000000000E+00  0.00000000000E+00  0.35190299897E+02  0.35190299897E+02  0.00000000000E+00 0. -1.
          1   -1    0    0  502    0 -0.00000000000E+00 -0.00000000000E+00 -0.17457609779E+04  0.17457609779E+04  0.00000000000E+00 0.  1.
         21    1    1    2  503  504  0.39210366020E+02  0.98311708018E+02 -0.11839933704E+03  0.15881135901E+03  0.00000000000E+00 0. -1.
         21    1    1    2  504  501 -0.62523286450E+01  0.44355071112E+02 -0.92073492695E+02  0.10239136684E+03  0.00000000000E+00 0. -1.
         21    1    1    2  505  503  0.43517100559E+02  0.26880390537E+01 -0.88807660359E+02  0.98933129605E+02  0.00000000000E+00 0.  1.
          1    1    1    2  501    0 -0.76475137934E+02 -0.14535481818E+03 -0.14112901879E+04  0.14208154224E+04  0.00000000000E+00 0.  1.
<scales pt_clust_3="32.44918" pt_clust_4="32.44918" pt_clust_5="43.60004" pt_clust_6="160.77394"></scales>
<clustering>
<clus scale="   32.449">  3  4 -1 -1</clus>
<clus scale="   43.600">  1  5  2 -1</clus>
<clus scale="  160.774">  2  6  1 -1</clus>
<clus scale="   43.600">  1  3  2 -1</clus>
</clustering>
</event>
<event>
 6    0  0.2931273E+002  0.1661342E+03  0.7546771E-02  0.1181940E+00
          2   -1    0    0  505    0 -0.00000000000E+00  0.00000000000E+00  0.29704424860E+04  0.29704424860E+04  0.00000000000E+00 0.  1.
         21   -1    0    0  501  502  0.00000000000E+00 -0.00000000000E+00 -0.23287464602E+03  0.23287464602E+03  0.00000000000E+00 0.  1.
         21    1    1    2  503  504  0.40457967765E+02 -0.94795199878E+02  0.59697812816E+02  0.11910837893E+03  0.00000000000E+00 0.  1.
         21    1    1    2  504  502  0.48942566851E+02 -0.67223694935E+02 -0.18654073540E+03  0.20423478150E+03  0.00000000000E+00 0.  1.
         21    1    1    2  505  503  0.76198592054E+01  0.39522079479E+02  0.66705910381E+02  0.77908507241E+02  0.00000000000E+00 0.  1.
          2    1    1    2  501    0 -0.97020393821E+02  0.12249681533E+03  0.27977048522E+04  0.28020654644E+04  0.00000000000E+00 0.  1.
<scales pt_clust_3="14000.00000" pt_clust_4="83.06908" pt_clust_5="40.24993" pt_clust_6="166.13416"></scales>
<clustering>
<clus scale="   40.250">  1  5  2 -1</clus>
<clus scale="   83.069">  2  4  1 -1</clus>
<clus scale="  166.134">  1  6  2 -1</clus>
<clus scale="   83.069">  2  3  1 -1</clus>
</clustering>
</event>
<event>
 6    0  0.2781617E+002  0.1480232E+03  0.7546771E-02  0.1202923E+00
          1   -1    0    0  504    0 -0.00000000000E+00  0.00000000000E+00  0.22994083645E+04  0.22994083645E+04  0.00000000000E+00 0. -1.
         21   -1    0    0  505  502  0.00000000000E+00 -0.00000000000E+00 -0.40392755410E+02  0.40392755410E+02  0.00000000000E+00 0. -1.
         21    1    1    2  503  502  0.49156434334E+02  0.53773577752E+02  0.69201740199E+02  0.10048300129E+03  0.00000000000E+00 0. -1.
         21    1    1    2  504  503  0.19594049805E+02  0.70133325554E+02  0.69803614424E+02  0.10087197196E+03  0.00000000000E+00 0. -1.
         21    1    1    2  505  501  0.28596533299E+02 -0.16994610496E+02  0.34484533434E+02  0.47914105948E+02  0.00000000000E+00 0. -1.
          1    1    1    2  501    0 -0.97347017438E+02 -0.10691229281E+03  0.20855257210E+04  0.20905320407E+04  0.00000000000E+00 0. -1.
<scales pt_clust_3="32.20787" pt_clust_4="32.20787" pt_clust_5="33.26527" pt_clust_6="144.11477"></scales>
<clustering>
<clus scale="   33.265">  2  5  1 -1</clus>
<clus scale="   32.208">  3  4 -1 -1</clus>
<clus scale="  144.115">  1  6  2 -1</clus>
<clus scale="   33.265">  2  3  1 -1</clus>
</clustering>
</event>
<event>
 6    0  0.2781617E+002  0.1233916E+03  0.7546771E-02  0.1237605E+00
         21   -1    0    0  504  502  0.00000000000E+00  0.00000000000E+00  0.19911578544E+03  0.19911578544E+03  0.00000000000E+00 0. -1.
          2   -1    0    0  502    0 -0.00000000000E+00 -0.00000000000E+00 -0.21264105853E+04  0.21264105853E+04  0.00000000000E+00 0.  1.
         21    1    1    2  503  505 -0.64046708307E+02  0.66346983264E+01  0.12431038330E+03  0.13999668375E+03  0.00000000000E+00 0. -1.
         21    1    1    2  504  503  0.33272616042E+02 -0.52183863890E+02 -0.50216116246E+02  0.79698688569E+02  0.00000000000E+00 0. -1.
         21    1    1    2  505  501 -0.18364779018E+02 -0.69816028776E+02  0.24370948749E+02  0.76193740723E+02  0.00000000000E+00 0.  1.
          2    1    1    2  501    0  0.49138871283E+02  0.11536519434E+03 -0.20257600157E+04  0.20296372577E+04  0.00000000000E+00 0.  1.
<scales pt_clust_3="50.62221" pt_clust_4="61.88879" pt_clust_5="123.39163" pt_clust_6="14000.00000"></scales>
<clustering>
<clus scale="   61.889">  1  4  2 -1</clus>
<clus scale="   50.622">  1  3  2 -1</clus>
<clus scale="  123.392">  1  5  2 -1</clus>
<clus scale="   61.889">  1  3  2 -1</clus>
</clustering>
</event>
<event>
 6    0  0.2781617E+002  0.8413878E+02  0.7546771E-02  0.1317700E+00
          2   -1    0    0  505    0 -0.00000000000E+00  0.00000000000E+00  0.42835113615E+03  0.42835113615E+03  0.00000000000E+00 0. -1.
         21   -1    0    0  503  502  0.00000000000E+00 -0.00000000000E+00 -0.35181711861E+03  0.35181711861E+03  0.00000000000E+00 0. -1.
         21    1    1    2  503  501  0.38245435592E+02  0.22539905844E+02 -0.33137580965E+02  0.55397292094E+02  0.00000000000E+00 0. -1.
         21    1    1    2  504  502 -0.74062820474E+02 -0.35982887155E+01 -0.25483428242E+03  0.26540301535E+03  0.00000000000E+00 0. -1.
         21    1    1    2  505  504 -0.45817982569E+02 -0.48683960248E+02 -0.16270213387E+02  0.68805053272E+02  0.00000000000E+00 0.  1.
          2    1    1    2  501    0  0.81635367451E+02  0.29742343120E+02  0.38077609432E+03  0.39056289404E+03  0.00000000000E+00 0. -1.
<scales pt_clust_3="44.39325" pt_clust_4="44.49021" pt_clust_5="14000.00000" pt_clust_6="84.13878"></scales>
<clustering>
<clus scale="   44.393">  2  3  1 -1</clus>
<clus scale="   44.490">  2  4  1 -1</clus>
<clus scale="   84.139">  1  6  2 -1</clus>
<clus scale="   44.393">  2  3  1 -1</clus>
</clustering>
</event>
<event>
 6    0  0.4343936E+002  0.1432730E+03  0.7546771E-02  0.1208992E+00
          2   -1    0    0  503    0 -0.00000000000E+00  0.00000000000E+00  0.40598538559E+03  0.40598538559E+03  0.00000000000E+00 0. -1.
         21   -1    0    0  505  502  0.00000000000E+00 -0.00000000000E+00 -0.82952835306E+03  0.82952835306E+03  0.00000000000E+00 0.  1.
         21    1    1    2  503  504 -0.56653043363E+02  0.24417973355E+02 -0.31089453719E+02  0.69082261671E+02  0.00000000000E+00 0. -1.
         21    1    1    2  504  502  0.26652837005E+02  0.27510613757E+02 -0.28925882283E+02  0.47999106820E+02  0.00000000000E+00 0.  1.
         21    1    1    2  505  501  0.14271991174E+03  0.36762316178E+02 -0.71961114304E+03  0.73454791422E+03  0.00000000000E+00 0.  1.
          2    1    1    2  501    0 -0.11271970538E+03 -0.88690903291E+02  0.35608351156E+03  0.38388445594E+03  0.00000000000E+00 0. -1.
<scales pt_clust_3="60.87319" pt_clust_4="38.30415" pt_clust_5="143.27300" pt_clust_6="14000.00000"></scales>
<clustering>
<clus scale="   38.304">  2  4  1 -1</clus>
<clus scale="   60.873">  2  3  1 -1</clus>
<clus scale="  143.273">  2  5  1 -1</clus>
<clus scale="   38.304">  2  3  1 -1</clus>
</clustering>
</event>
<event>
 6    0  0.2781617E+002  0.1486286E+03  0.7546771E-02  0.1202168E+00
          2   -1    0    0  504    0 -0.00000000000E+00  0.00000000000E+00  0.11036517081E+04  0.11036517081E+04  0.00000000000E+00 0.  1.
         21   -1    0    0  505  502  0.00000000000E+00 -0.00000000000E+00 -0.68682831141E+02  0.68682831141E+02  0.00000000000E+00 0.  1.
         21    1    1    2  503  501 -0.61674345496E+02 -0.25300105291E+02  0.15828107404E+03  0.17174608764E+03  0.00000000000E+00 0. -1.
         21    1    1    2  504  502  0.13388441931E+03  0.72410665768E+02  0.59531442105E+02  0.16343908606E+03  0.00000000000E+00 0.  1.
         21    1    1    2  505  503 -0.22054593665E+02 -0.47217837968E+02  0.64952357267E+02  0.83275074534E+02  0.00000000000E+00 0.  1.
          2    1    1    2  501    0 -0.50155480151E+02  0.10727749075E+00  0.75220400358E+03  0.75387429104E+03  0.00000000000E+00 0.  1.
<scales pt_clust_3="47.88664" pt_clust_4="138.40963" pt_clust_5="47.88664" pt_clust_6="50.15559"></scales>
<clustering>
<clus scale="   47.887">  3  5 -1 -1</clus>
<clus scale="   50.156">  1  6  2 -1</clus>
<clus scale="  138.410">  2  4  1 -1</clus>
<clus scale="  138.410">  2  3  1 -1</clus>
</clustering>
</event>
<event>
 6    0  0.2781617E+002  0.6953375E+03  0.7546771E-02  0.9725239E-01
         21   -1    0    0  501  502  0.00000000000E+00  0.00000000000E+00  0.42511409005E+03  0.42511409005E+03  0.00000000000E+00 0.  1.
          2   -1    0    0  503    0 -0.00000000000E+00 -0.00000000000E+00 -0.39327267474E+04  0.39327267474E+04  0.00000000000E+00 0.  1.
         21    1    1    2  503  504 -0.24146609820E+02 -0.22302263727E+02 -0.70125183433E+02  0.77446698346E+02  0.00000000000E+00 0. -1.
         21    1    1    2  504  505 -0.88632889527E+02 -0.11692597121E+03  0.10354410786E+03  0.17957965955E+03  0.00000000000E+00 0.  1.
         21    1    1    2  505  502 -0.88186475747E+02 -0.51014734268E+03 -0.23546340205E+02  0.51824858503E+03  0.00000000000E+00 0.  1.
          2    1    1    2  501    0  0.20096597509E+03  0.64937557761E+03 -0.35174852416E+04  0.35825658946E+04  0.00000000000E+00 0.  1.
<scales pt_clust_3="32.87020" pt_clust_4="125.98122" pt_clust_5="125.98122" pt_clust_6="653.77030"></scales>
<clustering>
<clus scale="   32.870">  2  3  1 -1</clus>
<clus scale="  125.981">  4  5 -1 -1</clus>
<clus scale="  653.770">  2  6  1 -1</clus>
<clus scale="  695.337">  1  3  2 -1</clus>
</clustering>
</event>
<event>
 6    0  0.2781617E+002  0.3336173E+03  0.7546771E-02  0.1069547E+00
          2   -1    0    0  504    0 -0.00000000000E+00  0.00000000000E+00  0.11318791269E+04  0.11318791269E+04  0.00000000000E+00 0. -1.
         21   -1    0    0  503  502  0.00000000000E+00 -0.00000000000E+00 -0.45784366743E+03  0.45784366743E+03  0.00000000000E+00 0. -1.
         21    1    1    2  503  501  0.17248968905E+03 -0.29477476086E+03 -0.33635227981E+03  0.47935134151E+03  0.00000000000E+00 0. -1.
         21    1    1    2  504  505 -0.29443534845E+02 -0.15346233293E+02  0.63217599359E+02  0.71406536739E+02  0.00000000000E+00 0. -1.
         21    1    1    2  505  502 -0.15268075231E+03  0.23807959853E+03  0.41719344919E+03  0.50402746097E+03  0.00000000000E+00 0. -1.
          2    1    1    2  501    0  0.96345981047E+01  0.72041395618E+02  0.52997669078E+03  0.53493745516E+03  0.00000000000E+00 0. -1.
<scales pt_clust_3="333.61726" pt_clust_4="33.20284" pt_clust_5="14000.00000" pt_clust_6="64.56688"></scales>
<clustering>
<clus scale="   33.203">  1  4  2 -1</clus>
<clus scale="   64.567">  1  6  2 -1</clus>
<clus scale="  333.617">  2  3  1 -1</clus>
<clus scale="  333.617">  2  3  1 -1</clus>
</clustering>
</event>
<event>
 6    0  0.2781617E+002  0.1194161E+03  0.7546771E-02  0.1244063E+00
          2   -1    0    0  505    0 -0.00000000000E+00  0.00000000000E+00  0.19363631398E+04  0.19363631398E+04  0.00000000000E+00 0.  1.
         21   -1    0    0  504  502  0.00000000000E+00 -0.00000000000E+00 -0.67936141923E+03  0.67936141923E+03  0.00000000000E+00 0.  1.
         21    1    1    2  503  501  0.58823096134E+02 -0.37050153991E+01 -0.35315315271E+03  0.35803775366E+03  0.00000000000E+00 0.  1.
         21    1    1    2  504  503  0.46842839379E+02  0.37614837016E+02 -0.30982528499E+03  0.31559599931E+03  0.00000000000E+00 0.  1.
         21    1    1    2  505  502  0.24260946040E+02  0.20251561575E+02  0.21097007322E+02  0.37997407371E+02  0.00000000000E+00 0.  1.
          2    1    1    2  501    0 -0.12992688155E+03 -0.54161383191E+02  0.18988831510E+04  0.19040933987E+04  0.00000000000E+00 0.  1.
<scales pt_clust_3="43.47240" pt_clust_4="43.47240" pt_clust_5="31.60252" pt_clust_6="111.05556"></scales>
<clustering>
<clus scale="   31.603">  1  5  2 -1</clus>
<clus scale="   43.472">  3  4 -1 -1</clus>
<clus scale="  111.056">  1  6  2 -1</clus>
<clus scale="  119.416">  2  3  1 -1</clus>
</clustering>
</event>
<event>
 6    0  0.2781617E+002  0.1199239E+03  0.7546771E-02  0.1243223E+00
         21   -1    0    0  503  502  0.00000000000E+00  0.00000000000E+00  0.27605652500E+03  0.27605652500E+03  0.00000000000E+00 0. -1.
          2   -1    0    0  504    0 -0.00000000000E+00 -0.00000000000E+00 -0.13864363096E+04  0.13864363096E+04  0.00000000000E+00 0.  1.
         21    1    1    2  503  501 -0.42267719316E+01  0.42177833364E+02  0.22513311997E+02  0.47996712860E+02  0.00000000000E+00 0. -1.
         21    1    1    2  504  505 -0.67800024480E+02 -0.12403165968E+03 -0.13576494616E+03  0.19599187873E+03  0.00000000000E+00 0. -1.
         21    1    1    2  505  502  0.38987105270E+02  0.74916845613E+02  0.20197754014E+03  0.21892339951E+03  0.00000000000E+00 0. -1.
          2    1    1    2  501    0  0.33039691142E+02  0.69369807039E+01 -0.11991056906E+04  0.11995808435E+04  0.00000000000E+00 0.  1.
<scales pt_clust_3="42.69605" pt_clust_4="14000.00000" pt_clust_5="119.92387" pt_clust_6="33.76008"></scales>
<clustering>
<clus scale="   33.760">  2  6  1 -1</clus>
<clus scale="   42.696">  1  3  2 -1</clus>
<clus scale="  119.924">  1  5  2 -1</clus>
<clus scale="   42.696">  1  3  2 -1</clus>
</clustering>
</event>
<event>
 6    0  0.2781617E+002  0.1317696E+03  0.7546771E-02  0.1224853E+00
         21   -1    0    0  504  502  0.00000000000E+00  0.00000000000E+00  0.19197388140E+03  0.19197388140E+03  0.00000000000E+00 0. -1.
          1   -1    0    0  505    0 -0.00000000000E+00 -0.00000000000E+00 -0.21674073847E+04  0.21674073847E+04  0.00000000000E+00 0.  1.
         21    1    1    2  503  501  0.41249063013E+02 -0.12611835256E+02  0.98090188413E+02  0.10715516157E+03  0.00000000000E+00 0. -1.
         21    1    1    2  504  503  0.52960757621E+02  0.92708047855E+01  0.67132496701E+02  0.86009079651E+02  0.00000000000E+00 0. -1.
         21    1    1    2  505  502  0.33565469511E+02  0.38425622080E+01 -0.15410072691E+02  0.37133224586E+02  0.00000000000E+00 0.  1.
          1    1    1    2  501    0 -0.12777529015E+03 -0.50153173792E+00 -0.21252461157E+04  0.21290838003E+04  0.00000000000E+00 0.  1.
<scales pt_clust_3="30.07206" pt_clust_4="30.07206" pt_clust_5="33.78470" pt_clust_6="127.42051"></scales>
<clustering>
<clus scale="   30.072">  3  4 -1 -1</clus>
<clus scale="   33.785">  1  5  2 -1</clus>
<clus scale="  127.421">  2  6  1 -1</clus>
<clus scale="   33.785">  1  3  2 -1</clus>
</clustering>
</event>
<event>
 6    0  0.2781617E+002  0.1557375E+03  0.7546771E-02  0.1193595E+00
         21   -1    0    0  504  502  0.00000000000E+00  0.00000000000E+00  0.32670337406E+03  0.32670337406E+03  0.00000000000E+00 0.  1.
         -4   -1    0    0    0  501 -0.00000000000E+00 -0.00000000000E+00 -0.32744005494E+03  0.32744005494E+03  0.00000000000E+00 0. -1.
         21    1    1    2  503  501 -0.11603303773E+03 -0.58589289796E+01  0.16979124175E+02  0.11741500565E+03  0.00000000000E+00 0.  1.
         21    1    1    2  504  505  0.12179777029E+01 -0.81861962114E+02  0.12146034594E+03  0.14647689219E+03  0.00000000000E+00 0. -1.
         21    1    1    2  505  503 -0.57521435313E+02  0.63170159741E+02  0.75397019207E+02  0.11394689600E+03  0.00000000000E+00 0. -1.
         -4    1    1    2    0  502  0.17233649534E+03  0.24550731352E+02 -0.21457317020E+03  0.27630463515E+03  0.00000000000E+00 0. -1.
<scales pt_clust_3="155.73754" pt_clust_4="81.87102" pt_clust_5="61.37895" pt_clust_6="14000.00000"></scales>
<clustering>
<clus scale="   81.871">  1  4  2 -1</clus>
<clus scale="   61.379">  1  5  2 -1</clus>
<clus scale="  155.738">  1  3  2 -1</clus>
<clus scale="   81.871">  1  3  2 -1</clus>
</clustering>
</event>
<event>
 6    0  0.2781617E+002  0.1053745E+03  0.7546771E-02  0.1269383E+00
         -3   -1    0    0    0  501 -0.00000000000E+00  0.00000000000E+00  0.30479295816E+03  0.30479295816E+03  0.00000000000E+00 0. -1.
         21   -1    0    0  503  502  0.00000000000E+00 -0.00000000000E+00 -0.96169859100E+02  0.96169859100E+02  0.00000000000E+00 0. -1.
         21    1    1    2  503  501 -0.43930374243E+02 -0.18948983491E+02 -0.10305341425E+02  0.48940186129E+02  0.00000000000E+00 0.  1.
         21    1    1    2  504  505 -0.16411355463E+02  0.56426954248E+02  0.64144929949E+01  0.59114122460E+02  0.00000000000E+00 0. -1.
         21    1    1    2  505  502  0.25903125088E+02  0.51522099975E+02 -0.24444471731E+01  0.57718922349E+02  0.00000000000E+00 0. -1.
         -3    1    1    2    0  504  0.34438604618E+02 -0.89000070732E+02  0.21495839467E+03  0.23518958633E+03  0.00000000000E+00 0. -1.
<scales pt_clust_3="47.84289" pt_clust_4="43.07870" pt_clust_5="43.07870" pt_clust_6="95.98272"></scales>
<clustering>
<clus scale="   43.079">  4  5 -1 -1</clus>
<clus scale="   47.843">  2  3  1 -1</clus>
<clus scale="   95.983">  1  6  2 -1</clus>
<clus scale="   47.843">  2  3  1 -1</clus>
</clustering>
</event>
<event>
 6    0  0.2781617E+002  0.1148187E+03  0.7546771E-02  0.1251898E+00
         21   -1    0    0  504  502  0.00000000000E+00  0.00000000000E+00  0.15899035664E+04  0.15899035664E+04  0.00000000000E+00 0.  1.
          2   -1    0    0  505    0 -0.00000000000E+00 -0.00000000000E+00 -0.75018033720E+03  0.75018033720E+03  0.00000000000E+00 0. -1.
         21    1    1    2  503  502 -0.55257742951E+02  0.73185106762E+02  0.22448904726E+03  0.24249703163E+03  0.00000000000E+00 0.  1.
         21    1    1    2  504  501 -0.35913922267E+02  0.10339109194E+03  0.70865548910E+03  0.71705796832E+03  0.00000000000E+00 0.  1.
         21    1    1    2  505  503  0.10888725177E+03 -0.63016157888E+02  0.63284282413E+03  0.64522671194E+03  0.00000000000E+00 0.  1.
          2    1    1    2  501    0 -0.17715586550E+02 -0.11356004081E+03 -0.72626413124E+03  0.73530219175E+03  0.00000000000E+00 0. -1.
<scales pt_clust_3="91.70321" pt_clust_4="14000.00000" pt_clust_5="87.63086" pt_clust_6="114.81866"></scales>
<clustering>
<clus scale="   91.703">  1  3  2 -1</clus>
<clus scale="   87.631">  1  5  2 -1</clus>
<clus scale="  114.819">  2  6  1 -1</clus>
<clus scale="   91.703">  1  3  2 -1</clus>
</clustering>
</event>
<event>
 6    0  0.2781617E+002  0.1271707E+03  0.7546771E-02  0.1231715E+00
         21   -1    0    0  503  502  0.00000000000E+00  0.00000000000E+00  0.11812876118E+03  0.11812876118E+03  0.00000000000E+00 0. -1.
          2   -1    0    0  502    0 -0.00000000000E+00 -0.00000000000E+00 -0.12112587524E+04  0.12112587524E+04  0.00000000000E+00 0.  1.
         21    1    1    2  503  504  0.14362207855E+02 -0.28547941487E+02 -0.35545454504E+01  0.32154203006E+02  0.00000000000E+00 0. -1.
         21    1    1    2  504  505  0.44591106496E+02 -0.12919110636E+02 -0.43900983275E+02  0.63894964831E+02  0.00000000000E+00 0.  1.
         21    1    1    2  505  501  0.45199790531E+02 -0.36400254584E+02  0.80744960994E+02  0.99437157661E+02  0.00000000000E+00 0. -1.
          2    1    1    2  501    0 -0.10415310488E+03  0.77867306706E+02 -0.11264194235E+04  0.11339011881E+04  0.00000000000E+00 0.  1.
<scales pt_clust_3="31.95713" pt_clust_4="48.57040" pt_clust_5="127.17072" pt_clust_6="14000.00000"></scales>
<clustering>
<clus scale="   31.957">  1  3  2 -1</clus>
<clus scale="   48.570">  1  4  2 -1</clus>
<clus scale="  127.171">  1  5  2 -1</clus>
<clus scale="   31.957">  1  3  2 -1</clus>
</clustering>
</event>
<event>
 6    0  0.2781617E+002  0.1607882E+03  0.7546771E-02  0.1187810E+00
          2   -1    0    0  502    0 -0.00000000000E+00  0.00000000000E+00  0.73950789379E+03  0.73950789379E+03  0.00000000000E+00 0. -1.
         21   -1    0    0  503  502  0.00000000000E+00 -0.00000000000E+00 -0.12517860049E+03  0.12517860049E+03  0.00000000000E+00 0.  1.
         21    1    1    2  503  504 -0.51453572075E+02 -0.53941554585E+02 -0.51897932445E+02  0.90832575558E+02  0.00000000000E+00 0. -1.
         21    1    1    2  504  505 -0.20439121804E+02  0.57330951897E+02  0.30274182161E+02  0.67978833845E+02  0.00000000000E+00 0.  1.
         21    1    1    2  505  501 -0.70489593043E+02  0.68556813454E+02  0.77841090453E+02  0.12541154158E+03  0.00000000000E+00 0.  1.
          2    1    1    2  501    0  0.14238228692E+03 -0.71946210765E+02  0.55811195313E+03  0.58046354330E+03  0.00000000000E+00 0. -1.
<scales pt_clust_3="74.54637" pt_clust_4="31.42278" pt_clust_5="31.42278" pt_clust_6="155.74877"></scales>
<clustering>
<clus scale="   31.423">  4  5 -1 -1</clus>
<clus scale="   74.546">  2  3  1 -1</clus>
<clus scale="  155.749">  1  6  2 -1</clus>
<clus scale="   74.546">  2  3  1 -1</clus>
</clustering>
</event>
<event>
 6    0  0.3568393E+002  0.9029116E+02  0.7546771E-02  0.1302148E+00
          2   -1    0    0  504    0 -0.00000000000E+00  0.00000000000E+00  0.15150323792E+04  0.15150323792E+04  0.00000000000E+00 0. -1.
         21   -1    0    0  503  502  0.00000000000E+00 -0.00000000000E+00 -0.15300386887E+03  0.15300386887E+03  0.00000000000E+00 0. -1.
         21    1    1    2  503  501 -0.23258891661E+02 -0.11692440074E+03 -0.11283217882E+03  0.16414442454E+03  0.00000000000E+00 0. -1.
         21    1    1    2  504  505  0.25626414687E+01  0.56917777223E+02  0.19449142243E+03  0.20266502879E+03  0.00000000000E+00 0.  1.
         21    1    1    2  505  502  0.26917395365E+02  0.20142561030E+02  0.17852442444E+02  0.38065452043E+02  0.00000000000E+00 0.  1.
          2    1    1    2  501    0 -0.62211451727E+01  0.39864062492E+02  0.12625168243E+04  0.12631613427E+04  0.00000000000E+00 0. -1.
<scales pt_clust_3="90.29116" pt_clust_4="14000.00000" pt_clust_5="33.61947" pt_clust_6="40.38215"></scales>
<clustering>
<clus scale="   33.619">  2  5  1 -1</clus>
<clus scale="   40.382">  1  6  2 -1</clus>
<clus scale="   90.291">  2  3  1 -1</clus>
<clus scale="   33.619">  2  3  1 -1</clus>
</clustering>
</event>
<event>
 6    0  0.2781617E+002  0.8131278E+02  0.7546771E-02  0.1325367E+00
         21   -1    0    0  503  502  0.00000000000E+00  0.00000000000E+00  0.34675007684E+03  0.34675007684E+03  0.00000000000E+00 0. -1.
          2   -1    0    0  505    0 -0.00000000000E+00 -0.00000000000E+00 -0.10070794795E+04  0.10070794795E+04  0.00000000000E+00 0. -1.
         21    1    1    2  503  501 -0.55645107444E+02  0.12475812863E+03  0.34245420214E+02  0.14083223156E+03  0.00000000000E+00 0. -1.
         21    1    1    2  504  502 -0.54308793565E+02 -0.29656914845E+02  0.19662849106E+03  0.20613524966E+03  0.00000000000E+00 0. -1.
         21    1    1    2  505  504  0.54690609287E+02 -0.36753261068E+02  0.36741307620E+02  0.75443943620E+02  0.00000000000E+00 0. -1.
          2    1    1    2  501    0  0.55263291721E+02 -0.58347952718E+02 -0.92794462154E+03  0.93141813147E+03  0.00000000000E+00 0. -1.
<scales pt_clust_3="14000.00000" pt_clust_4="61.87873" pt_clust_5="58.82998" pt_clust_6="81.31278"></scales>
<clustering>
<clus scale="   61.879">  1  4  2 -1</clus>
<clus scale="   58.830">  1  5  2 -1</clus>
<clus scale="   81.313">  2  6  1 -1</clus>
<clus scale="   61.879">  1  3  2 -1</clus>
</clustering>
</event>
<event>
 6    0  0.2781617E+002  0.1229635E+03  0.7546771E-02  0.1238287E+00
         21   -1    0    0  501  502  0.00000000000E+00  0.00000000000E+00  0.29290267552E+02  0.29290267552E+02  0.00000000000E+00 0. -1.
          1   -1    0    0  504    0 -0.00000000000E+00 -0.00000000000E+00 -0.78031367323E+03  0.78031367323E+03  0.00000000000E+00 0. -1.
         21    1    1    2  503  505  0.25509605738E+01 -0.62481424609E+02 -0.32304449358E+03  0.32904130539E+03  0.00000000000E+00 0. -1.
         21    1    1    2  504  503 -0.43171326996E+02 -0.23801071270E+02 -0.14615706936E+03  0.15424702069E+03  0.00000000000E+00 0.  1.
         21    1    1    2  505  502  0.29954695142E+00 -0.35431316597E+02 -0.75456227996E+02  0.83361323572E+02  0.00000000000E+00 0. -1.
          1    1    1    2  501    0  0.40320819470E+02  0.12171381248E+03 -0.20636561474E+03  0.24295429113E+03  0.00000000000E+00 0. -1.
<scales pt_clust_3="30.83547" pt_clust_4="49.29761" pt_clust_5="30.83547" pt_clust_6="115.93947"></scales>
<clustering>
<clus scale="   30.835">  3  5 -1 -1</clus>
<clus scale="   49.298">  2  4  1 -1</clus>
<clus scale="  115.939">  1  6  2 -1</clus>
<clus scale="  115.939">  1  3  2 -1</clus>
</clustering>
</event>
<event>
 6    0  0.2781617E+002  0.8552007E+02  0.7546771E-02  0.1314078E+00
         21   -1    0    0  505  502  0.00000000000E+00  0.00000000000E+00  0.64605193609E+03  0.64605193609E+03  0.00000000000E+00 0.  1.
          2   -1    0    0  504    0 -0.00000000000E+00 -0.00000000000E+00 -0.27868705633E+03  0.27868705633E+03  0.00000000000E+00 0.  1.
         21    1    1    2  503  501 -0.46293078950E+02 -0.35545635807E+02  0.20073010407E+03  0.20904333538E+03  0.00000000000E+00 0.  1.
         21    1    1    2  504  502 -0.40930227955E+02  0.31980969823E+02  0.17069351502E+03  0.17842180938E+03  0.00000000000E+00 0.  1.
         21    1    1    2  505  503  0.29670898264E+02 -0.60991018651E+02  0.25515355143E+03  0.26401439614E+03  0.00000000000E+00 0.  1.
          2    1    1    2  501    0  0.57552408642E+02  0.64555684634E+02 -0.25921229077E+03  0.27325945152E+03  0.00000000000E+00 0.  1.
<scales pt_clust_3="14000.00000" pt_clust_4="51.94291" pt_clust_5="43.96676" pt_clust_6="85.52007"></scales>
<clustering>
<clus scale="   51.943">  1  4  2 -1</clus>
<clus scale="   43.967">  1  5  2 -1</clus>
<clus scale="   85.520">  2  6  1 -1</clus>
<clus scale="   51.943">  1  3  2 -1</clus>
</clustering>
</event>
<event>
 6    0  0.2781617E+002  0.8985843E+02  0.7546771E-02  0.1303195E+00
         21   -1    0    0  505  502  0.00000000000E+00  0.00000000000E+00  0.59020850537E+02  0.59020850537E+02  0.00000000000E+00 0.  1.
          2   -1    0    0  503    0 -0.00000000000E+00 -0.00000000000E+00 -0.23375492033E+04  0.23375492033E+04  0.00000000000E+00 0.  1.
         21    1    1    2  503  504  0.58137646852E+02 -0.56664589967E+02 -0.13434560305E+03  0.15697006975E+03  0.00000000000E+00 0.  1.
         21    1    1    2  504  502 -0.36966061130E+02 -0.23433431809E+02 -0.27037698272E+02  0.51445626924E+02  0.00000000000E+00 0. -1.
         21    1    1    2  505  501 -0.11041126354E+03  0.80208263179E+02 -0.10036848364E+03  0.16940438338E+03  0.00000000000E+00 0.  1.
          2    1    1    2  501    0  0.89239677817E+02 -0.11024140380E+00 -0.20167765678E+04  0.20187499737E+04  0.00000000000E+00 0.  1.
<scales pt_clust_3="79.40918" pt_clust_4="43.76774" pt_clust_5="14000.00000" pt_clust_6="89.85843"></scales>
<clustering>
<clus scale="   43.768">  1  4  2 -1</clus>
<clus scale="   79.409">  1  3  2 -1</clus>
<clus scale="   89.858">  2  6  1 -1</clus>
<clus scale="   43.768">  1  3  2 -1</clus>
</clustering>
</event>
<event>
 6    0  0.2781617E+002  0.1862326E+03  0.7546771E-02  0.1161904E+00
         21   -1    0    0  503  502  0.00000000000E+00  0.00000000000E+00  0.43391915038E+03  0.43391915038E+03  0.00000000000E+00 0. -1.
         -1   -1    0    0    0  501 -0.00000000000E+00 -0.00000000000E+00 -0.16244717670E+03  0.16244717670E+03  0.00000000000E+00 0.  1.
         21    1    1    2  503  504  0.53508417211E+02 -0.12122138468E+02  0.19193711445E+03  0.19962452970E+03  0.00000000000E+00 0. -1.
         21    1    1    2  504  505  0.39589635438E+02 -0.34304113239E+02  0.28879104552E+02  0.59817339451E+02  0.00000000000E+00 0. -1.
         21    1    1    2  505  501 -0.11109334178E+02 -0.11493216440E+03  0.96197685278E+02  0.15028910264E+03  0.00000000000E+00 0. -1.
         -1    1    1    2    0  502 -0.81988718471E+02  0.16135841610E+03 -0.45541930603E+02  0.18663535530E+03  0.00000000000E+00 0.  1.
<scales pt_clust_3="54.86435" pt_clust_4="49.57768" pt_clust_5="49.57768" pt_clust_6="171.06918"></scales>
<clustering>
<clus scale="   49.578">  4  5 -1 -1</clus>
<clus scale="   54.864">  1  3  2 -1</clus>
<clus scale="  171.069">  2  6  1 -1</clus>
<clus scale="   54.864">  1  3  2 -1</clus>
</clustering>
</event>
<event>
 6    0  0.2781617E+002  0.1027524E+03  0.7546771E-02  0.1274612E+00
          2   -1    0    0  503    0 -0.00000000000E+00  0.00000000000E+00  0.31950538913E+04  0.31950538913E+04  0.00000000000E+00 0. -1.
         21   -1    0    0  505  502  0.00000000000E+00 -0.00000000000E+00 -0.85778789385E+02  0.85778789385E+02  0.00000000000E+00 0.  1.
         21    1    1    2  503  502 -0.19291519897E+02 -0.29544170851E+02 -0.50971368085E+02  0.61992750670E+02  0.00000000000E+00 0.  1.
         21    1    1    2  504  501 -0.79009917843E+02  0.70279358953E+02  0.13799908199E+03  0.17385483037E+03  0.00000000000E+00 0.  1.
         21    1    1    2  505  504 -0.47642888279E+01 -0.30585113071E+02  0.12382136571E+02  0.33338639679E+02  0.00000000000E+00 0.  1.
          2    1    1    2  501    0  0.10306572657E+03 -0.10150075032E+02  0.30098652514E+04  0.30116464600E+04  0.00000000000E+00 0. -1.
<scales pt_clust_3="57.25002" pt_clust_4="102.75240" pt_clust_5="30.95396" pt_clust_6="14000.00000"></scales>
<clustering>
<clus scale="   30.954">  2  5  1 -1</clus>
<clus scale="   57.250">  2  3  1 -1</clus>
<clus scale="  102.752">  2  4  1 -1</clus>
<clus scale="   30.954">  2  3  1 -1</clus>
</clustering>
</event>
<event>
 6    0  0.2781617E+002  0.8532242E+02  0.7546771E-02  0.1314592E+00
         21   -1    0    0  505  502  0.00000000000E+00  0.00000000000E+00  0.12549948147E+04  0.12549948147E+04  0.00000000000E+00 0. -1.
          2   -1    0    0  503    0 -0.00000000000E+00 -0.00000000000E+00 -0.17274785958E+03  0.17274785958E+03  0.00000000000E+00 0.  1.
         21    1    1    2  503  502  0.11409972955E+02 -0.51297668188E+02  0.16984049808E+03  0.17778479415E+03  0.00000000000E+00 0. -1.
         21    1    1    2  504  501 -0.91650500927E+02  0.15479288221E+02  0.15141408048E+03  0.17766723516E+03  0.00000000000E+00 0. -1.
         21    1    1    2  505  504  0.57264295801E+02 -0.14844269344E+02  0.91068049622E+03  0.91259986747E+03  0.00000000000E+00 0. -1.
          2    1    1    2  501    0  0.22976232171E+02  0.50662649311E+02 -0.14968811961E+03  0.15969077754E+03  0.00000000000E+00 0.  1.
<scales pt_clust_3="52.55129" pt_clust_4="85.32242" pt_clust_5="14000.00000" pt_clust_6="55.43512"></scales>
<clustering>
<clus scale="   52.551">  1  3  2 -1</clus>
<clus scale="   55.435">  2  6  1 -1</clus>
<clus scale="   85.322">  2  4  1 -1</clus>
<clus scale="   52.551">  1  3  2 -1</clus>
</clustering>
</event>
<event>
 6    0  0.2781617E+002  0.1609250E+03  0.7546771E-02  0.1187656E+00
          2   -1    0    0  505    0 -0.00000000000E+00  0.00000000000E+00  0.25132976545E+04  0.25132976545E+04  0.00000000000E+00 0.  1.
         21   -1    0    0  504  502  0.00000000000E+00 -0.00000000000E+00 -0.47434677906E+02  0.47434677906E+02  0.00000000000E+00 0.  1.
         21    1    1    2  503  502  0.54047962220E+02 -0.63968820712E+02  0.64052240146E+02  0.10543188185E+03  0.00000000000E+00 0.  1.
         21    1    1    2  504  501 -0.88457259675E+02  0.17685960487E+03  0.70805345375E+03  0.73514876045E+03  0.00000000000E+00 0.  1.
         21    1    1    2  505  503  0.29492173599E+01 -0.13436157874E+03  0.33628916987E+03  0.36214933038E+03  0.00000000000E+00 0.  1.
          2    1    1    2  501    0  0.31460080095E+02  0.21470794589E+02  0.13574681128E+04  0.13580023597E+04  0.00000000000E+00 0.  1.
<scales pt_clust_3="84.07698" pt_clust_4="160.92504" pt_clust_5="14000.00000" pt_clust_6="38.08847"></scales>
<clustering>
<clus scale="   38.088">  1  6  2 -1</clus>
<clus scale="   84.077">  2  3  1 -1</clus>
<clus scale="  160.925">  2  4  1 -1</clus>
<clus scale="   84.077">  2  3  1 -1</clus>
</clustering>
</event>
<event>
 6    0  0.2781617E+002  0.2116006E+03  0.7546771E-02  0.1140305E+00
          1   -1    0    0  503    0 -0.00000000000E+00  0.00000000000E+00  0.54145026799E+03  0.54145026799E+03  0.00000000000E+00 0. -1.
         21   -1    0    0  501  502  0.00000000000E+00 -0.00000000000E+00 -0.21966445294E+03  0.21966445294E+03  0.00000000000E+00 0.  1.
         21    1    1    2  503  505  0.34621432870E+02  0.39177568509E+02  0.25118181317E+02  0.58003866430E+02  0.00000000000E+00 0. -1.
         21    1    1    2  504  502  0.21083673017E+02  0.83422460024E+02 -0.34793661601E+02  0.92813937487E+02  0.00000000000E+00 0.  1.
         21    1    1    2  505  504 -0.25552503081E+02  0.11729425169E+03 -0.71966649123E+02  0.13996453293E+03  0.00000000000E+00 0.  1.
          1    1    1    2  501    0 -0.30152602806E+02 -0.23989428022E+03  0.40342794446E+03  0.47033238407E+03  0.00000000000E+00 0. -1.
<scales pt_clust_3="52.28313" pt_clust_4="42.16914" pt_clust_5="42.16914" pt_clust_6="205.65492"></scales>
<clustering>
<clus scale="   42.169">  4  5 -1 -1</clus>
<clus scale="   52.283">  1  3  2 -1</clus>
<clus scale="  205.655">  1  6  2 -1</clus>
<clus scale="  211.601">  2  3  1 -1</clus>
</clustering>
</event>
<event>
 6    0  0.2781617E+002  0.2634985E+03  0.7546771E-02  0.1105059E+00
         21   -1    0    0  505  502  0.00000000000E+00  0.00000000000E+00  0.48196865125E+03  0.48196865125E+03  0.00000000000E+00 0.  1.
          2   -1    0    0  502    0 -0.00000000000E+00 -0.00000000000E+00 -0.65480946601E+03  0.65480946601E+03  0.00000000000E+00 0.  1.
         21    1    1    2  503  504  0.18261993606E+02  0.47646250397E+02  0.31756490341E+02  0.60101083735E+02  0.00000000000E+00 0.  1.
         21    1    1    2  504  501 -0.25966340948E+02  0.13523762804E+03  0.43888803747E+02  0.14453267448E+03  0.00000000000E+00 0. -1.
         21    1    1    2  505  503 -0.19865463535E+02  0.91798311059E+02  0.30202551539E+03  0.31629255208E+03  0.00000000000E+00 0.  1.
          2    1    1    2  501    0  0.27569810878E+02 -0.27468218949E+03 -0.55051162424E+03  0.61585180695E+03  0.00000000000E+00 0.  1.
<scales pt_clust_3="31.31736" pt_clust_4="31.31736" pt_clust_5="93.92319" pt_clust_6="258.42707"></scales>
<clustering>
<clus scale="   31.317">  3  4 -1 -1</clus>
<clus scale="   93.923">  1  5  2 -1</clus>
<clus scale="  258.427">  2  6  1 -1</clus>
<clus scale="   93.923">  1  3  2 -1</clus>
</clustering>
</event>
<event>
 6    0  0.2781617E+002  0.1058672E+03  0.7546771E-02  0.1268420E+00
          2   -1    0    0  503    0 -0.00000000000E+00  0.00000000000E+00  0.34894218129E+03  0.34894218129E+03  0.00000000000E+00 0. -1.
         21   -1    0    0  504  502  0.00000000000E+00 -0.00000000000E+00 -0.61044397528E+03  0.61044397528E+03  0.00000000000E+00 0.  1.
         21    1    1    2  503  505  0.12196420930E+03  0.60172021560E+01 -0.37172486649E+02  0.12764508935E+03  0.00000000000E+00 0. -1.
         21    1    1    2  504  501  0.37412985659E+02 -0.23851684372E+02 -0.73385675928E+02  0.85756001392E+02  0.00000000000E+00 0.  1.
         21    1    1    2  505  502 -0.89413303597E+02 -0.66121616968E+02 -0.43112894330E+03  0.44524035401E+03  0.00000000000E+00 0.  1.
          2    1    1    2  501    0 -0.69963891363E+02  0.83956099184E+02  0.28018531189E+03  0.30074471181E+03  0.00000000000E+00 0. -1.
<scales pt_clust_3="105.86720" pt_clust_4="44.36930" pt_clust_5="103.87116" pt_clust_6="14000.00000"></scales>
<clustering>
<clus scale="   44.369">  2  4  1 -1</clus>
<clus scale="  103.871">  2  5  1 -1</clus>
<clus scale="  105.867">  2  3  1 -1</clus>
<clus scale="   44.369">  2  3  1 -1</clus>
</clustering>
</event>
<event>
 6    0  0.2781617E+002  0.1898035E+03  0.7546771E-02  0.1158639E+00
         21   -1    0    0  505  502  0.00000000000E+00  0.00000000000E+00  0.10306180847E+03  0.10306180847E+03  0.00000000000E+00 0. -1.
          2   -1    0    0  504    0 -0.00000000000E+00 -0.00000000000E+00 -0.10240676717E+04  0.10240676717E+04  0.00000000000E+00 0. -1.
         21    1    1    2  503  502 -0.12541608252E+03 -0.22730914638E+01 -0.40268526645E+02  0.13174184960E+03  0.00000000000E+00 0. -1.
         21    1    1    2  504  503 -0.48285094844E+02 -0.24043025189E+02 -0.65921461049E+02  0.85177206289E+02  0.00000000000E+00 0. -1.
         21    1    1    2  505  501  0.16858223706E+03  0.59351573506E+02 -0.12155481240E+03  0.21614382329E+03  0.00000000000E+00 0. -1.
          2    1    1    2  501    0  0.51189403016E+01 -0.33035456853E+02 -0.69326106311E+03  0.69406660097E+03  0.00000000000E+00 0. -1.
<scales pt_clust_3="47.30249" pt_clust_4="47.30249" pt_clust_5="176.38724" pt_clust_6="33.42970"></scales>
<clustering>
<clus scale="   33.430">  2  6  1 -1</clus>
<clus scale="   47.302">  3  4 -1 -1</clus>
<clus scale="  176.387">  2  5  1 -1</clus>
<clus scale="  189.804">  1  3  2 -1</clus>
</clustering>
</event>
<event>
 6    0  0.2781617E+002  0.9322218E+02  0.7546771E-02  0.1295231E+00
         -2   -1    0    0    0  501 -0.00000000000E+00  0.00000000000E+00  0.42819443277E+03  0.42819443277E+03  0.00000000000E+00 0.  1.
         21   -1    0    0  504  502  0.00000000000E+00 -0.00000000000E+00 -0.19065922266E+04  0.19065922266E+04  0.00000000000E+00 0. -1.
         21    1    1    2  503  502  0.48746036997E+02 -0.25574654701E+02 -0.65374605161E+03  0.65605955453E+03  0.00000000000E+00 0. -1.
         21    1    1    2  504  505 -0.10366882005E+02 -0.67403981186E+02 -0.11566179512E+04  0.11586267104E+04  0.00000000000E+00 0. -1.
         21    1    1    2  505  501 -0.78216559747E+02  0.44979749256E+02 -0.69453558654E+02  0.11386309706E+03  0.00000000000E+00 0.  1.
         -2    1    1    2    0  503  0.39837404755E+02  0.47998886631E+02  0.40141976766E+03  0.40623729741E+03  0.00000000000E+00 0.  1.
<scales pt_clust_3="55.04761" pt_clust_4="93.22218" pt_clust_5="14000.00000" pt_clust_6="62.39930"></scales>
<clustering>
<clus scale="   55.048">  2  3  1 -1</clus>
<clus scale="   62.399">  1  6  2 -1</clus>
<clus scale="   93.222">  2  4  1 -1</clus>
<clus scale="   55.048">  2  3  1 -1</clus>
</clustering>
</event>
<event>
 6    0  0.2781617E+002  0.1426048E+03  0.7546771E-02  0.1209866E+00
          1   -1    0    0  504    0 -0.00000000000E+00  0.00000000000E+00  0.51162820812E+03  0.51162820812E+03  0.00000000000E+00 0. -1.
         21   -1    0    0  505  502  0.00000000000E+00 -0.00000000000E+00 -0.62888134116E+03  0.62888134116E+03  0.00000000000E+00 0.  1.
         21    1    1    2  503  501 -0.80287718037E+02  0.18145484697E+03 -0.49248202432E+03  0.53095246815E+03  0.00000000000E+00 0.  1.
         21    1    1    2  504  502  0.34591293444E+02 -0.88198924740E+02  0.31296907264E+02  0.99775269038E+02  0.00000000000E+00 0. -1.
         21    1    1    2  505  503  0.25690485767E+02 -0.40379177024E+02 -0.73953960265E+02  0.88088973402E+02  0.00000000000E+00 0. -1.
          1    1    1    2  501    0  0.20005938826E+02 -0.52876745209E+02  0.41788594429E+03  0.42169283869E+03  0.00000000000E+00 0. -1.
<scales pt_clust_3="14000.00000" pt_clust_4="142.60476" pt_clust_5="47.85895" pt_clust_6="56.69765"></scales>
<clustering>
<clus scale="   47.859">  2  5  1 -1</clus>
<clus scale="   56.698">  1  6  2 -1</clus>
<clus scale="  142.605">  1  4  2 -1</clus>
<clus scale="   47.859">  2  3  1 -1</clus>
</clustering>
</event>
<event>
 6    0  0.2781617E+002  0.2293211E+03  0.7546771E-02  0.1127119E+00
         21   -1    0    0  505  502  0.00000000000E+00  0.00000000000E+00  0.58820460077E+02  0.58820460077E+02  0.00000000000E+00 0. -1.
          2   -1    0    0  504    0 -0.00000000000E+00 -0.00000000000E+00 -0.27097740117E+04  0.27097740117E+04  0.00000000000E+00 0. -1.
         21    1    1    2  503  501 -0.62721520628E+02 -0.69865745235E+02 -0.31645692910E+03  0.33009119873E+03  0.00000000000E+00 0. -1.
         21    1    1    2  504  502  0.11737119548E+03  0.17796049539E+03 -0.22975176573E+03  0.31341954199E+03  0.00000000000E+00 0. -1.
         21    1    1    2  505  503 -0.56276148949E+02 -0.15893973349E+03 -0.72289436318E+03  0.74229718047E+03  0.00000000000E+00 0. -1.
          2    1    1    2  501    0  0.16264740966E+01  0.50844983334E+02 -0.13818504936E+04  0.13827865506E+04  0.00000000000E+00 0. -1.
<scales pt_clust_3="42.56305" pt_clust_4="222.11442" pt_clust_5="42.56305" pt_clust_6="50.87099"></scales>
<clustering>
<clus scale="   42.563">  3  5 -1 -1</clus>
<clus scale="   50.871">  2  6  1 -1</clus>
<clus scale="  222.114">  1  4  2 -1</clus>
<clus scale="  222.114">  1  3  2 -1</clus>
</clustering>
</event>
<event>
 6    0  0.2781617E+002  0.2611753E+03  0.7546771E-02  0.1106439E+00
         21   -1    0    0  504  502  0.00000000000E+00  0.00000000000E+00  0.12666989024E+03  0.12666989024E+03  0.00000000000E+00 0.  1.
          1   -1    0    0  505    0 -0.00000000000E+00 -0.00000000000E+00 -0.34845197874E+04  0.34845197874E+04  0.00000000000E+00 0.  1.
         21    1    1    2  503  502 -0.96213386446E+02 -0.18628114829E+03 -0.44173613906E+02  0.21426383294E+03  0.00000000000E+00 0.  1.
         21    1    1    2  504  501  0.37960471914E+02  0.17341336692E+03 -0.69211949535E+03  0.71452263023E+03  0.00000000000E+00 0.  1.
         21    1    1    2  505  503  0.90679813358E+01 -0.68063130819E+02 -0.10303683916E+02  0.69433305874E+02  0.00000000000E+00 0. -1.
          1    1    1    2  501    0  0.49184933196E+02  0.80930912191E+02 -0.26112531040E+04  0.26129699086E+04  0.00000000000E+00 0.  1.
<scales pt_clust_3="41.39025" pt_clust_4="250.96135" pt_clust_5="41.39025" pt_clust_6="94.70465"></scales>
<clustering>
<clus scale="   41.390">  3  5 -1 -1</clus>
<clus scale="   94.705">  2  6  1 -1</clus>
<clus scale="  250.961">  2  4  1 -1</clus>
<clus scale="  261.175">  1  3  2 -1</clus>
</clustering>
</event>
<event>
 6    0  0.2781617E+002  0.1766585E+03  0.7546771E-02  0.1171077E+00
         21   -1    0    0  504  502  0.00000000000E+00  0.00000000000E+00  0.27344263772E+03  0.27344263772E+03  0.00000000000E+00 0.  1.
          1   -1    0    0  503    0 -0.00000000000E+00 -0.00000000000E+00 -0.76067790808E+03  0.76067790808E+03  0.00000000000E+00 0. -1.
         21    1    1    2  503  502  0.30571673651E+02 -0.21821433466E+03  0.13071264613E+03  0.25619898310E+03  0.00000000000E+00 0.  1.
         21    1    1    2  504  505  0.24676220002E+02  0.50663868792E+02  0.36727627433E+02  0.67265608237E+02  0.00000000000E+00 0.  1.
         21    1    1    2  505  501 -0.26133037683E+02  0.15046057768E+03 -0.18552924390E+03  0.24029652814E+03  0.00000000000E+00 0.  1.
          1    1    1    2  501    0 -0.29114855970E+02  0.17089888190E+02 -0.46914630001E+03  0.47035942632E+03  0.00000000000E+00 0. -1.
<scales pt_clust_3="176.65847" pt_clust_4="56.51862" pt_clust_5="14000.00000" pt_clust_6="33.76002"></scales>
<clustering>
<clus scale="   33.760">  2  6  1 -1</clus>
<clus scale="   56.519">  1  4  2 -1</clus>
<clus scale="  176.658">  1  3  2 -1</clus>
<clus scale="   56.519">  1  3  2 -1</clus>
</clustering>
</event>
<event>
 6    0  0.2781617E+002  0.9162971E+02  0.7546771E-02  0.1298952E+00
          2   -1    0    0  503    0 -0.00000000000E+00  0.00000000000E+00  0.29959197799E+03  0.29959197799E+03  0.00000000000E+00 0.  1.
         21   -1    0    0  505  502  0.00000000000E+00 -0.00000000000E+00 -0.23483853634E+03  0.23483853634E+03  0.00000000000E+00 0. -1.
         21    1    1    2  503  504 -0.26354193474E+02  0.36193579637E+02 -0.30142245558E+02  0.53972897716E+02  0.00000000000E+00 0. -1.
         21    1    1    2  504  502  0.46972566499E+00  0.38186425497E+02 -0.62386705222E+02  0.73147281036E+02  0.00000000000E+00 0. -1.
         21    1    1    2  505  501  0.10088035304E+03 -0.19323788996E+02 -0.94076593538E+02  0.13928625166E+03  0.00000000000E+00 0. -1.
          2    1    1    2  501    0 -0.74995885229E+02 -0.55056216137E+02  0.25135898596E+03  0.26802408392E+03  0.00000000000E+00 0.  1.
<scales pt_clust_3="87.16612" pt_clust_4="34.50165" pt_clust_5="91.62971" pt_clust_6="14000.00000"></scales>
<clustering>
<clus scale="   34.502">  3  4 -1 -1</clus>
<clus scale="   87.166">  2  3  1 -1</clus>
<clus scale="   91.630">  2  5  1 -1</clus>
<clus scale="   87.166">  2  3  1 -1</clus>
</clustering>
</event>
<event>
 6    0  0.2781617E+002  0.1859993E+03  0.7546771E-02  0.1162120E+00
          1   -1    0    0  503    0 -0.00000000000E+00  0.00000000000E+00  0.21899885632E+03  0.21899885632E+03  0.00000000000E+00 0.  1.
         21   -1    0    0  505  502  0.00000000000E+00 -0.00000000000E+00 -0.11216425573E+04  0.11216425573E+04  0.00000000000E+00 0.  1.
         21    1    1    2  503  502 -0.42158827124E+02 -0.10111432841E+03 -0.14001121128E+03  0.17777686407E+03  0.00000000000E+00 0.  1.
         21    1    1    2  504  501 -0.33977898071E+01  0.31343669740E+02 -0.57140179244E+02  0.65260789854E+02  0.00000000000E+00 0. -1.
         21    1    1    2  505  504 -0.94954241035E+02  0.16418234375E+03 -0.85253369107E+03  0.87337611846E+03  0.00000000000E+00 0.  1.
          1    1    1    2  501    0  0.14051085797E+03 -0.94411685082E+02  0.14704138060E+03  0.22422764124E+03  0.00000000000E+00 0.  1.
<scales pt_clust_3="109.55124" pt_clust_4="30.58956" pt_clust_5="30.58956" pt_clust_6="170.19573"></scales>
<clustering>
<clus scale="   30.590">  4  5 -1 -1</clus>
<clus scale="  109.551">  2  3  1 -1</clus>
<clus scale="  170.196">  1  6  2 -1</clus>
<clus scale="  109.551">  2  3  1 -1</clus>
</clustering>
</event>
<event>
 6    0  0.2781617E+002  0.9635081E+02  0.7546771E-02  0.1288162E+00
         21   -1    0    0  503  502  0.00000000000E+00  0.00000000000E+00  0.17674463915E+03  0.17674463915E+03  0.00000000000E+00 0. -1.
          1   -1    0    0  505    0 -0.00000000000E+00 -0.00000000000E+00 -0.14525199107E+04  0.14525199107E+04  0.00000000000E+00 0.  1.
         21    1    1    2  503  504 -0.53558331484E+01  0.61433745923E+02  0.14430589150E+02  0.63332708690E+02  0.00000000000E+00 0. -1.
         21    1    1    2  504  501  0.11301110458E+03  0.41274663479E+02  0.16074879950E+02  0.12138166818E+03  0.00000000000E+00 0. -1.
         21    1    1    2  505  502 -0.76826855080E+02 -0.38563110730E+02  0.41106300304E+02  0.95284873382E+02  0.00000000000E+00 0. -1.
          1    1    1    2  501    0 -0.30828416353E+02 -0.64145298671E+02 -0.13473870410E+04  0.13492652996E+04  0.00000000000E+00 0.  1.
<scales pt_clust_3="61.66677" pt_clust_4="96.35081" pt_clust_5="14000.00000" pt_clust_6="70.80783"></scales>
<clustering>
<clus scale="   61.667">  1  3  2 -1</clus>
<clus scale="   70.808">  2  6  1 -1</clus>
<clus scale="   96.351">  2  4  1 -1</clus>
<clus scale="   61.667">  1  3  2 -1</clus>
</clustering>
</event>
<event>
 6    0  0.2781617E+002  0.1148181E+03  0.7546771E-02  0.1251899E+00
         21   -1    0    0  505  502  0.00000000000E+00  0.00000000000E+00  0.23673614496E+03  0.23673614496E+03  0.00000000000E+00 0. -1.
          2   -1    0    0  503    0 -0.00000000000E+00 -0.00000000000E+00 -0.11021823771E+04  0.11021823771E+04  0.00000000000E+00 0. -1.
         21    1    1    2  503  504 -0.10691377038E+03 -0.28506806425E+02 -0.13646169519E+03  0.17568433785E+03  0.00000000000E+00 0. -1.
         21    1    1    2  504  502  0.18359116577E+02 -0.31653156137E+02  0.15183587799E+03  0.15618294817E+03  0.00000000000E+00 0. -1.
         21    1    1    2  505  501  0.41168550956E+02 -0.53980585858E+02  0.39451106772E+02  0.78518424990E+02  0.00000000000E+00 0. -1.
          2    1    1    2  501    0  0.47386102846E+02  0.11414054842E+03 -0.92027152166E+03  0.92853281101E+03  0.00000000000E+00 0. -1.
<scales pt_clust_3="14000.00000" pt_clust_4="36.59207" pt_clust_5="93.82878" pt_clust_6="114.81806"></scales>
<clustering>
<clus scale="   36.592">  1  4  2 -1</clus>
<clus scale="   93.829">  1  5  2 -1</clus>
<clus scale="  114.818">  2  6  1 -1</clus>
<clus scale="   36.592">  1  3  2 -1</clus>
</clustering>
</event>
<event>
 6    0  0.2781617E+002  0.1586486E+03  0.7546771E-02  0.1190231E+00
         -1   -1    0    0    0  501 -0.00000000000E+00  0.00000000000E+00  0.11430319828E+04  0.11430319828E+04  0.00000000000E+00 0.  1.
         21   -1    0    0  505  502  0.00000000000E+00 -0.00000000000E+00 -0.85775814569E+02  0.85775814569E+02  0.00000000000E+00 0. -1.
         21    1    1    2  503  502  0.98391908851E+02  0.21609188398E+02  0.30576318126E+02  0.10527504918E+03  0.00000000000E+00 0. -1.
         21    1    1    2  504  503  0.54398370788E+02 -0.22259582467E+02 -0.13192428914E+02  0.60238790963E+02  0.00000000000E+00 0. -1.
         21    1    1    2  505  501 -0.11838460628E+02 -0.38387391623E+02  0.57789935883E+02  0.70380520565E+02  0.00000000000E+00 0. -1.
         -1    1    1    2    0  504 -0.14095181901E+03  0.39037785691E+02  0.98208234317E+03  0.99291343669E+03  0.00000000000E+00 0.  1.
<scales pt_clust_3="50.48917" pt_clust_4="50.48917" pt_clust_5="40.17140" pt_clust_6="146.36268"></scales>
<clustering>
<clus scale="   40.171">  2  5  1 -1</clus>
<clus scale="   50.489">  3  4 -1 -1</clus>
<clus scale="  146.363">  1  6  2 -1</clus>
<clus scale="   40.171">  2  3  1 -1</clus>
</clustering>
</event>
<event>
 6    0  0.2781617E+002  0.2137246E+03  0.7546771E-02  0.1138650E+00
          1   -1    0    0  505    0 -0.00000000000E+00  0.00000000000E+00  0.56088487259E+03  0.56088487259E+03  0.00000000000E+00 0. -1.
         21   -1    0    0  501  502  0.00000000000E+00 -0.00000000000E+00 -0.13254496462E+03  0.13254496462E+03  0.00000000000E+00 0. -1.
         21    1    1    2  503  502  0.50901212952E+01 -0.44855920527E+02 -0.28439875040E+02  0.53355313076E+02  0.00000000000E+00 0. -1.
         21    1    1    2  504  503  0.52140554316E+02 -0.12680797409E+03  0.27811170751E+02  0.13990125416E+03  0.00000000000E+00 0. -1.
         21    1    1    2  505  504  0.18999712440E+02 -0.32660196359E+02  0.46687561135E+02  0.60061683824E+02  0.00000000000E+00 0. -1.
          1    1    1    2  501    0 -0.76230388051E+02  0.20432409098E+03  0.38228105113E+03  0.44011158615E+03  0.00000000000E+00 0. -1.
<scales pt_clust_3="45.14380" pt_clust_4="32.96836" pt_clust_5="32.96836" pt_clust_6="204.28929"></scales>
<clustering>
<clus scale="   32.968">  4  5 -1 -1</clus>
<clus scale="   45.144">  2  3  1 -1</clus>
<clus scale="  204.289">  1  6  2 -1</clus>
<clus scale="   45.144">  2  3  1 -1</clus>
</clustering>
</event>
<event>
 6    0  0.2781617E+002  0.1113362E+03  0.7546771E-02  0.1258115E+00
          1   -1    0    0  505    0 -0.00000000000E+00  0.00000000000E+00  0.10022775150E+04  0.10022775150E+04  0.00000000000E+00 0.  1.
         21   -1    0    0  504  502  0.00000000000E+00 -0.00000000000E+00 -0.22117269457E+03  0.22117269457E+03  0.00000000000E+00 0.  1.
         21    1    1    2  503  502  0.53458496374E+02 -0.70300610276E+01 -0.15800590769E+02  0.56186219496E+02  0.00000000000E+00 0.  1.
         21    1    1    2  504  501 -0.45197747347E+02  0.12042688589E+03 -0.15227157305E+03  0.19932913277E+03  0.00000000000E+00 0.  1.
         21    1    1    2  505  503 -0.43274276980E+02 -0.51814858678E+02  0.13756292118E+03  0.15323511318E+03  0.00000000000E+00 0. -1.
          1    1    1    2  501    0  0.35013527952E+02 -0.61581966186E+02  0.81161406305E+03  0.81469974410E+03  0.00000000000E+00 0.  1.
<scales pt_clust_3="53.91876" pt_clust_4="111.33618" pt_clust_5="66.31508" pt_clust_6="14000.00000"></scales>
<clustering>
<clus scale="   53.919">  2  3  1 -1</clus>
<clus scale="   66.315">  1  5  2 -1</clus>
<clus scale="  111.336">  2  4  1 -1</clus>
<clus scale="   53.919">  2  3  1 -1</clus>
</clustering>
</event>
<event>
 6    0  0.2781617E+002  0.1489570E+03  0.7546771E-02  0.1201761E+00
         21   -1    0    0  503  502  0.00000000000E+00  0.00000000000E+00  0.29220094384E+03  0.29220094384E+03  0.00000000000E+00 0. -1.
         -3   -1    0    0    0  501 -0.00000000000E+00 -0.00000000000E+00 -0.46065716712E+03  0.46065716712E+03  0.00000000000E+00 0. -1.
         21    1    1    2  503  501 -0.30612381008E+02  0.29455803358E+00 -0.42551140243E+02  0.52419501824E+02  0.00000000000E+00 0. -1.
         21    1    1    2  504  502  0.92237695142E+02  0.13814719065E+03  0.21470840283E+03  0.27146295684E+03  0.00000000000E+00 0. -1.
         21    1    1    2  505  504 -0.57884338334E+02 -0.90762165788E+02 -0.25995796430E+02  0.11074361740E+03  0.00000000000E+00 0. -1.
         -3    1    1    2    0  505 -0.37409757997E+01 -0.47679582899E+02 -0.31461768944E+03  0.31823203490E+03  0.00000000000E+00 0. -1.
<scales pt_clust_3="30.61380" pt_clust_4="14000.00000" pt_clust_5="148.95696" pt_clust_6="54.68931"></scales>
<clustering>
<clus scale="   30.614">  2  3  1 -1</clus>
<clus scale="   54.689">  2  6  1 -1</clus>
<clus scale="  148.957">  2  5  1 -1</clus>
<clus scale="  148.957">  1  3  2 -1</clus>
</clustering>
</event>
<event>
 6    0  0.2781617E+002  0.1714407E+03  0.7546771E-02  0.1176354E+00
          1   -1    0    0  503    0 -0.00000000000E+00  0.00000000000E+00  0.11453803869E+04  0.11453803869E+04  0.00000000000E+00 0.  1.
         21   -1    0    0  501  502  0.00000000000E+00 -0.00000000000E+00 -0.14594384374E+03  0.14594384374E+03  0.00000000000E+00 0. -1.
         21    1    1    2  503  505  0.26648924480E+02 -0.41898254231E+02  0.50354870617E+00  0.49657652430E+02  0.00000000000E+00 0. -1.
         21    1    1    2  504  502 -0.59519119945E+02 -0.34606126199E+02 -0.74999108848E+02  0.10180852586E+03  0.00000000000E+00 0. -1.
         21    1    1    2  505  504  0.34001374051E+02 -0.92326897859E+02  0.67392037776E+02  0.11925617913E+03  0.00000000000E+00 0. -1.
          1    1    1    2  501    0 -0.11311785862E+01  0.16883127829E+03  0.10065400655E+04  0.10206018732E+04  0.00000000000E+00 0.  1.
<scales pt_clust_3="33.52671" pt_clust_4="68.84845" pt_clust_5="33.52671" pt_clust_6="164.81710"></scales>
<clustering>
<clus scale="   33.527">  3  5 -1 -1</clus>
<clus scale="   68.848">  2  4  1 -1</clus>
<clus scale="  164.817">  1  6  2 -1</clus>
<clus scale="   68.848">  2  3  1 -1</clus>
</clustering>
</event>
<event>
 6    0  0.3524360E+002  0.9611146E+02  0.7546771E-02  0.1288692E+00
          1   -1    0    0  505    0 -0.00000000000E+00  0.00000000000E+00  0.10846158650E+04  0.10846158650E+04  0.00000000000E+00 0.  1.
         21   -1    0    0  504  502  0.00000000000E+00 -0.00000000000E+00 -0.17960294974E+03  0.17960294974E+03  0.00000000000E+00 0. -1.
         21    1    1    2  503  502 -0.92499277974E+02  0.74825080240E+02 -0.12375457167E+03  0.17166858498E+03  0.00000000000E+00 0. -1.
         21    1    1    2  504  501  0.33859446920E+02  0.81629392629E+01 -0.10324460320E+02  0.36327540573E+02  0.00000000000E+00 0.  1.
         21    1    1    2  505  503  0.24713953326E+02 -0.63561430891E+02  0.13464118454E+03  0.15092741156E+03  0.00000000000E+00 0.  1.
          1    1    1    2  501    0  0.33925877728E+02 -0.19426588612E+02  0.90445076272E+03  0.90529527764E+03  0.00000000000E+00 0.  1.
<scales pt_clust_3="96.11146" pt_clust_4="34.82952" pt_clust_5="14000.00000" pt_clust_6="39.16270"></scales>
<clustering>
<clus scale="   34.830">  2  4  1 -1</clus>
<clus scale="   39.163">  1  6  2 -1</clus>
<clus scale="   96.111">  2  3  1 -1</clus>
<clus scale="   34.830">  2  3  1 -1</clus>
</clustering>
</event>
<event>
 6    0  0.2781617E+002  0.6849223E+02  0.7546771E-02  0.1365297E+00
         21   -1    0    0  503  502  0.00000000000E+00  0.00000000000E+00  0.83962015567E+03  0.83962015567E+03  0.00000000000E+00 0.  1.
          2   -1    0    0  504    0 -0.00000000000E+00 -0.00000000000E+00 -0.82231548552E+03  0.82231548552E+03  0.00000000000E+00 0.  1.
         21    1    1    2  503  505 -0.41318527852E+02  0.22797514614E+02  0.71664400196E+03  0.71819605468E+03  0.00000000000E+00 0.  1.
         21    1    1    2  504  502  0.94093039961E+02 -0.18319524177E+02  0.12919134268E+01  0.95868525468E+02  0.00000000000E+00 0.  1.
         21    1    1    2  505  501 -0.13023355069E+02  0.51211685890E+02  0.62405838286E+02  0.81772447690E+02  0.00000000000E+00 0.  1.
          2    1    1    2  501    0 -0.39751157040E+02 -0.55689676327E+02 -0.76303708352E+03  0.76609861334E+03  0.00000000000E+00 0.  1.
<scales pt_clust_3="47.19054" pt_clust_4="14000.00000" pt_clust_5="68.33151" pt_clust_6="68.49223"></scales>
<clustering>
<clus scale="   47.191">  1  3  2 -1</clus>
<clus scale="   68.492">  2  6  1 -1</clus>
<clus scale="   68.332">  1  5  2 -1</clus>
<clus scale="   47.191">  1  3  2 -1</clus>
</clustering>
</event>
<event>
 6    0  0.2781617E+002  0.9156374E+02  0.7546771E-02  0.1299108E+00
         21   -1    0    0  504  502  0.00000000000E+00  0.00000000000E+00  0.15153185982E+03  0.15153185982E+03  0.00000000000E+00 0.  1.
          1   -1    0    0  503    0 -0.00000000000E+00 -0.00000000000E+00 -0.14130087478E+04  0.14130087478E+04  0.00000000000E+00 0.  1.
         21    1    1    2  503  502  0.22649191820E+02  0.19726194767E+02 -0.88775610044E+02  0.93718821956E+02  0.00000000000E+00 0.  1.
         21    1    1    2  504  505 -0.97878840507E+02 -0.42760668466E+01  0.10270585707E+03  0.14194028760E+03  0.00000000000E+00 0.  1.
         21    1    1    2  505  501  0.64708429445E+02 -0.61897978847E+02 -0.50020857280E+02  0.10257010671E+03  0.00000000000E+00 0.  1.
          1    1    1    2  501    0  0.10521219241E+02  0.46447850927E+02 -0.12253862777E+04  0.12263113914E+04  0.00000000000E+00 0.  1.
<scales pt_clust_3="30.03512" pt_clust_4="91.56374" pt_clust_5="14000.00000" pt_clust_6="72.01078"></scales>
<clustering>
<clus scale="   30.035">  2  3  1 -1</clus>
<clus scale="   72.011">  2  6  1 -1</clus>
<clus scale="   91.564">  1  4  2 -1</clus>
<clus scale="   91.564">  1  3  2 -1</clus>
</clustering>
</event>
<event>
 6    0  0.2781617E+002  0.7614579E+02  0.7546771E-02  0.1340359E+00
          1   -1    0    0  504    0 -0.00000000000E+00  0.00000000000E+00  0.93807564917E+02  0.93807564917E+02  0.00000000000E+00 0.  1.
         21   -1    0    0  503  502  0.00000000000E+00 -0.00000000000E+00 -0.26105235164E+03  0.26105235164E+03  0.00000000000E+00 0. -1.
         21    1    1    2  503  501 -0.41371527206E+02 -0.25289936479E+02 -0.57079034839E+02  0.74894595056E+02  0.00000000000E+00 0.  1.
         21    1    1    2  504  505  0.28349001232E+02  0.27174257669E+02 -0.90279933966E+01  0.40294054344E+02  0.00000000000E+00 0. -1.
         21    1    1    2  505  502  0.86462192968E+02 -0.31675173161E+02 -0.12649552024E+03  0.15646131806E+03  0.00000000000E+00 0. -1.
          1    1    1    2  501    0 -0.73439666994E+02  0.29790851971E+02  0.25357761746E+02  0.83209949105E+02  0.00000000000E+00 0.  1.
<scales pt_clust_3="44.12828" pt_clust_4="39.26966" pt_clust_5="14000.00000" pt_clust_6="76.14579"></scales>
<clustering>
<clus scale="   39.270">  1  4  2 -1</clus>
<clus scale="   44.128">  2  3  1 -1</clus>
<clus scale="   76.146">  1  6  2 -1</clus>
<clus scale="   44.128">  2  3  1 -1</clus>
</clustering>
</event>
<event>
 6    0  0.2781617E+002  0.1153127E+03  0.7546771E-02  0.1251036E+00
          2   -1    0    0  503    0 -0.00000000000E+00  0.00000000000E+00  0.25467823986E+04  0.25467823986E+04  0.00000000000E+00 0. -1.
         21   -1    0    0  504  502  0.00000000000E+00 -0.00000000000E+00 -0.95336920943E+02  0.95336920943E+02  0.00000000000E+00 0.  1.
         21    1    1    2  503  502 -0.20567535189E+02  0.55982351732E+02  0.47508802114E+02  0.76250465490E+02  0.00000000000E+00 0.  1.
         21    1    1    2  504  505 -0.10343158009E+01 -0.80304204672E+02 -0.20030975640E+02  0.82771221341E+02  0.00000000000E+00 0.  1.
         21    1    1    2  505  501 -0.81184728854E+01 -0.76916937013E+02  0.24243074627E+02  0.81054620281E+02  0.00000000000E+00 0.  1.
          2    1    1    2  501    0  0.29720323876E+02  0.10123878995E+03  0.23997245766E+04  0.24020430125E+04  0.00000000000E+00 0. -1.
<scales pt_clust_3="59.64099" pt_clust_4="44.09451" pt_clust_5="44.09451" pt_clust_6="106.19842"></scales>
<clustering>
<clus scale="   44.095">  4  5 -1 -1</clus>
<clus scale="   59.641">  2  3  1 -1</clus>
<clus scale="  106.198">  1  6  2 -1</clus>
<clus scale="   59.641">  2  3  1 -1</clus>
</clustering>
</event>
<event>
 6    0  0.2781617E+002  0.2222269E+03  0.7546771E-02  0.1132234E+00
          2   -1    0    0  503    0 -0.00000000000E+00  0.00000000000E+00  0.60197450348E+03  0.60197450348E+03  0.00000000000E+00 0. -1.
         21   -1    0    0  501  502  0.00000000000E+00 -0.00000000000E+00 -0.43398971243E+03  0.43398971243E+03  0.00000000000E+00 0. -1.
         21    1    1    2  503  505 -0.52315556404E+02 -0.14779494858E+03 -0.14719091729E+03  0.21504750731E+03  0.00000000000E+00 0. -1.
         21    1    1    2  504  502 -0.57296738519E+02  0.38333180465E+02 -0.13791923566E+03  0.15418840597E+03  0.00000000000E+00 0. -1.
         21    1    1    2  505  504 -0.52290391800E+02 -0.20146675156E+02 -0.78306325857E+02  0.96291506706E+02  0.00000000000E+00 0.  1.
          2    1    1    2  501    0  0.16190268672E+03  0.12960844327E+03  0.53140126986E+03  0.57043679592E+03  0.00000000000E+00 0. -1.
<scales pt_clust_3="49.79113" pt_clust_4="68.93728" pt_clust_5="49.79113" pt_clust_6="206.03059"></scales>
<clustering>
<clus scale="   49.791">  3  5 -1 -1</clus>
<clus scale="   68.937">  2  4  1 -1</clus>
<clus scale="  206.031">  1  6  2 -1</clus>
<clus scale="   68.937">  2  3  1 -1</clus>
</clustering>
</event>
<event>
 6    0  0.2781617E+002  0.9390383E+02  0.7546771E-02  0.1293664E+00
          1   -1    0    0  503    0 -0.00000000000E+00  0.00000000000E+00  0.12454430006E+03  0.12454430006E+03  0.00000000000E+00 0. -1.
         21   -1    0    0  504  502  0.00000000000E+00 -0.00000000000E+00 -0.65822946832E+03  0.65822946832E+03  0.00000000000E+00 0.  1.
         21    1    1    2  503  505 -0.19876763717E+02 -0.49831510611E+02 -0.26095106824E+03  0.26640894354E+03  0.00000000000E+00 0.  1.
         21    1    1    2  504  501  0.62689250230E+02  0.35544873266E+02 -0.18619917000E+03  0.19965848596E+03  0.00000000000E+00 0.  1.
         21    1    1    2  505  502  0.16675470509E+02 -0.47526749664E+02 -0.18171715533E+03  0.18856825765E+03  0.00000000000E+00 0.  1.
          1    1    1    2  501    0 -0.59487957022E+02  0.61813387010E+02  0.95182225305E+02  0.12813808122E+03  0.00000000000E+00 0. -1.
<scales pt_clust_3="38.27227" pt_clust_4="72.06511" pt_clust_5="38.27227" pt_clust_6="85.19220"></scales>
<clustering>
<clus scale="   38.272">  3  5 -1 -1</clus>
<clus scale="   72.065">  2  4  1 -1</clus>
<clus scale="   85.192">  1  6  2 -1</clus>
<clus scale="   72.065">  2  3  1 -1</clus>
</clustering>
</event>
<event>
 6    0  0.2781617E+002  0.1124035E+03  0.7546771E-02  0.1256183E+00
         21   -1    0    0  504  502  0.00000000000E+00  0.00000000000E+00  0.92555114446E+02  0.92555114446E+02  0.00000000000E+00 0. -1.
          2   -1    0    0  503    0 -0.00000000000E+00 -0.00000000000E+00 -0.59309501194E+03  0.59309501194E+03  0.00000000000E+00 0.  1.
         21    1    1    2  503  502 -0.49612007739E+02 -0.59576358623E+02 -0.71001717308E+02  0.10512819640E+03  0.00000000000E+00 0. -1.
         21    1    1    2  504  505  0.36870737715E+02 -0.55935706384E+01  0.89923134151E+01  0.38361452432E+02  0.00000000000E+00 0. -1.
         21    1    1    2  505  501  0.31190088559E+02 -0.43543946485E+02  0.29614816342E+02  0.61204037831E+02  0.00000000000E+00 0. -1.
          2    1    1    2  501    0 -0.18448818535E+02  0.10871387575E+03 -0.46814530994E+03  0.48095643972E+03  0.00000000000E+00 0.  1.
<scales pt_clust_3="77.52866" pt_clust_4="30.95228" pt_clust_5="30.95228" pt_clust_6="106.10628"></scales>
<clustering>
<clus scale="   30.952">  4  5 -1 -1</clus>
<clus scale="   77.529">  1  3  2 -1</clus>
<clus scale="  106.106">  2  6  1 -1</clus>
<clus scale="   77.529">  1  3  2 -1</clus>
</clustering>
</event>
<event>
 6    0  0.2781617E+002  0.8805839E+02  0.7546771E-02  0.1307623E+00
         21   -1    0    0  501  502  0.00000000000E+00  0.00000000000E+00  0.22578245754E+02  0.22578245754E+02  0.00000000000E+00 0. -1.
          2   -1    0    0  505    0 -0.00000000000E+00 -0.00000000000E+00 -0.24669033129E+04  0.24669033129E+04  0.00000000000E+00 0. -1.
         21    1    1    2  503  502  0.16852051405E+02 -0.54812572183E+02 -0.78911316699E+02  0.97546940542E+02  0.00000000000E+00 0. -1.
         21    1    1    2  504  503  0.39737977449E+02  0.41829570647E+02 -0.14312915691E+03  0.15432036609E+03  0.00000000000E+00 0. -1.
         21    1    1    2  505  504  0.12248448699E+02  0.55026161297E+02 -0.10831822889E+03  0.12210954767E+03  0.00000000000E+00 0. -1.
          2    1    1    2  501    0 -0.68838477552E+02 -0.42043159761E+02 -0.21139663646E+04  0.21155047043E+04  0.00000000000E+00 0. -1.
<scales pt_clust_3="57.34466" pt_clust_4="32.84464" pt_clust_5="32.84464" pt_clust_6="81.54871"></scales>
<clustering>
<clus scale="   32.845">  4  5 -1 -1</clus>
<clus scale="   57.345">  1  3  2 -1</clus>
<clus scale="   81.549">  2  6  1 -1</clus>
<clus scale="   57.345">  1  3  2 -1</clus>
</clustering>
</event>
<event>
 6    0  0.2781617E+002  0.1666920E+03  0.7546771E-02  0.1181342E+00
          2   -1    0    0  503    0 -0.00000000000E+00  0.00000000000E+00  0.81269639143E+03  0.81269639143E+03  0.00000000000E+00 0. -1.
         21   -1    0    0  505  502  0.00000000000E+00 -0.00000000000E+00 -0.23343500891E+03  0.23343500891E+03  0.00000000000E+00 0. -1.
         21    1    1    2  503  502 -0.77121249838E+01 -0.31527846528E+02  0.82957694786E+01  0.33500772674E+02  0.00000000000E+00 0. -1.
         21    1    1    2  504  501 -0.26139185252E+02 -0.36872775899E+02 -0.34157832807E+02  0.56653474299E+02  0.00000000000E+00 0. -1.
         21    1    1    2  505  504 -0.99432860556E+02 -0.76309442756E+01 -0.15291730145E+03  0.18256184199E+03  0.00000000000E+00 0. -1.
          2    1    1    2  501    0  0.13328417079E+03  0.76031566703E+02  0.75804074729E+03  0.77341531138E+03  0.00000000000E+00 0. -1.
<scales pt_clust_3="32.45739" pt_clust_4="45.78633" pt_clust_5="45.78633" pt_clust_6="152.67054"></scales>
<clustering>
<clus scale="   32.457">  2  3  1 -1</clus>
<clus scale="   45.786">  4  5 -1 -1</clus>
<clus scale="  152.671">  1  6  2 -1</clus>
<clus scale="   32.457">  2  3  1 -1</clus>
</clustering>
</event>
<event>
 6    0  0.2781617E+002  0.1641878E+03  0.7546771E-02  0.1184048E+00
         21   -1    0    0  503  502  0.00000000000E+00  0.00000000000E+00  0.30636534600E+04  0.30636534600E+04  0.00000000000E+00 0. -1.
          2   -1    0    0  505    0 -0.00000000000E+00 -0.00000000000E+00 -0.92791806135E+03  0.92791806135E+03  0.00000000000E+00 0. -1.
         21    1    1    2  503  501  0.11583005743E+03  0.13431052761E+02  0.83363718380E+03  0.84175290294E+03  0.00000000000E+00 0. -1.
         21    1    1    2  504  502  0.26319098188E+02 -0.63734414279E+02  0.64270187266E+03  0.64639033688E+03  0.00000000000E+00 0. -1.
         21    1    1    2  505  504 -0.23816454779E+03  0.43391603620E+02  0.15695945554E+04  0.15881537242E+04  0.00000000000E+00 0. -1.
          2    1    1    2  501    0  0.96015392172E+02  0.69117578978E+01 -0.91019821327E+03  0.91527455737E+03  0.00000000000E+00 0. -1.
<scales pt_clust_3="164.18781" pt_clust_4="68.95484" pt_clust_5="14000.00000" pt_clust_6="96.28661"></scales>
<clustering>
<clus scale="   68.955">  1  4  2 -1</clus>
<clus scale="   96.287">  2  6  1 -1</clus>
<clus scale="  164.188">  1  3  2 -1</clus>
<clus scale="   68.955">  1  3  2 -1</clus>
</clustering>
</event>
<event>
 6    0  0.2781617E+002  0.1158054E+03  0.7546771E-02  0.1250182E+00
         21   -1    0    0  503  502  0.00000000000E+00  0.00000000000E+00  0.17083482369E+03  0.17083482369E+03  0.00000000000E+00 0. -1.
          2   -1    0    0  505    0 -0.00000000000E+00 -0.00000000000E+00 -0.11878016177E+04  0.11878016177E+04  0.00000000000E+00 0. -1.
         21    1    1    2  503  504  0.32839458814E+02  0.49935948281E+02  0.41346102445E+02  0.72674130015E+02  0.00000000000E+00 0. -1.
         21    1    1    2  504  501  0.63827849052E+02 -0.64968116978E+02  0.64534150620E+02  0.11162216238E+03  0.00000000000E+00 0. -1.
         21    1    1    2  505  502 -0.20268701465E+02 -0.73174629068E+02 -0.41143509829E+02  0.86360494437E+02  0.00000000000E+00 0. -1.
          2    1    1    2  501    0 -0.76398606401E+02  0.88206797765E+02 -0.10817035373E+04  0.10879796546E+04  0.00000000000E+00 0. -1.
<scales pt_clust_3="59.76645" pt_clust_4="14000.00000" pt_clust_5="64.73239" pt_clust_6="115.80542"></scales>
<clustering>
<clus scale="   59.766">  1  3  2 -1</clus>
<clus scale="   64.732">  1  5  2 -1</clus>
<clus scale="  115.805">  2  6  1 -1</clus>
<clus scale="   59.766">  1  3  2 -1</clus>
</clustering>
</event>
<event>
 6    0  0.2781617E+002  0.6260018E+02  0.7546771E-02  0.1387233E+00
          2   -1    0    0  503    0 -0.00000000000E+00  0.00000000000E+00  0.18890870867E+04  0.18890870867E+04  0.00000000000E+00 0.  1.
         21   -1    0    0  505  502  0.00000000000E+00 -0.00000000000E+00 -0.56975165709E+03  0.56975165709E+03  0.00000000000E+00 0.  1.
         21    1    1    2  503  504  0.77073946071E+02  0.29338405686E+02  0.23312334745E+02  0.85700642719E+02  0.00000000000E+00 0.  1.
         21    1    1    2  504  502  0.20601572644E+02  0.23997985674E+02 -0.27836192797E+02  0.42132905683E+02  0.00000000000E+00 0.  1.
         21    1    1    2  505  501 -0.50079737025E+02 -0.76018876627E+02 -0.49907465747E+03  0.50730894275E+03  0.00000000000E+00 0.  1.
          2    1    1    2  501    0 -0.47595781690E+02  0.22682485267E+02  0.18229339451E+04  0.18236962526E+04  0.00000000000E+00 0.  1.
<scales pt_clust_3="14000.00000" pt_clust_4="31.62796" pt_clust_5="62.60018" pt_clust_6="52.71842"></scales>
<clustering>
<clus scale="   31.628">  2  4  1 -1</clus>
<clus scale="   52.718">  1  6  2 -1</clus>
<clus scale="   62.600">  2  5  1 -1</clus>
<clus scale="   31.628">  2  3  1 -1</clus>
</clustering>
</event>
<event>
 6    0  0.2781617E+002  0.1035248E+03  0.7546771E-02  0.1273054E+00
         21   -1    0    0  503  502  0.00000000000E+00  0.00000000000E+00  0.22149606276E+04  0.22149606276E+04  0.00000000000E+00 0. -1.
          2   -1    0    0  504    0 -0.00000000000E+00 -0.00000000000E+00 -0.19431850974E+04  0.19431850974E+04  0.00000000000E+00 0.  1.
         21    1    1    2  503  501  0.15439488673E+03 -0.12029112825E+02  0.27873216148E+03  0.31886376157E+03  0.00000000000E+00 0.  1.
         21    1    1    2  504  505 -0.42742318449E+02  0.10679368094E+02  0.10503126364E+04  0.10512362193E+04  0.00000000000E+00 0. -1.
         21    1    1    2  505  502 -0.41638922799E+02 -0.34885435946E+02  0.86372652128E+03  0.86543301133E+03  0.00000000000E+00 0.  1.
          2    1    1    2  501    0 -0.70013645481E+02  0.36235180677E+02 -0.19209957889E+04  0.19226127327E+04  0.00000000000E+00 0.  1.
<scales pt_clust_3="91.36997" pt_clust_4="43.83226" pt_clust_5="43.83226" pt_clust_6="78.83463"></scales>
<clustering>
<clus scale="   43.832">  4  5 -1 -1</clus>
<clus scale="   78.835">  2  6  1 -1</clus>
<clus scale="   91.370">  2  3  1 -1</clus>
<clus scale="  103.525">  1  3  2 -1</clus>
</clustering>
</event>
<event>
 6    0  0.2781617E+002  0.9890238E+02  0.7546771E-02  0.1282621E+00
          2   -1    0    0  503    0 -0.00000000000E+00  0.00000000000E+00  0.11903893625E+04  0.11903893625E+04  0.00000000000E+00 0.  1.
         21   -1    0    0  504  502  0.00000000000E+00 -0.00000000000E+00 -0.80891930458E+03  0.80891930458E+03  0.00000000000E+00 0. -1.
         21    1    1    2  503  502 -0.43881555019E+00 -0.74761373367E+02  0.17379325237E+02  0.76756084140E+02  0.00000000000E+00 0. -1.
         21    1    1    2  504  505  0.62620521784E+02 -0.69882602400E+02 -0.53822953064E+03  0.54634781551E+03  0.00000000000E+00 0. -1.
         21    1    1    2  505  501 -0.40701254683E+02  0.12242594263E+03 -0.21915161662E+03  0.25430716590E+03  0.00000000000E+00 0. -1.
          2    1    1    2  501    0 -0.21480451551E+02  0.22218033134E+02  0.11214718799E+04  0.11218976015E+04  0.00000000000E+00 0.  1.
<scales pt_clust_3="61.43873" pt_clust_4="14000.00000" pt_clust_5="98.90238" pt_clust_6="30.90390"></scales>
<clustering>
<clus scale="   30.904">  1  6  2 -1</clus>
<clus scale="   61.439">  1  3  2 -1</clus>
<clus scale="   98.902">  1  5  2 -1</clus>
<clus scale="   98.902">  2  3  1 -1</clus>
</clustering>
</event>
<event>
 6    0  0.2781617E+002  0.2782244E+03  0.7546771E-02  0.1096663E+00
         -1   -1    0    0    0  501 -0.00000000000E+00  0.00000000000E+00  0.21838929174E+04  0.21838929174E+04  0.00000000000E+00 0.  1.
         21   -1    0    0  505  502  0.00000000000E+00 -0.00000000000E+00 -0.10262022215E+03  0.10262022215E+03  0.00000000000E+00 0.  1.
         21    1    1    2  503  501 -0.10794856040E+03  0.15593751789E+03  0.14993975775E+03  0.24176710308E+03  0.00000000000E+00 0.  1.
         21    1    1    2  504  502  0.16791930118E+03 -0.16093644227E+03  0.55401236231E+03  0.60085533014E+03  0.00000000000E+00 0.  1.
         21    1    1    2  505  503 -0.87979501704E+02  0.55409834474E+02  0.50095238069E+02  0.11541306405E+03  0.00000000000E+00 0.  1.
         -1    1    1    2    0  504  0.28008760926E+02 -0.50410910096E+02  0.13272253371E+04  0.13284776423E+04  0.00000000000E+00 0.  1.
<scales pt_clust_3="49.71408" pt_clust_4="270.00126" pt_clust_5="49.71408" pt_clust_6="57.66932"></scales>
<clustering>
<clus scale="   49.714">  3  5 -1 -1</clus>
<clus scale="   57.669">  1  6  2 -1</clus>
<clus scale="  270.001">  1  4  2 -1</clus>
<clus scale="  278.224">  2  3  1 -1</clus>
</clustering>
</event>
<event>
 6    0  0.2781617E+002  0.2423735E+03  0.7546771E-02  0.1118222E+00
         21   -1    0    0  504  502  0.00000000000E+00  0.00000000000E+00  0.25839918051E+03  0.25839918051E+03  0.00000000000E+00 0.  1.
         -1   -1    0    0    0  501 -0.00000000000E+00 -0.00000000000E+00 -0.22391817145E+03  0.22391817145E+03  0.00000000000E+00 0.  1.
         21    1    1    2  503  505 -0.27553078961E+02  0.69119398337E+02 -0.16970109105E+02  0.76319381482E+02  0.00000000000E+00 0.  1.
         21    1    1    2  504  503  0.57056329700E+02  0.51364704117E+02 -0.33383093297E+02  0.83714924034E+02  0.00000000000E+00 0.  1.
         21    1    1    2  505  501  0.14056517329E+02  0.87949556336E+02 -0.91363897156E+01  0.89533143339E+02  0.00000000000E+00 0. -1.
         -1    1    1    2    0  502 -0.43559768069E+02 -0.20843365879E+03  0.93970601178E+02  0.23274990311E+03  0.00000000000E+00 0.  1.
<scales pt_clust_3="40.59633" pt_clust_4="71.16275" pt_clust_5="71.16275" pt_clust_6="212.93671"></scales>
<clustering>
<clus scale="   40.596">  3  5 -1 -1</clus>
<clus scale="   71.163">  3  4 -1 -1</clus>
<clus scale="  212.937">  1  6  2 -1</clus>
<clus scale="  212.937">  1  3  2 -1</clus>
</clustering>
</event>
<event>
 6    0  0.2781617E+002  0.9897985E+02  0.7546771E-02  0.1282456E+00
          2   -1    0    0  505    0 -0.00000000000E+00  0.00000000000E+00  0.73895713734E+03  0.73895713734E+03  0.00000000000E+00 0. -1.
         21   -1    0    0  503  502  0.00000000000E+00 -0.00000000000E+00 -0.90724339366E+03  0.90724339366E+03  0.00000000000E+00 0.  1.
         21    1    1    2  503  504  0.63039314690E+02 -0.74916227020E+01 -0.34061108315E+03  0.34647653538E+03  0.00000000000E+00 0.  1.
         21    1    1    2  504  501  0.50494116301E+02 -0.42833751459E+02 -0.28850386199E+03  0.29600483852E+03  0.00000000000E+00 0.  1.
         21    1    1    2  505  502 -0.67149897820E+02 -0.27537819755E+02 -0.26371973913E+03  0.27352429710E+03  0.00000000000E+00 0.  1.
          2    1    1    2  501    0 -0.46383533171E+02  0.77863193916E+02  0.72454842796E+03  0.73019486000E+03  0.00000000000E+00 0. -1.
<scales pt_clust_3="38.84934" pt_clust_4="38.84934" pt_clust_5="72.57713" pt_clust_6="90.67961"></scales>
<clustering>
<clus scale="   38.849">  3  4 -1 -1</clus>
<clus scale="   72.577">  2  5  1 -1</clus>
<clus scale="   90.680">  1  6  2 -1</clus>
<clus scale="   72.577">  2  3  1 -1</clus>
</clustering>
</event>
<event>
 6    0  0.2781617E+002  0.1484315E+03  0.7546771E-02  0.1202414E+00
         21   -1    0    0  504  502  0.00000000000E+00  0.00000000000E+00  0.75591028358E+02  0.75591028358E+02  0.00000000000E+00 0.  1.
          2   -1    0    0  502    0 -0.00000000000E+00 -0.00000000000E+00 -0.72385723907E+03  0.72385723907E+03  0.00000000000E+00 0. -1.
         21    1    1    2  503  505 -0.10330834043E+03  0.31639911159E+02 -0.40006050090E+02  0.11521363298E+03  0.00000000000E+00 0.  1.
         21    1    1    2  504  503 -0.37907739944E+02 -0.17674223220E+02  0.60899413549E+01  0.42266562431E+02  0.00000000000E+00 0.  1.
         21    1    1    2  505  501  0.12018084292E+03  0.14610981452E+02 -0.27128991786E+03  0.29707765873E+03  0.00000000000E+00 0. -1.
          2    1    1    2  501    0  0.21035237458E+02 -0.28576669391E+02 -0.34306018412E+03  0.34489041328E+03  0.00000000000E+00 0. -1.
<scales pt_clust_3="37.75754" pt_clust_4="37.75754" pt_clust_5="136.08532" pt_clust_6="35.48390"></scales>
<clustering>
<clus scale="   35.484">  2  6  1 -1</clus>
<clus scale="   37.758">  3  4 -1 -1</clus>
<clus scale="  136.085">  2  5  1 -1</clus>
<clus scale="  148.431">  1  3  2 -1</clus>
</clustering>
</event>
<event>
 6    0  0.2781617E+002  0.1141289E+03  0.7546771E-02  0.1253109E+00
          2   -1    0    0  503    0 -0.00000000000E+00  0.00000000000E+00  0.43918059294E+03  0.43918059294E+03  0.00000000000E+00 0. -1.
         21   -1    0    0  505  502  0.00000000000E+00 -0.00000000000E+00 -0.55535043147E+03  0.55535043147E+03  0.00000000000E+00 0.  1.
         21    1    1    2  503  504  0.15922065192E+02  0.50802854792E+02  0.15535776644E+02  0.55459918598E+02  0.00000000000E+00 0.  1.
         21    1    1    2  504  502 -0.59295689789E+02 -0.12412870475E+02 -0.36608025143E+03  0.37105903663E+03  0.00000000000E+00 0.  1.
         21    1    1    2  505  501 -0.10170698696E+02 -0.88676049039E+02 -0.15115816985E+03  0.17554394635E+03  0.00000000000E+00 0.  1.
          2    1    1    2  501    0  0.53544323292E+02  0.50286064722E+02  0.38553280610E+03  0.39246812284E+03  0.00000000000E+00 0. -1.
<scales pt_clust_3="53.23948" pt_clust_4="60.42139" pt_clust_5="14000.00000" pt_clust_6="114.12887"></scales>
<clustering>
<clus scale="   53.239">  1  3  2 -1</clus>
<clus scale="   60.421">  2  4  1 -1</clus>
<clus scale="  114.129">  1  6  2 -1</clus>
<clus scale="   60.421">  2  3  1 -1</clus>
</clustering>
</event>
<event>
 6    0  0.2781617E+002  0.8860838E+02  0.7546771E-02  0.1306257E+00
          2   -1    0    0  504    0 -0.00000000000E+00  0.00000000000E+00  0.18076387250E+04  0.18076387250E+04  0.00000000000E+00 0.  1.
         21   -1    0    0  505  502  0.00000000000E+00 -0.00000000000E+00 -0.90656922697E+02  0.90656922697E+02  0.00000000000E+00 0.  1.
         21    1    1    2  503  501  0.24622091479E+02  0.87455941899E+02  0.90640874989E+02  0.12833766938E+03  0.00000000000E+00 0.  1.
         21    1    1    2  504  502 -0.30534980784E+02  0.74136104882E+01  0.57336430143E+02  0.65382053299E+02  0.00000000000E+00 0.  1.
         21    1    1    2  505  503 -0.70172123323E+02 -0.49732314263E+02 -0.38788933144E+02  0.94350470630E+02  0.00000000000E+00 0.  1.
          2    1    1    2  501    0  0.76085012628E+02 -0.45137238124E+02  0.16077934303E+04  0.16102254544E+04  0.00000000000E+00 0.  1.
<scales pt_clust_3="88.60838" pt_clust_4="31.42207" pt_clust_5="14000.00000" pt_clust_6="88.04477"></scales>
<clustering>
<clus scale="   31.422">  2  4  1 -1</clus>
<clus scale="   88.045">  1  6  2 -1</clus>
<clus scale="   88.608">  1  3  2 -1</clus>
<clus scale="   31.422">  2  3  1 -1</clus>
</clustering>
</event>
<event>
 6    0  0.2781617E+002  0.1842563E+03  0.7546771E-02  0.1163746E+00
         21   -1    0    0  503  502  0.00000000000E+00  0.00000000000E+00  0.59388581018E+03  0.59388581018E+03  0.00000000000E+00 0.  1.
         -1   -1    0    0    0  501 -0.00000000000E+00 -0.00000000000E+00 -0.53803266927E+03  0.53803266927E+03  0.00000000000E+00 0. -1.
         21    1    1    2  503  501  0.78115427264E+02 -0.46112065317E+02  0.16433570170E+03  0.18770872489E+03  0.00000000000E+00 0.  1.
         21    1    1    2  504  502  0.51679712950E+01 -0.64728433734E+02  0.15903421797E+03  0.17177997714E+03  0.00000000000E+00 0.  1.
         21    1    1    2  505  504 -0.18929741775E+02 -0.61364327553E+02  0.23170274802E+03  0.24043726679E+03  0.00000000000E+00 0.  1.
         -1    1    1    2    0  505 -0.64353656784E+02  0.17220482660E+03 -0.49921952678E+03  0.53199251063E+03  0.00000000000E+00 0. -1.
<scales pt_clust_3="90.71021" pt_clust_4="33.85436" pt_clust_5="33.85436" pt_clust_6="181.08421"></scales>
<clustering>
<clus scale="   33.854">  4  5 -1 -1</clus>
<clus scale="   90.710">  1  3  2 -1</clus>
<clus scale="  181.084">  2  6  1 -1</clus>
<clus scale="   90.710">  1  3  2 -1</clus>
</clustering>
</event>
<event>
 6    0  0.2781617E+002  0.3194070E+03  0.7546771E-02  0.1075923E+00
          1   -1    0    0  504    0 -0.00000000000E+00  0.00000000000E+00  0.17177991262E+04  0.17177991262E+04  0.00000000000E+00 0. -1.
         21   -1    0    0  505  502  0.00000000000E+00 -0.00000000000E+00 -0.96063195171E+02  0.96063195171E+02  0.00000000000E+00 0. -1.
         21    1    1    2  503  501 -0.84251143727E+02 -0.99883935227E+02  0.98509587636E+02  0.16364349847E+03  0.00000000000E+00 0. -1.
         21    1    1    2  504  502  0.40160838515E+02 -0.77790704599E+02  0.15693223932E+03  0.17969978968E+03  0.00000000000E+00 0. -1.
         21    1    1    2  505  503 -0.44117368581E+02 -0.14014974686E+03  0.14871972997E+03  0.20905944570E+03  0.00000000000E+00 0. -1.
          1    1    1    2  501    0  0.88207673793E+02  0.31782438668E+03  0.12175743741E+04  0.12614595875E+04  0.00000000000E+00 0. -1.
<scales pt_clust_3="57.29001" pt_clust_4="87.54591" pt_clust_5="57.29001" pt_clust_6="313.57668"></scales>
<clustering>
<clus scale="   57.290">  3  5 -1 -1</clus>
<clus scale="   87.546">  2  4  1 -1</clus>
<clus scale="  313.577">  1  6  2 -1</clus>
<clus scale="   87.546">  2  3  1 -1</clus>
</clustering>
</event>
<event>
 6    0  0.2781617E+002  0.2357214E+03  0.7546771E-02  0.1122676E+00
         21   -1    0    0  505  502  0.00000000000E+00  0.00000000000E+00  0.48706152453E+03  0.48706152453E+03  0.00000000000E+00 0. -1.
          2   -1    0    0  504    0 -0.00000000000E+00 -0.00000000000E+00 -0.14925946713E+04  0.14925946713E+04  0.00000000000E+00 0. -1.
         21    1    1    2  503  502 -0.14596281756E+02  0.62026312644E+02  0.13389653193E+03  0.14828552244E+03  0.00000000000E+00 0. -1.
         21    1    1    2  504  503  0.18421120086E+03  0.13284615925E+03  0.18046876340E+03  0.29008764729E+03  0.00000000000E+00 0. -1.
         21    1    1    2  505  501 -0.58499006204E+02  0.14499005874E+02  0.91804151807E+02  0.10981965756E+03  0.00000000000E+00 0. -1.
          2    1    1    2  501    0 -0.11111591290E+03 -0.20937147777E+03 -0.14117025939E+04  0.14314633686E+04  0.00000000000E+00 0. -1.
<scales pt_clust_3="76.32703" pt_clust_4="235.72137" pt_clust_5="60.26902" pt_clust_6="14000.00000"></scales>
<clustering>
<clus scale="   60.269">  1  5  2 -1</clus>
<clus scale="   76.327">  1  3  2 -1</clus>
<clus scale="  235.721">  1  4  2 -1</clus>
<clus scale="   60.269">  1  3  2 -1</clus>
</clustering>
</event>
<event>
 6    0  0.2781617E+002  0.1010038E+03  0.7546771E-02  0.1278199E+00
         21   -1    0    0  505  502  0.00000000000E+00  0.00000000000E+00  0.67963974428E+02  0.67963974428E+02  0.00000000000E+00 0. -1.
          2   -1    0    0  504    0 -0.00000000000E+00 -0.00000000000E+00 -0.94230561776E+03  0.94230561776E+03  0.00000000000E+00 0.  1.
         21    1    1    2  503  501 -0.52405133714E+02  0.80184874521E+01 -0.20049019955E+03  0.20738108471E+03  0.00000000000E+00 0.  1.
         21    1    1    2  504  502 -0.59417951840E+02  0.51832635643E+02 -0.10337446484E+03  0.13001305742E+03  0.00000000000E+00 0.  1.
         21    1    1    2  505  503  0.72745323174E+02 -0.87262378973E+02 -0.14127758727E+02  0.11448230603E+03  0.00000000000E+00 0. -1.
          2    1    1    2  501    0  0.39077762380E+02  0.27411255878E+02 -0.55634922022E+03  0.55839314403E+03  0.00000000000E+00 0.  1.
<scales pt_clust_3="38.89864" pt_clust_4="101.00376" pt_clust_5="14000.00000" pt_clust_6="47.73310"></scales>
<clustering>
<clus scale="   47.733">  2  6  1 -1</clus>
<clus scale="   38.899">  2  3  1 -1</clus>
<clus scale="  101.004">  2  4  1 -1</clus>
<clus scale="  101.004">  1  3  2 -1</clus>
</clustering>
</event>
<event>
 6    0  0.2781617E+002  0.1181108E+03  0.7546771E-02  0.1246247E+00
         21   -1    0    0  503  502  0.00000000000E+00  0.00000000000E+00  0.28395904663E+03  0.28395904663E+03  0.00000000000E+00 0. -1.
          2   -1    0    0  505    0 -0.00000000000E+00 -0.00000000000E+00 -0.57667820367E+03  0.57667820367E+03  0.00000000000E+00 0. -1.
         21    1    1    2  503  501 -0.40349387645E+02 -0.63159617171E+02  0.73127739479E+01  0.75303963955E+02  0.00000000000E+00 0. -1.
         21    1    1    2  504  502  0.12090483062E+03  0.65173450033E+02  0.12194824155E+03  0.18367615598E+03  0.00000000000E+00 0. -1.
         21    1    1    2  505  504 -0.88047245438E+02  0.11538644103E+03  0.17969904542E+02  0.14625069461E+03  0.00000000000E+00 0. -1.
          2    1    1    2  501    0  0.74918024627E+01 -0.11740027389E+03 -0.43995007708E+03  0.45540643576E+03  0.00000000000E+00 0. -1.
<scales pt_clust_3="74.94805" pt_clust_4="98.81406" pt_clust_5="118.11078" pt_clust_6="14000.00000"></scales>
<clustering>
<clus scale="   74.948">  1  3  2 -1</clus>
<clus scale="   98.814">  1  4  2 -1</clus>
<clus scale="  118.111">  1  5  2 -1</clus>
<clus scale="   74.948">  1  3  2 -1</clus>
</clustering>
</event>
<event>
 6    0  0.2781617E+002  0.1046805E+03  0.7546771E-02  0.1270750E+00
         21   -1    0    0  505  502  0.00000000000E+00  0.00000000000E+00  0.51309820160E+03  0.51309820160E+03  0.00000000000E+00 0. -1.
          4   -1    0    0  504    0 -0.00000000000E+00 -0.00000000000E+00 -0.41956974095E+03  0.41956974095E+03  0.00000000000E+00 0. -1.
         21    1    1    2  503  501 -0.69174042714E+02  0.27806513754E+02  0.98082087145E+02  0.12320043105E+03  0.00000000000E+00 0. -1.
         21    1    1    2  504  502  0.26042634192E+02 -0.18956869260E+02  0.20466095214E+02  0.38163369101E+02  0.00000000000E+00 0.  1.
         21    1    1    2  505  503 -0.60190890521E+02  0.17700232673E+02  0.36325897061E+03  0.36863711325E+03  0.00000000000E+00 0. -1.
          4    1    1    2  501    0  0.10332229904E+03 -0.26549877167E+02 -0.38827869232E+03  0.40266702915E+03  0.00000000000E+00 0. -1.
<scales pt_clust_3="104.68046" pt_clust_4="32.21151" pt_clust_5="40.63070" pt_clust_6="14000.00000"></scales>
<clustering>
<clus scale="   32.212">  1  4  2 -1</clus>
<clus scale="   40.631">  1  5  2 -1</clus>
<clus scale="  104.680">  1  3  2 -1</clus>
<clus scale="   32.212">  1  3  2 -1</clus>
</clustering>
</event>
<event>
 6    0  0.2781617E+002  0.7743117E+02  0.7546771E-02  0.1336504E+00
         21   -1    0    0  505  502  0.00000000000E+00  0.00000000000E+00  0.34836982650E+03  0.34836982650E+03  0.00000000000E+00 0.  1.
          2   -1    0    0  503    0 -0.00000000000E+00 -0.00000000000E+00 -0.41672397508E+03  0.41672397508E+03  0.00000000000E+00 0. -1.
         21    1    1    2  503  504  0.43989841675E+02 -0.68375761957E+02  0.16948816400E+03  0.18798028815E+03  0.00000000000E+00 0.  1.
         21    1    1    2  504  502  0.20497494617E+02  0.31088344058E+02  0.36364465712E+02  0.52048119931E+02  0.00000000000E+00 0.  1.
         21    1    1    2  505  501 -0.92061607855E+02  0.74975437679E+01  0.10720030192E+03  0.14150426684E+03  0.00000000000E+00 0.  1.
          2    1    1    2  501    0  0.27574271564E+02  0.29789874130E+02 -0.38140708021E+03  0.38356112667E+03  0.00000000000E+00 0. -1.
<scales pt_clust_3="14000.00000" pt_clust_4="37.23751" pt_clust_5="77.43117" pt_clust_6="40.72291"></scales>
<clustering>
<clus scale="   37.238">  1  4  2 -1</clus>
<clus scale="   40.723">  2  6  1 -1</clus>
<clus scale="   77.431">  2  5  1 -1</clus>
<clus scale="   37.238">  1  3  2 -1</clus>
</clustering>
</event>
<event>
 6    0  0.2781617E+002  0.1059249E+03  0.7546771E-02  0.1268308E+00
          2   -1    0    0  503    0 -0.00000000000E+00  0.00000000000E+00  0.63801840091E+03  0.63801840091E+03  0.00000000000E+00 0. -1.
         21   -1    0    0  504  502  0.00000000000E+00 -0.00000000000E+00 -0.20142998147E+03  0.20142998147E+03  0.00000000000E+00 0. -1.
         21    1    1    2  503  502 -0.34035715691E+02  0.62042302293E+02 -0.13482090145E+03  0.15226408863E+03  0.00000000000E+00 0. -1.
         21    1    1    2  504  505 -0.37537355899E+02  0.45788462852E+01 -0.16995728143E+02  0.41459301686E+02  0.00000000000E+00 0.  1.
         21    1    1    2  505  501 -0.33458600880E+02 -0.41764160655E+02  0.65142665949E+01  0.53908800370E+02  0.00000000000E+00 0.  1.
          2    1    1    2  501    0  0.10503167247E+03 -0.24856987923E+02  0.58189078244E+03  0.59181619170E+03  0.00000000000E+00 0. -1.
<scales pt_clust_3="105.92494" pt_clust_4="37.81559" pt_clust_5="56.42553" pt_clust_6="14000.00000"></scales>
<clustering>
<clus scale="   37.816">  2  4  1 -1</clus>
<clus scale="   56.426">  2  5  1 -1</clus>
<clus scale="  105.925">  2  3  1 -1</clus>
<clus scale="   37.816">  2  3  1 -1</clus>
</clustering>
</event>
<event>
 6    0  0.2781617E+002  0.1298340E+03  0.7546771E-02  0.1227702E+00
         21   -1    0    0  504  502  0.00000000000E+00  0.00000000000E+00  0.15462570720E+02  0.15462570720E+02  0.00000000000E+00 0. -1.
          2   -1    0    0  505    0 -0.00000000000E+00 -0.00000000000E+00 -0.30529334318E+04  0.30529334318E+04  0.00000000000E+00 0. -1.
         21    1    1    2  503  502 -0.74194939542E+02 -0.31656508853E+02 -0.26938135327E+03  0.28119981703E+03  0.00000000000E+00 0. -1.
         21    1    1    2  504  501  0.67964389070E+02  0.11385392001E+03 -0.68643463196E+03  0.69912400705E+03  0.00000000000E+00 0. -1.
         21    1    1    2  505  503 -0.14948236004E+02 -0.41895490701E+02 -0.16541631102E+03  0.17129284239E+03  0.00000000000E+00 0. -1.
          2    1    1    2  501    0  0.21178786476E+02 -0.40301920451E+02 -0.19162385648E+04  0.19167793361E+04  0.00000000000E+00 0. -1.
<scales pt_clust_3="35.95384" pt_clust_4="120.46858" pt_clust_5="35.95384" pt_clust_6="45.52786"></scales>
<clustering>
<clus scale="   35.954">  3  5 -1 -1</clus>
<clus scale="   45.528">  2  6  1 -1</clus>
<clus scale="  120.469">  2  4  1 -1</clus>
<clus scale="  129.834">  1  3  2 -1</clus>
</clustering>
</event>
<event>
 6    0  0.2781617E+002  0.1335117E+03  0.7546771E-02  0.1222336E+00
          2   -1    0    0  502    0 -0.00000000000E+00  0.00000000000E+00  0.32292592762E+04  0.32292592762E+04  0.00000000000E+00 0.  1.
         21   -1    0    0  505  502  0.00000000000E+00 -0.00000000000E+00 -0.47446411645E+02  0.47446411645E+02  0.00000000000E+00 0. -1.
         21    1    1    2  503  501  0.27772942653E+02  0.28727160787E+02  0.15880812413E+02  0.42997515200E+02  0.00000000000E+00 0.  1.
         21    1    1    2  504  503  0.48884032315E+01  0.81691053721E+02  0.60455355140E+02  0.10174563730E+03  0.00000000000E+00 0. -1.
         21    1    1    2  505  504  0.45734094021E+02 -0.10416953072E+02  0.34178636302E+02  0.58037052360E+02  0.00000000000E+00 0.  1.
          2    1    1    2  501    0 -0.78395439905E+02 -0.10000126144E+03  0.30712980607E+04  0.30739254830E+04  0.00000000000E+00 0.  1.
<scales pt_clust_3="30.17137" pt_clust_4="30.17137" pt_clust_5="46.90544" pt_clust_6="126.33661"></scales>
<clustering>
<clus scale="   30.171">  3  4 -1 -1</clus>
<clus scale="   46.905">  2  5  1 -1</clus>
<clus scale="  126.337">  1  6  2 -1</clus>
<clus scale="   46.905">  2  3  1 -1</clus>
</clustering>
</event>
<event>
 6    0  0.2781617E+002  0.2434797E+03  0.7546771E-02  0.1117496E+00
         21   -1    0    0  505  502  0.00000000000E+00  0.00000000000E+00  0.43428308609E+03  0.43428308609E+03  0.00000000000E+00 0. -1.
          2   -1    0    0  503    0 -0.00000000000E+00 -0.00000000000E+00 -0.12256935691E+04  0.12256935691E+04  0.00000000000E+00 0.  1.
         21    1    1    2  503  504  0.14592029940E+03  0.17195925791E+03  0.13979451305E+03  0.26533983122E+03  0.00000000000E+00 0. -1.
         21    1    1    2  504  502  0.13625471324E+02 -0.57314747803E+02 -0.82131394825E+01  0.59481841302E+02  0.00000000000E+00 0.  1.
         21    1    1    2  505  501 -0.57319478432E+02  0.10823995684E+03  0.17305546271E+03  0.21201321666E+03  0.00000000000E+00 0. -1.
          2    1    1    2  501    0 -0.10222629229E+03 -0.22288446695E+03 -0.10960473193E+04  0.11231417660E+04  0.00000000000E+00 0.  1.
<scales pt_clust_3="243.47971" pt_clust_4="58.91209" pt_clust_5="95.86508" pt_clust_6="14000.00000"></scales>
<clustering>
<clus scale="   58.912">  1  4  2 -1</clus>
<clus scale="   95.865">  1  5  2 -1</clus>
<clus scale="  243.480">  1  3  2 -1</clus>
<clus scale="   58.912">  1  3  2 -1</clus>
</clustering>
</event>
<event>
 6    0  0.2781617E+002  0.1391401E+03  0.7546771E-02  0.1214491E+00
          2   -1    0    0  503    0 -0.00000000000E+00  0.00000000000E+00  0.12298066602E+04  0.12298066602E+04  0.00000000000E+00 0. -1.
         21   -1    0    0  505  502  0.00000000000E+00 -0.00000000000E+00 -0.67615014552E+03  0.67615014552E+03  0.00000000000E+00 0. -1.
         21    1    1    2  503  502  0.35121051777E+02  0.80797325002E+01 -0.21828447316E+02  0.42133733129E+02  0.00000000000E+00 0. -1.
         21    1    1    2  504  501  0.13873926595E+02 -0.10931591772E+03 -0.34122076198E+03  0.35857225787E+03  0.00000000000E+00 0. -1.
         21    1    1    2  505  504 -0.48327277196E+02 -0.38244799680E+02 -0.28697366772E+03  0.29351673954E+03  0.00000000000E+00 0. -1.
          2    1    1    2  501    0 -0.66770117585E+00  0.13948098490E+03  0.12036793917E+04  0.12117340752E+04  0.00000000000E+00 0. -1.
<scales pt_clust_3="36.03846" pt_clust_4="139.14014" pt_clust_5="47.47506" pt_clust_6="14000.00000"></scales>
<clustering>
<clus scale="   36.038">  2  3  1 -1</clus>
<clus scale="   47.475">  2  5  1 -1</clus>
<clus scale="  139.140">  2  4  1 -1</clus>
<clus scale="   36.038">  2  3  1 -1</clus>
</clustering>
</event>
<event>
 6    0  0.2781617E+002  0.1139533E+03  0.7546771E-02  0.1253419E+00
         -2   -1    0    0    0  501 -0.00000000000E+00  0.00000000000E+00  0.38259222967E+03  0.38259222967E+03  0.00000000000E+00 0.  1.
         21   -1    0    0  503  502  0.00000000000E+00 -0.00000000000E+00 -0.70003573197E+02  0.70003573197E+02  0.00000000000E+00 0.  1.
         21    1    1    2  503  501 -0.29956308721E+02  0.65399308197E+02  0.34120933462E+02  0.79615878097E+02  0.00000000000E+00 0.  1.
         21    1    1    2  504  502 -0.47942264706E+02  0.20736568838E+01  0.46738170686E+01  0.48214161447E+02  0.00000000000E+00 0.  1.
         21    1    1    2  505  504 -0.35958877719E+02 -0.23322152659E+02  0.30693201774E+02  0.52716565960E+02  0.00000000000E+00 0.  1.
         -2    1    1    2    0  505  0.11385745115E+03 -0.44150812422E+02  0.24310070417E+03  0.27204919736E+03  0.00000000000E+00 0.  1.
<scales pt_clust_3="71.93365" pt_clust_4="35.92855" pt_clust_5="35.92855" pt_clust_6="107.42473"></scales>
<clustering>
<clus scale="   35.929">  4  5 -1 -1</clus>
<clus scale="   71.934">  2  3  1 -1</clus>
<clus scale="  107.425">  1  6  2 -1</clus>
<clus scale="   71.934">  2  3  1 -1</clus>
</clustering>
</event>
<event>
 6    0  0.2781617E+002  0.2726820E+03  0.7546771E-02  0.1099754E+00
          2   -1    0    0  503    0 -0.00000000000E+00  0.00000000000E+00  0.32667338679E+04  0.32667338679E+04  0.00000000000E+00 0.  1.
         21   -1    0    0  504  502  0.00000000000E+00 -0.00000000000E+00 -0.25446037460E+03  0.25446037460E+03  0.00000000000E+00 0. -1.
         21    1    1    2  503  505 -0.17829735290E+03 -0.21528351755E+03  0.80996589422E+01  0.27964717674E+03  0.00000000000E+00 0. -1.
         21    1    1    2  504  501  0.80499488022E+02  0.17732940373E+03  0.85875508755E+02  0.21283911295E+03  0.00000000000E+00 0.  1.
         21    1    1    2  505  502 -0.44621428217E+02 -0.55374165894E+02 -0.28777574619E+02  0.76717135671E+02  0.00000000000E+00 0. -1.
          2    1    1    2  501    0  0.14241929310E+03  0.93328279719E+02  0.29470759002E+04  0.29519908171E+04  0.00000000000E+00 0.  1.
<scales pt_clust_3="30.34564" pt_clust_4="265.96223" pt_clust_5="30.34564" pt_clust_6="170.27455"></scales>
<clustering>
<clus scale="   30.346">  3  5 -1 -1</clus>
<clus scale="  170.275">  1  6  2 -1</clus>
<clus scale="  265.962">  2  4  1 -1</clus>
<clus scale="  265.962">  2  3  1 -1</clus>
</clustering>
</event>
<event>
 6    0  0.2781617E+002  0.1856975E+03  0.7546771E-02  0.1162400E+00
         21   -1    0    0  505  502  0.00000000000E+00  0.00000000000E+00  0.73431218288E+03  0.73431218288E+03  0.00000000000E+00 0.  1.
          1   -1    0    0  503    0 -0.00000000000E+00 -0.00000000000E+00 -0.67670120731E+03  0.67670120731E+03  0.00000000000E+00 0. -1.
         21    1    1    2  503  504  0.45024464831E+00  0.48726712799E+02  0.62666201720E+02  0.79382290836E+02  0.00000000000E+00 0. -1.
         21    1    1    2  504  502  0.41030731676E+02  0.17260610934E+03  0.56265296377E+03  0.58996164923E+03  0.00000000000E+00 0.  1.
         21    1    1    2  505  501 -0.43348152784E+02 -0.54323388043E+02  0.60188494647E+02  0.91938826000E+02  0.00000000000E+00 0.  1.
          1    1    1    2  501    0  0.18671764601E+01 -0.16700943410E+03 -0.62789668457E+03  0.64973062412E+03  0.00000000000E+00 0. -1.
<scales pt_clust_3="41.55903" pt_clust_4="41.55903" pt_clust_5="69.49887" pt_clust_6="167.91431"></scales>
<clustering>
<clus scale="   41.559">  3  4 -1 -1</clus>
<clus scale="   69.499">  1  5  2 -1</clus>
<clus scale="  167.914">  2  6  1 -1</clus>
<clus scale="   69.499">  1  3  2 -1</clus>
</clustering>
</event>
<event>
 6    0  0.2781617E+002  0.2739541E+03  0.7546771E-02  0.1099038E+00
         21   -1    0    0  503  502  0.00000000000E+00  0.00000000000E+00  0.33771519958E+03  0.33771519958E+03  0.00000000000E+00 0. -1.
          2   -1    0    0  502    0 -0.00000000000E+00 -0.00000000000E+00 -0.16928829121E+04  0.16928829121E+04  0.00000000000E+00 0.  1.
         21    1    1    2  503  505  0.64639017541E+02  0.52273158579E+02  0.58068867778E+02  0.10140354580E+03  0.00000000000E+00 0.  1.
         21    1    1    2  504  501  0.11581476076E+03 -0.68072573973E+02  0.81602726001E+02  0.15718122988E+03  0.00000000000E+00 0. -1.
         21    1    1    2  505  504  0.86522737930E+02 -0.23548460022E+02  0.11154535424E+03  0.14311911194E+03  0.00000000000E+00 0. -1.
          2    1    1    2  501    0 -0.26697651623E+03  0.39347875415E+02 -0.16063846605E+04  0.16288942240E+04  0.00000000000E+00 0.  1.
<scales pt_clust_3="83.13053" pt_clust_4="48.60463" pt_clust_5="48.60463" pt_clust_6="267.41652"></scales>
<clustering>
<clus scale="   48.605">  4  5 -1 -1</clus>
<clus scale="   83.131">  1  3  2 -1</clus>
<clus scale="  267.417">  2  6  1 -1</clus>
<clus scale="   83.131">  1  3  2 -1</clus>
</clustering>
</event>
<event>
 6    0  0.2781617E+002  0.9398167E+02  0.7546771E-02  0.1293486E+00
          2   -1    0    0  503    0 -0.00000000000E+00  0.00000000000E+00  0.17510033449E+04  0.17510033449E+04  0.00000000000E+00 0. -1.
         21   -1    0    0  505  502  0.00000000000E+00 -0.00000000000E+00 -0.34028951487E+03  0.34028951487E+03  0.00000000000E+00 0. -1.
         21    1    1    2  503  504 -0.54609715907E+02 -0.28666143906E+01 -0.74992631558E+02  0.92813432958E+02  0.00000000000E+00 0. -1.
         21    1    1    2  504  502 -0.53586818692E+02 -0.14824644272E+02 -0.16841379825E+03  0.17735423496E+03  0.00000000000E+00 0. -1.
         21    1    1    2  505  501  0.44423174963E+02 -0.37398575251E+02 -0.72253088529E+02  0.92696174175E+02  0.00000000000E+00 0. -1.
          2    1    1    2  501    0  0.63773359635E+02  0.55089833913E+02  0.17263733484E+04  0.17284290177E+04  0.00000000000E+00 0. -1.
<scales pt_clust_3="41.18299" pt_clust_4="41.18299" pt_clust_5="58.06954" pt_clust_6="84.30982"></scales>
<clustering>
<clus scale="   41.183">  3  4 -1 -1</clus>
<clus scale="   58.070">  2  5  1 -1</clus>
<clus scale="   84.310">  1  6  2 -1</clus>
<clus scale="   58.070">  2  3  1 -1</clus>
</clustering>
</event>
<event>
 6    0  0.2781617E+002  0.1811466E+03  0.7546771E-02  0.1166698E+00
          2   -1    0    0  504    0 -0.00000000000E+00  0.00000000000E+00  0.10636646211E+04  0.10636646211E+04  0.00000000000E+00 0. -1.
         21   -1    0    0  505  502  0.00000000000E+00 -0.00000000000E+00 -0.46448591896E+03  0.46448591896E+03  0.00000000000E+00 0.  1.
         21    1    1    2  503  502  0.25475936371E+02  0.95528860272E+02 -0.34515107638E+03  0.35903210442E+03  0.00000000000E+00 0.  1.
         21    1    1    2  504  503 -0.66604530218E+02  0.14069821500E+03  0.27887465953E+02  0.15814506602E+03  0.00000000000E+00 0. -1.
         21    1    1    2  505  501 -0.35029534736E+02 -0.67896255089E+02  0.31419341632E+00  0.76400709921E+02  0.00000000000E+00 0.  1.
          2    1    1    2  501    0  0.76158128583E+02 -0.16833082018E+03  0.91612811917E+03  0.93457265972E+03  0.00000000000E+00 0. -1.
<scales pt_clust_3="39.62060" pt_clust_4="14000.00000" pt_clust_5="76.40006" pt_clust_6="181.14659"></scales>
<clustering>
<clus scale="   76.400">  2  5  1 -1</clus>
<clus scale="   39.621">  2  3  1 -1</clus>
<clus scale="  181.147">  1  6  2 -1</clus>
<clus scale="   76.400">  2  3  1 -1</clus>
</clustering>
</event>
<event>
 6    0  0.2781617E+002  0.8848030E+02  0.7546771E-02  0.1306574E+00
         21   -1    0    0  503  502  0.00000000000E+00  0.00000000000E+00  0.57153254241E+02  0.57153254241E+02  0.00000000000E+00 0.  1.
          2   -1    0    0  504    0 -0.00000000000E+00 -0.00000000000E+00 -0.13826946447E+04  0.13826946447E+04  0.00000000000E+00 0. -1.
         21    1    1    2  503  505 -0.53188019879E+02  0.37278068605E+02 -0.68348689847E+01  0.65309534462E+02  0.00000000000E+00 0.  1.
         21    1    1    2  504  502  0.71615764567E+02 -0.72917690484E+01 -0.16122056823E+03  0.17656177177E+03  0.00000000000E+00 0. -1.
         21    1    1    2  505  501 -0.61261192642E+02  0.36469636578E+02 -0.48619399455E+02  0.86294925224E+02  0.00000000000E+00 0.  1.
          2    1    1    2  501    0  0.42833447954E+02 -0.66455936134E+02 -0.11088665538E+04  0.11116816675E+04  0.00000000000E+00 0. -1.
<scales pt_clust_3="35.34628" pt_clust_4="71.98602" pt_clust_5="35.34628" pt_clust_6="80.35778"></scales>
<clustering>
<clus scale="   35.346">  3  5 -1 -1</clus>
<clus scale="   71.986">  1  4  2 -1</clus>
<clus scale="   80.358">  2  6  1 -1</clus>
<clus scale="   71.986">  1  3  2 -1</clus>
</clustering>
</event>
<event>
 6    0  0.2781617E+002  0.1116316E+03  0.7546771E-02  0.1257578E+00
         21   -1    0    0  501  502  0.00000000000E+00  0.00000000000E+00  0.54298755397E+02  0.54298755397E+02  0.00000000000E+00 0.  1.
          1   -1    0    0  503    0 -0.00000000000E+00 -0.00000000000E+00 -0.27136112966E+04  0.27136112966E+04  0.00000000000E+00 0.  1.
         21    1    1    2  503  504  0.88822167637E+02  0.66179285566E+01 -0.30649616417E+03  0.31917561482E+03  0.00000000000E+00 0. -1.
         21    1    1    2  504  505 -0.12387456943E+03 -0.62760816974E+02 -0.64148016552E+03  0.65633880874E+03  0.00000000000E+00 0.  1.
         21    1    1    2  505  502  0.56404254640E+02  0.95228777657E+02 -0.35883602866E+02  0.11635116239E+03  0.00000000000E+00 0.  1.
          1    1    1    2  501    0 -0.21351852848E+02 -0.39085889239E+02 -0.16754526087E+04  0.16760444661E+04  0.00000000000E+00 0.  1.
<scales pt_clust_3="82.54787" pt_clust_4="14000.00000" pt_clust_5="111.63161" pt_clust_6="44.53772"></scales>
<clustering>
<clus scale="   44.538">  2  6  1 -1</clus>
<clus scale="   82.548">  2  3  1 -1</clus>
<clus scale="  111.632">  1  5  2 -1</clus>
<clus scale="  111.632">  1  3  2 -1</clus>
</clustering>
</event>
<event>
 6    0  0.2781617E+002  0.1592497E+03  0.7546771E-02  0.1189546E+00
         21   -1    0    0  504  502  0.00000000000E+00  0.00000000000E+00  0.18362199634E+03  0.18362199634E+03  0.00000000000E+00 0. -1.
          2   -1    0    0  503    0 -0.00000000000E+00 -0.00000000000E+00 -0.10108860518E+04  0.10108860518E+04  0.00000000000E+00 0.  1.
         21    1    1    2  503  502  0.14154570565E+03  0.49403992496E+02  0.12343491723E+03  0.19419608661E+03  0.00000000000E+00 0. -1.
         21    1    1    2  504  505 -0.79554703750E+02  0.13941416421E+02 -0.78187613824E+02  0.11241270807E+03  0.00000000000E+00 0. -1.
         21    1    1    2  505  501 -0.52484229597E+02 -0.29105223458E+02 -0.11646586474E+03  0.13101910562E+03  0.00000000000E+00 0.  1.
          2    1    1    2  501    0 -0.95067723023E+01 -0.34240185459E+02 -0.75604549411E+03  0.75688014784E+03  0.00000000000E+00 0.  1.
<scales pt_clust_3="147.15852" pt_clust_4="57.11068" pt_clust_5="57.11068" pt_clust_6="35.53546"></scales>
<clustering>
<clus scale="   35.535">  2  6  1 -1</clus>
<clus scale="   57.111">  4  5 -1 -1</clus>
<clus scale="  147.159">  1  3  2 -1</clus>
<clus scale="  147.159">  1  3  2 -1</clus>
</clustering>
</event>
<event>
 6    0  0.2781617E+002  0.7249562E+02  0.7546771E-02  0.1351806E+00
         21   -1    0    0  504  502  0.00000000000E+00  0.00000000000E+00  0.58477900466E+02  0.58477900466E+02  0.00000000000E+00 0. -1.
          2   -1    0    0  503    0 -0.00000000000E+00 -0.00000000000E+00 -0.83162900688E+03  0.83162900688E+03  0.00000000000E+00 0.  1.
         21    1    1    2  503  502  0.14958784714E+02  0.29451762315E+02 -0.36931857198E+02  0.49549304936E+02  0.00000000000E+00 0.  1.
         21    1    1    2  504  505  0.62478389525E+02 -0.20238649066E+02  0.46482099209E+01  0.65838878553E+02  0.00000000000E+00 0. -1.
         21    1    1    2  505  501 -0.57909160659E+02 -0.79894387315E+02 -0.15145843325E+03  0.18076570752E+03  0.00000000000E+00 0.  1.
          2    1    1    2  501    0 -0.19528013579E+02  0.70681274066E+02 -0.58940902589E+03  0.59395301634E+03  0.00000000000E+00 0.  1.
<scales pt_clust_3="33.03289" pt_clust_4="72.58479" pt_clust_5="14000.00000" pt_clust_6="72.49562"></scales>
<clustering>
<clus scale="   33.033">  1  3  2 -1</clus>
<clus scale="   72.585">  1  4  2 -1</clus>
<clus scale="   72.496">  2  6  1 -1</clus>
<clus scale="   33.033">  1  3  2 -1</clus>
</clustering>
</event>
<event>
 6    0  0.2781617E+002  0.1608333E+03  0.7546771E-02  0.1187759E+00
          2   -1    0    0  505    0 -0.00000000000E+00  0.00000000000E+00  0.33042512767E+04  0.33042512767E+04  0.00000000000E+00 0. -1.
         21   -1    0    0  501  502  0.00000000000E+00 -0.00000000000E+00 -0.68311407051E+02  0.68311407051E+02  0.00000000000E+00 0. -1.
         21    1    1    2  503  504 -0.70996539247E+02  0.28320933128E+02 -0.87732067172E+01  0.76938631353E+02  0.00000000000E+00 0. -1.
         21    1    1    2  504  502 -0.35218606571E+02 -0.11894331323E+02  0.16936532869E+02  0.40849375908E+02  0.00000000000E+00 0. -1.
         21    1    1    2  505  503 -0.13969460444E+01  0.12228852101E+03  0.33414293560E+03  0.35582008830E+03  0.00000000000E+00 0. -1.
          2    1    1    2  501    0  0.10761209186E+03 -0.13871512282E+03  0.28936336079E+04  0.28989545881E+04  0.00000000000E+00 0. -1.
<scales pt_clust_3="117.50479" pt_clust_4="33.12230" pt_clust_5="160.83330" pt_clust_6="14000.00000"></scales>
<clustering>
<clus scale="   33.122">  3  4 -1 -1</clus>
<clus scale="  117.505">  2  3  1 -1</clus>
<clus scale="  160.833">  2  5  1 -1</clus>
<clus scale="  117.505">  2  3  1 -1</clus>
</clustering>
</event>
<event>
 6    0  0.2781617E+002  0.1018305E+03  0.7546771E-02  0.1276493E+00
          2   -1    0    0  505    0 -0.00000000000E+00  0.00000000000E+00  0.35997854006E+03  0.35997854006E+03  0.00000000000E+00 0.  1.
         21   -1    0    0  503  502  0.00000000000E+00 -0.00000000000E+00 -0.16599929676E+04  0.16599929676E+04  0.00000000000E+00 0.  1.
         21    1    1    2  503  504  0.65109415911E+02  0.11727433943E+03 -0.12373492754E+04  0.12445986245E+04  0.00000000000E+00 0.  1.
         21    1    1    2  504  501 -0.19551689021E+02 -0.67574078961E+02 -0.33396792914E+03  0.34129620916E+03  0.00000000000E+00 0.  1.
         21    1    1    2  505  502 -0.43386953996E+02 -0.16566145556E+02 -0.73899448390E+02  0.87281117247E+02  0.00000000000E+00 0.  1.
          2    1    1    2  501    0 -0.21707728939E+01 -0.33134114911E+02  0.34520222536E+03  0.34679555680E+03  0.00000000000E+00 0.  1.
<scales pt_clust_3="101.83053" pt_clust_4="14000.00000" pt_clust_5="55.00012" pt_clust_6="33.20515"></scales>
<clustering>
<clus scale="   33.205">  1  6  2 -1</clus>
<clus scale="   55.000">  1  5  2 -1</clus>
<clus scale="  101.831">  2  3  1 -1</clus>
<clus scale="  101.831">  2  3  1 -1</clus>
</clustering>
</event>
<event>
 6    0  0.2781617E+002  0.6819233E+02  0.7546771E-02  0.1366350E+00
          2   -1    0    0  505    0 -0.00000000000E+00  0.00000000000E+00  0.61533357926E+03  0.61533357926E+03  0.00000000000E+00 0. -1.
         21   -1    0    0  504  502  0.00000000000E+00 -0.00000000000E+00 -0.52713620577E+03  0.52713620577E+03  0.00000000000E+00 0.  1.
         21    1    1    2  503  501  0.44778298611E+02 -0.46065039056E+02 -0.75787106600E+02  0.99351745714E+02  0.00000000000E+00 0.  1.
         21    1    1    2  504  503  0.15313792088E+02 -0.60607035331E+02 -0.33942341601E+03  0.34513183031E+03  0.00000000000E+00 0.  1.
         21    1    1    2  505  502 -0.44394106527E+02  0.40010765013E+02 -0.85937264110E+02  0.10467526630E+03  0.00000000000E+00 0.  1.
          2    1    1    2  501    0 -0.15697984173E+02  0.66661309373E+02  0.58934516021E+03  0.59331094271E+03  0.00000000000E+00 0. -1.
<scales pt_clust_3="68.19233" pt_clust_4="35.06873" pt_clust_5="59.76368" pt_clust_6="14000.00000"></scales>
<clustering>
<clus scale="   59.764">  2  5  1 -1</clus>
<clus scale="   35.069">  2  4  1 -1</clus>
<clus scale="   68.192">  2  3  1 -1</clus>
<clus scale="   59.764">  2  3  1 -1</clus>
</clustering>
</event>
<event>
 6    0  0.2781617E+002  0.8614433E+02  0.7546771E-02  0.1312467E+00
          1   -1    0    0  504    0 -0.00000000000E+00  0.00000000000E+00  0.25132550973E+04  0.25132550973E+04  0.00000000000E+00 0. -1.
         21   -1    0    0  501  502  0.00000000000E+00 -0.00000000000E+00 -0.44782568753E+02  0.44782568753E+02  0.00000000000E+00 0. -1.
         21    1    1    2  503  502  0.35708937886E+02 -0.47265669732E+02  0.17453838825E+03  0.18431717433E+03  0.00000000000E+00 0. -1.
         21    1    1    2  504  505 -0.34261026698E+02  0.63473687507E+02  0.70781742257E+02  0.10105830987E+03  0.00000000000E+00 0.  1.
         21    1    1    2  505  503 -0.23332717012E+02  0.52393480314E+02  0.98560575588E+01  0.58194796444E+02  0.00000000000E+00 0. -1.
          1    1    1    2  501    0  0.21884805824E+02 -0.68601498089E+02  0.22132963405E+04  0.22144673854E+04  0.00000000000E+00 0. -1.
<scales pt_clust_3="59.23826" pt_clust_4="41.02705" pt_clust_5="41.02705" pt_clust_6="72.82848"></scales>
<clustering>
<clus scale="   41.027">  4  5 -1 -1</clus>
<clus scale="   59.238">  2  3  1 -1</clus>
<clus scale="   72.828">  1  6  2 -1</clus>
<clus scale="   59.238">  2  3  1 -1</clus>
</clustering>
</event>
<event>
 6    0  0.2781617E+002  0.1854728E+03  0.7546771E-02  0.1162609E+00
         21   -1    0    0  505  502  0.00000000000E+00  0.00000000000E+00  0.11788651812E+03  0.11788651812E+03  0.00000000000E+00 0. -1.
          2   -1    0    0  504    0 -0.00000000000E+00 -0.00000000000E+00 -0.15260238014E+04  0.15260238014E+04  0.00000000000E+00 0.  1.
         21    1    1    2  503  502 -0.10730863671E+02 -0.35740194171E+02  0.48575849140E+02  0.61254600107E+02  0.00000000000E+00 0. -1.
         21    1    1    2  504  503 -0.10924730028E+03 -0.11209665940E+03 -0.13837798572E+03  0.20892367171E+03  0.00000000000E+00 0. -1.
         21    1    1    2  505  501  0.27149101314E+02 -0.20351183295E+02  0.69177222551E+01  0.34628012430E+02  0.00000000000E+00 0. -1.
          2    1    1    2  501    0  0.92829062641E+02  0.16818803687E+03 -0.13252528689E+04  0.13391040353E+04  0.00000000000E+00 0.  1.
<scales pt_clust_3="47.47371" pt_clust_4="14000.00000" pt_clust_5="33.92999" pt_clust_6="185.47277"></scales>
<clustering>
<clus scale="   33.930">  1  5  2 -1</clus>
<clus scale="   47.474">  1  3  2 -1</clus>
<clus scale="  185.473">  2  6  1 -1</clus>
<clus scale="   33.930">  1  3  2 -1</clus>
</clustering>
</event>
<event>
 6    0  0.2781617E+002  0.1088035E+03  0.7546771E-02  0.1262802E+00
         -3   -1    0    0    0  501 -0.00000000000E+00  0.00000000000E+00  0.60076537851E+03  0.60076537851E+03  0.00000000000E+00 0.  1.
         21   -1    0    0  505  502  0.00000000000E+00 -0.00000000000E+00 -0.25868172573E+03  0.25868172573E+03  0.00000000000E+00 0.  1.
         21    1    1    2  503  501  0.27288285103E+02 -0.15129750885E+02 -0.23439018390E+02  0.39024959306E+02  0.00000000000E+00 0.  1.
         21    1    1    2  504  502 -0.56786143503E+02  0.11086035931E+03 -0.10647277018E+03  0.16386316288E+03  0.00000000000E+00 0.  1.
         21    1    1    2  505  503  0.81309521407E+01 -0.61310495442E+02 -0.81094495167E+02  0.10198728539E+03  0.00000000000E+00 0.  1.
         -3    1    1    2    0  504  0.21366906259E+02 -0.34420112982E+02  0.55308993652E+03  0.55457169666E+03  0.00000000000E+00 0.  1.
<scales pt_clust_3="30.62921" pt_clust_4="99.89318" pt_clust_5="30.62921" pt_clust_6="40.51282"></scales>
<clustering>
<clus scale="   30.629">  3  5 -1 -1</clus>
<clus scale="   40.513">  1  6  2 -1</clus>
<clus scale="   99.893">  1  4  2 -1</clus>
<clus scale="  108.804">  2  3  1 -1</clus>
</clustering>
</event>
<event>
 6    0  0.2781617E+002  0.1070580E+03  0.7546771E-02  0.1266117E+00
          2   -1    0    0  505    0 -0.00000000000E+00  0.00000000000E+00  0.16909958197E+03  0.16909958197E+03  0.00000000000E+00 0.  1.
         21   -1    0    0  503  502  0.00000000000E+00 -0.00000000000E+00 -0.64126072647E+03  0.64126072647E+03  0.00000000000E+00 0. -1.
         21    1    1    2  503  501  0.17430243427E+02  0.40676190032E+02 -0.48651868071E+02  0.65767545858E+02  0.00000000000E+00 0.  1.
         21    1    1    2  504  502  0.37266082546E+02  0.49212286004E+02 -0.44538527705E+03  0.44964280825E+03  0.00000000000E+00 0. -1.
         21    1    1    2  505  504 -0.99964792426E+02 -0.12257949741E+03 -0.81142439655E+02  0.17777173123E+03  0.00000000000E+00 0.  1.
          2    1    1    2  501    0  0.45268466454E+02  0.32691021377E+02  0.10301844027E+03  0.11717822310E+03  0.00000000000E+00 0.  1.
<scales pt_clust_3="44.25343" pt_clust_4="107.05801" pt_clust_5="14000.00000" pt_clust_6="56.29914"></scales>
<clustering>
<clus scale="   44.253">  2  3  1 -1</clus>
<clus scale="   56.299">  1  6  2 -1</clus>
<clus scale="  107.058">  2  4  1 -1</clus>
<clus scale="   44.253">  2  3  1 -1</clus>
</clustering>
</event>
<event>
 6    0  0.2781617E+002  0.8719317E+02  0.7546771E-02  0.1309795E+00
         21   -1    0    0  503  502  0.00000000000E+00  0.00000000000E+00  0.73768528820E+03  0.73768528820E+03  0.00000000000E+00 0.  1.
          4   -1    0    0  505    0 -0.00000000000E+00 -0.00000000000E+00 -0.41936814888E+03  0.41936814888E+03  0.00000000000E+00 0.  1.
         21    1    1    2  503  501 -0.56228896240E+02 -0.57075845283E+01  0.26348826466E+02  0.62358046391E+02  0.00000000000E+00 0.  1.
         21    1    1    2  504  502 -0.61265275536E+02  0.26991689165E+02  0.16835159153E+03  0.18117462196E+03  0.00000000000E+00 0.  1.
         21    1    1    2  505  504  0.19552336287E+03  0.15497513335E+02  0.49489939572E+03  0.53234854206E+03  0.00000000000E+00 0.  1.
          4    1    1    2  501    0 -0.78029191094E+02 -0.36781617972E+02 -0.37128267439E+03  0.38117222667E+03  0.00000000000E+00 0.  1.
<scales pt_clust_3="56.51783" pt_clust_4="79.64874" pt_clust_5="14000.00000" pt_clust_6="87.19317"></scales>
<clustering>
<clus scale="   56.518">  1  3  2 -1</clus>
<clus scale="   79.649">  1  4  2 -1</clus>
<clus scale="   87.193">  2  6  1 -1</clus>
<clus scale="   56.518">  1  3  2 -1</clus>
</clustering>
</event>
<event>
 6    0  0.2781617E+002  0.1025852E+03  0.7546771E-02  0.1274952E+00
         21   -1    0    0  504  502  0.00000000000E+00  0.00000000000E+00  0.24000142344E+03  0.24000142344E+03  0.00000000000E+00 0.  1.
          2   -1    0    0  505    0 -0.00000000000E+00 -0.00000000000E+00 -0.32386928634E+03  0.32386928634E+03  0.00000000000E+00 0.  1.
         21    1    1    2  503  501 -0.81625124285E+01 -0.59527142350E+02  0.15875195974E+02  0.62146030707E+02  0.00000000000E+00 0.  1.
         21    1    1    2  504  503 -0.34033811237E+02 -0.21790940898E+02  0.19944978123E+02  0.45066035601E+02  0.00000000000E+00 0.  1.
         21    1    1    2  505  502 -0.43188517147E+02  0.38990445431E+02  0.15518457654E+03  0.16573399061E+03  0.00000000000E+00 0.  1.
          2    1    1    2  501    0  0.85384840812E+02  0.42327637816E+02 -0.27487261354E+03  0.29092465286E+03  0.00000000000E+00 0.  1.
<scales pt_clust_3="34.96994" pt_clust_4="34.96994" pt_clust_5="58.18507" pt_clust_6="93.30346"></scales>
<clustering>
<clus scale="   34.970">  3  4 -1 -1</clus>
<clus scale="   58.185">  1  5  2 -1</clus>
<clus scale="   93.303">  2  6  1 -1</clus>
<clus scale="   58.185">  1  3  2 -1</clus>
</clustering>
</event>
<event>
 6    0  0.2781617E+002  0.1164234E+03  0.7546771E-02  0.1249117E+00
         21   -1    0    0  504  502  0.00000000000E+00  0.00000000000E+00  0.12971310418E+03  0.12971310418E+03  0.00000000000E+00 0.  1.
         -1   -1    0    0    0  501 -0.00000000000E+00 -0.00000000000E+00 -0.43345801177E+03  0.43345801177E+03  0.00000000000E+00 0.  1.
         21    1    1    2  503  505  0.54256798940E+01  0.38069041029E+02  0.40339393879E+02  0.55731109676E+02  0.00000000000E+00 0.  1.
         21    1    1    2  504  503 -0.44050929249E+02  0.36649225782E+02  0.38256515167E+02  0.68900007771E+02  0.00000000000E+00 0.  1.
         21    1    1    2  505  501  0.10831794052E+02  0.37420160718E+02  0.17621693059E+00  0.38956735527E+02  0.00000000000E+00 0.  1.
         -1    1    1    2    0  502  0.27793455303E+02 -0.11213842753E+03 -0.38251703356E+03  0.39958326297E+03  0.00000000000E+00 0.  1.
<scales pt_clust_3="36.65767" pt_clust_4="57.30314" pt_clust_5="36.65767" pt_clust_6="110.42222"></scales>
<clustering>
<clus scale="   36.658">  3  5 -1 -1</clus>
<clus scale="   57.303">  1  4  2 -1</clus>
<clus scale="  110.422">  2  6  1 -1</clus>
<clus scale="   57.303">  1  3  2 -1</clus>
</clustering>
</event>
<event>
 6    0  0.2781617E+002  0.1230192E+03  0.7546771E-02  0.1238198E+00
         21   -1    0    0  503  502  0.00000000000E+00  0.00000000000E+00  0.71476264897E+03  0.71476264897E+03  0.00000000000E+00 0. -1.
          2   -1    0    0  505    0 -0.00000000000E+00 -0.00000000000E+00 -0.10138391707E+04  0.10138391707E+04  0.00000000000E+00 0. -1.
         21    1    1    2  503  504 -0.67805094820E+00  0.86947353645E+02  0.46667853096E+03  0.47470954627E+03  0.00000000000E+00 0. -1.
         21    1    1    2  504  501 -0.33220203077E+02  0.27812265710E+02  0.19977572468E+03  0.20441977445E+03  0.00000000000E+00 0. -1.
         21    1    1    2  505  502  0.12713749877E+02 -0.70189345604E+02  0.10582804829E+02  0.72112269624E+02  0.00000000000E+00 0. -1.
          2    1    1    2  501    0  0.21184504148E+02 -0.44570273750E+02 -0.97611358220E+03  0.97736022933E+03  0.00000000000E+00 0. -1.
<scales pt_clust_3="36.92622" pt_clust_4="36.92622" pt_clust_5="111.34281" pt_clust_6="49.34868"></scales>
<clustering>
<clus scale="   36.926">  3  4 -1 -1</clus>
<clus scale="   49.349">  2  6  1 -1</clus>
<clus scale="  111.343">  2  5  1 -1</clus>
<clus scale="  123.019">  1  3  2 -1</clus>
</clustering>
</event>
<event>
 6    0  0.2781617E+002  0.1197986E+03  0.7546771E-02  0.1243430E+00
         21   -1    0    0  504  502  0.00000000000E+00  0.00000000000E+00  0.22233667870E+03  0.22233667870E+03  0.00000000000E+00 0. -1.
          1   -1    0    0  502    0 -0.00000000000E+00 -0.00000000000E+00 -0.56112954540E+03  0.56112954540E+03  0.00000000000E+00 0. -1.
         21    1    1    2  503  501 -0.60913653424E+02  0.15316841657E+02  0.15580808659E+02  0.64713525713E+02  0.00000000000E+00 0.  1.
         21    1    1    2  504  505 -0.11425280982E+02  0.40572519930E+02  0.13222871341E+03  0.13878436176E+03  0.00000000000E+00 0. -1.
         21    1    1    2  505  503 -0.34838868094E+02 -0.17483216814E+02  0.31118030441E+02  0.49877263545E+02  0.00000000000E+00 0. -1.
          1    1    1    2  501    0  0.10717780250E+03 -0.38406144773E+02 -0.51772041921E+03  0.53009107309E+03  0.00000000000E+00 0. -1.
<scales pt_clust_3="33.20871" pt_clust_4="42.15052" pt_clust_5="33.20871" pt_clust_6="112.13683"></scales>
<clustering>
<clus scale="   33.209">  3  5 -1 -1</clus>
<clus scale="   42.151">  1  4  2 -1</clus>
<clus scale="  112.137">  2  6  1 -1</clus>
<clus scale="   42.151">  1  3  2 -1</clus>
</clustering>
</event>
<event>
 6    0  0.2781617E+002  0.1308580E+03  0.7546771E-02  0.1226188E+00
          2   -1    0    0  503    0 -0.00000000000E+00  0.00000000000E+00  0.38432173919E+03  0.38432173919E+03  0.00000000000E+00 0. -1.
         21   -1    0    0  504  502  0.00000000000E+00 -0.00000000000E+00 -0.40329316398E+03  0.40329316398E+03  0.00000000000E+00 0.  1.
         21    1    1    2  503  505 -0.90684736362E+02 -0.68147133007E+01 -0.22981617803E+03  0.24715508777E+03  0.00000000000E+00 0.  1.
         21    1    1    2  504  501  0.92998229705E+02  0.37538823877E+02  0.53970651904E+00  0.10029020545E+03  0.00000000000E+00 0. -1.
         21    1    1    2  505  502 -0.41090284504E+02  0.26259720958E+02 -0.10587421747E+03  0.11656472172E+03  0.00000000000E+00 0.  1.
          2    1    1    2  501    0  0.38776791162E+02 -0.56983831534E+02  0.31617926418E+03  0.32360488823E+03  0.00000000000E+00 0. -1.
<scales pt_clust_3="31.59230" pt_clust_4="123.54163" pt_clust_5="31.59230" pt_clust_6="68.92602"></scales>
<clustering>
<clus scale="   31.592">  3  5 -1 -1</clus>
<clus scale="   68.926">  1  6  2 -1</clus>
<clus scale="  123.542">  1  4  2 -1</clus>
<clus scale="  130.858">  2  3  1 -1</clus>
</clustering>
</event>
<event>
 6    0  0.2781617E+002  0.1797970E+03  0.7546771E-02  0.1168000E+00
         21   -1    0    0  504  502  0.00000000000E+00  0.00000000000E+00  0.15629259502E+03  0.15629259502E+03  0.00000000000E+00 0. -1.
          2   -1    0    0  502    0 -0.00000000000E+00 -0.00000000000E+00 -0.11429710086E+04  0.11429710086E+04  0.00000000000E+00 0.  1.
         21    1    1    2  503  501 -0.81259086246E+01 -0.43830107152E+02  0.93445489747E+01  0.45545902994E+02  0.00000000000E+00 0.  1.
         21    1    1    2  504  505 -0.54051026837E+02 -0.32178900332E+02 -0.14637190736E+02  0.64585156819E+02  0.00000000000E+00 0. -1.
         21    1    1    2  505  503 -0.43700417094E+02 -0.65131184380E+02  0.80673821071E+02  0.11251694556E+03  0.00000000000E+00 0. -1.
          2    1    1    2  501    0  0.10587735255E+03  0.14114019186E+03 -0.10620595929E+04  0.10766155982E+04  0.00000000000E+00 0.  1.
<scales pt_clust_3="36.32774" pt_clust_4="62.90465" pt_clust_5="36.32774" pt_clust_6="173.21938"></scales>
<clustering>
<clus scale="   36.328">  3  5 -1 -1</clus>
<clus scale="   62.905">  1  4  2 -1</clus>
<clus scale="  173.219">  2  6  1 -1</clus>
<clus scale="   62.905">  1  3  2 -1</clus>
</clustering>
</event>
<event>
 6    0  0.2781617E+002  0.7914366E+02  0.7546771E-02  0.1331499E+00
          4   -1    0    0  503    0 -0.00000000000E+00  0.00000000000E+00  0.78816155365E+03  0.78816155365E+03  0.00000000000E+00 0. -1.
         21   -1    0    0  505  502  0.00000000000E+00 -0.00000000000E+00 -0.30267118648E+03  0.30267118648E+03  0.00000000000E+00 0. -1.
         21    1    1    2  503  502  0.88152535471E+02  0.12876980979E+02 -0.40442417726E+02  0.97838005400E+02  0.00000000000E+00 0. -1.
         21    1    1    2  504  501 -0.97656600814E+02 -0.33208074322E+02 -0.63515750230E+02  0.12113561991E+03  0.00000000000E+00 0. -1.
         21    1    1    2  505  504  0.66652290931E+02  0.26479089901E+02 -0.13087935009E+03  0.14924166432E+03  0.00000000000E+00 0. -1.
          4    1    1    2  501    0 -0.57148225588E+02 -0.61479965575E+01  0.72032788522E+03  0.72261745051E+03  0.00000000000E+00 0. -1.
<scales pt_clust_3="14000.00000" pt_clust_4="79.14366" pt_clust_5="64.13006" pt_clust_6="57.47797"></scales>
<clustering>
<clus scale="   57.478">  1  6  2 -1</clus>
<clus scale="   64.130">  2  5  1 -1</clus>
<clus scale="   79.144">  2  4  1 -1</clus>
<clus scale="   64.130">  2  3  1 -1</clus>
</clustering>
</event>
<event>
 6    0  0.2781617E+002  0.1101466E+03  0.7546771E-02  0.1260299E+00
          1   -1    0    0  503    0 -0.00000000000E+00  0.00000000000E+00  0.10979323380E+04  0.10979323380E+04  0.00000000000E+00 0. -1.
         21   -1    0    0  501  502  0.00000000000E+00 -0.00000000000E+00 -0.27181377226E+02  0.27181377226E+02  0.00000000000E+00 0. -1.
         21    1    1    2  503  505 -0.35522489836E+02  0.97141206094E+01  0.15336648327E+02  0.39892658539E+02  0.00000000000E+00 0. -1.
         21    1    1    2  504  502 -0.88734375855E+01  0.64171894714E+02  0.16449078391E+03  0.17678797459E+03  0.00000000000E+00 0. -1.
         21    1    1    2  505  504 -0.30485634464E+02  0.14259927895E+02  0.54525263387E+02  0.64075922152E+02  0.00000000000E+00 0.  1.
          1    1    1    2  501    0  0.74881561885E+02 -0.88145943218E+02  0.83639826513E+03  0.84435715993E+03  0.00000000000E+00 0. -1.
<scales pt_clust_3="30.18462" pt_clust_4="64.78248" pt_clust_5="30.18462" pt_clust_6="105.52400"></scales>
<clustering>
<clus scale="   30.185">  3  5 -1 -1</clus>
<clus scale="   64.782">  2  4  1 -1</clus>
<clus scale="  105.524">  1  6  2 -1</clus>
<clus scale="   64.782">  2  3  1 -1</clus>
</clustering>
</event>
<event>
 6    0  0.2781617E+002  0.1128407E+03  0.7546771E-02  0.1255398E+00
         21   -1    0    0  504  502  0.00000000000E+00  0.00000000000E+00  0.25823832420E+03  0.25823832420E+03  0.00000000000E+00 0.  1.
         -1   -1    0    0    0  501 -0.00000000000E+00 -0.00000000000E+00 -0.13189793775E+03  0.13189793775E+03  0.00000000000E+00 0.  1.
         21    1    1    2  503  501 -0.24212924238E+02 -0.59253173778E+02  0.82317716485E+00  0.64014700840E+02  0.00000000000E+00 0.  1.
         21    1    1    2  504  505  0.69426614900E+02 -0.52123566373E+02  0.22092266588E+01  0.86843547315E+02  0.00000000000E+00 0.  1.
         21    1    1    2  505  503  0.61630943054E+02  0.31078112203E+02  0.25196745864E+02  0.73478556069E+02  0.00000000000E+00 0.  1.
         -1    1    1    2    0  502 -0.10684463372E+03  0.80298627948E+02  0.98111236757E+02  0.16579945773E+03  0.00000000000E+00 0.  1.
<scales pt_clust_3="64.00941" pt_clust_4="112.84067" pt_clust_5="58.28226" pt_clust_6="14000.00000"></scales>
<clustering>
<clus scale="   64.009">  2  3  1 -1</clus>
<clus scale="   58.282">  2  5  1 -1</clus>
<clus scale="  112.841">  2  4  1 -1</clus>
<clus scale="  112.841">  1  3  2 -1</clus>
</clustering>
</event>
<event>
 6    0  0.2781617E+002  0.1011973E+03  0.7546771E-02  0.1277798E+00
          1   -1    0    0  502    0 -0.00000000000E+00  0.00000000000E+00  0.17173511292E+04  0.17173511292E+04  0.00000000000E+00 0.  1.
         21   -1    0    0  505  502  0.00000000000E+00 -0.00000000000E+00 -0.23231049187E+03  0.23231049187E+03  0.00000000000E+00 0. -1.
         21    1    1    2  503  501  0.77151926022E+02  0.47502709553E+02 -0.31746956147E+02  0.96004147454E+02  0.00000000000E+00 0. -1.
         21    1    1    2  504  503  0.52942291157E+02  0.66462739592E+02 -0.57563656071E+02  0.10263409008E+03  0.00000000000E+00 0. -1.
         21    1    1    2  505  504 -0.55008414923E+02 -0.60089768892E+02 -0.67974158529E+02  0.10609991643E+03  0.00000000000E+00 0.  1.
          1    1    1    2  501    0 -0.75085802257E+02 -0.53875680252E+02  0.16423254081E+04  0.16449234672E+04  0.00000000000E+00 0.  1.
<scales pt_clust_3="38.34928" pt_clust_4="38.34928" pt_clust_5="81.46598" pt_clust_6="93.12766"></scales>
<clustering>
<clus scale="   38.349">  3  4 -1 -1</clus>
<clus scale="   81.466">  2  5  1 -1</clus>
<clus scale="   93.128">  1  6  2 -1</clus>
<clus scale="   81.466">  2  3  1 -1</clus>
</clustering>
</event>
<event>
 6    0  0.2781617E+002  0.7311013E+02  0.7546771E-02  0.1349825E+00
          2   -1    0    0  504    0 -0.00000000000E+00  0.00000000000E+00  0.23391828827E+03  0.23391828827E+03  0.00000000000E+00 0. -1.
         21   -1    0    0  503  502  0.00000000000E+00 -0.00000000000E+00 -0.21814256943E+03  0.21814256943E+03  0.00000000000E+00 0. -1.
         21    1    1    2  503  505 -0.45728284596E+02  0.34255110017E+01 -0.38026067186E+02  0.59571737622E+02  0.00000000000E+00 0.  1.
         21    1    1    2  504  502  0.43710139717E+02 -0.19311107064E+02 -0.41200771491E+02  0.63095156245E+02  0.00000000000E+00 0.  1.
         21    1    1    2  505  501  0.46128028743E+02  0.73194988104E+02 -0.93564408372E+02  0.12743468850E+03  0.00000000000E+00 0. -1.
          2    1    1    2  501    0 -0.44109883864E+02 -0.57309392042E+02  0.18856696589E+03  0.20195927534E+03  0.00000000000E+00 0. -1.
<scales pt_clust_3="45.85641" pt_clust_4="34.80142" pt_clust_5="14000.00000" pt_clust_6="73.11013"></scales>
<clustering>
<clus scale="   45.856">  2  3  1 -1</clus>
<clus scale="   34.801">  2  4  1 -1</clus>
<clus scale="   73.110">  1  6  2 -1</clus>
<clus scale="   45.856">  2  3  1 -1</clus>
</clustering>
</event>
<event>
 6    0  0.2781617E+002  0.7370427E+02  0.7546771E-02  0.1347931E+00
         21   -1    0    0  503  502  0.00000000000E+00  0.00000000000E+00  0.15831395407E+03  0.15831395407E+03  0.00000000000E+00 0.  1.
          1   -1    0    0  504    0 -0.00000000000E+00 -0.00000000000E+00 -0.16712858318E+03  0.16712858318E+03  0.00000000000E+00 0.  1.
         21    1    1    2  503  501 -0.69494098024E+02  0.97103133860E+01  0.15037640051E+02  0.71762458602E+02  0.00000000000E+00 0.  1.
         21    1    1    2  504  505  0.11900172736E+02  0.31711553673E+02 -0.88603479040E+01  0.35010605715E+02  0.00000000000E+00 0.  1.
         21    1    1    2  505  502  0.26744985810E+02  0.58428304072E+02  0.61666640518E+02  0.89061414403E+02  0.00000000000E+00 0.  1.
          1    1    1    2  501    0  0.30848939478E+02 -0.99850171131E+02 -0.76658561772E+02  0.12960805853E+03  0.00000000000E+00 0.  1.
<scales pt_clust_3="73.70427" pt_clust_4="33.87088" pt_clust_5="67.44638" pt_clust_6="14000.00000"></scales>
<clustering>
<clus scale="   33.871">  2  4  1 -1</clus>
<clus scale="   67.446">  1  5  2 -1</clus>
<clus scale="   73.704">  1  3  2 -1</clus>
<clus scale="   67.446">  1  3  2 -1</clus>
</clustering>
</event>
<event>
 6    0  0.2781617E+002  0.1031252E+03  0.7546771E-02  0.1273858E+00
          1   -1    0    0  504    0 -0.00000000000E+00  0.00000000000E+00  0.45424867309E+02  0.45424867309E+02  0.00000000000E+00 0. -1.
         21   -1    0    0  503  502  0.00000000000E+00 -0.00000000000E+00 -0.16076129200E+04  0.16076129200E+04  0.00000000000E+00 0. -1.
         21    1    1    2  503  501 -0.75501478996E+02  0.62926536430E+02 -0.61443547526E+03  0.62224687671E+03  0.00000000000E+00 0. -1.
         21    1    1    2  504  505 -0.46507416537E+02 -0.32614353320E+02 -0.23758345029E+03  0.24427961783E+03  0.00000000000E+00 0. -1.
         21    1    1    2  505  502  0.92490521475E+02 -0.56951038637E+02 -0.73276934259E+03  0.74077582764E+03  0.00000000000E+00 0. -1.
          1    1    1    2  501    0  0.29518374058E+02  0.26638855526E+02  0.22600215464E+02  0.45735465121E+02  0.00000000000E+00 0. -1.
<scales pt_clust_3="103.12525" pt_clust_4="45.08955" pt_clust_5="14000.00000" pt_clust_6="39.76133"></scales>
<clustering>
<clus scale="   39.761">  1  6  2 -1</clus>
<clus scale="   45.090">  1  4  2 -1</clus>
<clus scale="  103.125">  2  3  1 -1</clus>
<clus scale="  103.125">  2  3  1 -1</clus>
</clustering>
</event>
<event>
 6    0  0.2781617E+002  0.9919272E+02  0.7546771E-02  0.1282003E+00
         21   -1    0    0  503  502  0.00000000000E+00  0.00000000000E+00  0.11414113767E+03  0.11414113767E+03  0.00000000000E+00 0.  1.
         -1   -1    0    0    0  501 -0.00000000000E+00 -0.00000000000E+00 -0.37329016099E+03  0.37329016099E+03  0.00000000000E+00 0.  1.
         21    1    1    2  503  504  0.89273979893E+02  0.11328995941E+03 -0.23028074298E+02  0.14606420025E+03  0.00000000000E+00 0.  1.
         21    1    1    2  504  501 -0.21295703414E+02 -0.32648206095E+02 -0.40329122008E+02  0.56087881285E+02  0.00000000000E+00 0.  1.
         21    1    1    2  505  502 -0.94715926157E+01 -0.82016467543E+02 -0.17242462993E+01  0.82579567934E+02  0.00000000000E+00 0.  1.
         -1    1    1    2    0  505 -0.58506683863E+02  0.13747142245E+01 -0.19406758072E+03  0.20269964919E+03  0.00000000000E+00 0.  1.
<scales pt_clust_3="14000.00000" pt_clust_4="38.97964" pt_clust_5="99.19272" pt_clust_6="73.86937"></scales>
<clustering>
<clus scale="   38.980">  2  4  1 -1</clus>
<clus scale="   73.869">  2  6  1 -1</clus>
<clus scale="   99.193">  1  5  2 -1</clus>
<clus scale="   99.193">  1  3  2 -1</clus>
</clustering>
</event>
<event>
 6    0  0.2781617E+002  0.8199842E+02  0.7546771E-02  0.1323474E+00
         21   -1    0    0  503  502  0.00000000000E+00  0.00000000000E+00  0.42277663284E+03  0.42277663284E+03  0.00000000000E+00 0.  1.
          1   -1    0    0  505    0 -0.00000000000E+00 -0.00000000000E+00 -0.17738256461E+04  0.17738256461E+04  0.00000000000E+00 0. -1.
         21    1    1    2  503  501 -0.36870366661E+02 -0.28077052665E+02 -0.14169717530E+02  0.48461590141E+02  0.00000000000E+00 0. -1.
         21    1    1    2  504  502  0.46281526996E+02  0.10983479944E+03  0.39049977639E+03  0.40828389421E+03  0.00000000000E+00 0.  1.
         21    1    1    2  505  504 -0.20488021852E+02 -0.34565548660E+02 -0.62688670530E+02  0.74460765551E+02  0.00000000000E+00 0. -1.
          1    1    1    2  501    0  0.11076861518E+02 -0.47192198115E+02 -0.16646904016E+04  0.16653960291E+04  0.00000000000E+00 0. -1.
<scales pt_clust_3="47.02849" pt_clust_4="14000.00000" pt_clust_5="40.18129" pt_clust_6="81.99842"></scales>
<clustering>
<clus scale="   40.181">  2  5  1 -1</clus>
<clus scale="   47.028">  1  3  2 -1</clus>
<clus scale="   81.998">  2  6  1 -1</clus>
<clus scale="   47.028">  1  3  2 -1</clus>
</clustering>
</event>
<event>
 6    0  0.2781617E+002  0.9254773E+02  0.7546771E-02  0.1296797E+00
         21   -1    0    0  503  502  0.00000000000E+00  0.00000000000E+00  0.10373723137E+03  0.10373723137E+03  0.00000000000E+00 0. -1.
          2   -1    0    0  504    0 -0.00000000000E+00 -0.00000000000E+00 -0.46742709256E+03  0.46742709256E+03  0.00000000000E+00 0. -1.
         21    1    1    2  503  505  0.52898378969E+02 -0.92115065349E+02  0.20894173914E+02  0.10825890386E+03  0.00000000000E+00 0. -1.
         21    1    1    2  504  502  0.29134695372E+02  0.35889014293E+02 -0.43083911646E+02  0.63190784645E+02  0.00000000000E+00 0.  1.
         21    1    1    2  505  501 -0.29390518661E+02  0.70109838425E+02 -0.27209866798E+02  0.80743847334E+02  0.00000000000E+00 0. -1.
          2    1    1    2  501    0 -0.52642555680E+02 -0.13883787369E+02 -0.31429025666E+03  0.31897078808E+03  0.00000000000E+00 0. -1.
<scales pt_clust_3="14000.00000" pt_clust_4="46.22609" pt_clust_5="92.54773" pt_clust_6="33.25892"></scales>
<clustering>
<clus scale="   46.226">  2  4  1 -1</clus>
<clus scale="   33.259">  2  6  1 -1</clus>
<clus scale="   92.548">  2  5  1 -1</clus>
<clus scale="   92.548">  1  3  2 -1</clus>
</clustering>
</event>
<event>
 6    0  0.2781617E+002  0.1911578E+03  0.7546771E-02  0.1157421E+00
          2   -1    0    0  504    0 -0.00000000000E+00  0.00000000000E+00  0.12510605924E+04  0.12510605924E+04  0.00000000000E+00 0.  1.
         21   -1    0    0  505  502  0.00000000000E+00 -0.00000000000E+00 -0.21428037982E+03  0.21428037982E+03  0.00000000000E+00 0.  1.
         21    1    1    2  503  502 -0.52577453083E+02 -0.37796403155E+02  0.56998869376E+02  0.86266029086E+02  0.00000000000E+00 0.  1.
         21    1    1    2  504  503 -0.67455268246E+02 -0.10966777448E+02  0.11312454818E+03  0.13216522547E+03  0.00000000000E+00 0. -1.
         21    1    1    2  505  501  0.18147603005E+03  0.87698155174E+02 -0.13501671535E+03  0.24259849408E+03  0.00000000000E+00 0.  1.
          2    1    1    2  501    0 -0.61443308720E+02 -0.38934974571E+02  0.10016735104E+04  0.10043112236E+04  0.00000000000E+00 0.  1.
<scales pt_clust_3="43.36296" pt_clust_4="43.36296" pt_clust_5="185.89453" pt_clust_6="72.74072"></scales>
<clustering>
<clus scale="   43.363">  3  4 -1 -1</clus>
<clus scale="   72.741">  1  6  2 -1</clus>
<clus scale="  185.895">  2  5  1 -1</clus>
<clus scale="  185.895">  2  3  1 -1</clus>
</clustering>
</event>
<event>
 6    0  0.2781617E+002  0.1552827E+03  0.7546771E-02  0.1194128E+00
         21   -1    0    0  503  502  0.00000000000E+00  0.00000000000E+00  0.38601450101E+03  0.38601450101E+03  0.00000000000E+00 0. -1.
          2   -1    0    0  505    0 -0.00000000000E+00 -0.00000000000E+00 -0.88241441384E+03  0.88241441384E+03  0.00000000000E+00 0.  1.
         21    1    1    2  503  504 -0.17474669613E+03 -0.11074754575E+03  0.14168314266E+03  0.25074995436E+03  0.00000000000E+00 0. -1.
         21    1    1    2  504  501  0.71012329454E+02  0.10030947767E+03 -0.57453284255E+02  0.13566732148E+03  0.00000000000E+00 0. -1.
         21    1    1    2  505  502  0.93827500656E+02 -0.34132324035E+02  0.13334312648E+03  0.16658032538E+03  0.00000000000E+00 0. -1.
          2    1    1    2  501    0  0.99068660161E+01  0.44570392118E+02 -0.71397289772E+03  0.71543131363E+03  0.00000000000E+00 0.  1.
<scales pt_clust_3="14000.00000" pt_clust_4="155.28270" pt_clust_5="99.35699" pt_clust_6="45.65814"></scales>
<clustering>
<clus scale="   45.658">  2  6  1 -1</clus>
<clus scale="   99.357">  1  5  2 -1</clus>
<clus scale="  155.283">  2  4  1 -1</clus>
<clus scale="   99.357">  1  3  2 -1</clus>
</clustering>
</event>
<event>
 6    0  0.2781617E+002  0.1273726E+03  0.7546771E-02  0.1231407E+00
          2   -1    0    0  504    0 -0.00000000000E+00  0.00000000000E+00  0.51690757843E+04  0.51690757843E+04  0.00000000000E+00 0. -1.
         21   -1    0    0  505  502  0.00000000000E+00 -0.00000000000E+00 -0.68085914923E+02  0.68085914923E+02  0.00000000000E+00 0.  1.
         21    1    1    2  503  501 -0.29543781220E+01 -0.66476018637E+02  0.13988404021E+03  0.15490427402E+03  0.00000000000E+00 0. -1.
         21    1    1    2  504  502 -0.12368790621E+03  0.56691972327E+02  0.49169538150E+02  0.14467315352E+03  0.00000000000E+00 0.  1.
         21    1    1    2  505  503  0.87857364991E+01 -0.40114617013E+02  0.23185834360E+02  0.47158822917E+02  0.00000000000E+00 0.  1.
          2    1    1    2  501    0  0.11785654783E+03  0.49898663323E+02  0.48887504567E+04  0.48904254488E+04  0.00000000000E+00 0. -1.
<scales pt_clust_3="71.86823" pt_clust_4="14000.00000" pt_clust_5="41.06546" pt_clust_6="127.37256"></scales>
<clustering>
<clus scale="   41.065">  2  5  1 -1</clus>
<clus scale="   71.868">  2  3  1 -1</clus>
<clus scale="  127.373">  1  6  2 -1</clus>
<clus scale="   41.065">  2  3  1 -1</clus>
</clustering>
</event>
<event>
 6    0  0.2781617E+002  0.1285431E+03  0.7546771E-02  0.1229634E+00
          1   -1    0    0  504    0 -0.00000000000E+00  0.00000000000E+00  0.29045422381E+04  0.29045422381E+04  0.00000000000E+00 0.  1.
         21   -1    0    0  503  502  0.00000000000E+00 -0.00000000000E+00 -0.19639857595E+02  0.19639857595E+02  0.00000000000E+00 0. -1.
         21    1    1    2  503  501  0.13013026166E+03 -0.23630893601E+02  0.31574386134E+03  0.34232512340E+03  0.00000000000E+00 0. -1.
         21    1    1    2  504  505 -0.22409277169E+02  0.46953504049E+02  0.39900677919E+03  0.40238441457E+03  0.00000000000E+00 0. -1.
         21    1    1    2  505  502  0.87897141239E+01  0.46225745234E+02  0.24074073519E+03  0.24529610714E+03  0.00000000000E+00 0. -1.
          1    1    1    2  501    0 -0.11651069862E+03 -0.69548355682E+02  0.19294110048E+04  0.19341764506E+04  0.00000000000E+00 0.  1.
<scales pt_clust_3="128.54314" pt_clust_4="101.06026" pt_clust_5="34.88151" pt_clust_6="14000.00000"></scales>
<clustering>
<clus scale="   34.882">  4  5 -1 -1</clus>
<clus scale="  101.060">  1  4  2 -1</clus>
<clus scale="  128.543">  2  3  1 -1</clus>
<clus scale="  128.543">  2  3  1 -1</clus>
</clustering>
</event>
<event>
 6    0  0.2781617E+002  0.7553524E+02  0.7546771E-02  0.1342222E+00
         -2   -1    0    0    0  501 -0.00000000000E+00  0.00000000000E+00  0.13585054896E+04  0.13585054896E+04  0.00000000000E+00 0. -1.
         21   -1    0    0  504  502  0.00000000000E+00 -0.00000000000E+00 -0.22204039771E+03  0.22204039771E+03  0.00000000000E+00 0. -1.
         21    1    1    2  503  502 -0.42624819690E+02  0.54555576687E+02 -0.14672809733E+03  0.16224155062E+03  0.00000000000E+00 0. -1.
         21    1    1    2  504  505 -0.19040210294E+02  0.47754611364E+02 -0.24228064585E+02  0.56833367207E+02  0.00000000000E+00 0. -1.
         21    1    1    2  505  501  0.46274182751E+02 -0.28262542321E+02  0.24162158684E+01  0.54276232246E+02  0.00000000000E+00 0. -1.
         -2    1    1    2    0  503  0.15390847233E+02 -0.74047645730E+02  0.13050050379E+04  0.13071947372E+04  0.00000000000E+00 0. -1.
<scales pt_clust_3="75.53524" pt_clust_4="51.41043" pt_clust_5="48.54540" pt_clust_6="14000.00000"></scales>
<clustering>
<clus scale="   51.410">  2  4  1 -1</clus>
<clus scale="   48.545">  2  5  1 -1</clus>
<clus scale="   75.535">  2  3  1 -1</clus>
<clus scale="   51.410">  2  3  1 -1</clus>
</clustering>
</event>
<event>
 6    0  0.2781617E+002  0.1117904E+03  0.7546771E-02  0.1257290E+00
          2   -1    0    0  505    0 -0.00000000000E+00  0.00000000000E+00  0.49753787181E+03  0.49753787181E+03  0.00000000000E+00 0. -1.
         21   -1    0    0  504  502  0.00000000000E+00 -0.00000000000E+00 -0.71145836696E+03  0.71145836696E+03  0.00000000000E+00 0. -1.
         21    1    1    2  503  502 -0.94981000681E+02 -0.33938850135E+02 -0.53761194841E+02  0.11429567844E+03  0.00000000000E+00 0. -1.
         21    1    1    2  504  501  0.72894781790E+02  0.90801131153E+02 -0.56778410193E+03  0.57960096708E+03  0.00000000000E+00 0. -1.
         21    1    1    2  505  503  0.46280425667E+02 -0.38009863567E+02 -0.36356462412E+02  0.70060116239E+02  0.00000000000E+00 0. -1.
          2    1    1    2  501    0 -0.24194206776E+02 -0.18852417451E+02  0.44398126404E+03  0.44503947701E+03  0.00000000000E+00 0. -1.
<scales pt_clust_3="14000.00000" pt_clust_4="111.79043" pt_clust_5="58.52698" pt_clust_6="30.67203"></scales>
<clustering>
<clus scale="   30.672">  1  6  2 -1</clus>
<clus scale="   58.527">  1  5  2 -1</clus>
<clus scale="  111.790">  2  4  1 -1</clus>
<clus scale="  111.790">  2  3  1 -1</clus>
</clustering>
</event>
<event>
 6    0  0.2781617E+002  0.1187253E+03  0.7546771E-02  0.1245215E+00
         21   -1    0    0  504  502  0.00000000000E+00  0.00000000000E+00  0.35108608614E+02  0.35108608614E+02  0.00000000000E+00 0.  1.
          2   -1    0    0  503    0 -0.00000000000E+00 -0.00000000000E+00 -0.15882713530E+04  0.15882713530E+04  0.00000000000E+00 0. -1.
         21    1    1    2  503  502  0.10504956140E+03  0.34559621971E+02 -0.24320864028E+03  0.26717077034E+03  0.00000000000E+00 0.  1.
         21    1    1    2  504  505  0.26484905105E+02 -0.31665922912E+02 -0.15916219664E+02  0.44243721822E+02  0.00000000000E+00 0.  1.
         21    1    1    2  505  501 -0.11884635523E+02 -0.40803878100E+02 -0.72819229107E+02  0.84313944026E+02  0.00000000000E+00 0.  1.
          2    1    1    2  501    0 -0.11964983098E+03  0.37910179040E+02 -0.12212186553E+04  0.12276515254E+04  0.00000000000E+00 0. -1.
<scales pt_clust_3="118.72533" pt_clust_4="41.28173" pt_clust_5="49.70803" pt_clust_6="14000.00000"></scales>
<clustering>
<clus scale="   41.282">  1  4  2 -1</clus>
<clus scale="   49.708">  1  5  2 -1</clus>
<clus scale="  118.725">  1  3  2 -1</clus>
<clus scale="   41.282">  1  3  2 -1</clus>
</clustering>
</event>
<event>
 6    0  0.2781617E+002  0.2182113E+03  0.7546771E-02  0.1135224E+00
         21   -1    0    0  503  502  0.00000000000E+00  0.00000000000E+00  0.11087117301E+03  0.11087117301E+03  0.00000000000E+00 0.  1.
          1   -1    0    0  505    0 -0.00000000000E+00 -0.00000000000E+00 -0.34403580348E+04  0.34403580348E+04  0.00000000000E+00 0. -1.
         21    1    1    2  503  504 -0.18776858861E+03  0.18285423656E+03 -0.35592816956E+03  0.44201535786E+03  0.00000000000E+00 0.  1.
         21    1    1    2  504  501  0.33989330507E+00  0.47196528070E+02 -0.38089049895E+02  0.60649843456E+02  0.00000000000E+00 0. -1.
         21    1    1    2  505  502  0.31399994042E+01 -0.17496797945E+03 -0.90338025631E+02  0.19693809256E+03  0.00000000000E+00 0.  1.
          1    1    1    2  501    0  0.18428869590E+03 -0.55082785186E+02 -0.28451316167E+04  0.28516259139E+04  0.00000000000E+00 0. -1.
<scales pt_clust_3="41.07709" pt_clust_4="41.07709" pt_clust_5="174.99615" pt_clust_6="195.56665"></scales>
<clustering>
<clus scale="   41.077">  3  4 -1 -1</clus>
<clus scale="  174.996">  1  5  2 -1</clus>
<clus scale="  195.567">  2  6  1 -1</clus>
<clus scale="  174.996">  1  3  2 -1</clus>
</clustering>
</event>
<event>
 6    0  0.2781617E+002  0.9198271E+02  0.7546771E-02  0.1298120E+00
         21   -1    0    0  503  502  0.00000000000E+00  0.00000000000E+00  0.93794030097E+03  0.93794030097E+03  0.00000000000E+00 0. -1.
         -2   -1    0    0    0  501 -0.00000000000E+00 -0.00000000000E+00 -0.42350355860E+03  0.42350355860E+03  0.00000000000E+00 0.  1.
         21    1    1    2  503  501 -0.26822498703E+02 -0.18218891926E+02  0.29474804033E+02  0.43819385350E+02  0.00000000000E+00 0. -1.
         21    1    1    2  504  502  0.32035708627E+02  0.59763806541E+02  0.39277904751E+03  0.39858923639E+03  0.00000000000E+00 0. -1.
         21    1    1    2  505  504 -0.55662682208E+02  0.35759049852E+02  0.49824231555E+03  0.50261560744E+03  0.00000000000E+00 0. -1.
         -2    1    1    2    0  505  0.50449472283E+02 -0.77303964468E+02 -0.40605942472E+03  0.41641963040E+03  0.00000000000E+00 0.  1.
<scales pt_clust_3="32.42490" pt_clust_4="55.58892" pt_clust_5="91.98271" pt_clust_6="14000.00000"></scales>
<clustering>
<clus scale="   32.425">  1  3  2 -1</clus>
<clus scale="   55.589">  1  4  2 -1</clus>
<clus scale="   91.983">  1  5  2 -1</clus>
<clus scale="   32.425">  1  3  2 -1</clus>
</clustering>
</event>
<event>
 6    0  0.2781617E+002  0.1233744E+03  0.7546771E-02  0.1237632E+00
          2   -1    0    0  504    0 -0.00000000000E+00  0.00000000000E+00  0.48276985030E+02  0.48276985030E+02  0.00000000000E+00 0. -1.
         21   -1    0    0  503  502  0.00000000000E+00 -0.00000000000E+00 -0.14651655452E+04  0.14651655452E+04  0.00000000000E+00 0.  1.
         21    1    1    2  503  505 -0.29036980282E+02  0.36292780024E+02 -0.47571514884E+03  0.47798034996E+03  0.00000000000E+00 0.  1.
         21    1    1    2  504  502  0.31407785081E+02 -0.13405374777E+03 -0.59297086196E+03  0.60874567710E+03  0.00000000000E+00 0.  1.
         21    1    1    2  505  501 -0.40493688666E+02  0.13021146600E+03 -0.35101697442E+03  0.37657360640E+03  0.00000000000E+00 0.  1.
          2    1    1    2  501    0  0.38122883866E+02 -0.32450498260E+02  0.28144250312E+01  0.50142896804E+02  0.00000000000E+00 0. -1.
<scales pt_clust_3="46.47916" pt_clust_4="14000.00000" pt_clust_5="123.37437" pt_clust_6="48.97161"></scales>
<clustering>
<clus scale="   46.479">  2  3  1 -1</clus>
<clus scale="   48.972">  1  6  2 -1</clus>
<clus scale="  123.374">  1  5  2 -1</clus>
<clus scale="   46.479">  2  3  1 -1</clus>
</clustering>
</event>
<event>
 6    0  0.2781617E+002  0.1552971E+03  0.7546771E-02  0.1194111E+00
          2   -1    0    0  504    0 -0.00000000000E+00  0.00000000000E+00  0.15272604018E+04  0.15272604018E+04  0.00000000000E+00 0.  1.
         21   -1    0    0  501  502  0.00000000000E+00 -0.00000000000E+00 -0.67078619600E+02  0.67078619600E+02  0.00000000000E+00 0. -1.
         21    1    1    2  503  505  0.11750619967E+02 -0.49738877717E+02  0.96295375330E+01  0.52007316978E+02  0.00000000000E+00 0. -1.
         21    1    1    2  504  503  0.21511607503E+02 -0.28725939222E+02  0.37966025706E+02  0.52243161748E+02  0.00000000000E+00 0. -1.
         21    1    1    2  505  502  0.28949747436E+02 -0.42312231204E+02 -0.17036809295E+02  0.54024676372E+02  0.00000000000E+00 0. -1.
          2    1    1    2  501    0 -0.62211974906E+02  0.12077704814E+03  0.14296230282E+04  0.14360638663E+04  0.00000000000E+00 0.  1.
<scales pt_clust_3="40.73979" pt_clust_4="30.67154" pt_clust_5="40.73979" pt_clust_6="135.85811"></scales>
<clustering>
<clus scale="   30.672">  3  4 -1 -1</clus>
<clus scale="   40.740">  3  5 -1 -1</clus>
<clus scale="  135.858">  1  6  2 -1</clus>
<clus scale="  155.297">  2  3  1 -1</clus>
</clustering>
</event>
<event>
 6    0  0.2781617E+002  0.1222993E+03  0.7546771E-02  0.1239351E+00
         -1   -1    0    0    0  501 -0.00000000000E+00  0.00000000000E+00  0.37488597727E+03  0.37488597727E+03  0.00000000000E+00 0. -1.
         21   -1    0    0  505  502  0.00000000000E+00 -0.00000000000E+00 -0.29754512315E+03  0.29754512315E+03  0.00000000000E+00 0. -1.
         21    1    1    2  503  501  0.80075036050E+02 -0.11077552552E+03  0.14469696131E+02  0.13745035671E+03  0.00000000000E+00 0. -1.
         21    1    1    2  504  503 -0.28747334152E+02  0.36133787894E+02 -0.70227031618E+02  0.84046985778E+02  0.00000000000E+00 0. -1.
         21    1    1    2  505  504  0.23193545364E+02  0.69623935474E+02 -0.14525154651E+03  0.16273734882E+03  0.00000000000E+00 0. -1.
         -1    1    1    2    0  502 -0.74521247262E+02  0.50178021514E+01  0.27834973611E+03  0.28819640911E+03  0.00000000000E+00 0. -1.
<scales pt_clust_3="108.17192" pt_clust_4="45.26198" pt_clust_5="45.26198" pt_clust_6="74.68999"></scales>
<clustering>
<clus scale="   45.262">  4  5 -1 -1</clus>
<clus scale="   74.690">  1  6  2 -1</clus>
<clus scale="  108.172">  1  3  2 -1</clus>
<clus scale="  122.299">  2  3  1 -1</clus>
</clustering>
</event>
<event>
 6    0  0.2781617E+002  0.1820475E+03  0.7546771E-02  0.1165836E+00
          2   -1    0    0  503    0 -0.00000000000E+00  0.00000000000E+00  0.16026110512E+04  0.16026110512E+04  0.00000000000E+00 0.  1.
         21   -1    0    0  505  502  0.00000000000E+00 -0.00000000000E+00 -0.44817230963E+02  0.44817230963E+02  0.00000000000E+00 0.  1.
         21    1    1    2  503  504 -0.11239057238E+03  0.90487147566E+02  0.16665333048E+03  0.22043796677E+03  0.00000000000E+00 0.  1.
         21    1    1    2  504  502 -0.18733567466E+02  0.45213675296E+02  0.11331207746E+03  0.12342953408E+03  0.00000000000E+00 0.  1.
         21    1    1    2  505  501  0.43671648648E+02  0.68831833672E+01  0.61258802663E+02  0.75546224344E+02  0.00000000000E+00 0. -1.
          2    1    1    2  501    0  0.87452491198E+02 -0.14258400623E+03  0.12165696096E+04  0.12280145569E+04  0.00000000000E+00 0.  1.
<scales pt_clust_3="37.99427" pt_clust_4="37.99427" pt_clust_5="44.21076" pt_clust_6="169.95684"></scales>
<clustering>
<clus scale="   37.994">  3  4 -1 -1</clus>
<clus scale="   44.211">  2  5  1 -1</clus>
<clus scale="  169.957">  1  6  2 -1</clus>
<clus scale="   44.211">  2  3  1 -1</clus>
</clustering>
</event>
<event>
 6    0  0.2781617E+002  0.1181967E+03  0.7546771E-02  0.1246102E+00
         21   -1    0    0  503  502  0.00000000000E+00  0.00000000000E+00  0.68104725081E+03  0.68104725081E+03  0.00000000000E+00 0. -1.
         -1   -1    0    0    0  501 -0.00000000000E+00 -0.00000000000E+00 -0.33600972578E+03  0.33600972578E+03  0.00000000000E+00 0. -1.
         21    1    1    2  503  501  0.22668690759E+02 -0.33343263895E+02  0.71838753618E+02  0.82379908408E+02  0.00000000000E+00 0. -1.
         21    1    1    2  504  505  0.25942106634E+02  0.29154312380E+02  0.13105412919E+03  0.13674118475E+03  0.00000000000E+00 0.  1.
         21    1    1    2  505  502 -0.22339056235E+02  0.10208061224E+03  0.45615604572E+03  0.46797203215E+03  0.00000000000E+00 0. -1.
         -1    1    1    2    0  504 -0.26271741159E+02 -0.97891660728E+02 -0.31401140351E+03  0.32996385129E+03  0.00000000000E+00 0. -1.
<scales pt_clust_3="40.31926" pt_clust_4="36.80254" pt_clust_5="36.80254" pt_clust_6="101.70423"></scales>
<clustering>
<clus scale="   36.803">  4  5 -1 -1</clus>
<clus scale="   40.319">  1  3  2 -1</clus>
<clus scale="  101.704">  2  6  1 -1</clus>
<clus scale="   40.319">  1  3  2 -1</clus>
</clustering>
</event>
<event>
 6    0  0.2781617E+002  0.1802192E+03  0.7546771E-02  0.1167591E+00
         -1   -1    0    0    0  501 -0.00000000000E+00  0.00000000000E+00  0.72837256831E+03  0.72837256831E+03  0.00000000000E+00 0.  1.
         21   -1    0    0  504  502  0.00000000000E+00 -0.00000000000E+00 -0.14094944080E+03  0.14094944080E+03  0.00000000000E+00 0.  1.
         21    1    1    2  503  502  0.14782011028E+03  0.38671661858E+02  0.90047969858E+02  0.17735534757E+03  0.00000000000E+00 0.  1.
         21    1    1    2  504  505 -0.14060094222E+03 -0.95952156225E+01  0.24884542721E+02  0.14310811851E+03  0.00000000000E+00 0.  1.
         21    1    1    2  505  501 -0.46706599399E+02 -0.60561216929E+01 -0.22195299169E+02  0.52065481295E+02  0.00000000000E+00 0. -1.
         -1    1    1    2    0  503  0.39487431337E+02 -0.23020324542E+02  0.49468591410E+03  0.49679306173E+03  0.00000000000E+00 0.  1.
<scales pt_clust_3="172.40229" pt_clust_4="30.35104" pt_clust_5="30.35104" pt_clust_6="45.70769"></scales>
<clustering>
<clus scale="   30.351">  4  5 -1 -1</clus>
<clus scale="   45.708">  1  6  2 -1</clus>
<clus scale="  172.402">  1  3  2 -1</clus>
<clus scale="  180.219">  2  3  1 -1</clus>
</clustering>
</event>
<event>
 6    0  0.2781617E+002  0.9633754E+02  0.7546771E-02  0.1288192E+00
         21   -1    0    0  505  502  0.00000000000E+00  0.00000000000E+00  0.25323447383E+03  0.25323447383E+03  0.00000000000E+00 0. -1.
         -2   -1    0    0    0  501 -0.00000000000E+00 -0.00000000000E+00 -0.86783809425E+03  0.86783809425E+03  0.00000000000E+00 0.  1.
         21    1    1    2  503  501 -0.10419047228E+03  0.16262064403E+02 -0.44069730723E+02  0.11429020264E+03  0.00000000000E+00 0.  1.
         21    1    1    2  504  502 -0.34814632319E+02 -0.73106538342E+00  0.23716726254E+02  0.42131652998E+02  0.00000000000E+00 0.  1.
         21    1    1    2  505  503  0.11722395667E+03  0.38628455041E+02  0.16338812070E+03  0.20476643168E+03  0.00000000000E+00 0. -1.
         -2    1    1    2    0  504  0.21781147925E+02 -0.54159454061E+02 -0.75763873665E+03  0.75988428076E+03  0.00000000000E+00 0.  1.
<scales pt_clust_3="14000.00000" pt_clust_4="34.82231" pt_clust_5="96.33754" pt_clust_6="58.31270"></scales>
<clustering>
<clus scale="   34.822">  1  4  2 -1</clus>
<clus scale="   58.313">  2  6  1 -1</clus>
<clus scale="   96.338">  1  5  2 -1</clus>
<clus scale="   34.822">  1  3  2 -1</clus>
</clustering>
</event>
<event>
 6    0  0.2781617E+002  0.1050996E+03  0.7546771E-02  0.1269924E+00
         -2   -1    0    0    0  501 -0.00000000000E+00  0.00000000000E+00  0.10958183888E+04  0.10958183888E+04  0.00000000000E+00 0. -1.
         21   -1    0    0  503  502  0.00000000000E+00 -0.00000000000E+00 -0.57546263279E+03  0.57546263279E+03  0.00000000000E+00 0. -1.
         21    1    1    2  503  501 -0.34204988946E+02 -0.24128071499E+02 -0.54313922145E+02  0.68572204587E+02  0.00000000000E+00 0. -1.
         21    1    1    2  504  505 -0.50813686682E+02 -0.53730194408E+02 -0.30177745524E+03  0.31070660926E+03  0.00000000000E+00 0. -1.
         21    1    1    2  505  502 -0.17202161916E+02  0.51932532728E+02 -0.20155831076E+03  0.20885079594E+03  0.00000000000E+00 0. -1.
         -2    1    1    2    0  504  0.10222083754E+03  0.25925733180E+02  0.10780054441E+04  0.10831514118E+04  0.00000000000E+00 0. -1.
<scales pt_clust_3="41.85863" pt_clust_4="105.09961" pt_clust_5="52.35918" pt_clust_6="14000.00000"></scales>
<clustering>
<clus scale="   41.859">  2  3  1 -1</clus>
<clus scale="   52.359">  2  5  1 -1</clus>
<clus scale="  105.100">  2  4  1 -1</clus>
<clus scale="   41.859">  2  3  1 -1</clus>
</clustering>
</event>
<event>
 6    0  0.2781617E+002  0.1191175E+03  0.7546771E-02  0.1244560E+00
          2   -1    0    0  504    0 -0.00000000000E+00  0.00000000000E+00  0.18787396753E+04  0.18787396753E+04  0.00000000000E+00 0.  1.
         21   -1    0    0  503  502  0.00000000000E+00 -0.00000000000E+00 -0.32564856867E+02  0.32564856867E+02  0.00000000000E+00 0.  1.
         21    1    1    2  503  501  0.41382464651E+02 -0.20106659462E+02  0.98396887435E+02  0.10862197564E+03  0.00000000000E+00 0.  1.
         21    1    1    2  504  505 -0.33704063105E+02 -0.23170354615E+02  0.90032114015E+02  0.98886858363E+02  0.00000000000E+00 0.  1.
         21    1    1    2  505  502 -0.94828948960E+02 -0.15124160844E+02  0.87082462302E+02  0.12963265423E+03  0.00000000000E+00 0.  1.
          2    1    1    2  501    0  0.87150547414E+02  0.58401174922E+02  0.15706633547E+04  0.15741630439E+04  0.00000000000E+00 0.  1.
<scales pt_clust_3="46.00854" pt_clust_4="34.92861" pt_clust_5="34.92861" pt_clust_6="106.41703"></scales>
<clustering>
<clus scale="   34.929">  4  5 -1 -1</clus>
<clus scale="   46.009">  2  3  1 -1</clus>
<clus scale="  106.417">  1  6  2 -1</clus>
<clus scale="   46.009">  2  3  1 -1</clus>
</clustering>
</event>
<event>
 6    0  0.2781617E+002  0.3722531E+03  0.7546771E-02  0.1053835E+00
          1   -1    0    0  502    0 -0.00000000000E+00  0.00000000000E+00  0.17494882278E+04  0.17494882278E+04  0.00000000000E+00 0. -1.
         21   -1    0    0  503  502  0.00000000000E+00 -0.00000000000E+00 -0.64898149942E+03  0.64898149942E+03  0.00000000000E+00 0.  1.
         21    1    1    2  503  504  0.82804978819E+02  0.22598000305E+03 -0.35297828325E+03  0.42722042875E+03  0.00000000000E+00 0.  1.
         21    1    1    2  504  505 -0.40386629074E+02  0.15116045879E+03 -0.14608546829E+03  0.21405963691E+03  0.00000000000E+00 0.  1.
         21    1    1    2  505  501 -0.31491539563E+02 -0.24982663021E+03  0.13244764659E+03  0.28451263823E+03  0.00000000000E+00 0.  1.
          1    1    1    2  501    0 -0.10926810181E+02 -0.12731383162E+03  0.14671228334E+04  0.14726770234E+04  0.00000000000E+00 0. -1.
<scales pt_clust_3="108.59880" pt_clust_4="108.59880" pt_clust_5="347.03183" pt_clust_6="127.78187"></scales>
<clustering>
<clus scale="  108.599">  3  4 -1 -1</clus>
<clus scale="  127.782">  1  6  2 -1</clus>
<clus scale="  347.032">  1  5  2 -1</clus>
<clus scale="  372.253">  2  3  1 -1</clus>
</clustering>
</event>
<event>
 6    0  0.2781617E+002  0.1311519E+03  0.7546771E-02  0.1225756E+00
         21   -1    0    0  505  502  0.00000000000E+00  0.00000000000E+00  0.18725265334E+04  0.18725265334E+04  0.00000000000E+00 0. -1.
          1   -1    0    0  504    0 -0.00000000000E+00 -0.00000000000E+00 -0.61224085372E+03  0.61224085372E+03  0.00000000000E+00 0.  1.
         21    1    1    2  503  501 -0.13502096290E+02  0.45626390164E+02  0.19455757773E+02  0.51406231082E+02  0.00000000000E+00 0.  1.
         21    1    1    2  504  502 -0.43749084797E+02 -0.12378223502E+03  0.83328076815E+03  0.84355963790E+03  0.00000000000E+00 0. -1.
         21    1    1    2  505  503 -0.28264394693E+02 -0.21381604510E+02  0.99107172136E+03  0.99170520110E+03  0.00000000000E+00 0. -1.
          1    1    1    2  501    0  0.85515575780E+02  0.99537449362E+02 -0.58352256761E+03  0.59809631703E+03  0.00000000000E+00 0.  1.
<scales pt_clust_3="47.09926" pt_clust_4="131.15193" pt_clust_5="35.44078" pt_clust_6="14000.00000"></scales>
<clustering>
<clus scale="   35.441">  1  5  2 -1</clus>
<clus scale="   47.099">  1  3  2 -1</clus>
<clus scale="  131.152">  1  4  2 -1</clus>
<clus scale="   35.441">  1  3  2 -1</clus>
</clustering>
</event>
<event>
 6    0  0.2781617E+002  0.1259815E+03  0.7546771E-02  0.1233543E+00
         21   -1    0    0  503  502  0.00000000000E+00  0.00000000000E+00  0.11161558525E+03  0.11161558525E+03  0.00000000000E+00 0.  1.
          2   -1    0    0  505    0 -0.00000000000E+00 -0.00000000000E+00 -0.30983649458E+04  0.30983649458E+04  0.00000000000E+00 0. -1.
         21    1    1    2  503  504  0.29428528662E+02  0.67301343570E+02  0.60171666782E+02  0.94953349751E+02  0.00000000000E+00 0.  1.
         21    1    1    2  504  501  0.37941909460E+02  0.24384213427E+02  0.19594098151E+01  0.45144408787E+02  0.00000000000E+00 0.  1.
         21    1    1    2  505  502 -0.10132721157E+03 -0.71940306647E+02 -0.36237890076E+03  0.38309408667E+03  0.00000000000E+00 0.  1.
          2    1    1    2  501    0  0.33956773444E+02 -0.19745250350E+02 -0.26865015364E+04  0.26867886859E+04  0.00000000000E+00 0. -1.
<scales pt_clust_3="42.12347" pt_clust_4="42.12347" pt_clust_5="114.23327" pt_clust_6="39.28024"></scales>
<clustering>
<clus scale="   39.280">  2  6  1 -1</clus>
<clus scale="   42.123">  3  4 -1 -1</clus>
<clus scale="  114.233">  2  5  1 -1</clus>
<clus scale="  125.981">  1  3  2 -1</clus>
</clustering>
</event>
<event>
 6    0  0.2781617E+002  0.8577780E+02  0.7546771E-02  0.1313411E+00
         21   -1    0    0  504  502  0.00000000000E+00  0.00000000000E+00  0.11711759200E+04  0.11711759200E+04  0.00000000000E+00 0. -1.
          2   -1    0    0  505    0 -0.00000000000E+00 -0.00000000000E+00 -0.18126642778E+04  0.18126642778E+04  0.00000000000E+00 0. -1.
         21    1    1    2  503  501 -0.56704987305E+02  0.24740699671E+02  0.21941382403E+03  0.22796926105E+03  0.00000000000E+00 0. -1.
         21    1    1    2  504  503 -0.33185943025E-01  0.32500971514E+02  0.13525565430E+03  0.13910573773E+03  0.00000000000E+00 0. -1.
         21    1    1    2  505  502  0.10319965202E+03 -0.46643691464E+02  0.80603006857E+03  0.81394734078E+03  0.00000000000E+00 0. -1.
          2    1    1    2  501    0 -0.46461478769E+02 -0.10597979722E+02 -0.18021879047E+04  0.18028178582E+04  0.00000000000E+00 0. -1.
<scales pt_clust_3="14000.00000" pt_clust_4="32.50099" pt_clust_5="85.77780" pt_clust_6="47.65267"></scales>
<clustering>
<clus scale="   32.501">  1  4  2 -1</clus>
<clus scale="   47.653">  2  6  1 -1</clus>
<clus scale="   85.778">  1  5  2 -1</clus>
<clus scale="   32.501">  1  3  2 -1</clus>
</clustering>
</event>
<event>
 6    0  0.2781617E+002  0.1620407E+03  0.7546771E-02  0.1186412E+00
          2   -1    0    0  502    0 -0.00000000000E+00  0.00000000000E+00  0.26091137473E+04  0.26091137473E+04  0.00000000000E+00 0. -1.
         21   -1    0    0  504  502  0.00000000000E+00 -0.00000000000E+00 -0.10983880490E+03  0.10983880490E+03  0.00000000000E+00 0. -1.
         21    1    1    2  503  501  0.50769148994E+01  0.43448827079E+02  0.81782972409E+02  0.92747130498E+02  0.00000000000E+00 0.  1.
         21    1    1    2  504  505  0.12413915643E+03 -0.11916605223E+03 -0.17542364172E+02  0.17297055444E+03  0.00000000000E+00 0. -1.
         21    1    1    2  505  503 -0.93643300359E+02  0.67039386848E+02  0.36201883545E+03  0.37989601776E+03  0.00000000000E+00 0.  1.
          2    1    1    2  501    0 -0.35572770973E+02  0.86778382992E+01  0.20730154987E+04  0.20733388495E+04  0.00000000000E+00 0. -1.
<scales pt_clust_3="44.86752" pt_clust_4="162.04071" pt_clust_5="14000.00000" pt_clust_6="36.61594"></scales>
<clustering>
<clus scale="   36.616">  1  6  2 -1</clus>
<clus scale="   44.868">  1  3  2 -1</clus>
<clus scale="  162.041">  2  4  1 -1</clus>
<clus scale="  162.041">  2  3  1 -1</clus>
</clustering>
</event>
<event>
 6    0  0.2781617E+002  0.9646732E+02  0.7546771E-02  0.1287905E+00
         21   -1    0    0  505  502  0.00000000000E+00  0.00000000000E+00  0.42363201448E+03  0.42363201448E+03  0.00000000000E+00 0.  1.
         -1   -1    0    0    0  501 -0.00000000000E+00 -0.00000000000E+00 -0.58735188232E+03  0.58735188232E+03  0.00000000000E+00 0. -1.
         21    1    1    2  503  504  0.31802985054E+02  0.56122625233E+02  0.22908681659E+02  0.68454266608E+02  0.00000000000E+00 0.  1.
         21    1    1    2  504  502  0.25784275507E+02 -0.15727319688E+02  0.15724074148E+02  0.34050315062E+02  0.00000000000E+00 0. -1.
         21    1    1    2  505  501  0.38921669137E+02 -0.51124028274E+02  0.34583731183E+03  0.35175560955E+03  0.00000000000E+00 0.  1.
         -1    1    1    2    0  503 -0.96508929698E+02  0.10728722729E+02 -0.54818993547E+03  0.55672370558E+03  0.00000000000E+00 0. -1.
<scales pt_clust_3="64.48874" pt_clust_4="30.20228" pt_clust_5="96.46732" pt_clust_6="14000.00000"></scales>
<clustering>
<clus scale="   30.202">  1  4  2 -1</clus>
<clus scale="   64.489">  1  3  2 -1</clus>
<clus scale="   96.467">  1  5  2 -1</clus>
<clus scale="   30.202">  1  3  2 -1</clus>
</clustering>
</event>
<event>
 6    0  0.2781617E+002  0.1020812E+03  0.7546771E-02  0.1275979E+00
          2   -1    0    0  505    0 -0.00000000000E+00  0.00000000000E+00  0.13600336677E+04  0.13600336677E+04  0.00000000000E+00 0.  1.
         21   -1    0    0  503  502  0.00000000000E+00 -0.00000000000E+00 -0.97955489267E+02  0.97955489267E+02  0.00000000000E+00 0.  1.
         21    1    1    2  503  501 -0.20702403336E+02  0.25035671890E+02  0.48405353211E+02  0.58296248510E+02  0.00000000000E+00 0. -1.
         21    1    1    2  504  502 -0.41007712571E+02  0.38543923028E+01 -0.48143519673E+01  0.41468865613E+02  0.00000000000E+00 0. -1.
         21    1    1    2  505  504  0.46836177096E+02  0.73232404134E+02 -0.39874411618E+02  0.95637760336E+02  0.00000000000E+00 0.  1.
          2    1    1    2  501    0  0.14873938811E+02 -0.10212246833E+03  0.12583615888E+04  0.12625862825E+04  0.00000000000E+00 0.  1.
<scales pt_clust_3="32.48653" pt_clust_4="47.24717" pt_clust_5="14000.00000" pt_clust_6="102.08124"></scales>
<clustering>
<clus scale="   32.487">  2  3  1 -1</clus>
<clus scale="   47.247">  2  4  1 -1</clus>
<clus scale="  102.081">  1  6  2 -1</clus>
<clus scale="   32.487">  2  3  1 -1</clus>
</clustering>
</event>
<event>
 6    0  0.2781617E+002  0.1078144E+03  0.7546771E-02  0.1264672E+00
         21   -1    0    0  503  502  0.00000000000E+00  0.00000000000E+00  0.67683667698E+02  0.67683667698E+02  0.00000000000E+00 0.  1.
          2   -1    0    0  505    0 -0.00000000000E+00 -0.00000000000E+00 -0.13197700546E+04  0.13197700546E+04  0.00000000000E+00 0.  1.
         21    1    1    2  503  501 -0.30577477450E+02 -0.35327010075E+02 -0.43107074642E+02  0.63570430644E+02  0.00000000000E+00 0.  1.
         21    1    1    2  504  502 -0.62924951297E+02 -0.21955064903E+02  0.23734235252E+02  0.70745235130E+02  0.00000000000E+00 0.  1.
         21    1    1    2  505  504 -0.48010075040E+02 -0.28958613040E+02 -0.22449086059E+03  0.23138650579E+03  0.00000000000E+00 0.  1.
          2    1    1    2  501    0  0.14151250379E+03  0.86240688018E+02 -0.10082226869E+04  0.10217515507E+04  0.00000000000E+00 0.  1.
<scales pt_clust_3="46.72237" pt_clust_4="107.81438" pt_clust_5="58.74025" pt_clust_6="14000.00000"></scales>
<clustering>
<clus scale="   46.722">  1  3  2 -1</clus>
<clus scale="   58.740">  2  5  1 -1</clus>
<clus scale="  107.814">  1  4  2 -1</clus>
<clus scale="   46.722">  1  3  2 -1</clus>
</clustering>
</event>
<event>
 6    0  0.2781617E+002  0.4635168E+03  0.7546771E-02  0.1023766E+00
          2   -1    0    0  504    0 -0.00000000000E+00  0.00000000000E+00  0.92429692551E+03  0.92429692551E+03  0.00000000000E+00 0.  1.
         21   -1    0    0  503  502  0.00000000000E+00 -0.00000000000E+00 -0.38387321938E+03  0.38387321938E+03  0.00000000000E+00 0. -1.
         21    1    1    2  503  505  0.61838241611E+01  0.50270662844E+02 -0.24200204606E+02  0.56134028245E+02  0.00000000000E+00 0.  1.
         21    1    1    2  504  502 -0.21380946755E+02 -0.21404766944E+02 -0.17687325318E+01  0.30305731254E+02  0.00000000000E+00 0. -1.
         21    1    1    2  505  501 -0.22125624822E+03  0.35445488769E+03 -0.88309980953E+02  0.42707288315E+03  0.00000000000E+00 0. -1.
          2    1    1    2  501    0  0.23645337082E+03 -0.38332078359E+03  0.65470262422E+03  0.79465750224E+03  0.00000000000E+00 0.  1.
<scales pt_clust_3="35.38991" pt_clust_4="30.25407" pt_clust_5="35.38991" pt_clust_6="451.74815"></scales>
<clustering>
<clus scale="   30.254">  2  4  1 -1</clus>
<clus scale="   35.390">  3  5 -1 -1</clus>
<clus scale="  451.748">  1  6  2 -1</clus>
<clus scale="   30.254">  2  3  1 -1</clus>
</clustering>
</event>
<event>
 6    0  0.2781617E+002  0.7488763E+02  0.7546771E-02  0.1344219E+00
          3   -1    0    0  505    0 -0.00000000000E+00  0.00000000000E+00  0.26638414557E+03  0.26638414557E+03  0.00000000000E+00 0.  1.
         21   -1    0    0  503  502  0.00000000000E+00 -0.00000000000E+00 -0.36636104883E+03  0.36636104883E+03  0.00000000000E+00 0.  1.
         21    1    1    2  503  504 -0.35039629724E+02 -0.41371109118E+02 -0.22123846059E+02  0.58556032015E+02  0.00000000000E+00 0.  1.
         21    1    1    2  504  501  0.67179533531E+02  0.57636732900E+02 -0.28653969036E+03  0.29990011147E+03  0.00000000000E+00 0.  1.
         21    1    1    2  505  502  0.17483669588E+02  0.39456313931E+02 -0.90736916144E+01  0.44100014635E+02  0.00000000000E+00 0.  1.
          3    1    1    2  501    0 -0.49623573394E+02 -0.55721937714E+02  0.21776032477E+03  0.23018903628E+03  0.00000000000E+00 0.  1.
<scales pt_clust_3="49.32064" pt_clust_4="74.88763" pt_clust_5="43.15645" pt_clust_6="14000.00000"></scales>
<clustering>
<clus scale="   43.156">  2  5  1 -1</clus>
<clus scale="   49.321">  2  3  1 -1</clus>
<clus scale="   74.888">  2  4  1 -1</clus>
<clus scale="   43.156">  2  3  1 -1</clus>
</clustering>
</event>
<event>
 6    0  0.2781617E+002  0.1528238E+03  0.7546771E-02  0.1197045E+00
         21   -1    0    0  501  502  0.00000000000E+00  0.00000000000E+00  0.90666110746E+03  0.90666110746E+03  0.00000000000E+00 0.  1.
          2   -1    0    0  504    0 -0.00000000000E+00 -0.00000000000E+00 -0.57155411727E+03  0.57155411727E+03  0.00000000000E+00 0.  1.
         21    1    1    2  503  505  0.49234660258E+02  0.62210596664E+02  0.38507832009E+03  0.39316602436E+03  0.00000000000E+00 0.  1.
         21    1    1    2  504  503 -0.84375236921E+01 -0.40710128573E+02 -0.73263945792E+00  0.41581764453E+02  0.00000000000E+00 0. -1.
         21    1    1    2  505  502  0.18154416273E+02  0.69530800353E+02  0.48908073347E+03  0.49433195211E+03  0.00000000000E+00 0.  1.
          2    1    1    2  501    0 -0.58951552839E+02 -0.91031268444E+02 -0.53831942391E+03  0.54913548381E+03  0.00000000000E+00 0.  1.
<scales pt_clust_3="38.08732" pt_clust_4="41.57531" pt_clust_5="38.08732" pt_clust_6="147.49095"></scales>
<clustering>
<clus scale="   38.087">  3  5 -1 -1</clus>
<clus scale="   41.575">  2  4  1 -1</clus>
<clus scale="  147.491">  2  6  1 -1</clus>
<clus scale="  152.824">  1  3  2 -1</clus>
</clustering>
</event>
<event>
 6    0  0.2781617E+002  0.1408864E+03  0.7546771E-02  0.1212141E+00
         21   -1    0    0  503  502  0.00000000000E+00  0.00000000000E+00  0.21522877124E+03  0.21522877124E+03  0.00000000000E+00 0. -1.
          1   -1    0    0  505    0 -0.00000000000E+00 -0.00000000000E+00 -0.36313647136E+04  0.36313647136E+04  0.00000000000E+00 0. -1.
         21    1    1    2  503  504 -0.72671183719E+02  0.15551632600E+02  0.72001868948E+02  0.10347571383E+03  0.00000000000E+00 0. -1.
         21    1    1    2  504  501 -0.62035293086E+02  0.12954330054E+01  0.11682779165E+03  0.13228298695E+03  0.00000000000E+00 0. -1.
         21    1    1    2  505  502  0.41543732167E+02 -0.13837201976E+01 -0.18696957000E+03  0.19153437412E+03  0.00000000000E+00 0.  1.
          1    1    1    2  501    0  0.93162744638E+02 -0.15463345408E+02 -0.34179960330E+04  0.34193004100E+04  0.00000000000E+00 0. -1.
<scales pt_clust_3="35.34030" pt_clust_4="35.34030" pt_clust_5="41.56677" pt_clust_6="135.47370"></scales>
<clustering>
<clus scale="   35.340">  3  4 -1 -1</clus>
<clus scale="   41.567">  2  5  1 -1</clus>
<clus scale="  135.474">  2  6  1 -1</clus>
<clus scale="  140.886">  1  3  2 -1</clus>
</clustering>
</event>
<event>
 6    0  0.2781617E+002  0.1922840E+03  0.7546771E-02  0.1156417E+00
         21   -1    0    0  504  502  0.00000000000E+00  0.00000000000E+00  0.47318356787E+03  0.47318356787E+03  0.00000000000E+00 0.  1.
          3   -1    0    0  503    0 -0.00000000000E+00 -0.00000000000E+00 -0.89861670554E+03  0.89861670554E+03  0.00000000000E+00 0.  1.
         21    1    1    2  503  505 -0.25481479897E+02  0.15995041661E+03  0.49744981327E+02  0.16943436711E+03  0.00000000000E+00 0.  1.
         21    1    1    2  504  501 -0.46555578058E+02 -0.34614695986E+02  0.29194128464E+03  0.29764964758E+03  0.00000000000E+00 0.  1.
         21    1    1    2  505  502  0.10238301785E+02  0.42708550251E+02  0.50959308505E+02  0.67273280070E+02  0.00000000000E+00 0.  1.
          3    1    1    2  501    0  0.61798756170E+02 -0.16804427088E+03 -0.81807871214E+03  0.83744297866E+03  0.00000000000E+00 0.  1.
<scales pt_clust_3="35.26422" pt_clust_4="58.01378" pt_clust_5="35.26422" pt_clust_6="179.96385"></scales>
<clustering>
<clus scale="   35.264">  3  5 -1 -1</clus>
<clus scale="   58.014">  1  4  2 -1</clus>
<clus scale="  179.964">  2  6  1 -1</clus>
<clus scale="   58.014">  1  3  2 -1</clus>
</clustering>
</event>
<event>
 6    0  0.2781617E+002  0.1659350E+03  0.7546771E-02  0.1182155E+00
          2   -1    0    0  503    0 -0.00000000000E+00  0.00000000000E+00  0.21356788775E+04  0.21356788775E+04  0.00000000000E+00 0. -1.
         21   -1    0    0  505  502  0.00000000000E+00 -0.00000000000E+00 -0.28350285903E+03  0.28350285903E+03  0.00000000000E+00 0. -1.
         21    1    1    2  503  504 -0.13055703967E+01 -0.58929277840E+02 -0.10793006712E+03  0.12297667945E+03  0.00000000000E+00 0.  1.
         21    1    1    2  504  502  0.53442839982E+02 -0.79340394247E+02 -0.11708799171E+03  0.15119733168E+03  0.00000000000E+00 0. -1.
         21    1    1    2  505  501  0.39462113760E+02  0.98269265267E+01 -0.17577930029E+02  0.44303617589E+02  0.00000000000E+00 0. -1.
          2    1    1    2  501    0 -0.91599383345E+02  0.12844274556E+03  0.20947720074E+04  0.21007041078E+04  0.00000000000E+00 0. -1.
<scales pt_clust_3="38.27455" pt_clust_4="38.27455" pt_clust_5="40.66727" pt_clust_6="157.58477"></scales>
<clustering>
<clus scale="   40.667">  2  5  1 -1</clus>
<clus scale="   38.275">  3  4 -1 -1</clus>
<clus scale="  157.585">  1  6  2 -1</clus>
<clus scale="   40.667">  2  3  1 -1</clus>
</clustering>
</event>
<event>
 6    0  0.2781617E+002  0.1125281E+03  0.7546771E-02  0.1255959E+00
          2   -1    0    0  503    0 -0.00000000000E+00  0.00000000000E+00  0.14248630820E+04  0.14248630820E+04  0.00000000000E+00 0.  1.
         21   -1    0    0  505  502  0.00000000000E+00 -0.00000000000E+00 -0.92749740691E+02  0.92749740691E+02  0.00000000000E+00 0.  1.
         21    1    1    2  503  502  0.22416820390E+02 -0.20283982412E+02  0.52826008791E+02  0.60864940513E+02  0.00000000000E+00 0. -1.
         21    1    1    2  504  501  0.70614515349E+02  0.32092879813E+02  0.97434388964E+02  0.12453843931E+03  0.00000000000E+00 0.  1.
         21    1    1    2  505  504 -0.12018046472E+03 -0.82730221637E+02 -0.20067384301E+01  0.14591662233E+03  0.00000000000E+00 0.  1.
          2    1    1    2  501    0  0.27149128982E+02  0.70921324236E+02  0.11838596820E+04  0.11862928206E+04  0.00000000000E+00 0.  1.
<scales pt_clust_3="30.23167" pt_clust_4="112.52814" pt_clust_5="14000.00000" pt_clust_6="75.79131"></scales>
<clustering>
<clus scale="   30.232">  2  3  1 -1</clus>
<clus scale="   75.791">  1  6  2 -1</clus>
<clus scale="  112.528">  1  4  2 -1</clus>
<clus scale="   30.232">  2  3  1 -1</clus>
</clustering>
</event>
<event>
 6    0  0.2781617E+002  0.2890604E+03  0.7546771E-02  0.1090841E+00
         21   -1    0    0  503  502  0.00000000000E+00  0.00000000000E+00  0.30771251772E+04  0.30771251772E+04  0.00000000000E+00 0.  1.
          1   -1    0    0  504    0 -0.00000000000E+00 -0.00000000000E+00 -0.94161665211E+03  0.94161665211E+03  0.00000000000E+00 0. -1.
         21    1    1    2  503  501  0.15878387841E+03  0.35967707211E+03  0.21076838859E+04  0.21440408762E+04  0.00000000000E+00 0.  1.
         21    1    1    2  504  505  0.43749425107E+02 -0.17054756511E+03  0.56689287197E+03  0.59360594038E+03  0.00000000000E+00 0.  1.
         21    1    1    2  505  502  0.37984001867E+02 -0.29629563029E+02  0.34642519758E+03  0.34975864953E+03  0.00000000000E+00 0. -1.
          1    1    1    2  501    0 -0.24051730538E+03 -0.15949994398E+03 -0.88549343030E+03  0.93133636320E+03  0.00000000000E+00 0. -1.
<scales pt_clust_3="14000.00000" pt_clust_4="184.28485" pt_clust_5="48.17360" pt_clust_6="289.06037"></scales>
<clustering>
<clus scale="   48.174">  1  5  2 -1</clus>
<clus scale="  184.285">  1  4  2 -1</clus>
<clus scale="  289.060">  2  6  1 -1</clus>
<clus scale="   48.174">  1  3  2 -1</clus>
</clustering>
</event>
<event>
 6    0  0.2781617E+002  0.1005165E+03  0.7546771E-02  0.1279214E+00
          1   -1    0    0  504    0 -0.00000000000E+00  0.00000000000E+00  0.17067438326E+04  0.17067438326E+04  0.00000000000E+00 0. -1.
         21   -1    0    0  505  502  0.00000000000E+00 -0.00000000000E+00 -0.56881407732E+02  0.56881407732E+02  0.00000000000E+00 0.  1.
         21    1    1    2  503  502 -0.19008830973E+02  0.39375567121E+02  0.61436141360E+02  0.75406700009E+02  0.00000000000E+00 0.  1.
         21    1    1    2  504  503 -0.60886668493E+02  0.20206961388E+02  0.16194582524E+02  0.66164735259E+02  0.00000000000E+00 0.  1.
         21    1    1    2  505  501  0.45640994567E+02  0.39456874273E+02  0.16161936557E+02  0.62459214739E+02  0.00000000000E+00 0.  1.
          1    1    1    2  501    0  0.34254504898E+02 -0.99039402783E+02  0.15560697645E+04  0.15595945904E+04  0.00000000000E+00 0. -1.
<scales pt_clust_3="43.72380" pt_clust_4="100.51651" pt_clust_5="68.46898" pt_clust_6="14000.00000"></scales>
<clustering>
<clus scale="   43.724">  2  3  1 -1</clus>
<clus scale="   68.469">  2  5  1 -1</clus>
<clus scale="  100.517">  2  4  1 -1</clus>
<clus scale="   43.724">  2  3  1 -1</clus>
</clustering>
</event>
<event>
 6    0  0.2781617E+002  0.9520102E+02  0.7546771E-02  0.1290724E+00
          2   -1    0    0  504    0 -0.00000000000E+00  0.00000000000E+00  0.47340362085E+03  0.47340362085E+03  0.00000000000E+00 0.  1.
         21   -1    0    0  505  502  0.00000000000E+00 -0.00000000000E+00 -0.80606011437E+02  0.80606011437E+02  0.00000000000E+00 0.  1.
         21    1    1    2  503  501 -0.59835983369E+02  0.66719309196E+02 -0.61894122071E+01  0.89833846343E+02  0.00000000000E+00 0.  1.
         21    1    1    2  504  502  0.35898157445E+02 -0.23732191451E+02  0.22897933733E+02  0.48746384361E+02  0.00000000000E+00 0. -1.
         21    1    1    2  505  503 -0.84513533204E+01  0.48249867070E+02  0.33302198340E+02  0.59232689112E+02  0.00000000000E+00 0.  1.
          2    1    1    2  501    0  0.32389179244E+02 -0.91236984815E+02  0.34278688954E+03  0.35619671247E+03  0.00000000000E+00 0.  1.
<scales pt_clust_3="95.20102" pt_clust_4="43.03365" pt_clust_5="43.73204" pt_clust_6="14000.00000"></scales>
<clustering>
<clus scale="   43.034">  2  4  1 -1</clus>
<clus scale="   43.732">  2  5  1 -1</clus>
<clus scale="   95.201">  2  3  1 -1</clus>
<clus scale="   43.034">  2  3  1 -1</clus>
</clustering>
</event>
<event>
 6    0  0.2781617E+002  0.1573744E+03  0.7546771E-02  0.1191693E+00
         21   -1    0    0  505  502  0.00000000000E+00  0.00000000000E+00  0.53181224113E+02  0.53181224113E+02  0.00000000000E+00 0.  1.
          2   -1    0    0  503    0 -0.00000000000E+00 -0.00000000000E+00 -0.33426317534E+04  0.33426317534E+04  0.00000000000E+00 0.  1.
         21    1    1    2  503  502 -0.11670731905E+02 -0.19974977908E+03 -0.76821070229E+03  0.79384120788E+03  0.00000000000E+00 0.  1.
         21    1    1    2  504  501  0.46803391483E+02  0.11249904571E+03 -0.13653604229E+03  0.18299913547E+03  0.00000000000E+00 0.  1.
         21    1    1    2  505  504 -0.99429918854E+02  0.48950073401E+02 -0.16956694719E+03  0.20257188361E+03  0.00000000000E+00 0.  1.
          2    1    1    2  501    0  0.64297259275E+02  0.38300659974E+02 -0.22151368375E+04  0.22164007505E+04  0.00000000000E+00 0.  1.
<scales pt_clust_3="14000.00000" pt_clust_4="157.37445" pt_clust_5="104.60885" pt_clust_6="74.84035"></scales>
<clustering>
<clus scale="   74.840">  2  6  1 -1</clus>
<clus scale="  104.609">  1  5  2 -1</clus>
<clus scale="  157.374">  1  4  2 -1</clus>
<clus scale="  104.609">  1  3  2 -1</clus>
</clustering>
</event>
<event>
 6    0  0.2781617E+002  0.1169139E+03  0.7546771E-02  0.1248277E+00
          4   -1    0    0  504    0 -0.00000000000E+00  0.00000000000E+00  0.10934500209E+04  0.10934500209E+04  0.00000000000E+00 0. -1.
         21   -1    0    0  503  502  0.00000000000E+00 -0.00000000000E+00 -0.48417199737E+02  0.48417199737E+02  0.00000000000E+00 0.  1.
         21    1    1    2  503  505  0.53362683825E+02 -0.16134052847E+02  0.97146963283E+02  0.11200632197E+03  0.00000000000E+00 0. -1.
         21    1    1    2  504  502 -0.10376837841E+03  0.33322392255E+02  0.76176644357E+02  0.13297044532E+03  0.00000000000E+00 0.  1.
         21    1    1    2  505  501 -0.68665190981E+02 -0.31677505140E+02  0.18626106670E+03  0.20102626135E+03  0.00000000000E+00 0.  1.
          4    1    1    2  501    0  0.11907088557E+03  0.14489165732E+02  0.68544814678E+03  0.69586419195E+03  0.00000000000E+00 0. -1.
<scales pt_clust_3="55.74840" pt_clust_4="14000.00000" pt_clust_5="68.43500" pt_clust_6="116.91387"></scales>
<clustering>
<clus scale="   55.748">  2  3  1 -1</clus>
<clus scale="   68.435">  2  5  1 -1</clus>
<clus scale="  116.914">  1  6  2 -1</clus>
<clus scale="   55.748">  2  3  1 -1</clus>
</clustering>
</event>
<event>
 6    0  0.2781617E+002  0.1034418E+03  0.7546771E-02  0.1273220E+00
         21   -1    0    0  503  502  0.00000000000E+00  0.00000000000E+00  0.23692092007E+04  0.23692092007E+04  0.00000000000E+00 0.  1.
          3   -1    0    0  504    0 -0.00000000000E+00 -0.00000000000E+00 -0.27920408021E+03  0.27920408021E+03  0.00000000000E+00 0. -1.
         21    1    1    2  503  501 -0.60918815105E+02  0.82447252858E+02  0.11657256274E+04  0.11702242904E+04  0.00000000000E+00 0.  1.
         21    1    1    2  504  505  0.67167525311E+02 -0.90871550676E+02  0.84867154601E+03  0.85616149656E+03  0.00000000000E+00 0.  1.
         21    1    1    2  505  502 -0.26770863897E+02 -0.44470327799E+02  0.34390345413E+03  0.34779861267E+03  0.00000000000E+00 0.  1.
          3    1    1    2  501    0  0.20522153691E+02  0.52894625616E+02 -0.26829550705E+03  0.27422888126E+03  0.00000000000E+00 0. -1.
<scales pt_clust_3="14000.00000" pt_clust_4="103.44176" pt_clust_5="51.90654" pt_clust_6="56.66125"></scales>
<clustering>
<clus scale="   51.907">  1  5  2 -1</clus>
<clus scale="   56.661">  2  6  1 -1</clus>
<clus scale="  103.442">  2  4  1 -1</clus>
<clus scale="   51.907">  1  3  2 -1</clus>
</clustering>
</event>
<event>
 6    0  0.2781617E+002  0.1151571E+03  0.7546771E-02  0.1251307E+00
         21   -1    0    0  505  502  0.00000000000E+00  0.00000000000E+00  0.22194123374E+03  0.22194123374E+03  0.00000000000E+00 0.  1.
          2   -1    0    0  502    0 -0.00000000000E+00 -0.00000000000E+00 -0.78557231100E+03  0.78557231100E+03  0.00000000000E+00 0.  1.
         21    1    1    2  503  501  0.10281648939E+03 -0.52612819548E+02  0.65367060051E+02  0.13271093328E+03  0.00000000000E+00 0.  1.
         21    1    1    2  504  503 -0.12688975456E+02  0.46960517760E+02  0.86655958501E+02  0.99375829406E+02  0.00000000000E+00 0.  1.
         21    1    1    2  505  504  0.23804975293E+02  0.28859650317E+02  0.11419631247E+02  0.39114757355E+02  0.00000000000E+00 0. -1.
          2    1    1    2  501    0 -0.11393248923E+03 -0.23207348529E+02 -0.72707372706E+03  0.73631202469E+03  0.00000000000E+00 0.  1.
<scales pt_clust_3="14000.00000" pt_clust_4="60.62641" pt_clust_5="37.41064" pt_clust_6="115.15712"></scales>
<clustering>
<clus scale="   37.411">  1  5  2 -1</clus>
<clus scale="   60.626">  1  4  2 -1</clus>
<clus scale="  115.157">  2  6  1 -1</clus>
<clus scale="   37.411">  1  3  2 -1</clus>
</clustering>
</event>
<event>
 6    0  0.2781617E+002  0.7301138E+02  0.7546771E-02  0.1350142E+00
          1   -1    0    0  503    0 -0.00000000000E+00  0.00000000000E+00  0.21808801002E+04  0.21808801002E+04  0.00000000000E+00 0.  1.
         21   -1    0    0  504  502  0.00000000000E+00 -0.00000000000E+00 -0.14581053234E+03  0.14581053234E+03  0.00000000000E+00 0. -1.
         21    1    1    2  503  505  0.10647170779E+03 -0.77448944226E+02  0.82348705353E+02  0.15529286137E+03  0.00000000000E+00 0. -1.
         21    1    1    2  504  501 -0.19460969296E+01  0.52303837227E+02  0.73807415874E+02  0.90482116023E+02  0.00000000000E+00 0. -1.
         21    1    1    2  505  502 -0.64613645155E+02  0.20866443790E+02 -0.89361715579E+02  0.11223122483E+03  0.00000000000E+00 0. -1.
          1    1    1    2  501    0 -0.39911965702E+02  0.42786632090E+01  0.19682751622E+04  0.19686844303E+04  0.00000000000E+00 0.  1.
<scales pt_clust_3="73.01138" pt_clust_4="56.68914" pt_clust_5="14000.00000" pt_clust_6="40.14065"></scales>
<clustering>
<clus scale="   40.141">  1  6  2 -1</clus>
<clus scale="   56.689">  1  4  2 -1</clus>
<clus scale="   73.011">  1  3  2 -1</clus>
<clus scale="   73.011">  2  3  1 -1</clus>
</clustering>
</event>
<event>
 6    0  0.2781617E+002  0.9714966E+02  0.7546771E-02  0.1286407E+00
         21   -1    0    0  505  502  0.00000000000E+00  0.00000000000E+00  0.12170403206E+03  0.12170403206E+03  0.00000000000E+00 0.  1.
          2   -1    0    0  503    0 -0.00000000000E+00 -0.00000000000E+00 -0.12441145744E+04  0.12441145744E+04  0.00000000000E+00 0.  1.
         21    1    1    2  503  504  0.43283265555E+02 -0.39934752766E+02 -0.57836399071E+02  0.82542562433E+02  0.00000000000E+00 0.  1.
         21    1    1    2  504  502  0.40812365255E+02 -0.36627518676E+02 -0.36909417635E+01  0.54962235518E+02  0.00000000000E+00 0. -1.
         21    1    1    2  505  501  0.10936376617E+01  0.80433513623E+02  0.62395038202E+02  0.10180317750E+03  0.00000000000E+00 0.  1.
          2    1    1    2  501    0 -0.85189268472E+02 -0.38712421818E+01 -0.11232782397E+04  0.11265106310E+04  0.00000000000E+00 0.  1.
<scales pt_clust_3="45.13860" pt_clust_4="45.13860" pt_clust_5="80.44095" pt_clust_6="85.14668"></scales>
<clustering>
<clus scale="   45.139">  3  4 -1 -1</clus>
<clus scale="   80.441">  1  5  2 -1</clus>
<clus scale="   85.147">  2  6  1 -1</clus>
<clus scale="   80.441">  1  3  2 -1</clus>
</clustering>
</event>
<event>
 6    0  0.2781617E+002  0.2147433E+03  0.7546771E-02  0.1137864E+00
          2   -1    0    0  502    0 -0.00000000000E+00  0.00000000000E+00  0.46540016857E+03  0.46540016857E+03  0.00000000000E+00 0. -1.
         21   -1    0    0  505  502  0.00000000000E+00 -0.00000000000E+00 -0.13976427580E+03  0.13976427580E+03  0.00000000000E+00 0.  1.
         21    1    1    2  503  501  0.32837395855E+02 -0.36476382155E+02  0.29700441136E+02  0.57366690904E+02  0.00000000000E+00 0. -1.
         21    1    1    2  504  503  0.58620900585E+02 -0.43003768519E+02 -0.56929472062E+01  0.72925604147E+02  0.00000000000E+00 0.  1.
         21    1    1    2  505  504  0.45178420691E+02 -0.62518012185E+02 -0.35080562457E+02  0.84736281521E+02  0.00000000000E+00 0.  1.
          2    1    1    2  501    0 -0.13663671713E+03  0.14199816286E+03  0.33670896130E+03  0.39013586780E+03  0.00000000000E+00 0. -1.
<scales pt_clust_3="34.05551" pt_clust_4="50.53585" pt_clust_5="50.53585" pt_clust_6="197.06108"></scales>
<clustering>
<clus scale="   34.056">  3  4 -1 -1</clus>
<clus scale="   50.536">  3  5 -1 -1</clus>
<clus scale="  197.061">  1  6  2 -1</clus>
<clus scale="  214.743">  2  3  1 -1</clus>
</clustering>
</event>
<event>
 6    0  0.2781617E+002  0.7134521E+02  0.7546771E-02  0.1355577E+00
          2   -1    0    0  505    0 -0.00000000000E+00  0.00000000000E+00  0.15692047364E+04  0.15692047364E+04  0.00000000000E+00 0. -1.
         21   -1    0    0  504  502  0.00000000000E+00 -0.00000000000E+00 -0.28161771377E+03  0.28161771377E+03  0.00000000000E+00 0. -1.
         21    1    1    2  503  502  0.19958152270E+02  0.48912852074E+02 -0.44608563397E+02  0.69142742702E+02  0.00000000000E+00 0. -1.
         21    1    1    2  504  501  0.32807876725E+02 -0.42902307087E+02 -0.65911551659E+02  0.85213246451E+02  0.00000000000E+00 0. -1.
         21    1    1    2  505  503 -0.11296400275E+03  0.31850517738E+02 -0.12513588879E+03  0.17156430882E+03  0.00000000000E+00 0. -1.
          2    1    1    2  501    0  0.60197973752E+02 -0.37861062725E+02  0.15232430264E+04  0.15249021522E+04  0.00000000000E+00 0. -1.
<scales pt_clust_3="52.82797" pt_clust_4="47.55685" pt_clust_5="71.34521" pt_clust_6="14000.00000"></scales>
<clustering>
<clus scale="   52.828">  2  3  1 -1</clus>
<clus scale="   47.557">  2  4  1 -1</clus>
<clus scale="   71.345">  2  5  1 -1</clus>
<clus scale="   52.828">  2  3  1 -1</clus>
</clustering>
</event>
<event>
 6    0  0.2781617E+002  0.1507978E+03  0.7546771E-02  0.1199496E+00
         -4   -1    0    0    0  501 -0.00000000000E+00  0.00000000000E+00  0.96995199710E+02  0.96995199710E+02  0.00000000000E+00 0.  1.
         21   -1    0    0  505  502  0.00000000000E+00 -0.00000000000E+00 -0.74835204527E+03  0.74835204527E+03  0.00000000000E+00 0. -1.
         21    1    1    2  503  504 -0.38593787586E+02  0.94993798958E+01 -0.88785379821E+02  0.97275702663E+02  0.00000000000E+00 0.  1.
         21    1    1    2  504  502 -0.93612089277E+02  0.75253940903E+02 -0.52471646391E+03  0.53828779141E+03  0.00000000000E+00 0. -1.
         21    1    1    2  505  501  0.91901580542E+02 -0.50966569692E+02 -0.88036942869E+02  0.13709119243E+03  0.00000000000E+00 0.  1.
         -4    1    1    2    0  503  0.40304296320E+02 -0.33786751106E+02  0.50181941038E+02  0.72692558481E+02  0.00000000000E+00 0.  1.
<scales pt_clust_3="30.95096" pt_clust_4="30.95096" pt_clust_5="140.87244" pt_clust_6="52.59259"></scales>
<clustering>
<clus scale="   30.951">  3  4 -1 -1</clus>
<clus scale="   52.593">  1  6  2 -1</clus>
<clus scale="  140.872">  1  5  2 -1</clus>
<clus scale="  150.798">  2  3  1 -1</clus>
</clustering>
</event>
<event>
 6    0  0.2781617E+002  0.1153676E+03  0.7546771E-02  0.1250941E+00
          1   -1    0    0  504    0 -0.00000000000E+00  0.00000000000E+00  0.80977677762E+03  0.80977677762E+03  0.00000000000E+00 0. -1.
         21   -1    0    0  503  502  0.00000000000E+00 -0.00000000000E+00 -0.49188279266E+03  0.49188279266E+03  0.00000000000E+00 0. -1.
         21    1    1    2  503  501 -0.27068869006E+02 -0.64716812676E+02 -0.59504677383E+02  0.91988021735E+02  0.00000000000E+00 0.  1.
         21    1    1    2  504  505  0.13769988631E+02  0.11116365493E+03 -0.43468406838E+02  0.12015187538E+03  0.00000000000E+00 0.  1.
         21    1    1    2  505  502  0.18685912828E+02 -0.11573190824E+03 -0.32237866210E+03  0.34303212634E+03  0.00000000000E+00 0. -1.
          1    1    1    2  501    0 -0.53870324526E+01  0.69285065980E+02  0.74324573128E+03  0.74648754682E+03  0.00000000000E+00 0. -1.
<scales pt_clust_3="55.24873" pt_clust_4="14000.00000" pt_clust_5="115.36756" pt_clust_6="69.49418"></scales>
<clustering>
<clus scale="   69.494">  1  6  2 -1</clus>
<clus scale="   55.249">  1  3  2 -1</clus>
<clus scale="  115.368">  2  5  1 -1</clus>
<clus scale="  115.368">  2  3  1 -1</clus>
</clustering>
</event>
<event>
 6    0  0.2781617E+002  0.7910510E+02  0.7546771E-02  0.1331610E+00
         21   -1    0    0  505  502  0.00000000000E+00  0.00000000000E+00  0.34316861188E+03  0.34316861188E+03  0.00000000000E+00 0. -1.
          1   -1    0    0  503    0 -0.00000000000E+00 -0.00000000000E+00 -0.14893468717E+03  0.14893468717E+03  0.00000000000E+00 0. -1.
         21    1    1    2  503  504  0.10613400478E+03  0.32607063815E+02  0.19347158935E+03  0.22306703806E+03  0.00000000000E+00 0. -1.
         21    1    1    2  504  502 -0.12430460376E+02 -0.60902730555E+02  0.31419352508E+02  0.69647933539E+02  0.00000000000E+00 0. -1.
         21    1    1    2  505  501 -0.27911047501E+02 -0.16434665992E+02  0.66407405925E+02  0.73885508597E+02  0.00000000000E+00 0. -1.
          1    1    1    2  501    0 -0.65792496905E+02  0.44730332733E+02 -0.97064423076E+02  0.12550281886E+03  0.00000000000E+00 0. -1.
<scales pt_clust_3="79.10510" pt_clust_4="66.32158" pt_clust_5="32.39020" pt_clust_6="14000.00000"></scales>
<clustering>
<clus scale="   32.390">  1  5  2 -1</clus>
<clus scale="   66.322">  1  4  2 -1</clus>
<clus scale="   79.105">  1  3  2 -1</clus>
<clus scale="   32.390">  1  3  2 -1</clus>
</clustering>
</event>
<event>
 6    0  0.2781617E+002  0.9480513E+02  0.7546771E-02  0.1291616E+00
          1   -1    0    0  503    0 -0.00000000000E+00  0.00000000000E+00  0.12176257506E+04  0.12176257506E+04  0.00000000000E+00 0. -1.
         21   -1    0    0  504  502  0.00000000000E+00 -0.00000000000E+00 -0.25230685544E+02  0.25230685544E+02  0.00000000000E+00 0. -1.
         21    1    1    2  503  502  0.22059517833E+02 -0.27481272471E+02  0.17338518787E+03  0.17693011625E+03  0.00000000000E+00 0. -1.
         21    1    1    2  504  505 -0.12669809671E+02 -0.37592600526E+02  0.17880222287E+02  0.43513561569E+02  0.00000000000E+00 0. -1.
         21    1    1    2  505  501 -0.69907904669E+02 -0.33965961884E+02  0.23444521405E+03  0.24699263166E+03  0.00000000000E+00 0. -1.
          1    1    1    2  501    0  0.60518196507E+02  0.99039834881E+02  0.76668444084E+03  0.77542012666E+03  0.00000000000E+00 0. -1.
<scales pt_clust_3="35.23979" pt_clust_4="40.23911" pt_clust_5="94.80513" pt_clust_6="14000.00000"></scales>
<clustering>
<clus scale="   35.240">  1  3  2 -1</clus>
<clus scale="   40.239">  2  4  1 -1</clus>
<clus scale="   94.805">  2  5  1 -1</clus>
<clus scale="   40.239">  2  3  1 -1</clus>
</clustering>
</event>
<event>
 6    0  0.2781617E+002  0.1336071E+03  0.7546771E-02  0.1222200E+00
         21   -1    0    0  504  502  0.00000000000E+00  0.00000000000E+00  0.16875838449E+03  0.16875838449E+03  0.00000000000E+00 0. -1.
          3   -1    0    0  505    0 -0.00000000000E+00 -0.00000000000E+00 -0.62148771648E+03  0.62148771648E+03  0.00000000000E+00 0. -1.
         21    1    1    2  503  502  0.52207544460E+01 -0.44256334211E+02 -0.17640525198E+02  0.47927732306E+02  0.00000000000E+00 0. -1.
         21    1    1    2  504  501 -0.47527855723E+02 -0.13975234339E+02 -0.27455496534E+02  0.56639284374E+02  0.00000000000E+00 0.  1.
         21    1    1    2  505  503  0.11565512756E+03 -0.55336917004E+02  0.98576332675E+02  0.16172685701E+03  0.00000000000E+00 0. -1.
          3    1    1    2  501    0 -0.73348026287E+02  0.11356848555E+03 -0.50620964293E+03  0.52395222727E+03  0.00000000000E+00 0. -1.
<scales pt_clust_3="44.56321" pt_clust_4="50.42306" pt_clust_5="133.60709" pt_clust_6="14000.00000"></scales>
<clustering>
<clus scale="   44.563">  1  3  2 -1</clus>
<clus scale="   50.423">  1  4  2 -1</clus>
<clus scale="  133.607">  1  5  2 -1</clus>
<clus scale="   44.563">  1  3  2 -1</clus>
</clustering>
</event>
<event>
 6    0  0.2781617E+002  0.9531062E+02  0.7546771E-02  0.1290478E+00
         21   -1    0    0  505  502  0.00000000000E+00  0.00000000000E+00  0.18077475086E+02  0.18077475086E+02  0.00000000000E+00 0.  1.
          2   -1    0    0  503    0 -0.00000000000E+00 -0.00000000000E+00 -0.29938679779E+04  0.29938679779E+04  0.00000000000E+00 0.  1.
         21    1    1    2  503  502 -0.54589088407E+02  0.32025999462E+02 -0.42650095812E+03  0.43117131223E+03  0.00000000000E+00 0.  1.
         21    1    1    2  504  501 -0.27857689264E+02 -0.55230824411E+02 -0.20712169890E+03  0.21616172874E+03  0.00000000000E+00 0. -1.
         21    1    1    2  505  504 -0.42891206518E+02  0.72703298637E+01 -0.40366838332E+02  0.59346397783E+02  0.00000000000E+00 0.  1.
          2    1    1    2  501    0  0.12533798419E+03  0.15934495086E+02 -0.23018010075E+04  0.23052660142E+04  0.00000000000E+00 0.  1.
<scales pt_clust_3="14000.00000" pt_clust_4="72.01296" pt_clust_5="43.50303" pt_clust_6="95.31062"></scales>
<clustering>
<clus scale="   43.503">  1  5  2 -1</clus>
<clus scale="   72.013">  1  4  2 -1</clus>
<clus scale="   95.311">  2  6  1 -1</clus>
<clus scale="   43.503">  1  3  2 -1</clus>
</clustering>
</event>
<event>
 6    0  0.2781617E+002  0.1667965E+03  0.7546771E-02  0.1181230E+00
          2   -1    0    0  504    0 -0.00000000000E+00  0.00000000000E+00  0.33465654782E+04  0.33465654782E+04  0.00000000000E+00 0.  1.
         21   -1    0    0  503  502  0.00000000000E+00 -0.00000000000E+00 -0.45864384004E+02  0.45864384004E+02  0.00000000000E+00 0. -1.
         21    1    1    2  503  505 -0.50526179386E+02  0.50619292051E+02  0.35448014196E+02  0.79823362756E+02  0.00000000000E+00 0. -1.
         21    1    1    2  504  502  0.24774100294E+02  0.79947145896E+02  0.17621763362E+03  0.19508448575E+03  0.00000000000E+00 0.  1.
         21    1    1    2  505  501 -0.53700660219E+02  0.14643598066E+02  0.52615209660E+02  0.76593447238E+02  0.00000000000E+00 0. -1.
          2    1    1    2  501    0  0.79452739312E+02 -0.14521003601E+03  0.30364202367E+04  0.30409285664E+04  0.00000000000E+00 0.  1.
<scales pt_clust_3="35.16169" pt_clust_4="83.69768" pt_clust_5="35.16169" pt_clust_6="161.96441"></scales>
<clustering>
<clus scale="   35.162">  3  5 -1 -1</clus>
<clus scale="   83.698">  2  4  1 -1</clus>
<clus scale="  161.964">  1  6  2 -1</clus>
<clus scale="   83.698">  2  3  1 -1</clus>
</clustering>
</event>
<event>
 6    0  0.2781617E+002  0.1735749E+03  0.7546771E-02  0.1174170E+00
          2   -1    0    0  503    0 -0.00000000000E+00  0.00000000000E+00  0.49769413368E+03  0.49769413368E+03  0.00000000000E+00 0. -1.
         21   -1    0    0  505  502  0.00000000000E+00 -0.00000000000E+00 -0.42124066634E+03  0.42124066634E+03  0.00000000000E+00 0. -1.
         21    1    1    2  503  504  0.15987258401E+03  0.47217397015E+02  0.64159201471E+02  0.17862006839E+03  0.00000000000E+00 0. -1.
         21    1    1    2  504  502 -0.15706883987E+03 -0.47757873306E+02 -0.27962741989E+03  0.32425750396E+03  0.00000000000E+00 0. -1.
         21    1    1    2  505  501  0.26457829378E+01 -0.45951636183E+02 -0.51723902450E+02  0.69238104538E+02  0.00000000000E+00 0. -1.
          2    1    1    2  501    0 -0.54495270780E+01  0.46492112475E+02  0.34364558821E+03  0.34681912313E+03  0.00000000000E+00 0. -1.
<scales pt_clust_3="173.57492" pt_clust_4="14000.00000" pt_clust_5="46.02774" pt_clust_6="46.60831"></scales>
<clustering>
<clus scale="   46.028">  2  5  1 -1</clus>
<clus scale="   46.608">  1  6  2 -1</clus>
<clus scale="  173.575">  1  3  2 -1</clus>
<clus scale="   46.028">  2  3  1 -1</clus>
</clustering>
</event>
<event>
 6    0  0.2781617E+002  0.7468395E+02  0.7546771E-02  0.1344853E+00
          2   -1    0    0  503    0 -0.00000000000E+00  0.00000000000E+00  0.12878903639E+04  0.12878903639E+04  0.00000000000E+00 0.  1.
         21   -1    0    0  504  502  0.00000000000E+00 -0.00000000000E+00 -0.34474976399E+03  0.34474976399E+03  0.00000000000E+00 0.  1.
         21    1    1    2  503  505  0.57831420778E+02  0.86024026852E+02 -0.78728604885E+02  0.13016450996E+03  0.00000000000E+00 0.  1.
         21    1    1    2  504  501 -0.25005281355E+02 -0.31296332580E+02 -0.19470923810E+02  0.44540334559E+02  0.00000000000E+00 0.  1.
         21    1    1    2  505  502 -0.63292745578E+02 -0.30861839202E+02 -0.20203675045E+03  0.21395624155E+03  0.00000000000E+00 0.  1.
          2    1    1    2  501    0  0.30466606155E+02 -0.23865855070E+02  0.12433768790E+04  0.12439790418E+04  0.00000000000E+00 0.  1.
<scales pt_clust_3="14000.00000" pt_clust_4="41.43259" pt_clust_5="74.68395" pt_clust_6="38.70133"></scales>
<clustering>
<clus scale="   38.701">  1  6  2 -1</clus>
<clus scale="   41.433">  1  4  2 -1</clus>
<clus scale="   74.684">  2  5  1 -1</clus>
<clus scale="   74.684">  2  3  1 -1</clus>
</clustering>
</event>
<event>
 6    0  0.2781617E+002  0.1036753E+03  0.7546771E-02  0.1272752E+00
         21   -1    0    0  504  502  0.00000000000E+00  0.00000000000E+00  0.43794273317E+02  0.43794273317E+02  0.00000000000E+00 0.  1.
          2   -1    0    0  503    0 -0.00000000000E+00 -0.00000000000E+00 -0.12903408554E+04  0.12903408554E+04  0.00000000000E+00 0.  1.
         21    1    1    2  503  502  0.24338396345E+02  0.19518015033E+02 -0.98162136780E+02  0.10300056089E+03  0.00000000000E+00 0. -1.
         21    1    1    2  504  505  0.41474971070E+02  0.54734750446E+01 -0.44871105486E+01  0.42074532860E+02  0.00000000000E+00 0.  1.
         21    1    1    2  505  501  0.41295989112E+02  0.41922014601E+02 -0.26481144967E+02  0.64529567361E+02  0.00000000000E+00 0.  1.
          2    1    1    2  501    0 -0.10710935653E+03 -0.66913504679E+02 -0.11174161898E+04  0.11245304676E+04  0.00000000000E+00 0.  1.
<scales pt_clust_3="31.19792" pt_clust_4="30.49442" pt_clust_5="30.49442" pt_clust_6="97.16235"></scales>
<clustering>
<clus scale="   30.494">  4  5 -1 -1</clus>
<clus scale="   31.198">  2  3  1 -1</clus>
<clus scale="   97.162">  2  6  1 -1</clus>
<clus scale="  103.675">  1  3  2 -1</clus>
</clustering>
</event>
<event>
 6    0  0.2781617E+002  0.1771157E+03  0.7546771E-02  0.1170624E+00
         21   -1    0    0  504  502  0.00000000000E+00  0.00000000000E+00  0.39470642000E+03  0.39470642000E+03  0.00000000000E+00 0.  1.
          2   -1    0    0  503    0 -0.00000000000E+00 -0.00000000000E+00 -0.29895299940E+03  0.29895299940E+03  0.00000000000E+00 0.  1.
         21    1    1    2  503  505 -0.14697182295E+02 -0.14728938838E+03  0.18438146732E+02  0.14916479595E+03  0.00000000000E+00 0.  1.
         21    1    1    2  504  501  0.28647116972E+02 -0.14956908510E+02  0.12369132750E+03  0.12784330613E+03  0.00000000000E+00 0.  1.
         21    1    1    2  505  502 -0.99617160022E+02 -0.14359102967E+02  0.12191878613E+03  0.15809475899E+03  0.00000000000E+00 0.  1.
          2    1    1    2  501    0  0.85667225345E+02  0.17660539986E+03 -0.16829483977E+03  0.25855655832E+03  0.00000000000E+00 0.  1.
<scales pt_clust_3="177.11565" pt_clust_4="32.31666" pt_clust_5="87.55087" pt_clust_6="14000.00000"></scales>
<clustering>
<clus scale="   32.317">  1  4  2 -1</clus>
<clus scale="   87.551">  1  5  2 -1</clus>
<clus scale="  177.116">  1  3  2 -1</clus>
<clus scale="   32.317">  1  3  2 -1</clus>
</clustering>
</event>
<event>
 6    0  0.2781617E+002  0.1702490E+03  0.7546771E-02  0.1177588E+00
         21   -1    0    0  503  502  0.00000000000E+00  0.00000000000E+00  0.41228769026E+03  0.41228769026E+03  0.00000000000E+00 0.  1.
         -2   -1    0    0    0  501 -0.00000000000E+00 -0.00000000000E+00 -0.35479417291E+03  0.35479417291E+03  0.00000000000E+00 0.  1.
         21    1    1    2  503  504  0.86438429891E+02  0.12786879046E+02  0.90457700470E+02  0.12576844601E+03  0.00000000000E+00 0. -1.
         21    1    1    2  504  501  0.49428071134E+02 -0.11846349639E+02  0.23893776476E+02  0.56163892049E+02  0.00000000000E+00 0. -1.
         21    1    1    2  505  502  0.27283378124E+02 -0.52652723137E+02  0.23742383150E+03  0.24471773074E+03  0.00000000000E+00 0.  1.
         -2    1    1    2    0  505 -0.16314987915E+03  0.51712193730E+02 -0.29428179109E+03  0.34043179437E+03  0.00000000000E+00 0.  1.
<scales pt_clust_3="30.14814" pt_clust_4="30.14814" pt_clust_5="59.30170" pt_clust_6="165.59650"></scales>
<clustering>
<clus scale="   30.148">  3  4 -1 -1</clus>
<clus scale="   59.302">  1  5  2 -1</clus>
<clus scale="  165.597">  2  6  1 -1</clus>
<clus scale="   59.302">  1  3  2 -1</clus>
</clustering>
</event>
<event>
 6    0  0.2781617E+002  0.1160882E+03  0.7546771E-02  0.1249693E+00
         -1   -1    0    0    0  501 -0.00000000000E+00  0.00000000000E+00  0.31470548778E+03  0.31470548778E+03  0.00000000000E+00 0.  1.
         21   -1    0    0  504  502  0.00000000000E+00 -0.00000000000E+00 -0.56906026778E+03  0.56906026778E+03  0.00000000000E+00 0.  1.
         21    1    1    2  503  502 -0.94058193088E+02  0.31999503197E+02 -0.42914500505E+03  0.44049557007E+03  0.00000000000E+00 0.  1.
         21    1    1    2  504  501 -0.48867165079E+02  0.41984542390E+01 -0.39706000674E+02  0.63104622100E+02  0.00000000000E+00 0.  1.
         21    1    1    2  505  503  0.94680215897E+02  0.12925486142E+02 -0.49303886529E+02  0.10752806471E+03  0.00000000000E+00 0.  1.
         -1    1    1    2    0  505  0.48245142270E+02 -0.49123443578E+02  0.26380011225E+03  0.27263749868E+03  0.00000000000E+00 0.  1.
<scales pt_clust_3="116.08825" pt_clust_4="49.04719" pt_clust_5="14000.00000" pt_clust_6="68.53548"></scales>
<clustering>
<clus scale="   49.047">  2  4  1 -1</clus>
<clus scale="   68.535">  1  6  2 -1</clus>
<clus scale="  116.088">  2  3  1 -1</clus>
<clus scale="   49.047">  2  3  1 -1</clus>
</clustering>
</event>
<event>
 6    0  0.2781617E+002  0.1085005E+03  0.7546771E-02  0.1263372E+00
          2   -1    0    0  503    0 -0.00000000000E+00  0.00000000000E+00  0.74259304395E+03  0.74259304395E+03  0.00000000000E+00 0. -1.
         21   -1    0    0  504  502  0.00000000000E+00 -0.00000000000E+00 -0.24696941202E+03  0.24696941202E+03  0.00000000000E+00 0.  1.
         21    1    1    2  503  502  0.25240209896E+02 -0.20348591315E+02 -0.12022837877E+02  0.34578634946E+02  0.00000000000E+00 0. -1.
         21    1    1    2  504  505 -0.46534457581E+02 -0.89433165792E+01 -0.10893289953E+03  0.11879316165E+03  0.00000000000E+00 0.  1.
         21    1    1    2  505  501 -0.77185868198E+02  0.14949423468E+02 -0.91794095579E+02  0.12086066149E+03  0.00000000000E+00 0.  1.
          2    1    1    2  501    0  0.98480115883E+02  0.14342484426E+02  0.70837346491E+03  0.71532999789E+03  0.00000000000E+00 0. -1.
<scales pt_clust_3="32.42119" pt_clust_4="32.68699" pt_clust_5="32.68699" pt_clust_6="99.86254"></scales>
<clustering>
<clus scale="   32.421">  2  3  1 -1</clus>
<clus scale="   32.687">  4  5 -1 -1</clus>
<clus scale="   99.863">  1  6  2 -1</clus>
<clus scale="   32.421">  2  3  1 -1</clus>
</clustering>
</event>
<event>
 6    0  0.2781617E+002  0.1361366E+03  0.7546771E-02  0.1218624E+00
          2   -1    0    0  505    0 -0.00000000000E+00  0.00000000000E+00  0.25758779762E+04  0.25758779762E+04  0.00000000000E+00 0. -1.
         21   -1    0    0  504  502  0.00000000000E+00 -0.00000000000E+00 -0.10527690147E+03  0.10527690147E+03  0.00000000000E+00 0.  1.
         21    1    1    2  503  502 -0.52234633366E+01 -0.50299982630E+02 -0.35645692618E+02  0.61870738027E+02  0.00000000000E+00 0.  1.
         21    1    1    2  504  501 -0.93320643837E+02 -0.64674161922E+02  0.54170787287E+02  0.12580128768E+03  0.00000000000E+00 0.  1.
         21    1    1    2  505  503  0.75055392722E+02  0.13479478937E+03  0.26834128950E+03  0.30953189637E+03  0.00000000000E+00 0.  1.
          2    1    1    2  501    0  0.23488714452E+02 -0.19820644822E+02  0.21837346906E+04  0.21839509556E+04  0.00000000000E+00 0. -1.
<scales pt_clust_3="51.15579" pt_clust_4="136.13663" pt_clust_5="14000.00000" pt_clust_6="30.73398"></scales>
<clustering>
<clus scale="   30.734">  1  6  2 -1</clus>
<clus scale="   51.156">  2  3  1 -1</clus>
<clus scale="  136.137">  2  4  1 -1</clus>
<clus scale="   51.156">  2  3  1 -1</clus>
</clustering>
</event>
<event>
 6    0  0.2781617E+002  0.1730721E+03  0.7546771E-02  0.1174681E+00
         21   -1    0    0  505  502  0.00000000000E+00  0.00000000000E+00  0.39311366884E+03  0.39311366884E+03  0.00000000000E+00 0. -1.
          2   -1    0    0  503    0 -0.00000000000E+00 -0.00000000000E+00 -0.11515266718E+04  0.11515266718E+04  0.00000000000E+00 0. -1.
         21    1    1    2  503  502 -0.10176573191E+03 -0.11084298212E+03  0.24052430966E+03  0.28371530521E+03  0.00000000000E+00 0. -1.
         21    1    1    2  504  501  0.64604604870E+02  0.75504027491E+02  0.62977268803E+02  0.11764671489E+03  0.00000000000E+00 0. -1.
         21    1    1    2  505  504  0.51952040523E+02  0.73407054633E+02 -0.99035078100E+01  0.90474801195E+02  0.00000000000E+00 0. -1.
          2    1    1    2  501    0 -0.14790913484E+02 -0.38068100005E+02 -0.10520110736E+04  0.10528035193E+04  0.00000000000E+00 0. -1.
<scales pt_clust_3="158.79600" pt_clust_4="61.12758" pt_clust_5="61.12758" pt_clust_6="40.84056"></scales>
<clustering>
<clus scale="   40.841">  2  6  1 -1</clus>
<clus scale="   61.128">  4  5 -1 -1</clus>
<clus scale="  158.796">  1  3  2 -1</clus>
<clus scale="  158.796">  1  3  2 -1</clus>
</clustering>
</event>
<event>
 6    0  0.2781617E+002  0.1920723E+03  0.7546771E-02  0.1156605E+00
          2   -1    0    0  504    0 -0.00000000000E+00  0.00000000000E+00  0.45470509849E+03  0.45470509849E+03  0.00000000000E+00 0.  1.
         21   -1    0    0  505  502  0.00000000000E+00 -0.00000000000E+00 -0.11276748763E+04  0.11276748763E+04  0.00000000000E+00 0. -1.
         21    1    1    2  503  502  0.52119017024E+02 -0.47724058930E+02 -0.30944571976E+03  0.31741239928E+03  0.00000000000E+00 0. -1.
         21    1    1    2  504  503  0.41470856551E+02 -0.11724609943E+03 -0.67227802862E+03  0.68368430401E+03  0.00000000000E+00 0. -1.
         21    1    1    2  505  501 -0.37484019902E+02  0.16526922867E+03 -0.80776135794E+02  0.18773319847E+03  0.00000000000E+00 0.  1.
          2    1    1    2  501    0 -0.56105853673E+02 -0.29907030946E+00  0.38953010634E+03  0.39355007306E+03  0.00000000000E+00 0.  1.
<scales pt_clust_3="37.22703" pt_clust_4="37.22703" pt_clust_5="185.61491" pt_clust_6="56.10665"></scales>
<clustering>
<clus scale="   37.227">  3  4 -1 -1</clus>
<clus scale="   56.107">  1  6  2 -1</clus>
<clus scale="  185.615">  1  5  2 -1</clus>
<clus scale="  192.072">  2  3  1 -1</clus>
</clustering>
</event>
<event>
 6    0  0.2781617E+002  0.1317584E+03  0.7546771E-02  0.1224870E+00
          1   -1    0    0  504    0 -0.00000000000E+00  0.00000000000E+00  0.50303200022E+03  0.50303200022E+03  0.00000000000E+00 0. -1.
         21   -1    0    0  503  502  0.00000000000E+00 -0.00000000000E+00 -0.27892121375E+03  0.27892121375E+03  0.00000000000E+00 0. -1.
         21    1    1    2  503  505  0.88198344293E+02  0.12245534279E+03 -0.19685726796E+03  0.24804645303E+03  0.00000000000E+00 0. -1.
         21    1    1    2  504  502  0.48814108042E+01 -0.33951340620E+02  0.30082879127E+02  0.45623473321E+02  0.00000000000E+00 0. -1.
         21    1    1    2  505  501 -0.77186910244E+02 -0.59784460564E+02  0.16289042763E+01  0.97645553750E+02  0.00000000000E+00 0.  1.
          1    1    1    2  501    0 -0.15892844853E+02 -0.28719541606E+02  0.38925627103E+03  0.39063773387E+03  0.00000000000E+00 0. -1.
<scales pt_clust_3="131.75839" pt_clust_4="43.56690" pt_clust_5="14000.00000" pt_clust_6="32.82369"></scales>
<clustering>
<clus scale="   32.824">  1  6  2 -1</clus>
<clus scale="   43.567">  1  4  2 -1</clus>
<clus scale="  131.758">  2  3  1 -1</clus>
<clus scale="  131.758">  2  3  1 -1</clus>
</clustering>
</event>
<event>
 6    0  0.2781617E+002  0.1416398E+03  0.7546771E-02  0.1211139E+00
         21   -1    0    0  505  502  0.00000000000E+00  0.00000000000E+00  0.57450852083E+03  0.57450852083E+03  0.00000000000E+00 0.  1.
          1   -1    0    0  503    0 -0.00000000000E+00 -0.00000000000E+00 -0.13757620529E+04  0.13757620529E+04  0.00000000000E+00 0. -1.
         21    1    1    2  503  502  0.20585262449E+02  0.51044490866E+02 -0.44758087990E+01  0.55220702117E+02  0.00000000000E+00 0. -1.
         21    1    1    2  504  501  0.75339571652E+01 -0.14212861614E+03  0.43400707472E+03  0.45674877662E+03  0.00000000000E+00 0.  1.
         21    1    1    2  505  504  0.52878567283E+02 -0.25323277974E+02  0.91369839628E+02  0.10856269561E+03  0.00000000000E+00 0.  1.
          1    1    1    2  501    0 -0.80997786897E+02  0.11640740325E+03 -0.13221546376E+04  0.13297383994E+04  0.00000000000E+00 0. -1.
<scales pt_clust_3="55.03901" pt_clust_4="141.63984" pt_clust_5="58.85145" pt_clust_6="14000.00000"></scales>
<clustering>
<clus scale="   55.039">  1  3  2 -1</clus>
<clus scale="   58.851">  1  5  2 -1</clus>
<clus scale="  141.640">  1  4  2 -1</clus>
<clus scale="   55.039">  1  3  2 -1</clus>
</clustering>
</event>
<event>
 6    0  0.2781617E+002  0.2607692E+03  0.7546771E-02  0.1106682E+00
         21   -1    0    0  503  502  0.00000000000E+00  0.00000000000E+00  0.37641549858E+03  0.37641549858E+03  0.00000000000E+00 0. -1.
          1   -1    0    0  504    0 -0.00000000000E+00 -0.00000000000E+00 -0.11942505965E+04  0.11942505965E+04  0.00000000000E+00 0. -1.
         21    1    1    2  503  505  0.22841603658E+03 -0.94731424478E+02 -0.12726871287E+03  0.27811014694E+03  0.00000000000E+00 0. -1.
         21    1    1    2  504  502 -0.22932192545E+03  0.13346285945E+03  0.22891701801E+03  0.35043384751E+03  0.00000000000E+00 0. -1.
         21    1    1    2  505  501 -0.28407404532E+02 -0.28399310259E+02 -0.25457579994E+02  0.47556175568E+02  0.00000000000E+00 0. -1.
          1    1    1    2  501    0  0.29313293397E+02 -0.10332124710E+02 -0.89402582309E+03  0.89456592508E+03  0.00000000000E+00 0. -1.
<scales pt_clust_3="260.76918" pt_clust_4="14000.00000" pt_clust_5="38.68513" pt_clust_6="31.08089"></scales>
<clustering>
<clus scale="   31.081">  2  6  1 -1</clus>
<clus scale="   38.685">  2  5  1 -1</clus>
<clus scale="  260.769">  2  3  1 -1</clus>
<clus scale="  260.769">  1  3  2 -1</clus>
</clustering>
</event>
<event>
 6    0  0.2781617E+002  0.7948681E+02  0.7546771E-02  0.1330514E+00
         -4   -1    0    0    0  501 -0.00000000000E+00  0.00000000000E+00  0.83488009354E+02  0.83488009354E+02  0.00000000000E+00 0.  1.
         21   -1    0    0  504  502  0.00000000000E+00 -0.00000000000E+00 -0.33447640451E+03  0.33447640451E+03  0.00000000000E+00 0. -1.
         21    1    1    2  503  505  0.75966595486E+02 -0.38691462245E+02 -0.39489054496E+02  0.93953915860E+02  0.00000000000E+00 0. -1.
         21    1    1    2  504  501  0.42403197753E+01  0.52820209967E+02 -0.24537433316E+02  0.58395552283E+02  0.00000000000E+00 0. -1.
         21    1    1    2  505  502 -0.60406640861E+02  0.49719050561E+02 -0.18256546646E+03  0.19862299915E+03  0.00000000000E+00 0. -1.
         -4    1    1    2    0  503 -0.19800274400E+02 -0.63847798282E+02 -0.43964408794E+01  0.66991946562E+02  0.00000000000E+00 0.  1.
<scales pt_clust_3="14000.00000" pt_clust_4="52.99014" pt_clust_5="79.48681" pt_clust_6="42.88210"></scales>
<clustering>
<clus scale="   52.990">  1  4  2 -1</clus>
<clus scale="   42.882">  1  6  2 -1</clus>
<clus scale="   79.487">  2  5  1 -1</clus>
<clus scale="   79.487">  2  3  1 -1</clus>
</clustering>
</event>
<event>
 6    0  0.2781617E+002  0.7925601E+02  0.7546771E-02  0.1331176E+00
         21   -1    0    0  503  502  0.00000000000E+00  0.00000000000E+00  0.12898574981E+04  0.12898574981E+04  0.00000000000E+00 0.  1.
          2   -1    0    0  504    0 -0.00000000000E+00 -0.00000000000E+00 -0.98854501502E+03  0.98854501502E+03  0.00000000000E+00 0. -1.
         21    1    1    2  503  505 -0.57277181809E+02 -0.17699331705E+02  0.54413090872E+03  0.54742340809E+03  0.00000000000E+00 0.  1.
         21    1    1    2  504  502  0.64569140254E+02 -0.11327517601E+02  0.49597044808E+03  0.50028409119E+03  0.00000000000E+00 0.  1.
         21    1    1    2  505  501 -0.78202720402E+02 -0.64674609453E+01  0.23804642390E+03  0.25064635138E+03  0.00000000000E+00 0.  1.
          2    1    1    2  501    0  0.70910761956E+02  0.35494310251E+02 -0.97683529759E+03  0.98004866249E+03  0.00000000000E+00 0. -1.
<scales pt_clust_3="59.94949" pt_clust_4="34.99831" pt_clust_5="79.25601" pt_clust_6="14000.00000"></scales>
<clustering>
<clus scale="   59.949">  1  3  2 -1</clus>
<clus scale="   34.998">  1  4  2 -1</clus>
<clus scale="   79.256">  1  5  2 -1</clus>
<clus scale="   59.949">  1  3  2 -1</clus>
</clustering>
</event>
<event>
 6    0  0.2781617E+002  0.1578044E+03  0.7546771E-02  0.1191198E+00
          2   -1    0    0  503    0 -0.00000000000E+00  0.00000000000E+00  0.28266858890E+04  0.28266858890E+04  0.00000000000E+00 0. -1.
         21   -1    0    0  504  502  0.00000000000E+00 -0.00000000000E+00 -0.18095693971E+03  0.18095693971E+03  0.00000000000E+00 0.  1.
         21    1    1    2  503  502  0.80941644967E+02  0.73864133907E+02  0.40226246229E+02  0.11672879274E+03  0.00000000000E+00 0.  1.
         21    1    1    2  504  505 -0.14224889186E+03 -0.15029236712E+03 -0.54794340115E+02  0.21406765883E+03  0.00000000000E+00 0.  1.
         21    1    1    2  505  501  0.29377437602E+02  0.92541669489E+02  0.28137777046E+03  0.29765826738E+03  0.00000000000E+00 0.  1.
          2    1    1    2  501    0  0.31929809291E+02 -0.16113436279E+02  0.23789192727E+04  0.23791881097E+04  0.00000000000E+00 0. -1.
<scales pt_clust_3="14000.00000" pt_clust_4="157.80435" pt_clust_5="96.15906" pt_clust_6="35.76528"></scales>
<clustering>
<clus scale="   35.765">  1  6  2 -1</clus>
<clus scale="   96.159">  1  5  2 -1</clus>
<clus scale="  157.804">  1  4  2 -1</clus>
<clus scale="  157.804">  2  3  1 -1</clus>
</clustering>
</event>
<event>
 6    0  0.2781617E+002  0.1143279E+03  0.7546771E-02  0.1252759E+00
          2   -1    0    0  503    0 -0.00000000000E+00  0.00000000000E+00  0.59837652456E+03  0.59837652456E+03  0.00000000000E+00 0.  1.
         21   -1    0    0  505  502  0.00000000000E+00 -0.00000000000E+00 -0.10488377134E+04  0.10488377134E+04  0.00000000000E+00 0. -1.
         21    1    1    2  503  502 -0.87504318718E+01  0.58142352406E+02 -0.88024670129E+02  0.10585577808E+03  0.00000000000E+00 0.  1.
         21    1    1    2  504  501 -0.53205862137E+02 -0.50412811580E+02 -0.88764715845E+03  0.89066817236E+03  0.00000000000E+00 0. -1.
         21    1    1    2  505  504 -0.50640879914E+02  0.14601264874E+02 -0.44839531441E+02  0.69197393262E+02  0.00000000000E+00 0. -1.
          2    1    1    2  501    0  0.11259717392E+03 -0.22330805701E+02  0.57005017117E+03  0.58149289429E+03  0.00000000000E+00 0.  1.
<scales pt_clust_3="61.12458" pt_clust_4="14000.00000" pt_clust_5="52.70385" pt_clust_6="114.32790"></scales>
<clustering>
<clus scale="   52.704">  2  5  1 -1</clus>
<clus scale="   61.125">  2  3  1 -1</clus>
<clus scale="  114.328">  1  6  2 -1</clus>
<clus scale="   52.704">  2  3  1 -1</clus>
</clustering>
</event>
<event>
 6    0  0.2781617E+002  0.8589242E+02  0.7546771E-02  0.1313115E+00
          2   -1    0    0  504    0 -0.00000000000E+00  0.00000000000E+00  0.21893577568E+04  0.21893577568E+04  0.00000000000E+00 0. -1.
         21   -1    0    0  503  502  0.00000000000E+00 -0.00000000000E+00 -0.51442395658E+02  0.51442395658E+02  0.00000000000E+00 0.  1.
         21    1    1    2  503  505  0.47833429872E+02  0.72900574412E+02  0.13058974322E+02  0.88165001975E+02  0.00000000000E+00 0.  1.
         21    1    1    2  504  502 -0.25901211602E+02 -0.79184153982E+02  0.18159633490E+03  0.19979547506E+03  0.00000000000E+00 0. -1.
         21    1    1    2  505  501 -0.19208743108E+02  0.42632167701E+02  0.11400937665E+03  0.12322587188E+03  0.00000000000E+00 0. -1.
          2    1    1    2  501    0 -0.27234751619E+01 -0.36348588132E+02  0.18292506753E+04  0.18296138035E+04  0.00000000000E+00 0. -1.
<scales pt_clust_3="14000.00000" pt_clust_4="85.89242" pt_clust_5="36.65888" pt_clust_6="36.45048"></scales>
<clustering>
<clus scale="   36.450">  1  6  2 -1</clus>
<clus scale="   36.659">  1  5  2 -1</clus>
<clus scale="   85.892">  1  4  2 -1</clus>
<clus scale="   85.892">  2  3  1 -1</clus>
</clustering>
</event>
<event>
 6    0  0.2781617E+002  0.1467699E+03  0.7546771E-02  0.1204499E+00
         21   -1    0    0  501  502  0.00000000000E+00  0.00000000000E+00  0.18212699453E+03  0.18212699453E+03  0.00000000000E+00 0. -1.
          2   -1    0    0  503    0 -0.00000000000E+00 -0.00000000000E+00 -0.71197499179E+03  0.71197499179E+03  0.00000000000E+00 0. -1.
         21    1    1    2  503  505 -0.76612192684E+01 -0.11755252449E+03 -0.13555620503E+03  0.17959057609E+03  0.00000000000E+00 0.  1.
         21    1    1    2  504  502 -0.43923713016E+02  0.90785403971E+02  0.11797975938E+03  0.15521116507E+03  0.00000000000E+00 0. -1.
         21    1    1    2  505  504 -0.18189014038E+02  0.35105834634E+02  0.26303103269E+01  0.39625476520E+02  0.00000000000E+00 0. -1.
          2    1    1    2  501    0  0.69773946323E+02 -0.83387141111E+01 -0.51490186193E+03  0.51967476864E+03  0.00000000000E+00 0. -1.
<scales pt_clust_3="133.54202" pt_clust_4="38.12675" pt_clust_5="38.12675" pt_clust_6="70.27046"></scales>
<clustering>
<clus scale="   38.127">  4  5 -1 -1</clus>
<clus scale="   70.270">  2  6  1 -1</clus>
<clus scale="  133.542">  2  3  1 -1</clus>
<clus scale="  146.770">  1  3  2 -1</clus>
</clustering>
</event>
<event>
 6    0  0.2781617E+002  0.7727222E+02  0.7546771E-02  0.1336976E+00
         21   -1    0    0  504  502  0.00000000000E+00  0.00000000000E+00  0.23745097052E+03  0.23745097052E+03  0.00000000000E+00 0.  1.
          2   -1    0    0  503    0 -0.00000000000E+00 -0.00000000000E+00 -0.14574842124E+04  0.14574842124E+04  0.00000000000E+00 0. -1.
         21    1    1    2  503  505  0.89263135971E+02 -0.63333953522E+02 -0.49297686675E+03  0.50498048305E+03  0.00000000000E+00 0. -1.
         21    1    1    2  504  501 -0.13516517272E+02 -0.27876147376E+02 -0.27642178099E+02  0.41519463409E+02  0.00000000000E+00 0.  1.
         21    1    1    2  505  502 -0.47506551041E+02  0.70563935795E+02  0.21610677639E+03  0.23224616300E+03  0.00000000000E+00 0.  1.
          2    1    1    2  501    0 -0.28240067658E+02  0.20646165103E+02 -0.91552097338E+03  0.91618907342E+03  0.00000000000E+00 0. -1.
<scales pt_clust_3="14000.00000" pt_clust_4="30.98025" pt_clust_5="77.27222" pt_clust_6="34.97436"></scales>
<clustering>
<clus scale="   30.980">  1  4  2 -1</clus>
<clus scale="   34.974">  2  6  1 -1</clus>
<clus scale="   77.272">  1  5  2 -1</clus>
<clus scale="   30.980">  1  3  2 -1</clus>
</clustering>
</event>
<event>
 6    0  0.2781617E+002  0.1588342E+03  0.7546771E-02  0.1190019E+00
          2   -1    0    0  502    0 -0.00000000000E+00  0.00000000000E+00  0.73269818040E+03  0.73269818040E+03  0.00000000000E+00 0. -1.
         21   -1    0    0  504  502  0.00000000000E+00 -0.00000000000E+00 -0.26806961617E+03  0.26806961617E+03  0.00000000000E+00 0. -1.
         21    1    1    2  503  505  0.11449082139E+03 -0.75275892616E+02 -0.13687920742E+03  0.19367634242E+03  0.00000000000E+00 0. -1.
         21    1    1    2  504  503  0.51062689635E+02  0.26457516251E+02 -0.33806931824E+02  0.66710621930E+02  0.00000000000E+00 0. -1.
         21    1    1    2  505  501 -0.13693470130E+03  0.84343271564E+02  0.73686192657E+02  0.17690267060E+03  0.00000000000E+00 0. -1.
          2    1    1    2  501    0 -0.28618809725E+02 -0.35524895199E+02  0.56162851082E+03  0.56347816161E+03  0.00000000000E+00 0. -1.
<scales pt_clust_3="158.83423" pt_clust_4="53.50220" pt_clust_5="14000.00000" pt_clust_6="45.61858"></scales>
<clustering>
<clus scale="   45.619">  1  6  2 -1</clus>
<clus scale="   53.502">  2  4  1 -1</clus>
<clus scale="  158.834">  2  3  1 -1</clus>
<clus scale="   53.502">  2  3  1 -1</clus>
</clustering>
</event>
<event>
 6    0  0.2781617E+002  0.9100975E+02  0.7546771E-02  0.1300425E+00
         21   -1    0    0  504  502  0.00000000000E+00  0.00000000000E+00  0.15169971830E+04  0.15169971830E+04  0.00000000000E+00 0. -1.
          3   -1    0    0  503    0 -0.00000000000E+00 -0.00000000000E+00 -0.69643708434E+03  0.69643708434E+03  0.00000000000E+00 0. -1.
         21    1    1    2  503  502  0.52159630578E+02  0.47440727153E+01  0.11272987953E+04  0.11285148237E+04  0.00000000000E+00 0. -1.
         21    1    1    2  504  505  0.39094159001E+02  0.50193569417E+00  0.22935704974E+03  0.23266555713E+03  0.00000000000E+00 0.  1.
         21    1    1    2  505  501 -0.12590205910E+03  0.21685843714E+01  0.13245917440E+03  0.18276067445E+03  0.00000000000E+00 0. -1.
          3    1    1    2  501    0  0.34648269519E+02 -0.74145927809E+01 -0.66855492086E+03  0.66949321205E+03  0.00000000000E+00 0. -1.
<scales pt_clust_3="14000.00000" pt_clust_4="41.18506" pt_clust_5="91.00975" pt_clust_6="35.43274"></scales>
<clustering>
<clus scale="   35.433">  2  6  1 -1</clus>
<clus scale="   41.185">  1  4  2 -1</clus>
<clus scale="   91.010">  2  5  1 -1</clus>
<clus scale="   41.185">  1  3  2 -1</clus>
</clustering>
</event>
<event>
 6    0  0.2781617E+002  0.1322152E+03  0.7546771E-02  0.1224205E+00
          2   -1    0    0  505    0 -0.00000000000E+00  0.00000000000E+00  0.43812454145E+04  0.43812454145E+04  0.00000000000E+00 0. -1.
         21   -1    0    0  503  502  0.00000000000E+00 -0.00000000000E+00 -0.69039243527E+03  0.69039243527E+03  0.00000000000E+00 0.  1.
         21    1    1    2  503  504 -0.58516753428E+02  0.91424488790E+02 -0.55731442286E+03  0.56778694377E+03  0.00000000000E+00 0.  1.
         21    1    1    2  504  501 -0.28124972790E+02  0.32286153492E+02 -0.10696541560E+03  0.11521722934E+03  0.00000000000E+00 0. -1.
         21    1    1    2  505  502 -0.23964600075E+02 -0.70528446386E+02  0.71526370906E+02  0.10326948020E+03  0.00000000000E+00 0. -1.
          2    1    1    2  501    0  0.11060632629E+03 -0.53182195896E+02  0.42836064467E+04  0.42853641964E+04  0.00000000000E+00 0. -1.
<scales pt_clust_3="30.87040" pt_clust_4="30.87040" pt_clust_5="74.48868" pt_clust_6="122.73949"></scales>
<clustering>
<clus scale="   30.870">  3  4 -1 -1</clus>
<clus scale="   74.489">  2  5  1 -1</clus>
<clus scale="  122.739">  1  6  2 -1</clus>
<clus scale="   74.489">  2  3  1 -1</clus>
</clustering>
</event>
<event>
 6    0  0.2781617E+002  0.1783074E+03  0.7546771E-02  0.1169451E+00
          2   -1    0    0  505    0 -0.00000000000E+00  0.00000000000E+00  0.21281480134E+04  0.21281480134E+04  0.00000000000E+00 0. -1.
         21   -1    0    0  504  502  0.00000000000E+00 -0.00000000000E+00 -0.17320637823E+03  0.17320637823E+03  0.00000000000E+00 0. -1.
         21    1    1    2  503  502 -0.73695196518E+02  0.50895995730E+02 -0.78981190041E+02  0.11941278303E+03  0.00000000000E+00 0. -1.
         21    1    1    2  504  501  0.34111322215E+02  0.62112282131E+02 -0.13075113226E+02  0.72058840406E+02  0.00000000000E+00 0. -1.
         21    1    1    2  505  503 -0.53589094543E+02  0.25427176173E+02  0.33251442270E+01  0.59408660364E+02  0.00000000000E+00 0. -1.
          2    1    1    2  501    0  0.93172968846E+02 -0.13843545403E+03  0.20436727943E+04  0.20504741079E+04  0.00000000000E+00 0. -1.
<scales pt_clust_3="52.90849" pt_clust_4="70.86267" pt_clust_5="52.90849" pt_clust_6="166.03250"></scales>
<clustering>
<clus scale="   52.908">  3  5 -1 -1</clus>
<clus scale="   70.863">  2  4  1 -1</clus>
<clus scale="  166.032">  1  6  2 -1</clus>
<clus scale="   70.863">  2  3  1 -1</clus>
</clustering>
</event>
<event>
 6    0  0.2781617E+002  0.8994346E+03  0.7546771E-02  0.9426288E-01
         21   -1    0    0  504  502  0.00000000000E+00  0.00000000000E+00  0.14957646210E+04  0.14957646210E+04  0.00000000000E+00 0.  1.
          1   -1    0    0  502    0 -0.00000000000E+00 -0.00000000000E+00 -0.28856539998E+04  0.28856539998E+04  0.00000000000E+00 0.  1.
         21    1    1    2  503  501  0.76891177165E+03  0.68298835138E+03 -0.85712752657E+03  0.13387927388E+04  0.00000000000E+00 0.  1.
         21    1    1    2  504  505 -0.54881225655E+03 -0.61765532770E+03  0.10356869629E+04  0.13248926303E+04  0.00000000000E+00 0.  1.
         21    1    1    2  505  503 -0.52293541798E+02 -0.13950208975E+02  0.59453436722E+02  0.80398594405E+02  0.00000000000E+00 0. -1.
          1    1    1    2  501    0 -0.16780597330E+03 -0.51382814705E+02 -0.16279022518E+04  0.16373346572E+04  0.00000000000E+00 0.  1.
<scales pt_clust_3="890.91272" pt_clust_4="31.61325" pt_clust_5="31.61325" pt_clust_6="175.49655"></scales>
<clustering>
<clus scale="   31.613">  4  5 -1 -1</clus>
<clus scale="  175.497">  2  6  1 -1</clus>
<clus scale="  890.913">  2  3  1 -1</clus>
<clus scale="  899.435">  1  3  2 -1</clus>
</clustering>
</event>
<event>
 6    0  0.2781617E+002  0.1493062E+03  0.7546771E-02  0.1201328E+00
         21   -1    0    0  501  502  0.00000000000E+00  0.00000000000E+00  0.33957414262E+02  0.33957414262E+02  0.00000000000E+00 0.  1.
          2   -1    0    0  505    0 -0.00000000000E+00 -0.00000000000E+00 -0.23980996425E+04  0.23980996425E+04  0.00000000000E+00 0. -1.
         21    1    1    2  503  502 -0.22102835041E+02  0.43538458990E+02 -0.45124605727E+02  0.66485808788E+02  0.00000000000E+00 0.  1.
         21    1    1    2  504  503  0.10464385662E+02  0.29879794089E+02 -0.90327405064E+01  0.32922573763E+02  0.00000000000E+00 0. -1.
         21    1    1    2  505  504  0.36268799022E+02  0.48731423223E+02 -0.86637938690E+02  0.10581261651E+03  0.00000000000E+00 0.  1.
          2    1    1    2  501    0 -0.24630349644E+02 -0.12214967630E+03 -0.22233469433E+04  0.22268360577E+04  0.00000000000E+00 0. -1.
<scales pt_clust_3="47.17456" pt_clust_4="30.03442" pt_clust_5="47.17456" pt_clust_6="124.60818"></scales>
<clustering>
<clus scale="   30.034">  4  5 -1 -1</clus>
<clus scale="   47.175">  3  4 -1 -1</clus>
<clus scale="  124.608">  2  6  1 -1</clus>
<clus scale="  149.306">  1  3  2 -1</clus>
</clustering>
</event>
<event>
 6    0  0.2781617E+002  0.9027951E+02  0.7546771E-02  0.1302176E+00
         21   -1    0    0  504  502  0.00000000000E+00  0.00000000000E+00  0.35635360281E+03  0.35635360281E+03  0.00000000000E+00 0.  1.
          1   -1    0    0  503    0 -0.00000000000E+00 -0.00000000000E+00 -0.11721309247E+04  0.11721309247E+04  0.00000000000E+00 0. -1.
         21    1    1    2  503  505  0.55329917098E+02  0.27208940527E+02  0.60769613430E+02  0.86571774194E+02  0.00000000000E+00 0.  1.
         21    1    1    2  504  501 -0.38687648754E+02 -0.27546127032E+02  0.64708562666E+02  0.80266564414E+02  0.00000000000E+00 0. -1.
         21    1    1    2  505  502  0.61515002666E+02  0.46921285718E+02  0.20120562324E+03  0.21556763539E+03  0.00000000000E+00 0.  1.
          1    1    1    2  501    0 -0.78157271009E+02 -0.46584099213E+02 -0.11424611212E+04  0.11460785535E+04  0.00000000000E+00 0. -1.
<scales pt_clust_3="90.27951" pt_clust_4="47.49235" pt_clust_5="42.53737" pt_clust_6="14000.00000"></scales>
<clustering>
<clus scale="   47.492">  1  4  2 -1</clus>
<clus scale="   42.537">  1  5  2 -1</clus>
<clus scale="   90.280">  1  3  2 -1</clus>
<clus scale="   47.492">  1  3  2 -1</clus>
</clustering>
</event>
<event>
 6    0  0.2781617E+002  0.1684813E+03  0.7546771E-02  0.1179441E+00
         -1   -1    0    0    0  501 -0.00000000000E+00  0.00000000000E+00  0.10422234661E+03  0.10422234661E+03  0.00000000000E+00 0.  1.
         21   -1    0    0  505  502  0.00000000000E+00 -0.00000000000E+00 -0.17302099310E+04  0.17302099310E+04  0.00000000000E+00 0. -1.
         21    1    1    2  503  502 -0.16405415459E+02  0.29110318553E+02 -0.14248225068E+03  0.14634801010E+03  0.00000000000E+00 0.  1.
         21    1    1    2  504  501  0.40333457285E+02  0.37733506135E+02 -0.74730436025E+03  0.74934265334E+03  0.00000000000E+00 0.  1.
         21    1    1    2  505  504  0.60562643770E+02  0.74225144179E+02 -0.76570971717E+03  0.77167906335E+03  0.00000000000E+00 0. -1.
         -1    1    1    2    0  503 -0.84490685595E+02 -0.14106896887E+03  0.29508743716E+02  0.16706255082E+03  0.00000000000E+00 0.  1.
<scales pt_clust_3="33.41479" pt_clust_4="30.18866" pt_clust_5="30.18866" pt_clust_6="163.72310"></scales>
<clustering>
<clus scale="   30.189">  4  5 -1 -1</clus>
<clus scale="   33.415">  2  3  1 -1</clus>
<clus scale="  163.723">  1  6  2 -1</clus>
<clus scale="   33.415">  2  3  1 -1</clus>
</clustering>
</event>
<event>
 6    0  0.2781617E+002  0.4062055E+03  0.7546771E-02  0.1041652E+00
          1   -1    0    0  504    0 -0.00000000000E+00  0.00000000000E+00  0.75019210703E+03  0.75019210703E+03  0.00000000000E+00 0. -1.
         21   -1    0    0  501  502  0.00000000000E+00 -0.00000000000E+00 -0.56401812592E+03  0.56401812592E+03  0.00000000000E+00 0. -1.
         21    1    1    2  503  505  0.23387719441E+03 -0.31858904430E+03 -0.16382335557E+03  0.42782661563E+03  0.00000000000E+00 0. -1.
         21    1    1    2  504  503  0.29307341506E+02 -0.84431252594E+02  0.81400468646E+02  0.12088669479E+03  0.00000000000E+00 0.  1.
         21    1    1    2  505  502  0.10443056121E+03  0.11995012017E+03 -0.86677090301E+02  0.18112617543E+03  0.00000000000E+00 0. -1.
          1    1    1    2  501    0 -0.36761509712E+03  0.28307017673E+03  0.35527395834E+03  0.58437074710E+03  0.00000000000E+00 0. -1.
<scales pt_clust_3="406.20545" pt_clust_4="89.37313" pt_clust_5="155.90921" pt_clust_6="14000.00000"></scales>
<clustering>
<clus scale="   89.373">  1  4  2 -1</clus>
<clus scale="  155.909">  2  5  1 -1</clus>
<clus scale="  406.205">  2  3  1 -1</clus>
<clus scale="  155.909">  2  3  1 -1</clus>
</clustering>
</event>
<event>
 6    0  0.2781617E+002  0.1281419E+03  0.7546771E-02  0.1230239E+00
          2   -1    0    0  503    0 -0.00000000000E+00  0.00000000000E+00  0.34725717830E+03  0.34725717830E+03  0.00000000000E+00 0. -1.
         21   -1    0    0  505  502  0.00000000000E+00 -0.00000000000E+00 -0.33010833226E+03  0.33010833226E+03  0.00000000000E+00 0.  1.
         21    1    1    2  503  504  0.20877125896E+02 -0.34762181503E+02  0.14393074492E+02  0.43028179625E+02  0.00000000000E+00 0. -1.
         21    1    1    2  504  502 -0.10962823367E+03 -0.92958443210E+02 -0.10153621566E+03  0.17598075142E+03  0.00000000000E+00 0.  1.
         21    1    1    2  505  501  0.77729919555E+02  0.91652417747E+02 -0.15511561797E+03  0.19622171391E+03  0.00000000000E+00 0. -1.
          2    1    1    2  501    0  0.11021188217E+02  0.36068206966E+02  0.25940760518E+03  0.26213486561E+03  0.00000000000E+00 0. -1.
<scales pt_clust_3="33.48626" pt_clust_4="14000.00000" pt_clust_5="128.14187" pt_clust_6="37.71448"></scales>
<clustering>
<clus scale="   37.714">  1  6  2 -1</clus>
<clus scale="   33.486">  1  3  2 -1</clus>
<clus scale="  128.142">  2  5  1 -1</clus>
<clus scale="  128.142">  2  3  1 -1</clus>
</clustering>
</event>
<event>
 6    0  0.2781617E+002  0.1049623E+03  0.7546771E-02  0.1270194E+00
         21   -1    0    0  505  502  0.00000000000E+00  0.00000000000E+00  0.90473689592E+02  0.90473689592E+02  0.00000000000E+00 0.  1.
          2   -1    0    0  504    0 -0.00000000000E+00 -0.00000000000E+00 -0.33710873840E+03  0.33710873840E+03  0.00000000000E+00 0.  1.
         21    1    1    2  503  501 -0.66129676044E+02 -0.65266639015E+02 -0.23027472687E+02  0.95724253564E+02  0.00000000000E+00 0.  1.
         21    1    1    2  504  502 -0.43377923391E+02  0.53857980120E+02 -0.20935672830E+02  0.72253917937E+02  0.00000000000E+00 0.  1.
         21    1    1    2  505  503  0.11021348948E+02 -0.40837773210E+02 -0.22982955078E+02  0.48139485639E+02  0.00000000000E+00 0.  1.
          2    1    1    2  501    0  0.98486250486E+02  0.52246432105E+02 -0.17968894821E+03  0.21146477086E+03  0.00000000000E+00 0.  1.
<scales pt_clust_3="104.96233" pt_clust_4="56.67883" pt_clust_5="42.29886" pt_clust_6="14000.00000"></scales>
<clustering>
<clus scale="   42.299">  1  5  2 -1</clus>
<clus scale="   56.679">  1  4  2 -1</clus>
<clus scale="  104.962">  1  3  2 -1</clus>
<clus scale="   42.299">  1  3  2 -1</clus>
</clustering>
</event>
<event>
 6    0  0.2781617E+002  0.1608598E+03  0.7546771E-02  0.1187729E+00
         21   -1    0    0  503  502  0.00000000000E+00  0.00000000000E+00  0.41326066187E+02  0.41326066187E+02  0.00000000000E+00 0.  1.
          2   -1    0    0  505    0 -0.00000000000E+00 -0.00000000000E+00 -0.16287567545E+04  0.16287567545E+04  0.00000000000E+00 0.  1.
         21    1    1    2  503  504 -0.11443985855E+02  0.58202485615E+02 -0.44931198248E+02  0.74413081645E+02  0.00000000000E+00 0.  1.
         21    1    1    2  504  501 -0.49570575045E+02  0.72730786293E+02 -0.10622152603E+03  0.13794934497E+03  0.00000000000E+00 0.  1.
         21    1    1    2  505  502  0.55710967422E+02  0.29123746041E+02 -0.16808515689E+03  0.17945619087E+03  0.00000000000E+00 0. -1.
          2    1    1    2  501    0  0.53035934779E+01 -0.16005701795E+03 -0.12681928072E+04  0.12782642032E+04  0.00000000000E+00 0.  1.
<scales pt_clust_3="30.54426" pt_clust_4="30.54426" pt_clust_5="62.86417" pt_clust_6="156.49766"></scales>
<clustering>
<clus scale="   30.544">  3  4 -1 -1</clus>
<clus scale="   62.864">  1  5  2 -1</clus>
<clus scale="  156.498">  2  6  1 -1</clus>
<clus scale="   62.864">  1  3  2 -1</clus>
</clustering>
</event>
<event>
 6    0  0.2781617E+002  0.1907854E+03  0.7546771E-02  0.1157755E+00
          2   -1    0    0  504    0 -0.00000000000E+00  0.00000000000E+00  0.10124708368E+04  0.10124708368E+04  0.00000000000E+00 0. -1.
         21   -1    0    0  503  502  0.00000000000E+00 -0.00000000000E+00 -0.39607011068E+03  0.39607011068E+03  0.00000000000E+00 0.  1.
         21    1    1    2  503  505  0.12301077191E+03  0.69511009801E+02 -0.17388988956E+03  0.22405607374E+03  0.00000000000E+00 0.  1.
         21    1    1    2  504  502 -0.17303658321E+03 -0.66183975175E+02 -0.12253883048E+03  0.22212100908E+03  0.00000000000E+00 0.  1.
         21    1    1    2  505  501  0.26956123033E+02  0.26725696871E+02 -0.96019710606E+01  0.39154735224E+02  0.00000000000E+00 0. -1.
          2    1    1    2  501    0  0.23069688272E+02 -0.30052731497E+02  0.92243141718E+03  0.92320912939E+03  0.00000000000E+00 0. -1.
<scales pt_clust_3="32.19897" pt_clust_4="180.38835" pt_clust_5="32.19897" pt_clust_6="37.88637"></scales>
<clustering>
<clus scale="   32.199">  3  5 -1 -1</clus>
<clus scale="   37.886">  1  6  2 -1</clus>
<clus scale="  180.388">  1  4  2 -1</clus>
<clus scale="  190.785">  2  3  1 -1</clus>
</clustering>
</event>
<event>
 6    0  0.2781617E+002  0.1342869E+03  0.7546771E-02  0.1221230E+00
         21   -1    0    0  505  502  0.00000000000E+00  0.00000000000E+00  0.48255071527E+03  0.48255071527E+03  0.00000000000E+00 0.  1.
         -1   -1    0    0    0  501 -0.00000000000E+00 -0.00000000000E+00 -0.56824527039E+03  0.56824527039E+03  0.00000000000E+00 0. -1.
         21    1    1    2  503  501 -0.38165377455E+02  0.40515151213E+02  0.48712294215E+02  0.73965945690E+02  0.00000000000E+00 0. -1.
         21    1    1    2  504  502 -0.35757278457E+01 -0.16651477212E+03  0.21012678803E+03  0.26812911482E+03  0.00000000000E+00 0.  1.
         21    1    1    2  505  503  0.65427301915E+02  0.10156869906E+03  0.16140751165E+03  0.20161675843E+03  0.00000000000E+00 0. -1.
         -1    1    1    2    0  504 -0.23686196615E+02  0.24430921852E+02 -0.50594114903E+03  0.50708416671E+03  0.00000000000E+00 0. -1.
<scales pt_clust_3="62.61981" pt_clust_4="14000.00000" pt_clust_5="134.28693" pt_clust_6="34.02802"></scales>
<clustering>
<clus scale="   34.028">  2  6  1 -1</clus>
<clus scale="   62.620">  2  3  1 -1</clus>
<clus scale="  134.287">  1  5  2 -1</clus>
<clus scale="  134.287">  1  3  2 -1</clus>
</clustering>
</event>
<event>
 6    0  0.2781617E+002  0.8634622E+02  0.7546771E-02  0.1311949E+00
         -2   -1    0    0    0  501 -0.00000000000E+00  0.00000000000E+00  0.29511705148E+03  0.29511705148E+03  0.00000000000E+00 0.  1.
         21   -1    0    0  505  502  0.00000000000E+00 -0.00000000000E+00 -0.28526482290E+03  0.28526482290E+03  0.00000000000E+00 0.  1.
         21    1    1    2  503  504 -0.80843116279E+02  0.23856946789E+02 -0.56849648533E+02  0.10166929673E+03  0.00000000000E+00 0.  1.
         21    1    1    2  504  501 -0.44658315863E+02 -0.50928569745E+02 -0.43952975345E+02  0.80746197642E+02  0.00000000000E+00 0.  1.
         21    1    1    2  505  503  0.89955944562E+02  0.19449088777E+02 -0.12739215921E+03  0.15715947711E+03  0.00000000000E+00 0.  1.
         -2    1    1    2    0  502  0.35545487580E+02  0.76225341800E+01  0.23804701167E+03  0.24080690289E+03  0.00000000000E+00 0.  1.
<scales pt_clust_3="86.34622" pt_clust_4="58.54111" pt_clust_5="14000.00000" pt_clust_6="36.35361"></scales>
<clustering>
<clus scale="   36.354">  1  6  2 -1</clus>
<clus scale="   58.541">  1  4  2 -1</clus>
<clus scale="   86.346">  1  3  2 -1</clus>
<clus scale="   86.346">  2  3  1 -1</clus>
</clustering>
</event>
<event>
 6    0  0.2781617E+002  0.8812030E+02  0.7546771E-02  0.1307469E+00
         21   -1    0    0  505  502  0.00000000000E+00  0.00000000000E+00  0.10380458489E+03  0.10380458489E+03  0.00000000000E+00 0. -1.
         -2   -1    0    0    0  501 -0.00000000000E+00 -0.00000000000E+00 -0.76468400216E+03  0.76468400216E+03  0.00000000000E+00 0.  1.
         21    1    1    2  503  502 -0.19865255716E+02  0.35819520110E+02 -0.46538063449E+02  0.61995626903E+02  0.00000000000E+00 0. -1.
         21    1    1    2  504  503  0.79896735436E+02  0.33883868937E+02 -0.87194951120E+02  0.12302261747E+03  0.00000000000E+00 0. -1.
         21    1    1    2  505  501 -0.79944718646E+02 -0.70875330991E+01  0.55212999703E+02  0.97415945826E+02  0.00000000000E+00 0. -1.
         -2    1    1    2    0  504  0.19913238927E+02 -0.62615855948E+02 -0.58235940241E+03  0.58605439685E+03  0.00000000000E+00 0.  1.
<scales pt_clust_3="40.95933" pt_clust_4="14000.00000" pt_clust_5="88.12030" pt_clust_6="64.93405"></scales>
<clustering>
<clus scale="   40.959">  1  3  2 -1</clus>
<clus scale="   64.934">  2  6  1 -1</clus>
<clus scale="   88.120">  1  5  2 -1</clus>
<clus scale="   40.959">  1  3  2 -1</clus>
</clustering>
</event>
<event>
 6    0  0.2781617E+002  0.2389166E+03  0.7546771E-02  0.1120517E+00
          1   -1    0    0  503    0 -0.00000000000E+00  0.00000000000E+00  0.20646561657E+03  0.20646561657E+03  0.00000000000E+00 0. -1.
         21   -1    0    0  505  502  0.00000000000E+00 -0.00000000000E+00 -0.14697819874E+04  0.14697819874E+04  0.00000000000E+00 0. -1.
         21    1    1    2  503  504  0.19289372364E+03 -0.18397307620E+03 -0.47440422389E+03  0.54416307209E+03  0.00000000000E+00 0. -1.
         21    1    1    2  504  502  0.51481403877E+02  0.25451765532E+02 -0.36987888781E+03  0.37431072515E+03  0.00000000000E+00 0. -1.
         21    1    1    2  505  501 -0.20292130863E+02  0.79468817545E+02 -0.50004378868E+03  0.50672562017E+03  0.00000000000E+00 0.  1.
          1    1    1    2  501    0 -0.22408299665E+03  0.79052493124E+02  0.81010529580E+02  0.25104818653E+03  0.00000000000E+00 0. -1.
<scales pt_clust_3="238.91657" pt_clust_4="57.42932" pt_clust_5="91.20098" pt_clust_6="14000.00000"></scales>
<clustering>
<clus scale="   57.429">  2  4  1 -1</clus>
<clus scale="   91.201">  2  5  1 -1</clus>
<clus scale="  238.917">  2  3  1 -1</clus>
<clus scale="   57.429">  2  3  1 -1</clus>
</clustering>
</event>
<event>
 6    0  0.2781617E+002  0.3698455E+03  0.7546771E-02  0.1054752E+00
         21   -1    0    0  503  502  0.00000000000E+00  0.00000000000E+00  0.13182332762E+03  0.13182332762E+03  0.00000000000E+00 0. -1.
          1   -1    0    0  505    0 -0.00000000000E+00 -0.00000000000E+00 -0.17249518412E+04  0.17249518412E+04  0.00000000000E+00 0. -1.
         21    1    1    2  503  504 -0.20497523107E+03 -0.24389235804E+03 -0.49547110441E+03  0.58905852254E+03  0.00000000000E+00 0. -1.
         21    1    1    2  504  501  0.89514675000E+01 -0.37772731041E+02 -0.73882785393E+02  0.83460014128E+02  0.00000000000E+00 0.  1.
         21    1    1    2  505  502 -0.14557979382E+03  0.10558171172E+03 -0.16779079728E+03  0.24595675610E+03  0.00000000000E+00 0. -1.
          1    1    1    2  501    0  0.34160355739E+03  0.17608337736E+03 -0.85598382651E+03  0.93829987608E+03  0.00000000000E+00 0. -1.
<scales pt_clust_3="35.52381" pt_clust_4="35.52381" pt_clust_5="179.83596" pt_clust_6="355.56842"></scales>
<clustering>
<clus scale="   35.524">  3  4 -1 -1</clus>
<clus scale="  179.836">  1  5  2 -1</clus>
<clus scale="  355.568">  2  6  1 -1</clus>
<clus scale="  179.836">  1  3  2 -1</clus>
</clustering>
</event>
<event>
 6    0  0.2781617E+002  0.2110457E+03  0.7546771E-02  0.1140741E+00
         21   -1    0    0  505  502  0.00000000000E+00  0.00000000000E+00  0.44766908332E+03  0.44766908332E+03  0.00000000000E+00 0. -1.
          2   -1    0    0  503    0 -0.00000000000E+00 -0.00000000000E+00 -0.13011817416E+04  0.13011817416E+04  0.00000000000E+00 0.  1.
         21    1    1    2  503  502 -0.20456159766E+03  0.48207351326E+02  0.33504527269E+03  0.39550566457E+03  0.00000000000E+00 0. -1.
         21    1    1    2  504  501  0.14063496174E+03 -0.34405322638E+01 -0.19554520928E+02  0.14202960612E+03  0.00000000000E+00 0.  1.
         21    1    1    2  505  504  0.34364186208E+02 -0.31647268630E+02 -0.51352157577E+01  0.46998056836E+02  0.00000000000E+00 0.  1.
          2    1    1    2  501    0  0.29562449707E+02 -0.13119550432E+02 -0.11638681943E+04  0.11643174974E+04  0.00000000000E+00 0.  1.
<scales pt_clust_3="203.16069" pt_clust_4="32.92037" pt_clust_5="32.92037" pt_clust_6="32.34287"></scales>
<clustering>
<clus scale="   32.343">  2  6  1 -1</clus>
<clus scale="   32.920">  4  5 -1 -1</clus>
<clus scale="  203.161">  1  3  2 -1</clus>
<clus scale="  203.161">  1  3  2 -1</clus>
</clustering>
</event>
<event>
 6    0  0.2781617E+002  0.4319539E+03  0.7546771E-02  0.1033245E+00
         21   -1    0    0  505  502  0.00000000000E+00  0.00000000000E+00  0.40295684843E+03  0.40295684843E+03  0.00000000000E+00 0. -1.
         -1   -1    0    0    0  501 -0.00000000000E+00 -0.00000000000E+00 -0.45503681636E+03  0.45503681636E+03  0.00000000000E+00 0. -1.
         21    1    1    2  503  504  0.18877750712E+03 -0.46368129933E+02  0.12049073511E+02  0.19476172837E+03  0.00000000000E+00 0. -1.
         21    1    1    2  504  501  0.11314585343E+03  0.18311945958E+02 -0.21213044448E+02  0.11656459483E+03  0.00000000000E+00 0. -1.
         21    1    1    2  505  503  0.11771788699E+03  0.93942435313E+01  0.26198788653E+02  0.12096333848E+03  0.00000000000E+00 0. -1.
         -1    1    1    2    0  502 -0.41964124754E+03  0.18661940444E+02 -0.69114785643E+02  0.42570400310E+03  0.00000000000E+00 0. -1.
<scales pt_clust_3="47.82573" pt_clust_4="47.82573" pt_clust_5="42.06681" pt_clust_6="420.05600"></scales>
<clustering>
<clus scale="   42.067">  3  5 -1 -1</clus>
<clus scale="   47.826">  3  4 -1 -1</clus>
<clus scale="  420.056">  2  6  1 -1</clus>
<clus scale="  431.954">  1  3  2 -1</clus>
</clustering>
</event>
<event>
 6    0  0.2781617E+002  0.1861539E+03  0.7546771E-02  0.1161977E+00
         21   -1    0    0  503  502  0.00000000000E+00  0.00000000000E+00  0.21836656098E+03  0.21836656098E+03  0.00000000000E+00 0.  1.
          2   -1    0    0  505    0 -0.00000000000E+00 -0.00000000000E+00 -0.33348551935E+04  0.33348551935E+04  0.00000000000E+00 0. -1.
         21    1    1    2  503  504 -0.32395740191E+02  0.80643936254E+01  0.42115641910E+02  0.53742401515E+02  0.00000000000E+00 0.  1.
         21    1    1    2  504  501 -0.14542686767E+03 -0.88385836583E+02 -0.15068615773E+02  0.17084523151E+03  0.00000000000E+00 0.  1.
         21    1    1    2  505  502  0.16464723817E+03  0.12065709579E+03 -0.20323630982E+02  0.20513385332E+03  0.00000000000E+00 0.  1.
          2    1    1    2  501    0  0.13175369683E+02 -0.40335652828E+02 -0.31232120277E+04  0.31235002681E+04  0.00000000000E+00 0. -1.
<scales pt_clust_3="33.38440" pt_clust_4="14000.00000" pt_clust_5="186.15388" pt_clust_6="42.41797"></scales>
<clustering>
<clus scale="   33.384">  1  3  2 -1</clus>
<clus scale="   42.418">  2  6  1 -1</clus>
<clus scale="  186.154">  1  5  2 -1</clus>
<clus scale="   33.384">  1  3  2 -1</clus>
</clustering>
</event>
<event>
 6    0  0.2781617E+002  0.1060694E+03  0.7546771E-02  0.1268027E+00
         21   -1    0    0  504  502  0.00000000000E+00  0.00000000000E+00  0.71661556859E+03  0.71661556859E+03  0.00000000000E+00 0.  1.
          1   -1    0    0  503    0 -0.00000000000E+00 -0.00000000000E+00 -0.18854775343E+04  0.18854775343E+04  0.00000000000E+00 0. -1.
         21    1    1    2  503  502  0.15378140902E+02  0.60695939593E+02  0.18639973312E+03  0.19663505488E+03  0.00000000000E+00 0.  1.
         21    1    1    2  504  505  0.69379251533E+02  0.13652232438E+02  0.50052090380E+03  0.50549088927E+03  0.00000000000E+00 0.  1.
         21    1    1    2  505  501 -0.24679548703E+02 -0.86337573923E+02 -0.71903412052E+02  0.11503633104E+03  0.00000000000E+00 0. -1.
          1    1    1    2  501    0 -0.60077843732E+02  0.11989401891E+02 -0.17838791906E+04  0.17849308277E+04  0.00000000000E+00 0. -1.
<scales pt_clust_3="62.53191" pt_clust_4="14000.00000" pt_clust_5="106.06942" pt_clust_6="61.26249"></scales>
<clustering>
<clus scale="   61.262">  2  6  1 -1</clus>
<clus scale="   62.532">  1  3  2 -1</clus>
<clus scale="  106.069">  2  5  1 -1</clus>
<clus scale="   62.532">  1  3  2 -1</clus>
</clustering>
</event>
<event>
 6    0  0.2781617E+002  0.1721630E+03  0.7546771E-02  0.1175611E+00
         21   -1    0    0  504  502  0.00000000000E+00  0.00000000000E+00  0.31432411627E+03  0.31432411627E+03  0.00000000000E+00 0. -1.
          3   -1    0    0  502    0 -0.00000000000E+00 -0.00000000000E+00 -0.93265157373E+02  0.93265157373E+02  0.00000000000E+00 0. -1.
         21    1    1    2  503  501 -0.94665900258E+02  0.68315208589E+02  0.85390470528E+02  0.14463793712E+03  0.00000000000E+00 0. -1.
         21    1    1    2  504  505  0.87859403728E+02 -0.44641206467E+02  0.70746460497E+02  0.12131435946E+03  0.00000000000E+00 0. -1.
         21    1    1    2  505  503  0.40487190339E+02 -0.49469576637E+02  0.74477989089E+02  0.98149999761E+02  0.00000000000E+00 0. -1.
          3    1    1    2  501    0 -0.33680693809E+02  0.25795574515E+02 -0.95559612200E+01  0.43486977302E+02  0.00000000000E+00 0. -1.
<scales pt_clust_3="39.57794" pt_clust_4="164.54320" pt_clust_5="33.64171" pt_clust_6="39.57794"></scales>
<clustering>
<clus scale="   33.642">  4  5 -1 -1</clus>
<clus scale="   39.578">  3  6 -1 -1</clus>
<clus scale="  164.543">  1  4  2 -1</clus>
<clus scale="  164.543">  1  3  2 -1</clus>
</clustering>
</event>
<event>
 6    0  0.2781617E+002  0.1974874E+03  0.7546771E-02  0.1151876E+00
         21   -1    0    0  504  502  0.00000000000E+00  0.00000000000E+00  0.51271384257E+03  0.51271384257E+03  0.00000000000E+00 0. -1.
          2   -1    0    0  503    0 -0.00000000000E+00 -0.00000000000E+00 -0.76450031218E+03  0.76450031218E+03  0.00000000000E+00 0.  1.
         21    1    1    2  503  502 -0.45722192592E+02  0.17263719752E+02  0.12370966540E+03  0.13301366933E+03  0.00000000000E+00 0. -1.
         21    1    1    2  504  505 -0.31013394586E+02 -0.37145739397E+02  0.18207889124E+03  0.18839946718E+03  0.00000000000E+00 0. -1.
         21    1    1    2  505  501  0.57973029496E+02 -0.17855124574E+03  0.13751026029E+03  0.23270258097E+03  0.00000000000E+00 0. -1.
          2    1    1    2  501    0  0.18762557681E+02  0.19843326539E+03 -0.69508528656E+03  0.72309843726E+03  0.00000000000E+00 0.  1.
<scales pt_clust_3="57.94176" pt_clust_4="48.39046" pt_clust_5="197.48740" pt_clust_6="14000.00000"></scales>
<clustering>
<clus scale="   48.390">  1  4  2 -1</clus>
<clus scale="   57.942">  1  3  2 -1</clus>
<clus scale="  197.487">  1  5  2 -1</clus>
<clus scale="   48.390">  1  3  2 -1</clus>
</clustering>
</event>
<event>
 6    0  0.2781617E+002  0.7956938E+02  0.7546771E-02  0.1330278E+00
         21   -1    0    0  505  502  0.00000000000E+00  0.00000000000E+00  0.74056437271E+03  0.74056437271E+03  0.00000000000E+00 0.  1.
          2   -1    0    0  504    0 -0.00000000000E+00 -0.00000000000E+00 -0.10510643200E+04  0.10510643200E+04  0.00000000000E+00 0.  1.
         21    1    1    2  503  502 -0.36428039244E+02 -0.21182175871E-01  0.26409991296E+02  0.44994334445E+02  0.00000000000E+00 0. -1.
         21    1    1    2  504  503 -0.21269351603E+02 -0.44040224046E+02  0.30587775194E+02  0.57684821600E+02  0.00000000000E+00 0.  1.
         21    1    1    2  505  501  0.68625437204E+01  0.10528377392E+03  0.65495810346E+03  0.66340175221E+03  0.00000000000E+00 0.  1.
          2    1    1    2  501    0  0.50834847126E+02 -0.61222367696E+02 -0.10224558173E+04  0.10255477845E+04  0.00000000000E+00 0.  1.
<scales pt_clust_3="36.42805" pt_clust_4="49.94274" pt_clust_5="79.56938" pt_clust_6="14000.00000"></scales>
<clustering>
<clus scale="   36.428">  1  3  2 -1</clus>
<clus scale="   49.943">  1  4  2 -1</clus>
<clus scale="   79.569">  1  5  2 -1</clus>
<clus scale="   36.428">  1  3  2 -1</clus>
</clustering>
</event>
<event>
 6    0  0.2781617E+002  0.1824827E+03  0.7546771E-02  0.1165422E+00
         21   -1    0    0  504  502  0.00000000000E+00  0.00000000000E+00  0.14187909993E+03  0.14187909993E+03  0.00000000000E+00 0. -1.
          1   -1    0    0  505    0 -0.00000000000E+00 -0.00000000000E+00 -0.13400705438E+04  0.13400705438E+04  0.00000000000E+00 0.  1.
         21    1    1    2  503  502  0.57821531049E+02 -0.13386695332E+02  0.51671566427E+02  0.78692336614E+02  0.00000000000E+00 0. -1.
         21    1    1    2  504  501  0.23593125775E+01 -0.42715788870E+02  0.19428187139E+02  0.46985736454E+02  0.00000000000E+00 0. -1.
         21    1    1    2  505  503  0.11121629144E+03 -0.41409336032E+02 -0.63759713207E+02  0.13471858677E+03  0.00000000000E+00 0. -1.
          1    1    1    2  501    0 -0.17139713507E+03  0.97511820234E+02 -0.12055314842E+04  0.12215529839E+04  0.00000000000E+00 0.  1.
<scales pt_clust_3="70.92664" pt_clust_4="42.78089" pt_clust_5="182.48270" pt_clust_6="14000.00000"></scales>
<clustering>
<clus scale="   42.781">  1  4  2 -1</clus>
<clus scale="   70.927">  1  3  2 -1</clus>
<clus scale="  182.483">  1  5  2 -1</clus>
<clus scale="   42.781">  1  3  2 -1</clus>
</clustering>
</event>
<event>
 6    0  0.2781617E+002  0.7667592E+02  0.7546771E-02  0.1338758E+00
          1   -1    0    0  503    0 -0.00000000000E+00  0.00000000000E+00  0.21572128457E+04  0.21572128457E+04  0.00000000000E+00 0.  1.
         21   -1    0    0  504  502  0.00000000000E+00 -0.00000000000E+00 -0.32361735658E+03  0.32361735658E+03  0.00000000000E+00 0. -1.
         21    1    1    2  503  505  0.32365785319E+02 -0.46218213923E+02 -0.41820056033E+02  0.70232360377E+02  0.00000000000E+00 0. -1.
         21    1    1    2  504  501 -0.27701309952E+02 -0.42309235156E+02 -0.77101135130E+02  0.92206393439E+02  0.00000000000E+00 0. -1.
         21    1    1    2  505  502  0.10477583797E+02  0.12289942273E+03 -0.16196030023E+03  0.20358090952E+03  0.00000000000E+00 0. -1.
          1    1    1    2  501    0 -0.15142059164E+02 -0.34371973655E+02  0.21144769805E+04  0.21148105389E+04  0.00000000000E+00 0.  1.
<scales pt_clust_3="76.67592" pt_clust_4="57.15513" pt_clust_5="14000.00000" pt_clust_6="37.55948"></scales>
<clustering>
<clus scale="   37.559">  1  6  2 -1</clus>
<clus scale="   57.155">  2  4  1 -1</clus>
<clus scale="   76.676">  1  3  2 -1</clus>
<clus scale="   57.155">  2  3  1 -1</clus>
</clustering>
</event>
<event>
 6    0  0.2781617E+002  0.1030146E+03  0.7546771E-02  0.1274081E+00
          1   -1    0    0  503    0 -0.00000000000E+00  0.00000000000E+00  0.75064300854E+03  0.75064300854E+03  0.00000000000E+00 0.  1.
         21   -1    0    0  504  502  0.00000000000E+00 -0.00000000000E+00 -0.10378356859E+03  0.10378356859E+03  0.00000000000E+00 0. -1.
         21    1    1    2  503  502 -0.39326255749E+02 -0.68320819703E+01  0.23486848210E+02  0.46312674012E+02  0.00000000000E+00 0. -1.
         21    1    1    2  504  505  0.58049878538E+02  0.34701297055E+02 -0.73069135412E+01  0.68024696993E+02  0.00000000000E+00 0. -1.
         21    1    1    2  505  501  0.40216265389E+02  0.48405626061E+02 -0.31885585005E+02  0.70548870773E+02  0.00000000000E+00 0. -1.
          1    1    1    2  501    0 -0.58939888177E+02 -0.76274841146E+02  0.66256509028E+03  0.66954033536E+03  0.00000000000E+00 0.  1.
<scales pt_clust_3="39.91531" pt_clust_4="32.04542" pt_clust_5="32.04542" pt_clust_6="97.51111"></scales>
<clustering>
<clus scale="   32.045">  4  5 -1 -1</clus>
<clus scale="   39.915">  2  3  1 -1</clus>
<clus scale="   97.511">  1  6  2 -1</clus>
<clus scale="   39.915">  2  3  1 -1</clus>
</clustering>
</event>
<event>
 6    0  0.2781617E+002  0.9625114E+02  0.7546771E-02  0.1288383E+00
         21   -1    0    0  505  502  0.00000000000E+00  0.00000000000E+00  0.83739787911E+02  0.83739787911E+02  0.00000000000E+00 0.  1.
          1   -1    0    0  504    0 -0.00000000000E+00 -0.00000000000E+00 -0.32027796735E+04  0.32027796735E+04  0.00000000000E+00 0.  1.
         21    1    1    2  503  502 -0.45667673504E+02  0.14321160287E+01  0.35905442087E+01  0.45830986977E+02  0.00000000000E+00 0.  1.
         21    1    1    2  504  503 -0.60152085055E+02  0.72792725233E+02 -0.15124946460E-01  0.94430156264E+02  0.00000000000E+00 0.  1.
         21    1    1    2  505  501  0.35771071316E+02 -0.37488781021E+02 -0.48021683397E+02  0.70647436767E+02  0.00000000000E+00 0.  1.
          1    1    1    2  501    0  0.70048687243E+02 -0.36736060241E+02 -0.30745936215E+04  0.30756108814E+04  0.00000000000E+00 0.  1.
<scales pt_clust_3="37.80127" pt_clust_4="37.80127" pt_clust_5="51.81678" pt_clust_6="79.44197"></scales>
<clustering>
<clus scale="   37.801">  3  4 -1 -1</clus>
<clus scale="   51.817">  1  5  2 -1</clus>
<clus scale="   79.442">  2  6  1 -1</clus>
<clus scale="   51.817">  1  3  2 -1</clus>
</clustering>
</event>
<event>
 6    0  0.2781617E+002  0.1267727E+03  0.7546771E-02  0.1232325E+00
          1   -1    0    0  503    0 -0.00000000000E+00  0.00000000000E+00  0.14134493027E+04  0.14134493027E+04  0.00000000000E+00 0.  1.
         21   -1    0    0  504  502  0.00000000000E+00 -0.00000000000E+00 -0.41181813712E+02  0.41181813712E+02  0.00000000000E+00 0. -1.
         21    1    1    2  503  505 -0.54538738250E+02  0.54100149181E+01  0.71213580911E+02  0.89861651095E+02  0.00000000000E+00 0.  1.
         21    1    1    2  504  501  0.45176918522E+02  0.11653768825E+02  0.12024720426E+03  0.12898121734E+03  0.00000000000E+00 0. -1.
         21    1    1    2  505  502 -0.71933866661E+02  0.61683427859E+02  0.66540215252E+02  0.11578828391E+03  0.00000000000E+00 0. -1.
          1    1    1    2  501    0  0.81295686390E+02 -0.78747211602E+02  0.11142664886E+04  0.11199999641E+04  0.00000000000E+00 0.  1.
<scales pt_clust_3="40.37825" pt_clust_4="46.65581" pt_clust_5="40.37825" pt_clust_6="115.11893"></scales>
<clustering>
<clus scale="   40.378">  3  5 -1 -1</clus>
<clus scale="   46.656">  2  4  1 -1</clus>
<clus scale="  115.119">  1  6  2 -1</clus>
<clus scale="   46.656">  2  3  1 -1</clus>
</clustering>
</event>
<event>
 6    0  0.2781617E+002  0.1433543E+03  0.7546771E-02  0.1208885E+00
         21   -1    0    0  505  502  0.00000000000E+00  0.00000000000E+00  0.24289950239E+03  0.24289950239E+03  0.00000000000E+00 0.  1.
          2   -1    0    0  503    0 -0.00000000000E+00 -0.00000000000E+00 -0.19165437061E+04  0.19165437061E+04  0.00000000000E+00 0. -1.
         21    1    1    2  503  504  0.41360071098E+02  0.16408661958E+02 -0.13831586534E+02  0.46596270822E+02  0.00000000000E+00 0.  1.
         21    1    1    2  504  502  0.37224347388E+02  0.10456132360E+02  0.32738405823E+02  0.50663457819E+02  0.00000000000E+00 0.  1.
         21    1    1    2  505  501  0.15016061310E+02  0.83132499138E+02  0.17222216507E+03  0.19182535977E+03  0.00000000000E+00 0.  1.
          2    1    1    2  501    0 -0.93600479797E+02 -0.10999729346E+03 -0.18647731881E+04  0.18703581201E+04  0.00000000000E+00 0. -1.
<scales pt_clust_3="47.62847" pt_clust_4="38.66501" pt_clust_5="143.35430" pt_clust_6="14000.00000"></scales>
<clustering>
<clus scale="   38.665">  1  4  2 -1</clus>
<clus scale="   47.628">  1  3  2 -1</clus>
<clus scale="  143.354">  1  5  2 -1</clus>
<clus scale="   38.665">  1  3  2 -1</clus>
</clustering>
</event>
<event>
 6    0  0.2781617E+002  0.1424124E+03  0.7546771E-02  0.1210119E+00
         21   -1    0    0  505  502  0.00000000000E+00  0.00000000000E+00  0.12898761452E+03  0.12898761452E+03  0.00000000000E+00 0. -1.
         -2   -1    0    0    0  501 -0.00000000000E+00 -0.00000000000E+00 -0.71477143826E+03  0.71477143826E+03  0.00000000000E+00 0.  1.
         21    1    1    2  503  502 -0.24453065267E+02  0.37364807255E+02 -0.11746693456E+02  0.46174300529E+02  0.00000000000E+00 0. -1.
         21    1    1    2  504  503  0.15206093035E+02  0.75079388707E+02 -0.29563638182E+02  0.82110587482E+02  0.00000000000E+00 0. -1.
         21    1    1    2  505  501  0.56281336546E+02 -0.14637349205E+03  0.10788653693E+02  0.15719154896E+03  0.00000000000E+00 0. -1.
         -2    1    1    2    0  504 -0.47034364313E+02  0.33929296083E+02 -0.55526214580E+03  0.55828261581E+03  0.00000000000E+00 0.  1.
<scales pt_clust_3="34.32593" pt_clust_4="34.32593" pt_clust_5="135.12966" pt_clust_6="57.99507"></scales>
<clustering>
<clus scale="   34.326">  3  4 -1 -1</clus>
<clus scale="   57.995">  2  6  1 -1</clus>
<clus scale="  135.130">  1  5  2 -1</clus>
<clus scale="  135.130">  1  3  2 -1</clus>
</clustering>
</event>
<event>
 6    0  0.2781617E+002  0.9699188E+02  0.7546771E-02  0.1286752E+00
         21   -1    0    0  504  502  0.00000000000E+00  0.00000000000E+00  0.20624071321E+03  0.20624071321E+03  0.00000000000E+00 0. -1.
          2   -1    0    0  505    0 -0.00000000000E+00 -0.00000000000E+00 -0.96782620033E+03  0.96782620033E+03  0.00000000000E+00 0.  1.
         21    1    1    2  503  501 -0.26800305197E+02 -0.87868139634E+02  0.82663475128E+01  0.92235561594E+02  0.00000000000E+00 0. -1.
         21    1    1    2  504  503 -0.38114585258E+02 -0.12598778940E+02  0.12961152575E+03  0.13568566043E+03  0.00000000000E+00 0. -1.
         21    1    1    2  505  502  0.23143943553E+02  0.87304693225E+02 -0.66818242876E+02  0.11234958462E+03  0.00000000000E+00 0.  1.
          2    1    1    2  501    0  0.41770946902E+02  0.13162225349E+02 -0.83264511750E+03  0.83379610690E+03  0.00000000000E+00 0.  1.
<scales pt_clust_3="96.99188" pt_clust_4="40.14288" pt_clust_5="14000.00000" pt_clust_6="43.48173"></scales>
<clustering>
<clus scale="   40.143">  1  4  2 -1</clus>
<clus scale="   43.482">  2  6  1 -1</clus>
<clus scale="   96.992">  1  3  2 -1</clus>
<clus scale="   40.143">  1  3  2 -1</clus>
</clustering>
</event>
<event>
 6    0  0.2781617E+002  0.2245641E+03  0.7546771E-02  0.1130525E+00
         -4   -1    0    0    0  501 -0.00000000000E+00  0.00000000000E+00  0.57999810161E+03  0.57999810161E+03  0.00000000000E+00 0. -1.
         21   -1    0    0  501  502  0.00000000000E+00 -0.00000000000E+00 -0.13499360606E+03  0.13499360606E+03  0.00000000000E+00 0. -1.
         21    1    1    2  503  505  0.34420338282E+02  0.11231751673E+03  0.42597539079E+02  0.12495813134E+03  0.00000000000E+00 0. -1.
         21    1    1    2  504  502 -0.11510156408E+03 -0.19781014801E+03  0.10561271872E+03  0.25205410345E+03  0.00000000000E+00 0. -1.
         21    1    1    2  505  504  0.49817319275E+02  0.74381644909E+02  0.84295964489E+02  0.12296423882E+03  0.00000000000E+00 0. -1.
         -4    1    1    2    0  503  0.30863906520E+02  0.11110986374E+02  0.21249827326E+03  0.21501523407E+03  0.00000000000E+00 0. -1.
<scales pt_clust_3="52.09196" pt_clust_4="216.83649" pt_clust_5="52.09196" pt_clust_6="32.80297"></scales>
<clustering>
<clus scale="   32.803">  1  6  2 -1</clus>
<clus scale="   52.092">  3  5 -1 -1</clus>
<clus scale="  216.836">  2  4  1 -1</clus>
<clus scale="  216.836">  2  3  1 -1</clus>
</clustering>
</event>
<event>
 6    0  0.2781617E+002  0.1540183E+03  0.7546771E-02  0.1195620E+00
          2   -1    0    0  504    0 -0.00000000000E+00  0.00000000000E+00  0.18356227161E+04  0.18356227161E+04  0.00000000000E+00 0. -1.
         21   -1    0    0  501  502  0.00000000000E+00 -0.00000000000E+00 -0.11877375916E+03  0.11877375916E+03  0.00000000000E+00 0. -1.
         21    1    1    2  503  505 -0.45948335070E+01  0.43961117639E+02  0.28340323550E+01  0.44291354669E+02  0.00000000000E+00 0. -1.
         21    1    1    2  504  503  0.49936179214E+02 -0.12690364964E+03  0.25005475434E+03  0.28482545261E+03  0.00000000000E+00 0.  1.
         21    1    1    2  505  502 -0.91672891403E+02  0.58095074408E+02 -0.43484733773E+02  0.11691825674E+03  0.00000000000E+00 0. -1.
          2    1    1    2  501    0  0.46331545696E+02  0.24847457597E+02  0.15074449041E+04  0.15083614113E+04  0.00000000000E+00 0. -1.
<scales pt_clust_3="43.53208" pt_clust_4="138.08882" pt_clust_5="43.53208" pt_clust_6="52.57384"></scales>
<clustering>
<clus scale="   43.532">  3  5 -1 -1</clus>
<clus scale="   52.574">  1  6  2 -1</clus>
<clus scale="  138.089">  1  4  2 -1</clus>
<clus scale="  154.018">  2  3  1 -1</clus>
</clustering>
</event>
<event>
 6    0  0.2781617E+002  0.2824768E+03  0.7546771E-02  0.1094344E+00
         21   -1    0    0  505  502  0.00000000000E+00  0.00000000000E+00  0.16860807100E+03  0.16860807100E+03  0.00000000000E+00 0.  1.
          2   -1    0    0  504    0 -0.00000000000E+00 -0.00000000000E+00 -0.24977644865E+04  0.24977644865E+04  0.00000000000E+00 0. -1.
         21    1    1    2  503  501  0.46138575012E+02  0.88016849239E+02 -0.18063580320E+03  0.20616747379E+03  0.00000000000E+00 0.  1.
         21    1    1    2  504  502 -0.13877509953E+02 -0.29925464192E+03 -0.53713520163E+03  0.61502857724E+03  0.00000000000E+00 0. -1.
         21    1    1    2  505  503 -0.46700925509E+01  0.27763937589E+03 -0.50009850253E+02  0.28214609324E+03  0.00000000000E+00 0.  1.
          2    1    1    2  501    0 -0.27590972508E+02 -0.66401583200E+02 -0.15613755604E+04  0.15630304133E+04  0.00000000000E+00 0. -1.
<scales pt_clust_3="84.58136" pt_clust_4="14000.00000" pt_clust_5="282.47684" pt_clust_6="71.90572"></scales>
<clustering>
<clus scale="   71.906">  2  6  1 -1</clus>
<clus scale="   84.581">  2  3  1 -1</clus>
<clus scale="  282.477">  1  5  2 -1</clus>
<clus scale="  282.477">  1  3  2 -1</clus>
</clustering>
</event>
<event>
 6    0  0.2781617E+002  0.1101155E+03  0.7546771E-02  0.1260356E+00
          2   -1    0    0  502    0 -0.00000000000E+00  0.00000000000E+00  0.19365716644E+04  0.19365716644E+04  0.00000000000E+00 0. -1.
         21   -1    0    0  503  502  0.00000000000E+00 -0.00000000000E+00 -0.54588827665E+03  0.54588827665E+03  0.00000000000E+00 0.  1.
         21    1    1    2  503  504 -0.17460903096E+02  0.62588557813E+02 -0.37741800881E+03  0.38297070917E+03  0.00000000000E+00 0.  1.
         21    1    1    2  504  505  0.27945371729E+01  0.42665239604E+02 -0.12464051371E+03  0.13177021578E+03  0.00000000000E+00 0.  1.
         21    1    1    2  505  501 -0.50299591853E+02 -0.75783351213E+02  0.19379154913E+02  0.92998477981E+02  0.00000000000E+00 0. -1.
          2    1    1    2  501    0  0.64965957776E+02 -0.29470446205E+02  0.18733627554E+04  0.18747205381E+04  0.00000000000E+00 0. -1.
<scales pt_clust_3="32.46741" pt_clust_4="32.46741" pt_clust_5="102.58374" pt_clust_6="71.33781"></scales>
<clustering>
<clus scale="   32.467">  3  4 -1 -1</clus>
<clus scale="   71.338">  1  6  2 -1</clus>
<clus scale="  102.584">  1  5  2 -1</clus>
<clus scale="  110.115">  2  3  1 -1</clus>
</clustering>
</event>
<event>
 6    0  0.2781617E+002  0.1535299E+03  0.7546771E-02  0.1196201E+00
         21   -1    0    0  504  502  0.00000000000E+00  0.00000000000E+00  0.23109836418E+03  0.23109836418E+03  0.00000000000E+00 0.  1.
          1   -1    0    0  503    0 -0.00000000000E+00 -0.00000000000E+00 -0.13224423740E+04  0.13224423740E+04  0.00000000000E+00 0. -1.
         21    1    1    2  503  502 -0.52454206964E+02  0.12202358611E+03 -0.65303578616E+01  0.13298061877E+03  0.00000000000E+00 0.  1.
         21    1    1    2  504  505  0.88101156259E+02 -0.14172651183E+03  0.11948949824E+03  0.20524609151E+03  0.00000000000E+00 0.  1.
         21    1    1    2  505  501 -0.88556106790E+01  0.40678791990E+02 -0.77304859444E+02  0.87802205279E+02  0.00000000000E+00 0. -1.
          1    1    1    2  501    0 -0.26791338617E+02 -0.20975866267E+02 -0.11269982907E+04  0.11275118226E+04  0.00000000000E+00 0. -1.
<scales pt_clust_3="14000.00000" pt_clust_4="153.52986" pt_clust_5="37.67234" pt_clust_6="34.02591"></scales>
<clustering>
<clus scale="   34.026">  2  6  1 -1</clus>
<clus scale="   37.672">  2  5  1 -1</clus>
<clus scale="  153.530">  1  4  2 -1</clus>
<clus scale="  153.530">  1  3  2 -1</clus>
</clustering>
</event>
<event>
 6    0  0.2781617E+002  0.1552581E+03  0.7546771E-02  0.1194157E+00
         -4   -1    0    0    0  501 -0.00000000000E+00  0.00000000000E+00  0.22904028509E+03  0.22904028509E+03  0.00000000000E+00 0.  1.
         21   -1    0    0  503  502  0.00000000000E+00 -0.00000000000E+00 -0.17151264845E+03  0.17151264845E+03  0.00000000000E+00 0.  1.
         21    1    1    2  503  501 -0.51110980972E+02  0.53386635692E+02  0.51108530290E+02  0.89858483822E+02  0.00000000000E+00 0. -1.
         21    1    1    2  504  505  0.73544481908E+02  0.48442579759E+02 -0.39489300737E+02  0.96513621969E+02  0.00000000000E+00 0.  1.
         21    1    1    2  505  502  0.57257120534E+02  0.22066023050E+02  0.20490489979E+02  0.64692715236E+02  0.00000000000E+00 0.  1.
         -4    1    1    2    0  504 -0.79690621470E+02 -0.12389523850E+03  0.25417917104E+02  0.14948811252E+03  0.00000000000E+00 0.  1.
<scales pt_clust_3="73.90849" pt_clust_4="49.70696" pt_clust_5="49.70696" pt_clust_6="143.38432"></scales>
<clustering>
<clus scale="   49.707">  4  5 -1 -1</clus>
<clus scale="   73.908">  1  3  2 -1</clus>
<clus scale="  143.384">  1  6  2 -1</clus>
<clus scale="  155.258">  2  3  1 -1</clus>
</clustering>
</event>
<event>
 6    0  0.2781617E+002  0.2497763E+03  0.7546771E-02  0.1113446E+00
         21   -1    0    0  504  502  0.00000000000E+00  0.00000000000E+00  0.44956802709E+03  0.44956802709E+03  0.00000000000E+00 0.  1.
          1   -1    0    0  502    0 -0.00000000000E+00 -0.00000000000E+00 -0.53362523603E+03  0.53362523603E+03  0.00000000000E+00 0.  1.
         21    1    1    2  503  505  0.16162083651E+03  0.49392505026E+02  0.18938854850E+02  0.17005762133E+03  0.00000000000E+00 0. -1.
         21    1    1    2  504  503 -0.24567211858E+03 -0.70568359653E+02  0.25310848926E+03  0.35972015591E+03  0.00000000000E+00 0.  1.
         21    1    1    2  505  501  0.50413730700E+02 -0.13035671484E+02  0.32814077779E+02  0.61548652907E+02  0.00000000000E+00 0. -1.
          1    1    1    2  501    0  0.33637551366E+02  0.34211526111E+02 -0.38891863083E+03  0.39186683297E+03  0.00000000000E+00 0.  1.
<scales pt_clust_3="37.98419" pt_clust_4="240.21980" pt_clust_5="37.98419" pt_clust_6="47.97826"></scales>
<clustering>
<clus scale="   37.984">  3  5 -1 -1</clus>
<clus scale="   47.978">  2  6  1 -1</clus>
<clus scale="  240.220">  1  4  2 -1</clus>
<clus scale="  240.220">  1  3  2 -1</clus>
</clustering>
</event>
<event>
 6    0  0.2781617E+002  0.3015613E+03  0.7546771E-02  0.1084463E+00
          1   -1    0    0  503    0 -0.00000000000E+00  0.00000000000E+00  0.43718994976E+03  0.43718994976E+03  0.00000000000E+00 0. -1.
         21   -1    0    0  501  502  0.00000000000E+00 -0.00000000000E+00 -0.34217481257E+03  0.34217481257E+03  0.00000000000E+00 0. -1.
         21    1    1    2  503  505 -0.19966875070E+02  0.22557192390E+02  0.69296597630E+02  0.75561375528E+02  0.00000000000E+00 0. -1.
         21    1    1    2  504  502 -0.29592645145E+03  0.24930787048E+01 -0.11718104466E+03  0.31829243996E+03  0.00000000000E+00 0. -1.
         21    1    1    2  505  504  0.41190008714E+01  0.36843264425E+02  0.31652412537E+02  0.48746974481E+02  0.00000000000E+00 0.  1.
          1    1    1    2  501    0  0.31177432565E+03 -0.61893535520E+02  0.11124717168E+03  0.33676397236E+03  0.00000000000E+00 0. -1.
<scales pt_clust_3="30.12479" pt_clust_4="301.56133" pt_clust_5="39.37602" pt_clust_6="14000.00000"></scales>
<clustering>
<clus scale="   30.125">  1  3  2 -1</clus>
<clus scale="   39.376">  1  5  2 -1</clus>
<clus scale="  301.561">  2  4  1 -1</clus>
<clus scale="  301.561">  2  3  1 -1</clus>
</clustering>
</event>
<event>
 6    0  0.2781617E+002  0.3110597E+03  0.7546771E-02  0.1079839E+00
          1   -1    0    0  504    0 -0.00000000000E+00  0.00000000000E+00  0.20030728514E+03  0.20030728514E+03  0.00000000000E+00 0.  1.
         21   -1    0    0  501  502  0.00000000000E+00 -0.00000000000E+00 -0.69625263246E+03  0.69625263246E+03  0.00000000000E+00 0.  1.
         21    1    1    2  503  502  0.14341726898E+03 -0.33329714844E+02 -0.23243564166E+03  0.27514670713E+03  0.00000000000E+00 0.  1.
         21    1    1    2  504  505  0.41068457587E+02  0.34068666187E+02 -0.12073906421E+03  0.13200459784E+03  0.00000000000E+00 0.  1.
         21    1    1    2  505  503  0.10739622602E+03  0.11368202935E+02 -0.16415460061E+03  0.19649406684E+03  0.00000000000E+00 0.  1.
          1    1    1    2  501    0 -0.29188195258E+03 -0.12107154277E+02  0.21383959163E+02  0.29291454580E+03  0.00000000000E+00 0.  1.
<scales pt_clust_3="44.12021" pt_clust_4="44.12021" pt_clust_5="36.04632" pt_clust_6="292.13294"></scales>
<clustering>
<clus scale="   36.046">  3  5 -1 -1</clus>
<clus scale="   44.120">  3  4 -1 -1</clus>
<clus scale="  292.133">  1  6  2 -1</clus>
<clus scale="  311.060">  2  3  1 -1</clus>
</clustering>
</event>
<event>
 6    0  0.2781617E+002  0.1112945E+03  0.7546771E-02  0.1258191E+00
          4   -1    0    0  505    0 -0.00000000000E+00  0.00000000000E+00  0.30714669792E+03  0.30714669792E+03  0.00000000000E+00 0. -1.
         21   -1    0    0  503  502  0.00000000000E+00 -0.00000000000E+00 -0.29258176342E+03  0.29258176342E+03  0.00000000000E+00 0. -1.
         21    1    1    2  503  504  0.75133491150E+02 -0.11537549261E+03 -0.10834843822E+03  0.17520253951E+03  0.00000000000E+00 0. -1.
         21    1    1    2  504  501  0.56272828551E+02  0.93237584600E+02 -0.45300751432E+00  0.10890401109E+03  0.00000000000E+00 0. -1.
         21    1    1    2  505  502 -0.93313011223E+02  0.36543672213E+02 -0.67260759558E+02  0.12069286565E+03  0.00000000000E+00 0.  1.
          4    1    1    2  501    0 -0.38093308478E+02 -0.14405764203E+02  0.19062713980E+03  0.19492904509E+03  0.00000000000E+00 0. -1.
<scales pt_clust_3="14000.00000" pt_clust_4="94.47947" pt_clust_5="111.29452" pt_clust_6="40.72623"></scales>
<clustering>
<clus scale="   40.726">  1  6  2 -1</clus>
<clus scale="   94.479">  1  4  2 -1</clus>
<clus scale="  111.295">  2  5  1 -1</clus>
<clus scale="  111.295">  2  3  1 -1</clus>
</clustering>
</event>
<event>
 6    0  0.2781617E+002  0.6026451E+02  0.7546771E-02  0.1396725E+00
          2   -1    0    0  504    0 -0.00000000000E+00  0.00000000000E+00  0.11296011430E+04  0.11296011430E+04  0.00000000000E+00 0. -1.
         21   -1    0    0  503  502  0.00000000000E+00 -0.00000000000E+00 -0.18671419565E+03  0.18671419565E+03  0.00000000000E+00 0. -1.
         21    1    1    2  503  501  0.90672398873E+01  0.85656819141E+02 -0.41396810639E+01  0.86234810047E+02  0.00000000000E+00 0. -1.
         21    1    1    2  504  505 -0.55229317725E+02  0.15707183623E+02 -0.12602147569E+01  0.57433276896E+02  0.00000000000E+00 0. -1.
         21    1    1    2  505  502  0.20277347808E+02 -0.53259011795E+02 -0.10418818746E+03  0.11875551178E+03  0.00000000000E+00 0. -1.
          2    1    1    2  501    0  0.25884730030E+02 -0.48104990969E+02  0.10524750307E+04  0.10538917400E+04  0.00000000000E+00 0. -1.
<scales pt_clust_3="14000.00000" pt_clust_4="45.75823" pt_clust_5="60.26451" pt_clust_6="54.62700"></scales>
<clustering>
<clus scale="   54.627">  1  6  2 -1</clus>
<clus scale="   45.758">  1  4  2 -1</clus>
<clus scale="   60.265">  2  5  1 -1</clus>
<clus scale="   60.265">  2  3  1 -1</clus>
</clustering>
</event>
<event>
 6    0  0.2781617E+002  0.1432103E+03  0.7546771E-02  0.1209073E+00
          2   -1    0    0  505    0 -0.00000000000E+00  0.00000000000E+00  0.48703723577E+04  0.48703723577E+04  0.00000000000E+00 0. -1.
         21   -1    0    0  503  502  0.00000000000E+00 -0.00000000000E+00 -0.12789173245E+02  0.12789173245E+02  0.00000000000E+00 0.  1.
         21    1    1    2  503  501  0.38435505855E+02  0.20330563455E+02  0.17220793454E+03  0.17761247884E+03  0.00000000000E+00 0. -1.
         21    1    1    2  504  502 -0.11536442129E+01 -0.36756474731E+02  0.12869187907E+03  0.13384307628E+03  0.00000000000E+00 0.  1.
         21    1    1    2  505  504 -0.12531466521E+03 -0.93822973729E+02  0.99589102278E+03  0.10081197573E+04  0.00000000000E+00 0.  1.
          2    1    1    2  501    0  0.88032803567E+02  0.11024888501E+03  0.35607923481E+04  0.35635862186E+04  0.00000000000E+00 0. -1.
<scales pt_clust_3="39.57775" pt_clust_4="36.77457" pt_clust_5="14000.00000" pt_clust_6="143.21026"></scales>
<clustering>
<clus scale="   36.775">  2  4  1 -1</clus>
<clus scale="   39.578">  2  3  1 -1</clus>
<clus scale="  143.210">  1  6  2 -1</clus>
<clus scale="   36.775">  2  3  1 -1</clus>
</clustering>
</event>
<event>
 6    0  0.2781617E+002  0.1053774E+03  0.7546771E-02  0.1269378E+00
          2   -1    0    0  504    0 -0.00000000000E+00  0.00000000000E+00  0.11950322109E+04  0.11950322109E+04  0.00000000000E+00 0.  1.
         21   -1    0    0  505  502  0.00000000000E+00 -0.00000000000E+00 -0.53244346643E+02  0.53244346643E+02  0.00000000000E+00 0. -1.
         21    1    1    2  503  502  0.29793845672E+02 -0.14787872688E+02  0.28484075362E+02  0.43791517075E+02  0.00000000000E+00 0.  1.
         21    1    1    2  504  503  0.37645284370E+02 -0.61784687928E+02 -0.63413006226E+00  0.72352727789E+02  0.00000000000E+00 0. -1.
         21    1    1    2  505  501  0.25087176890E+02  0.57794510988E+02  0.13875040568E+03  0.15238519292E+03  0.00000000000E+00 0.  1.
          2    1    1    2  501    0 -0.92526306932E+02  0.18778049627E+02  0.97518751327E+03  0.97974711975E+03  0.00000000000E+00 0.  1.
<scales pt_clust_3="32.53507" pt_clust_4="32.53507" pt_clust_5="63.00454" pt_clust_6="93.81855"></scales>
<clustering>
<clus scale="   32.535">  3  4 -1 -1</clus>
<clus scale="   63.005">  2  5  1 -1</clus>
<clus scale="   93.819">  1  6  2 -1</clus>
<clus scale="   63.005">  2  3  1 -1</clus>
</clustering>
</event>
<event>
 6    0  0.2781617E+002  0.1745775E+03  0.7546771E-02  0.1173157E+00
          2   -1    0    0  503    0 -0.00000000000E+00  0.00000000000E+00  0.19296346791E+04  0.19296346791E+04  0.00000000000E+00 0.  1.
         21   -1    0    0  504  502  0.00000000000E+00 -0.00000000000E+00 -0.24711956888E+03  0.24711956888E+03  0.00000000000E+00 0.  1.
         21    1    1    2  503  502 -0.33300747747E+02 -0.99235397789E+01  0.90589849253E+01  0.35909353241E+02  0.00000000000E+00 0. -1.
         21    1    1    2  504  505 -0.23259269156E+02 -0.25695074398E+02 -0.23081901512E+02  0.41641381190E+02  0.00000000000E+00 0. -1.
         21    1    1    2  505  501 -0.97410505322E+02 -0.26228531815E+02 -0.18481114805E+03  0.21055142571E+03  0.00000000000E+00 0.  1.
          2    1    1    2  501    0  0.15397052222E+03  0.61847145992E+02  0.18813491748E+04  0.18886520878E+04  0.00000000000E+00 0.  1.
<scales pt_clust_3="34.74790" pt_clust_4="32.76350" pt_clust_5="32.76350" pt_clust_6="165.38706"></scales>
<clustering>
<clus scale="   32.763">  4  5 -1 -1</clus>
<clus scale="   34.748">  2  3  1 -1</clus>
<clus scale="  165.387">  1  6  2 -1</clus>
<clus scale="   34.748">  2  3  1 -1</clus>
</clustering>
</event>
<event>
 6    0  0.2781617E+002  0.1423000E+03  0.7546771E-02  0.1210267E+00
         21   -1    0    0  505  502  0.00000000000E+00  0.00000000000E+00  0.52647380497E+03  0.52647380497E+03  0.00000000000E+00 0.  1.
          1   -1    0    0  504    0 -0.00000000000E+00 -0.00000000000E+00 -0.13783707155E+04  0.13783707155E+04  0.00000000000E+00 0.  1.
         21    1    1    2  503  502 -0.11388252016E+02 -0.52273248262E+02  0.59273019025E+02  0.79846575081E+02  0.00000000000E+00 0. -1.
         21    1    1    2  504  503  0.65891601920E+02  0.12382830697E+02 -0.16223309123E+03  0.17554091714E+03  0.00000000000E+00 0. -1.
         21    1    1    2  505  501 -0.83254105589E+02 -0.56504380301E+02  0.44249289234E+03  0.45378844284E+03  0.00000000000E+00 0.  1.
          1    1    1    2  501    0  0.28750755686E+02  0.96394797865E+02 -0.11914297307E+04  0.11956685854E+04  0.00000000000E+00 0.  1.
<scales pt_clust_3="53.49939" pt_clust_4="66.74531" pt_clust_5="142.30005" pt_clust_6="14000.00000"></scales>
<clustering>
<clus scale="   53.499">  1  3  2 -1</clus>
<clus scale="   66.745">  2  4  1 -1</clus>
<clus scale="  142.300">  1  5  2 -1</clus>
<clus scale="   53.499">  1  3  2 -1</clus>
</clustering>
</event>
<event>
 6    0  0.2781617E+002  0.7563368E+02  0.7546771E-02  0.1341920E+00
         21   -1    0    0  501  502  0.00000000000E+00  0.00000000000E+00  0.29238830107E+02  0.29238830107E+02  0.00000000000E+00 0. -1.
          2   -1    0    0  504    0 -0.00000000000E+00 -0.00000000000E+00 -0.96788312506E+03  0.96788312506E+03  0.00000000000E+00 0. -1.
         21    1    1    2  503  505 -0.20848241685E+02  0.44688978153E+02 -0.23877111947E+03  0.24381017502E+03  0.00000000000E+00 0. -1.
         21    1    1    2  504  503  0.21988176191E+02  0.26149602448E+02 -0.10917027442E+03  0.11439156620E+03  0.00000000000E+00 0. -1.
         21    1    1    2  505  502  0.31116059461E+01  0.52278883686E+02 -0.21623829179E+02  0.56659983757E+02  0.00000000000E+00 0. -1.
          2    1    1    2  501    0 -0.42515404517E+01 -0.12311746429E+03 -0.56907907187E+03  0.58226023018E+03  0.00000000000E+00 0. -1.
<scales pt_clust_3="75.63368" pt_clust_4="34.16550" pt_clust_5="53.63272" pt_clust_6="14000.00000"></scales>
<clustering>
<clus scale="   34.166">  2  4  1 -1</clus>
<clus scale="   53.633">  1  5  2 -1</clus>
<clus scale="   75.634">  2  3  1 -1</clus>
<clus scale="   53.633">  1  3  2 -1</clus>
</clustering>
</event>
<event>
 6    0  0.2781617E+002  0.2014233E+03  0.7546771E-02  0.1148544E+00
          2   -1    0    0  503    0 -0.00000000000E+00  0.00000000000E+00  0.22919666596E+04  0.22919666596E+04  0.00000000000E+00 0.  1.
         21   -1    0    0  504  502  0.00000000000E+00 -0.00000000000E+00 -0.62413252909E+03  0.62413252909E+03  0.00000000000E+00 0.  1.
         21    1    1    2  503  502 -0.20729944995E+03  0.75163401937E+02  0.10135680576E+03  0.24268457102E+03  0.00000000000E+00 0.  1.
         21    1    1    2  504  505  0.10608000440E+03 -0.29267538662E+01 -0.38659264496E+03  0.40089326055E+03  0.00000000000E+00 0.  1.
         21    1    1    2  505  501  0.82373754215E+02 -0.97656584938E+01 -0.14841532246E+03  0.17002326726E+03  0.00000000000E+00 0.  1.
          2    1    1    2  501    0  0.18845691334E+02 -0.62470989577E+02  0.21014852922E+04  0.21024980898E+04  0.00000000000E+00 0.  1.
<scales pt_clust_3="191.14163" pt_clust_4="56.16929" pt_clust_5="56.16929" pt_clust_6="65.25170"></scales>
<clustering>
<clus scale="   56.169">  4  5 -1 -1</clus>
<clus scale="   65.252">  1  6  2 -1</clus>
<clus scale="  191.142">  1  3  2 -1</clus>
<clus scale="  201.423">  2  3  1 -1</clus>
</clustering>
</event>
<event>
 6    0  0.2781617E+002  0.1315616E+03  0.7546771E-02  0.1225157E+00
         21   -1    0    0  503  502  0.00000000000E+00  0.00000000000E+00  0.13882596388E+04  0.13882596388E+04  0.00000000000E+00 0.  1.
         -2   -1    0    0    0  501 -0.00000000000E+00 -0.00000000000E+00 -0.18182444620E+03  0.18182444620E+03  0.00000000000E+00 0. -1.
         21    1    1    2  503  501 -0.51009225774E+02  0.29793791467E+02  0.43229621197E+02  0.73201169888E+02  0.00000000000E+00 0.  1.
         21    1    1    2  504  505  0.31120925323E+02  0.36615302885E+02  0.28742230373E+03  0.29141169002E+03  0.00000000000E+00 0.  1.
         21    1    1    2  505  502  0.47162086648E+02  0.56346887804E+02  0.10151229205E+04  0.10177788453E+04  0.00000000000E+00 0.  1.
         -2    1    1    2    0  504 -0.27273786196E+02 -0.12275598216E+03 -0.13933965286E+03  0.18769237978E+03  0.00000000000E+00 0. -1.
<scales pt_clust_3="59.07293" pt_clust_4="41.12089" pt_clust_5="41.12089" pt_clust_6="121.33776"></scales>
<clustering>
<clus scale="   41.121">  4  5 -1 -1</clus>
<clus scale="   59.073">  2  3  1 -1</clus>
<clus scale="  121.338">  2  6  1 -1</clus>
<clus scale="  131.562">  1  3  2 -1</clus>
</clustering>
</event>
<event>
 6    0  0.2781617E+002  0.1107232E+03  0.7546771E-02  0.1259236E+00
         21   -1    0    0  505  502  0.00000000000E+00  0.00000000000E+00  0.10359364881E+04  0.10359364881E+04  0.00000000000E+00 0.  1.
         -1   -1    0    0    0  501 -0.00000000000E+00 -0.00000000000E+00 -0.97032480266E+02  0.97032480266E+02  0.00000000000E+00 0.  1.
         21    1    1    2  503  501 -0.85276050299E+00  0.31440899680E+02  0.42501610187E+02  0.52873852155E+02  0.00000000000E+00 0. -1.
         21    1    1    2  504  502 -0.78794417375E+02  0.46638949874E+01  0.39202612537E+03  0.39989347969E+03  0.00000000000E+00 0.  1.
         21    1    1    2  505  503  0.54259239627E+02  0.10240782349E+03  0.52521358807E+03  0.53784825043E+03  0.00000000000E+00 0.  1.
         -1    1    1    2    0  504  0.25387938251E+02 -0.13851261816E+03 -0.20837315803E+02  0.14235338608E+03  0.00000000000E+00 0.  1.
<scales pt_clust_3="31.45246" pt_clust_4="79.05974" pt_clust_5="110.72321" pt_clust_6="14000.00000"></scales>
<clustering>
<clus scale="   31.452">  2  3  1 -1</clus>
<clus scale="   79.060">  1  4  2 -1</clus>
<clus scale="  110.723">  1  5  2 -1</clus>
<clus scale="   79.060">  1  3  2 -1</clus>
</clustering>
</event>
<event>
 6    0  0.2781617E+002  0.1414107E+03  0.7546771E-02  0.1211443E+00
          4   -1    0    0  503    0 -0.00000000000E+00  0.00000000000E+00  0.10775893707E+04  0.10775893707E+04  0.00000000000E+00 0. -1.
         21   -1    0    0  504  502  0.00000000000E+00 -0.00000000000E+00 -0.28040705869E+03  0.28040705869E+03  0.00000000000E+00 0. -1.
         21    1    1    2  503  502  0.74697743931E+02  0.24475721392E+02 -0.98211799256E+02  0.12579495777E+03  0.00000000000E+00 0.  1.
         21    1    1    2  504  505 -0.12249147184E+03 -0.76019839728E+02 -0.99632355055E+02  0.17524206938E+03  0.00000000000E+00 0. -1.
         21    1    1    2  505  501 -0.21413431672E+02 -0.47033120948E+02 -0.29295115213E+01  0.51761294032E+02  0.00000000000E+00 0. -1.
          4    1    1    2  501    0  0.69207159582E+02  0.98577239283E+02  0.99795597783E+03  0.10051981082E+04  0.00000000000E+00 0. -1.
<scales pt_clust_3="78.60543" pt_clust_4="43.01209" pt_clust_5="43.01209" pt_clust_6="121.80327"></scales>
<clustering>
<clus scale="   43.012">  4  5 -1 -1</clus>
<clus scale="   78.605">  2  3  1 -1</clus>
<clus scale="  121.803">  1  6  2 -1</clus>
<clus scale="   78.605">  2  3  1 -1</clus>
</clustering>
</event>
<event>
 6    0  0.2781617E+002  0.1311926E+03  0.7546771E-02  0.1225697E+00
          2   -1    0    0  503    0 -0.00000000000E+00  0.00000000000E+00  0.10929626305E+04  0.10929626305E+04  0.00000000000E+00 0. -1.
         21   -1    0    0  505  502  0.00000000000E+00 -0.00000000000E+00 -0.18413178534E+04  0.18413178534E+04  0.00000000000E+00 0. -1.
         21    1    1    2  503  502 -0.49049414110E+02  0.67155168909E+02 -0.63503118863E+03  0.64045317726E+03  0.00000000000E+00 0. -1.
         21    1    1    2  504  501  0.13540202243E+03  0.11789252102E+02 -0.80134380734E+03  0.81278815918E+03  0.00000000000E+00 0. -1.
         21    1    1    2  505  504  0.44366373216E+02 -0.68084016643E+02 -0.38832220256E+03  0.39673409407E+03  0.00000000000E+00 0. -1.
          2    1    1    2  501    0 -0.13071898153E+03 -0.10860404368E+02  0.10763419756E+04  0.10843050534E+04  0.00000000000E+00 0. -1.
<scales pt_clust_3="47.47804" pt_clust_4="14000.00000" pt_clust_5="81.26382" pt_clust_6="131.19265"></scales>
<clustering>
<clus scale="   81.264">  2  5  1 -1</clus>
<clus scale="   47.478">  2  3  1 -1</clus>
<clus scale="  131.193">  1  6  2 -1</clus>
<clus scale="   81.264">  2  3  1 -1</clus>
</clustering>
</event>
<event>
 6    0  0.2781617E+002  0.8227403E+02  0.7546771E-02  0.1322719E+00
         21   -1    0    0  505  502  0.00000000000E+00  0.00000000000E+00  0.62682674093E+03  0.62682674093E+03  0.00000000000E+00 0.  1.
          1   -1    0    0  504    0 -0.00000000000E+00 -0.00000000000E+00 -0.17340409377E+04  0.17340409377E+04  0.00000000000E+00 0. -1.
         21    1    1    2  503  502  0.75186428597E+01  0.31408997227E+02  0.78890585470E+02  0.85245407930E+02  0.00000000000E+00 0.  1.
         21    1    1    2  504  503 -0.87909150843E+02  0.40702085807E+02  0.45265055305E+03  0.46290085523E+03  0.00000000000E+00 0.  1.
         21    1    1    2  505  501  0.25736234577E+01 -0.45492042430E+02  0.79964387334E+02  0.92035062361E+02  0.00000000000E+00 0. -1.
          1    1    1    2  501    0  0.77816884525E+02 -0.26619040604E+02 -0.17187197227E+04  0.17206863532E+04  0.00000000000E+00 0. -1.
<scales pt_clust_3="32.29636" pt_clust_4="14000.00000" pt_clust_5="40.70765" pt_clust_6="82.27403"></scales>
<clustering>
<clus scale="   32.296">  1  3  2 -1</clus>
<clus scale="   40.708">  1  5  2 -1</clus>
<clus scale="   82.274">  2  6  1 -1</clus>
<clus scale="   32.296">  1  3  2 -1</clus>
</clustering>
</event>
<event>
 6    0  0.2781617E+002  0.1673151E+03  0.7546771E-02  0.1180677E+00
          2   -1    0    0  504    0 -0.00000000000E+00  0.00000000000E+00  0.22765359819E+04  0.22765359819E+04  0.00000000000E+00 0. -1.
         21   -1    0    0  503  502  0.00000000000E+00 -0.00000000000E+00 -0.69063370408E+02  0.69063370408E+02  0.00000000000E+00 0. -1.
         21    1    1    2  503  501  0.67963546202E+02 -0.13785936268E+03  0.26529685048E+03  0.30660506578E+03  0.00000000000E+00 0. -1.
         21    1    1    2  504  505 -0.33866895304E+02  0.67022278593E+02  0.75097542032E+02  0.10620072149E+03  0.00000000000E+00 0. -1.
         21    1    1    2  505  502 -0.22407011985E+01  0.87665982191E+02  0.26146697593E+02  0.91509534860E+02  0.00000000000E+00 0. -1.
          2    1    1    2  501    0 -0.31855949699E+02 -0.16828898108E+02  0.18409315214E+04  0.18412840302E+04  0.00000000000E+00 0. -1.
<scales pt_clust_3="156.16528" pt_clust_4="56.32472" pt_clust_5="56.32472" pt_clust_6="36.02795"></scales>
<clustering>
<clus scale="   36.028">  1  6  2 -1</clus>
<clus scale="   56.325">  4  5 -1 -1</clus>
<clus scale="  156.165">  1  3  2 -1</clus>
<clus scale="  167.315">  2  3  1 -1</clus>
</clustering>
</event>
<event>
 6    0  0.2781617E+002  0.2983650E+03  0.7546771E-02  0.1086061E+00
          2   -1    0    0  504    0 -0.00000000000E+00  0.00000000000E+00  0.36797414203E+04  0.36797414203E+04  0.00000000000E+00 0. -1.
         21   -1    0    0  505  502  0.00000000000E+00 -0.00000000000E+00 -0.18127228431E+03  0.18127228431E+03  0.00000000000E+00 0.  1.
         21    1    1    2  503  502  0.22666143586E+03  0.44148474434E+01  0.10158115735E+03  0.24842227942E+03  0.00000000000E+00 0.  1.
         21    1    1    2  504  503 -0.29890562853E+03  0.12130716335E+03  0.10643190400E+04  0.11121308473E+04  0.00000000000E+00 0. -1.
         21    1    1    2  505  501  0.94070762666E+02 -0.71230396353E+02 -0.41938669662E+02  0.12522751202E+03  0.00000000000E+00 0.  1.
          2    1    1    2  501    0 -0.21826569997E+02 -0.54491614438E+02  0.23745076083E+04  0.23752330659E+04  0.00000000000E+00 0. -1.
<scales pt_clust_3="14000.00000" pt_clust_4="298.36498" pt_clust_5="118.50435" pt_clust_6="58.70039"></scales>
<clustering>
<clus scale="   58.700">  1  6  2 -1</clus>
<clus scale="  118.504">  2  5  1 -1</clus>
<clus scale="  298.365">  1  4  2 -1</clus>
<clus scale="  118.504">  2  3  1 -1</clus>
</clustering>
</event>
<event>
 6    0  0.2781617E+002  0.8512119E+02  0.7546771E-02  0.1315116E+00
         21   -1    0    0  504  502  0.00000000000E+00  0.00000000000E+00  0.11396714050E+03  0.11396714050E+03  0.00000000000E+00 0. -1.
         -2   -1    0    0    0  501 -0.00000000000E+00 -0.00000000000E+00 -0.24501442844E+03  0.24501442844E+03  0.00000000000E+00 0. -1.
         21    1    1    2  503  501  0.64945284820E+02  0.18215398380E+02 -0.47623273197E+02  0.82569164392E+02  0.00000000000E+00 0. -1.
         21    1    1    2  504  503  0.14272179742E+02 -0.53763808276E+02  0.36837564232E+02  0.66717676320E+02  0.00000000000E+00 0.  1.
         21    1    1    2  505  502 -0.13419749979E+02 -0.52905695123E+02 -0.13491581610E+02  0.56223883184E+02  0.00000000000E+00 0. -1.
         -2    1    1    2    0  505 -0.65797714582E+02  0.88454105019E+02 -0.10676999737E+03  0.15347084504E+03  0.00000000000E+00 0. -1.
<scales pt_clust_3="62.95372" pt_clust_4="85.12119" pt_clust_5="54.58115" pt_clust_6="14000.00000"></scales>
<clustering>
<clus scale="   54.581">  1  5  2 -1</clus>
<clus scale="   62.954">  2  3  1 -1</clus>
<clus scale="   85.121">  1  4  2 -1</clus>
<clus scale="   54.581">  1  3  2 -1</clus>
</clustering>
</event>
<event>
 6    0  0.2781617E+002  0.8850323E+02  0.7546771E-02  0.1306517E+00
         21   -1    0    0  501  502  0.00000000000E+00  0.00000000000E+00  0.38491550892E+03  0.38491550892E+03  0.00000000000E+00 0.  1.
          2   -1    0    0  504    0 -0.00000000000E+00 -0.00000000000E+00 -0.48061427827E+03  0.48061427827E+03  0.00000000000E+00 0. -1.
         21    1    1    2  503  505  0.36915529398E+02 -0.19321019711E+02  0.12481211355E+03  0.13158313646E+03  0.00000000000E+00 0.  1.
         21    1    1    2  504  503 -0.12345392867E+03  0.88866429607E+02  0.14706265827E+03  0.21157868577E+03  0.00000000000E+00 0. -1.
         21    1    1    2  505  502  0.52919635822E+01 -0.38186450359E+02  0.68003090784E+02  0.78170520184E+02  0.00000000000E+00 0.  1.
          2    1    1    2  501    0  0.81246435688E+02 -0.31358959536E+02 -0.43557663195E+03  0.44419744478E+03  0.00000000000E+00 0. -1.
<scales pt_clust_3="52.48354" pt_clust_4="88.50323" pt_clust_5="38.55139" pt_clust_6="14000.00000"></scales>
<clustering>
<clus scale="   38.551">  1  5  2 -1</clus>
<clus scale="   52.484">  1  3  2 -1</clus>
<clus scale="   88.503">  1  4  2 -1</clus>
<clus scale="   38.551">  1  3  2 -1</clus>
</clustering>
</event>
<event>
 6    0  0.2781617E+002  0.1886581E+03  0.7546771E-02  0.1159677E+00
         21   -1    0    0  505  502  0.00000000000E+00  0.00000000000E+00  0.16684218410E+03  0.16684218410E+03  0.00000000000E+00 0.  1.
          3   -1    0    0  504    0 -0.00000000000E+00 -0.00000000000E+00 -0.67860701364E+03  0.67860701364E+03  0.00000000000E+00 0. -1.
         21    1    1    2  503  501 -0.59527020053E+02 -0.20691379864E+01 -0.12510237348E+02  0.60862578708E+02  0.00000000000E+00 0. -1.
         21    1    1    2  504  502 -0.11141789933E+03  0.15408924462E+03 -0.66693108147E+02  0.20150785164E+03  0.00000000000E+00 0. -1.
         21    1    1    2  505  503  0.13051360942E+03 -0.13559767515E+03 -0.45579589627E+02  0.19364408264E+03  0.00000000000E+00 0.  1.
          3    1    1    2  501    0  0.40431309959E+02 -0.16422431483E+02 -0.38698189442E+03  0.38943468475E+03  0.00000000000E+00 0. -1.
<scales pt_clust_3="54.57682" pt_clust_4="188.65809" pt_clust_5="14000.00000" pt_clust_6="43.63928"></scales>
<clustering>
<clus scale="   43.639">  2  6  1 -1</clus>
<clus scale="   54.577">  2  3  1 -1</clus>
<clus scale="  188.658">  2  4  1 -1</clus>
<clus scale="  188.658">  1  3  2 -1</clus>
</clustering>
</event>
<event>
 6    0  0.2781617E+002  0.3304491E+03  0.7546771E-02  0.1070938E+00
         -1   -1    0    0    0  501 -0.00000000000E+00  0.00000000000E+00  0.51185831653E+03  0.51185831653E+03  0.00000000000E+00 0.  1.
         21   -1    0    0  503  502  0.00000000000E+00 -0.00000000000E+00 -0.60795492112E+03  0.60795492112E+03  0.00000000000E+00 0.  1.
         21    1    1    2  503  504  0.17988994220E+03  0.13270955643E+03 -0.35769410841E+03  0.42180243344E+03  0.00000000000E+00 0.  1.
         21    1    1    2  504  501  0.76879743109E+02  0.78592173767E+02 -0.12460676764E+03  0.16617482126E+03  0.00000000000E+00 0. -1.
         21    1    1    2  505  502 -0.21756367544E+03 -0.19553570413E+03  0.23615102842E+03  0.37594610343E+03  0.00000000000E+00 0.  1.
         -1    1    1    2    0  505 -0.39206009865E+02 -0.15766026064E+02  0.15005324304E+03  0.15588987951E+03  0.00000000000E+00 0.  1.
<scales pt_clust_3="35.23273" pt_clust_4="35.23273" pt_clust_5="326.60770" pt_clust_6="42.25729"></scales>
<clustering>
<clus scale="   35.233">  3  4 -1 -1</clus>
<clus scale="   42.257">  1  6  2 -1</clus>
<clus scale="  326.608">  1  5  2 -1</clus>
<clus scale="  330.449">  2  3  1 -1</clus>
</clustering>
</event>
<event>
 6    0  0.2781617E+002  0.1159894E+03  0.7546771E-02  0.1249864E+00
          2   -1    0    0  504    0 -0.00000000000E+00  0.00000000000E+00  0.50055489791E+03  0.50055489791E+03  0.00000000000E+00 0.  1.
         21   -1    0    0  501  502  0.00000000000E+00 -0.00000000000E+00 -0.18617446592E+03  0.18617446592E+03  0.00000000000E+00 0. -1.
         21    1    1    2  503  505 -0.19049860027E+02 -0.12907503748E+03 -0.54065182521E+01  0.13058519406E+03  0.00000000000E+00 0. -1.
         21    1    1    2  504  503 -0.29571830227E+01  0.10758793946E+03  0.25632920679E+02  0.11063885516E+03  0.00000000000E+00 0. -1.
         21    1    1    2  505  502  0.82786587868E+02  0.21825192327E+02 -0.47892711327E+02  0.98100305551E+02  0.00000000000E+00 0. -1.
          2    1    1    2  501    0 -0.60779544818E+02 -0.33809430287E+00  0.34204674089E+03  0.34740500907E+03  0.00000000000E+00 0.  1.
<scales pt_clust_3="14000.00000" pt_clust_4="115.98938" pt_clust_5="76.17250" pt_clust_6="60.78049"></scales>
<clustering>
<clus scale="   60.780">  1  6  2 -1</clus>
<clus scale="   76.172">  2  5  1 -1</clus>
<clus scale="  115.989">  1  4  2 -1</clus>
<clus scale="   76.172">  2  3  1 -1</clus>
</clustering>
</event>
<event>
 6    0  0.2781617E+002  0.2287361E+03  0.7546771E-02  0.1127533E+00
         21   -1    0    0  503  502  0.00000000000E+00  0.00000000000E+00  0.36610993689E+03  0.36610993689E+03  0.00000000000E+00 0.  1.
          2   -1    0    0  505    0 -0.00000000000E+00 -0.00000000000E+00 -0.49225449276E+03  0.49225449276E+03  0.00000000000E+00 0.  1.
         21    1    1    2  503  504  0.35728512030E+02  0.77575560198E+02  0.97391786907E+02  0.12953630483E+03  0.00000000000E+00 0.  1.
         21    1    1    2  504  501 -0.35457764410E+01  0.16846169605E+03  0.15669350367E+03  0.23009730476E+03  0.00000000000E+00 0.  1.
         21    1    1    2  505  502  0.17113492130E+02 -0.16058957095E+03 -0.75204918118E+02  0.17815067112E+03  0.00000000000E+00 0. -1.
          2    1    1    2  501    0 -0.49296227720E+02 -0.85447685293E+02 -0.30502492834E+03  0.32058014894E+03  0.00000000000E+00 0.  1.
<scales pt_clust_3="40.31767" pt_clust_4="40.31767" pt_clust_5="221.61516" pt_clust_6="98.64799"></scales>
<clustering>
<clus scale="   40.318">  3  4 -1 -1</clus>
<clus scale="   98.648">  2  6  1 -1</clus>
<clus scale="  221.615">  2  5  1 -1</clus>
<clus scale="  228.736">  1  3  2 -1</clus>
</clustering>
</event>
<event>
 6    0  0.2781617E+002  0.2128078E+03  0.7546771E-02  0.1139362E+00
         21   -1    0    0  503  502  0.00000000000E+00  0.00000000000E+00  0.62169353451E+02  0.62169353451E+02  0.00000000000E+00 0.  1.
          1   -1    0    0  502    0 -0.00000000000E+00 -0.00000000000E+00 -0.28430036539E+04  0.28430036539E+04  0.00000000000E+00 0.  1.
         21    1    1    2  503  505 -0.71998206760E+02 -0.18598672267E+03 -0.16756203880E+03  0.26048385676E+03  0.00000000000E+00 0.  1.
         21    1    1    2  504  501  0.56872963289E+02  0.16704093316E+03 -0.54296303848E+03  0.57091686650E+03  0.00000000000E+00 0.  1.
         21    1    1    2  505  504 -0.14337745884E+02  0.32149947954E+02 -0.19291464117E+03  0.19610009915E+03  0.00000000000E+00 0.  1.
          1    1    1    2  501    0  0.29462989356E+02 -0.13204158441E+02 -0.18773945820E+04  0.18776721849E+04  0.00000000000E+00 0.  1.
<scales pt_clust_3="199.93583" pt_clust_4="30.44940" pt_clust_5="30.44940" pt_clust_6="32.28649"></scales>
<clustering>
<clus scale="   32.286">  2  6  1 -1</clus>
<clus scale="   30.449">  4  5 -1 -1</clus>
<clus scale="  199.936">  1  3  2 -1</clus>
<clus scale="  199.936">  1  3  2 -1</clus>
</clustering>
</event>
<event>
 6    0  0.2781617E+002  0.1159199E+03  0.7546771E-02  0.1249984E+00
         -2   -1    0    0    0  501 -0.00000000000E+00  0.00000000000E+00  0.59051061580E+02  0.59051061580E+02  0.00000000000E+00 0. -1.
         21   -1    0    0  504  502  0.00000000000E+00 -0.00000000000E+00 -0.60989245497E+03  0.60989245497E+03  0.00000000000E+00 0. -1.
         21    1    1    2  503  501 -0.38834565047E+02  0.15532741136E+02 -0.80930076292E+02  0.91099213708E+02  0.00000000000E+00 0. -1.
         21    1    1    2  504  503 -0.55849369307E+02  0.44317204619E+02 -0.35831336108E+03  0.36533769502E+03  0.00000000000E+00 0. -1.
         21    1    1    2  505  502  0.38376331276E+02 -0.88180161342E+02 -0.11435013801E+03  0.14941364636E+03  0.00000000000E+00 0.  1.
         -2    1    1    2    0  505  0.56307603078E+02  0.28330215586E+02  0.27521819901E+01  0.63092961455E+02  0.00000000000E+00 0. -1.
<scales pt_clust_3="40.90939" pt_clust_4="40.90939" pt_clust_5="102.88168" pt_clust_6="63.03291"></scales>
<clustering>
<clus scale="   40.909">  3  4 -1 -1</clus>
<clus scale="   63.033">  1  6  2 -1</clus>
<clus scale="  102.882">  1  5  2 -1</clus>
<clus scale="  115.920">  2  3  1 -1</clus>
</clustering>
</event>
<event>
 6    0  0.2781617E+002  0.8561080E+02  0.7546771E-02  0.1313843E+00
         21   -1    0    0  504  502  0.00000000000E+00  0.00000000000E+00  0.23167546276E+03  0.23167546276E+03  0.00000000000E+00 0. -1.
          2   -1    0    0  503    0 -0.00000000000E+00 -0.00000000000E+00 -0.52589604157E+03  0.52589604157E+03  0.00000000000E+00 0. -1.
         21    1    1    2  503  502  0.60081515895E+02  0.90274871316E+02  0.14911201113E+03  0.18437389405E+03  0.00000000000E+00 0. -1.
         21    1    1    2  504  505  0.93146749617E+01 -0.35586336658E+02  0.21923974884E+02  0.42823021859E+02  0.00000000000E+00 0.  1.
         21    1    1    2  505  501 -0.31076109650E+02 -0.67729832851E+02 -0.12197066341E+02  0.75510418330E+02  0.00000000000E+00 0.  1.
          2    1    1    2  501    0 -0.38320081207E+02  0.13041298193E+02 -0.45305949848E+03  0.45486417010E+03  0.00000000000E+00 0. -1.
<scales pt_clust_3="85.61080" pt_clust_4="36.78519" pt_clust_5="14000.00000" pt_clust_6="40.38685"></scales>
<clustering>
<clus scale="   36.785">  1  4  2 -1</clus>
<clus scale="   40.387">  2  6  1 -1</clus>
<clus scale="   85.611">  1  3  2 -1</clus>
<clus scale="   36.785">  1  3  2 -1</clus>
</clustering>
</event>
<event>
 6    0  0.2781617E+002  0.9051253E+02  0.7546771E-02  0.1301615E+00
         21   -1    0    0  504  502  0.00000000000E+00  0.00000000000E+00  0.15420459864E+04  0.15420459864E+04  0.00000000000E+00 0. -1.
          1   -1    0    0  503    0 -0.00000000000E+00 -0.00000000000E+00 -0.44136895412E+02  0.44136895412E+02  0.00000000000E+00 0. -1.
         21    1    1    2  503  505 -0.29177945062E+02  0.28092381517E+02  0.78634776101E+02  0.88453164951E+02  0.00000000000E+00 0. -1.
         21    1    1    2  504  501 -0.89198641627E+02  0.39984748096E+02  0.12624028267E+04  0.12661816910E+04  0.00000000000E+00 0. -1.
         21    1    1    2  505  502  0.57815251684E+02 -0.28183345803E+02  0.14424712502E+03  0.15793713111E+03  0.00000000000E+00 0. -1.
          1    1    1    2  501    0  0.60561335004E+02 -0.39893783810E+02  0.12624363192E+02  0.73610894779E+02  0.00000000000E+00 0. -1.
<scales pt_clust_3="40.50351" pt_clust_4="14000.00000" pt_clust_5="90.51253" pt_clust_6="41.96357"></scales>
<clustering>
<clus scale="   40.504">  2  3  1 -1</clus>
<clus scale="   41.964">  2  6  1 -1</clus>
<clus scale="   90.513">  2  5  1 -1</clus>
<clus scale="   90.513">  1  3  2 -1</clus>
</clustering>
</event>
<event>
 6    0  0.2781617E+002  0.1484255E+03  0.7546771E-02  0.1202421E+00
         21   -1    0    0  501  502  0.00000000000E+00  0.00000000000E+00  0.29449427805E+02  0.29449427805E+02  0.00000000000E+00 0.  1.
          2   -1    0    0  504    0 -0.00000000000E+00 -0.00000000000E+00 -0.13319498656E+04  0.13319498656E+04  0.00000000000E+00 0.  1.
         21    1    1    2  503  505  0.53850629889E+02  0.36403014246E+01 -0.67990814775E+02  0.86809521527E+02  0.00000000000E+00 0.  1.
         21    1    1    2  504  503  0.71963709163E+02 -0.20871937887E+02 -0.17684214212E+03  0.19206133514E+03  0.00000000000E+00 0.  1.
         21    1    1    2  505  502  0.56684793534E+01 -0.55780779506E+02 -0.11500778014E+03  0.12794692850E+03  0.00000000000E+00 0.  1.
          2    1    1    2  501    0 -0.13148281841E+03  0.73012415968E+02 -0.94265970073E+03  0.95458150820E+03  0.00000000000E+00 0.  1.
<scales pt_clust_3="34.98950" pt_clust_4="34.98950" pt_clust_5="56.06806" pt_clust_6="142.58514"></scales>
<clustering>
<clus scale="   34.990">  3  4 -1 -1</clus>
<clus scale="   56.068">  1  5  2 -1</clus>
<clus scale="  142.585">  2  6  1 -1</clus>
<clus scale="   56.068">  1  3  2 -1</clus>
</clustering>
</event>
<event>
 6    0  0.6778284E+002  0.1091015E+03  0.7546771E-02  0.1262243E+00
         21   -1    0    0  504  502  0.00000000000E+00  0.00000000000E+00  0.19132548406E+03  0.19132548406E+03  0.00000000000E+00 0. -1.
         -1   -1    0    0    0  501 -0.00000000000E+00 -0.00000000000E+00 -0.12962062822E+04  0.12962062822E+04  0.00000000000E+00 0. -1.
         21    1    1    2  503  501  0.79853338724E+02 -0.22223631864E+01 -0.11384189774E+03  0.13907362182E+03  0.00000000000E+00 0. -1.
         21    1    1    2  504  503 -0.17045897015E+02 -0.24947563564E+02  0.20690841794E+02  0.36620410524E+02  0.00000000000E+00 0. -1.
         21    1    1    2  505  502 -0.10094005940E+03  0.22696568981E+02  0.13185983110E+03  0.16760383317E+03  0.00000000000E+00 0. -1.
         -1    1    1    2    0  505  0.38132617693E+02  0.44733577691E+01 -0.11435895733E+04  0.11442339008E+04  0.00000000000E+00 0. -1.
<scales pt_clust_3="14000.00000" pt_clust_4="30.21496" pt_clust_5="109.10147" pt_clust_6="38.35485"></scales>
<clustering>
<clus scale="   30.215">  1  4  2 -1</clus>
<clus scale="   38.355">  2  6  1 -1</clus>
<clus scale="  109.101">  1  5  2 -1</clus>
<clus scale="   30.215">  1  3  2 -1</clus>
</clustering>
</event>
<event>
 6    0  0.2781617E+002  0.7257948E+02  0.7546771E-02  0.1351535E+00
         21   -1    0    0  503  502  0.00000000000E+00  0.00000000000E+00  0.49190201949E+03  0.49190201949E+03  0.00000000000E+00 0. -1.
         -2   -1    0    0    0  501 -0.00000000000E+00 -0.00000000000E+00 -0.92619792832E+02  0.92619792832E+02  0.00000000000E+00 0. -1.
         21    1    1    2  503  505 -0.33188677642E+02 -0.27268777610E+02  0.16978979002E+03  0.17513893728E+03  0.00000000000E+00 0.  1.
         21    1    1    2  504  502  0.70001703002E+00  0.75059712396E+02  0.17241019946E+03  0.18804182335E+03  0.00000000000E+00 0. -1.
         21    1    1    2  505  501  0.38984638663E+01 -0.93799587481E+02  0.11068328035E+03  0.14513562340E+03  0.00000000000E+00 0. -1.
         -2    1    1    2    0  504  0.28590196745E+02  0.46008652694E+02 -0.53601043170E+02  0.76205428295E+02  0.00000000000E+00 0. -1.
<scales pt_clust_3="42.95433" pt_clust_4="72.57948" pt_clust_5="14000.00000" pt_clust_6="52.73121"></scales>
<clustering>
<clus scale="   42.954">  1  3  2 -1</clus>
<clus scale="   52.731">  2  6  1 -1</clus>
<clus scale="   72.579">  1  4  2 -1</clus>
<clus scale="   42.954">  1  3  2 -1</clus>
</clustering>
</event>
<event>
 6    0  0.2781617E+002  0.2714497E+03  0.7546771E-02  0.1100453E+00
          1   -1    0    0  504    0 -0.00000000000E+00  0.00000000000E+00  0.24770788816E+04  0.24770788816E+04  0.00000000000E+00 0. -1.
         21   -1    0    0  501  502  0.00000000000E+00 -0.00000000000E+00 -0.55034488404E+02  0.55034488404E+02  0.00000000000E+00 0. -1.
         21    1    1    2  503  505  0.22089332792E+03 -0.11460561283E+03  0.11697612522E+04  0.11959388345E+04  0.00000000000E+00 0. -1.
         21    1    1    2  504  503 -0.95879627572E+00 -0.44410037034E+02  0.37246617914E+03  0.37510561884E+03  0.00000000000E+00 0.  1.
         21    1    1    2  505  502 -0.16291878758E+02 -0.74863223194E+02  0.17022524367E+03  0.18667233615E+03  0.00000000000E+00 0. -1.
          1    1    1    2  501    0 -0.20364265289E+03  0.23387887306E+03  0.70959171818E+03  0.77439658047E+03  0.00000000000E+00 0. -1.
<scales pt_clust_3="14000.00000" pt_clust_4="44.42039" pt_clust_5="80.31768" pt_clust_6="271.44972"></scales>
<clustering>
<clus scale="   44.420">  1  4  2 -1</clus>
<clus scale="   80.318">  2  5  1 -1</clus>
<clus scale="  271.450">  2  6  1 -1</clus>
<clus scale="   80.318">  2  3  1 -1</clus>
</clustering>
</event>
<event>
 6    0  0.3201592E+002  0.9386550E+02  0.7546771E-02  0.1293752E+00
         21   -1    0    0  505  502  0.00000000000E+00  0.00000000000E+00  0.82200874681E+03  0.82200874681E+03  0.00000000000E+00 0. -1.
         -4   -1    0    0    0  501 -0.00000000000E+00 -0.00000000000E+00 -0.40764105953E+03  0.40764105953E+03  0.00000000000E+00 0.  1.
         21    1    1    2  503  502  0.91188557199E+01  0.31640854814E+02  0.10199190996E+03  0.10717577581E+03  0.00000000000E+00 0.  1.
         21    1    1    2  504  503 -0.28969252550E+02  0.48782072301E+02  0.31605505464E+02  0.64944716081E+02  0.00000000000E+00 0.  1.
         21    1    1    2  505  501  0.34560248932E+02 -0.12740534263E+03  0.66103679976E+03  0.67408915046E+03  0.00000000000E+00 0. -1.
         -4    1    1    2    0  504 -0.14709852102E+02  0.46982415511E+02 -0.38026652790E+03  0.38344016398E+03  0.00000000000E+00 0.  1.
<scales pt_clust_3="32.92867" pt_clust_4="14000.00000" pt_clust_5="93.86550" pt_clust_6="49.29214"></scales>
<clustering>
<clus scale="   32.929">  1  3  2 -1</clus>
<clus scale="   49.292">  2  6  1 -1</clus>
<clus scale="   93.866">  1  5  2 -1</clus>
<clus scale="   32.929">  1  3  2 -1</clus>
</clustering>
</event>
<event>
 6    0  0.2781617E+002  0.1755570E+03  0.7546771E-02  0.1172174E+00
         21   -1    0    0  504  502  0.00000000000E+00  0.00000000000E+00  0.10732770936E+04  0.10732770936E+04  0.00000000000E+00 0.  1.
          1   -1    0    0  505    0 -0.00000000000E+00 -0.00000000000E+00 -0.47595588642E+03  0.47595588642E+03  0.00000000000E+00 0.  1.
         21    1    1    2  503  501  0.34048136272E+02 -0.12335373350E+02  0.81365200559E+02  0.89060276674E+02  0.00000000000E+00 0. -1.
         21    1    1    2  504  503  0.94189565932E+01  0.29472565161E+02  0.18630000662E+02  0.36116834927E+02  0.00000000000E+00 0.  1.
         21    1    1    2  505  502 -0.98218482998E+02 -0.18338208639E+03  0.93227915700E+03  0.95520693391E+03  0.00000000000E+00 0.  1.
          1    1    1    2  501    0  0.54751390133E+02  0.16624489458E+03 -0.43495315109E+03  0.46884893445E+03  0.00000000000E+00 0.  1.
<scales pt_clust_3="36.20509" pt_clust_4="30.94105" pt_clust_5="14000.00000" pt_clust_6="175.55696"></scales>
<clustering>
<clus scale="   30.941">  1  4  2 -1</clus>
<clus scale="   36.205">  1  3  2 -1</clus>
<clus scale="  175.557">  2  6  1 -1</clus>
<clus scale="   30.941">  1  3  2 -1</clus>
</clustering>
</event>
<event>
 6    0  0.2781617E+002  0.1352837E+03  0.7546771E-02  0.1219820E+00
         21   -1    0    0  505  502  0.00000000000E+00  0.00000000000E+00  0.49563398106E+03  0.49563398106E+03  0.00000000000E+00 0.  1.
         -3   -1    0    0    0  501 -0.00000000000E+00 -0.00000000000E+00 -0.11091665740E+03  0.11091665740E+03  0.00000000000E+00 0.  1.
         21    1    1    2  503  501  0.32669356201E+02  0.10425882453E+03  0.92486389621E+02  0.14314650395E+03  0.00000000000E+00 0.  1.
         21    1    1    2  504  502  0.66914505703E+02  0.29173757444E+01  0.12668220896E+03  0.14329844459E+03  0.00000000000E+00 0.  1.
         21    1    1    2  505  503 -0.41770663098E+02  0.34812251323E+02  0.15746109436E+03  0.16658534562E+03  0.00000000000E+00 0. -1.
         -3    1    1    2    0  504 -0.57813198806E+02 -0.14198845160E+03  0.80876307200E+01  0.15352034430E+03  0.00000000000E+00 0.  1.
<scales pt_clust_3="135.28374" pt_clust_4="52.82414" pt_clust_5="54.37537" pt_clust_6="14000.00000"></scales>
<clustering>
<clus scale="   54.375">  1  5  2 -1</clus>
<clus scale="   52.824">  1  4  2 -1</clus>
<clus scale="  135.284">  1  3  2 -1</clus>
<clus scale="   54.375">  1  3  2 -1</clus>
</clustering>
</event>
<event>
 6    0  0.2781617E+002  0.7389420E+02  0.7546771E-02  0.1347330E+00
         -3   -1    0    0    0  501 -0.00000000000E+00  0.00000000000E+00  0.45859010250E+03  0.45859010250E+03  0.00000000000E+00 0.  1.
         21   -1    0    0  503  502  0.00000000000E+00 -0.00000000000E+00 -0.84834215744E+02  0.84834215744E+02  0.00000000000E+00 0.  1.
         21    1    1    2  503  505  0.14624011616E+02 -0.26811249738E+02  0.16986616892E+02  0.34946387248E+02  0.00000000000E+00 0.  1.
         21    1    1    2  504  502 -0.60378170753E+00 -0.46834271691E+02 -0.24607604219E+02  0.52908862609E+02  0.00000000000E+00 0.  1.
         21    1    1    2  505  501 -0.82954942829E+02  0.87939349399E+02  0.77400720153E+02  0.14354693725E+03  0.00000000000E+00 0.  1.
         -3    1    1    2    0  504  0.68934712921E+02 -0.14293827970E+02  0.30397615393E+03  0.31202213114E+03  0.00000000000E+00 0.  1.
<scales pt_clust_3="30.54022" pt_clust_4="60.92206" pt_clust_5="73.89420" pt_clust_6="14000.00000"></scales>
<clustering>
<clus scale="   30.540">  2  3  1 -1</clus>
<clus scale="   60.922">  2  4  1 -1</clus>
<clus scale="   73.894">  2  5  1 -1</clus>
<clus scale="   30.540">  2  3  1 -1</clus>
</clustering>
</event>
<event>
 6    0  0.2781617E+002  0.6071678E+02  0.7546771E-02  0.1394848E+00
         21   -1    0    0  504  502  0.00000000000E+00  0.00000000000E+00  0.57183114346E+03  0.57183114346E+03  0.00000000000E+00 0. -1.
          3   -1    0    0  505    0 -0.00000000000E+00 -0.00000000000E+00 -0.79124415851E+03  0.79124415851E+03  0.00000000000E+00 0. -1.
         21    1    1    2  503  502  0.28947545695E+02  0.19273637695E+02  0.14031660466E+02  0.37500946750E+02  0.00000000000E+00 0.  1.
         21    1    1    2  504  501 -0.92513973412E+01 -0.13651948400E+03  0.46122893549E+03  0.48109800332E+03  0.00000000000E+00 0. -1.
         21    1    1    2  505  503 -0.13905527088E+02  0.56997267545E+02  0.62015949386E+02  0.85369960580E+02  0.00000000000E+00 0. -1.
          3    1    1    2  501    0 -0.57906212658E+01  0.60248578764E+02 -0.75668956039E+03  0.75910639132E+03  0.00000000000E+00 0. -1.
<scales pt_clust_3="34.77691" pt_clust_4="60.71678" pt_clust_5="60.43126" pt_clust_6="14000.00000"></scales>
<clustering>
<clus scale="   34.777">  1  3  2 -1</clus>
<clus scale="   60.431">  1  5  2 -1</clus>
<clus scale="   60.717">  1  4  2 -1</clus>
<clus scale="   34.777">  1  3  2 -1</clus>
</clustering>
</event>
<event>
 6    0  0.2781617E+002  0.1541138E+03  0.7546771E-02  0.1195507E+00
          2   -1    0    0  503    0 -0.00000000000E+00  0.00000000000E+00  0.66030686154E+03  0.66030686154E+03  0.00000000000E+00 0.  1.
         21   -1    0    0  504  502  0.00000000000E+00 -0.00000000000E+00 -0.23107146905E+03  0.23107146905E+03  0.00000000000E+00 0.  1.
         21    1    1    2  503  502 -0.12095141902E+02 -0.40399604043E+02 -0.28882208315E+02  0.51113622662E+02  0.00000000000E+00 0.  1.
         21    1    1    2  504  505  0.43285010673E+02  0.14660996184E+03  0.44662855524E+02  0.15925716223E+03  0.00000000000E+00 0.  1.
         21    1    1    2  505  501  0.12314872085E+03 -0.12494873806E+03 -0.57845007929E+02  0.18472639100E+03  0.00000000000E+00 0.  1.
          2    1    1    2  501    0 -0.15433858962E+03  0.18738380262E+02  0.47129975321E+03  0.49628115471E+03  0.00000000000E+00 0.  1.
<scales pt_clust_3="42.17132" pt_clust_4="140.22040" pt_clust_5="14000.00000" pt_clust_6="154.11384"></scales>
<clustering>
<clus scale="   42.171">  2  3  1 -1</clus>
<clus scale="  140.220">  2  4  1 -1</clus>
<clus scale="  154.114">  1  6  2 -1</clus>
<clus scale="   42.171">  2  3  1 -1</clus>
</clustering>
</event>
<event>
 6    0  0.2781617E+002  0.1317808E+03  0.7546771E-02  0.1224837E+00
         21   -1    0    0  505  502  0.00000000000E+00  0.00000000000E+00  0.42450872309E+03  0.42450872309E+03  0.00000000000E+00 0.  1.
          2   -1    0    0  504    0 -0.00000000000E+00 -0.00000000000E+00 -0.20476102192E+03  0.20476102192E+03  0.00000000000E+00 0.  1.
         21    1    1    2  503  501  0.64873051775E+02 -0.94355825387E+02  0.23340150528E+02  0.11686016112E+03  0.00000000000E+00 0.  1.
         21    1    1    2  504  502 -0.86213147004E+02  0.10617629910E+03  0.15782537364E+03  0.20884195405E+03  0.00000000000E+00 0.  1.
         21    1    1    2  505  503  0.42867882999E+02  0.48625586501E+02  0.15646022225E+03  0.16935732698E+03  0.00000000000E+00 0. -1.
          2    1    1    2  501    0 -0.21527787770E+02 -0.60446060213E+02 -0.11787804525E+03  0.13421030286E+03  0.00000000000E+00 0.  1.
<scales pt_clust_3="14000.00000" pt_clust_4="131.78078" pt_clust_5="59.97470" pt_clust_6="64.16519"></scales>
<clustering>
<clus scale="   64.165">  2  6  1 -1</clus>
<clus scale="   59.975">  1  5  2 -1</clus>
<clus scale="  131.781">  1  4  2 -1</clus>
<clus scale="   59.975">  1  3  2 -1</clus>
</clustering>
</event>
<event>
 6    0  0.2781617E+002  0.8708452E+02  0.7546771E-02  0.1310070E+00
         21   -1    0    0  503  502  0.00000000000E+00  0.00000000000E+00  0.10131533438E+04  0.10131533438E+04  0.00000000000E+00 0.  1.
          2   -1    0    0  504    0 -0.00000000000E+00 -0.00000000000E+00 -0.26633566360E+03  0.26633566360E+03  0.00000000000E+00 0. -1.
         21    1    1    2  503  505  0.10427244496E+02  0.88529552517E+02  0.77660397397E+03  0.78170323108E+03  0.00000000000E+00 0.  1.
         21    1    1    2  504  502  0.54350779493E+01 -0.35317493246E+02  0.38908395058E+02  0.52827347156E+02  0.00000000000E+00 0.  1.
         21    1    1    2  505  501 -0.70004472657E+02  0.16680856150E+02  0.17312364671E+03  0.18748513062E+03  0.00000000000E+00 0. -1.
          2    1    1    2  501    0  0.54142150212E+02 -0.69892915421E+02 -0.24181833554E+03  0.25747329854E+03  0.00000000000E+00 0. -1.
<scales pt_clust_3="61.87840" pt_clust_4="35.73325" pt_clust_5="14000.00000" pt_clust_6="87.08452"></scales>
<clustering>
<clus scale="   35.733">  1  4  2 -1</clus>
<clus scale="   61.878">  1  3  2 -1</clus>
<clus scale="   87.085">  2  6  1 -1</clus>
<clus scale="   35.733">  1  3  2 -1</clus>
</clustering>
</event>
<event>
 6    0  0.2781617E+002  0.1121797E+03  0.7546771E-02  0.1256586E+00
         -1   -1    0    0    0  501 -0.00000000000E+00  0.00000000000E+00  0.39207343471E+03  0.39207343471E+03  0.00000000000E+00 0. -1.
         21   -1    0    0  505  502  0.00000000000E+00 -0.00000000000E+00 -0.15650560093E+03  0.15650560093E+03  0.00000000000E+00 0.  1.
         21    1    1    2  503  502  0.49002909785E+02 -0.73521181413E+01 -0.99810418679E+01  0.50546612205E+02  0.00000000000E+00 0.  1.
         21    1    1    2  504  501  0.41000646167E+02 -0.67741253180E+02  0.70903763274E+02  0.10628863540E+03  0.00000000000E+00 0.  1.
         21    1    1    2  505  504 -0.37564736218E+02 -0.73248488878E+02 -0.65121470849E+02  0.10496311969E+03  0.00000000000E+00 0.  1.
         -1    1    1    2    0  503 -0.52438819734E+02  0.14834186020E+03  0.23976658322E+03  0.28678066834E+03  0.00000000000E+00 0. -1.
<scales pt_clust_3="49.55138" pt_clust_4="14000.00000" pt_clust_5="78.33371" pt_clust_6="112.17966"></scales>
<clustering>
<clus scale="   49.551">  2  3  1 -1</clus>
<clus scale="   78.334">  2  5  1 -1</clus>
<clus scale="  112.180">  2  6  1 -1</clus>
<clus scale="   49.551">  2  3  1 -1</clus>
</clustering>
</event>
<event>
 6    0  0.2781617E+002  0.1022693E+03  0.7546771E-02  0.1275595E+00
          4   -1    0    0  504    0 -0.00000000000E+00  0.00000000000E+00  0.15605927603E+03  0.15605927603E+03  0.00000000000E+00 0.  1.
         21   -1    0    0  505  502  0.00000000000E+00 -0.00000000000E+00 -0.16277022730E+04  0.16277022730E+04  0.00000000000E+00 0. -1.
         21    1    1    2  503  502 -0.11952022926E+03 -0.78004144638E+02 -0.11694486505E+04  0.11781255782E+04  0.00000000000E+00 0. -1.
         21    1    1    2  504  503  0.35161152358E+02  0.63225629518E+01 -0.41565936688E+02  0.54808836242E+02  0.00000000000E+00 0.  1.
         21    1    1    2  505  501  0.61181858344E+02  0.38243900968E+02 -0.39957994549E+03  0.40604180645E+03  0.00000000000E+00 0.  1.
          4    1    1    2  501    0  0.23177218554E+02  0.33437680718E+02  0.13895153575E+03  0.14478532812E+03  0.00000000000E+00 0.  1.
<scales pt_clust_3="14000.00000" pt_clust_4="35.72508" pt_clust_5="102.26934" pt_clust_6="68.95106"></scales>
<clustering>
<clus scale="   35.725">  1  4  2 -1</clus>
<clus scale="   68.951">  1  6  2 -1</clus>
<clus scale="  102.269">  2  5  1 -1</clus>
<clus scale="  102.269">  2  3  1 -1</clus>
</clustering>
</event>
<event>
 6    0  0.2781617E+002  0.1449219E+03  0.7546771E-02  0.1206856E+00
         21   -1    0    0  504  502  0.00000000000E+00  0.00000000000E+00  0.80051630236E+01  0.80051630236E+01  0.00000000000E+00 0.  1.
          2   -1    0    0  503    0 -0.00000000000E+00 -0.00000000000E+00 -0.52253390446E+04  0.52253390446E+04  0.00000000000E+00 0.  1.
         21    1    1    2  503  502  0.35409084271E+02 -0.14762670144E+02 -0.94164244442E+02  0.10167912573E+03  0.00000000000E+00 0.  1.
         21    1    1    2  504  505  0.27700295076E+02  0.47941005759E+02 -0.67652116631E+03  0.67878312799E+03  0.00000000000E+00 0.  1.
         21    1    1    2  505  501 -0.12363471883E+02  0.92933877031E+02 -0.13502350071E+04  0.13534859199E+04  0.00000000000E+00 0.  1.
          2    1    1    2  501    0 -0.50745907464E+02 -0.12611221265E+03 -0.30964134637E+04  0.30993960340E+04  0.00000000000E+00 0.  1.
<scales pt_clust_3="38.36326" pt_clust_4="36.82303" pt_clust_5="36.82303" pt_clust_6="136.77134"></scales>
<clustering>
<clus scale="   36.823">  4  5 -1 -1</clus>
<clus scale="   38.363">  1  3  2 -1</clus>
<clus scale="  136.771">  2  6  1 -1</clus>
<clus scale="   38.363">  1  3  2 -1</clus>
</clustering>
</event>
<event>
 6    0  0.2781617E+002  0.2132749E+03  0.7546771E-02  0.1138999E+00
          2   -1    0    0  504    0 -0.00000000000E+00  0.00000000000E+00  0.17041179813E+04  0.17041179813E+04  0.00000000000E+00 0.  1.
         21   -1    0    0  503  502  0.00000000000E+00 -0.00000000000E+00 -0.76084037712E+02  0.76084037712E+02  0.00000000000E+00 0. -1.
         21    1    1    2  503  505  0.22439919879E+03  0.10714589366E+03  0.20962427831E+03  0.32523465529E+03  0.00000000000E+00 0. -1.
         21    1    1    2  504  502 -0.79667768758E+02  0.33083771392E+02  0.39815938790E+03  0.40739708821E+03  0.00000000000E+00 0. -1.
         21    1    1    2  505  501 -0.11882167103E+03 -0.98233895747E+02  0.45993346173E+03  0.48508481423E+03  0.00000000000E+00 0.  1.
          2    1    1    2  501    0 -0.25909759004E+02 -0.41995769306E+02  0.56031681563E+03  0.56248546126E+03  0.00000000000E+00 0.  1.
<scales pt_clust_3="213.27491" pt_clust_4="90.66256" pt_clust_5="14000.00000" pt_clust_6="49.34532"></scales>
<clustering>
<clus scale="   49.345">  1  6  2 -1</clus>
<clus scale="   90.663">  1  4  2 -1</clus>
<clus scale="  213.275">  2  3  1 -1</clus>
<clus scale="  213.275">  2  3  1 -1</clus>
</clustering>
</event>
<event>
 6    0  0.2781617E+002  0.9176494E+02  0.7546771E-02  0.1298633E+00
          1   -1    0    0  505    0 -0.00000000000E+00  0.00000000000E+00  0.53265161193E+03  0.53265161193E+03  0.00000000000E+00 0.  1.
         21   -1    0    0  503  502  0.00000000000E+00 -0.00000000000E+00 -0.15632936157E+03  0.15632936157E+03  0.00000000000E+00 0. -1.
         21    1    1    2  503  501 -0.61404237300E+02 -0.33556630602E+02 -0.30748708327E+01  0.70042720153E+02  0.00000000000E+00 0. -1.
         21    1    1    2  504  502  0.70284462689E+02  0.61335795235E+02 -0.66501086521E+02  0.11456168636E+03  0.00000000000E+00 0. -1.
         21    1    1    2  505  504  0.67090141804E+02  0.31376002878E+02  0.34218574761E+02  0.81587079508E+02  0.00000000000E+00 0. -1.
          1    1    1    2  501    0 -0.75970367193E+02 -0.59155167511E+02  0.41167963295E+03  0.42278948748E+03  0.00000000000E+00 0.  1.
<scales pt_clust_3="69.97519" pt_clust_4="43.17101" pt_clust_5="14000.00000" pt_clust_6="91.76494"></scales>
<clustering>
<clus scale="   69.975">  2  3  1 -1</clus>
<clus scale="   43.171">  2  4  1 -1</clus>
<clus scale="   91.765">  1  6  2 -1</clus>
<clus scale="   69.975">  2  3  1 -1</clus>
</clustering>
</event>
<event>
 6    0  0.2781617E+002  0.8605096E+02  0.7546771E-02  0.1312707E+00
         21   -1    0    0  503  502  0.00000000000E+00  0.00000000000E+00  0.15102550435E+03  0.15102550435E+03  0.00000000000E+00 0.  1.
         -2   -1    0    0    0  501 -0.00000000000E+00 -0.00000000000E+00 -0.39576338005E+03  0.39576338005E+03  0.00000000000E+00 0. -1.
         21    1    1    2  503  504  0.88493318657E+01 -0.44693835406E+02  0.28098345728E+01  0.45648053278E+02  0.00000000000E+00 0. -1.
         21    1    1    2  504  501  0.11794951487E+03  0.31815492619E+02  0.64808339704E+02  0.13829112236E+03  0.00000000000E+00 0.  1.
         21    1    1    2  505  502 -0.46219222276E+02 -0.14390661284E+02 -0.10898721607E+02  0.49619449540E+02  0.00000000000E+00 0.  1.
         -2    1    1    2    0  505 -0.80579624464E+02  0.27269004071E+02 -0.30145732837E+03  0.31323025922E+03  0.00000000000E+00 0. -1.
<scales pt_clust_3="45.56149" pt_clust_4="86.05096" pt_clust_5="49.63076" pt_clust_6="14000.00000"></scales>
<clustering>
<clus scale="   45.561">  1  3  2 -1</clus>
<clus scale="   49.631">  1  5  2 -1</clus>
<clus scale="   86.051">  1  4  2 -1</clus>
<clus scale="   45.561">  1  3  2 -1</clus>
</clustering>
</event>
<event>
 6    0  0.2781617E+002  0.1892956E+03  0.7546771E-02  0.1159098E+00
         21   -1    0    0  503  502  0.00000000000E+00  0.00000000000E+00  0.64912855731E+03  0.64912855731E+03  0.00000000000E+00 0.  1.
         -2   -1    0    0    0  501 -0.00000000000E+00 -0.00000000000E+00 -0.72176153546E+03  0.72176153546E+03  0.00000000000E+00 0. -1.
         21    1    1    2  503  501 -0.26143998903E+02  0.39188025595E+02  0.12689276848E+02  0.48787578087E+02  0.00000000000E+00 0.  1.
         21    1    1    2  504  505 -0.70321654946E+02 -0.11178414639E+03  0.22909577531E+03  0.26443468911E+03  0.00000000000E+00 0.  1.
         21    1    1    2  505  502  0.45166592203E+02 -0.11323917976E+03  0.34749006205E+03  0.36825599263E+03  0.00000000000E+00 0.  1.
         -2    1    1    2    0  504  0.51299061646E+02  0.18583530056E+03 -0.66190809236E+03  0.68941183294E+03  0.00000000000E+00 0. -1.
<scales pt_clust_3="47.10849" pt_clust_4="14000.00000" pt_clust_5="95.41165" pt_clust_6="189.29562"></scales>
<clustering>
<clus scale="   47.108">  1  3  2 -1</clus>
<clus scale="   95.412">  1  5  2 -1</clus>
<clus scale="  189.296">  2  6  1 -1</clus>
<clus scale="   47.108">  1  3  2 -1</clus>
</clustering>
</event>
<event>
 6    0  0.2781617E+002  0.8649347E+02  0.7546771E-02  0.1311573E+00
          2   -1    0    0  505    0 -0.00000000000E+00  0.00000000000E+00  0.15413173203E+04  0.15413173203E+04  0.00000000000E+00 0. -1.
         21   -1    0    0  503  502  0.00000000000E+00 -0.00000000000E+00 -0.14643269676E+03  0.14643269676E+03  0.00000000000E+00 0. -1.
         21    1    1    2  503  504 -0.22340337883E+02  0.22034514046E+02 -0.42031716888E+02  0.52452604611E+02  0.00000000000E+00 0.  1.
         21    1    1    2  504  501  0.45866579562E-01  0.46400712974E+02  0.39458039458E+02  0.60909483220E+02  0.00000000000E+00 0. -1.
         21    1    1    2  505  502  0.16621049436E+02 -0.15376525805E+03 -0.18576978597E+02  0.15577264844E+03  0.00000000000E+00 0. -1.
          2    1    1    2  501    0  0.56734218674E+01  0.85330031028E+02  0.14160352796E+04  0.14186152808E+04  0.00000000000E+00 0. -1.
<scales pt_clust_3="31.37850" pt_clust_4="48.84089" pt_clust_5="86.49347" pt_clust_6="14000.00000"></scales>
<clustering>
<clus scale="   31.379">  2  3  1 -1</clus>
<clus scale="   48.841">  2  4  1 -1</clus>
<clus scale="   86.493">  2  5  1 -1</clus>
<clus scale="   31.379">  2  3  1 -1</clus>
</clustering>
</event>
<event>
 6    0  0.2781617E+002  0.2609407E+03  0.7546771E-02  0.1106579E+00
         -2   -1    0    0    0  501 -0.00000000000E+00  0.00000000000E+00  0.34866041205E+03  0.34866041205E+03  0.00000000000E+00 0.  1.
         21   -1    0    0  503  502  0.00000000000E+00 -0.00000000000E+00 -0.71319621883E+03  0.71319621883E+03  0.00000000000E+00 0. -1.
         21    1    1    2  503  504 -0.21974832824E+03 -0.15150607810E+03 -0.55744413596E+03  0.61805127957E+03  0.00000000000E+00 0. -1.
         21    1    1    2  504  501 -0.15404807576E+02  0.32129875201E+02  0.55341542775E+01  0.36059171378E+02  0.00000000000E+00 0.  1.
         21    1    1    2  505  502  0.23889158056E+03  0.58275133316E+02  0.41269708049E+02  0.24933585228E+03  0.00000000000E+00 0.  1.
         -2    1    1    2    0  505 -0.37384447518E+01  0.61101069584E+02  0.14610446685E+03  0.15841032765E+03  0.00000000000E+00 0.  1.
<scales pt_clust_3="260.94068" pt_clust_4="35.63197" pt_clust_5="14000.00000" pt_clust_6="76.79829"></scales>
<clustering>
<clus scale="   35.632">  1  4  2 -1</clus>
<clus scale="   76.798">  1  6  2 -1</clus>
<clus scale="  260.941">  2  3  1 -1</clus>
<clus scale="  260.941">  2  3  1 -1</clus>
</clustering>
</event>
<event>
 6    0  0.2781617E+002  0.1009493E+03  0.7546771E-02  0.1278312E+00
         21   -1    0    0  503  502  0.00000000000E+00  0.00000000000E+00  0.50636157337E+02  0.50636157337E+02  0.00000000000E+00 0. -1.
         -2   -1    0    0    0  501 -0.00000000000E+00 -0.00000000000E+00 -0.11525705917E+04  0.11525705917E+04  0.00000000000E+00 0.  1.
         21    1    1    2  503  505 -0.28390536854E+02 -0.12327287661E+02 -0.62550598088E+02  0.69789411268E+02  0.00000000000E+00 0.  1.
         21    1    1    2  504  501  0.57443626694E+02 -0.51527063050E+02 -0.11052365131E+03  0.13479720314E+03  0.00000000000E+00 0. -1.
         21    1    1    2  505  504 -0.76781086101E+02  0.97027135107E+02 -0.79057851767E+02  0.14683236719E+03  0.00000000000E+00 0. -1.
         -2    1    1    2    0  502  0.47727996261E+02 -0.33172784395E+02 -0.84980233321E+03  0.85178776746E+03  0.00000000000E+00 0.  1.
<scales pt_clust_3="30.95133" pt_clust_4="14000.00000" pt_clust_5="100.94935" pt_clust_6="57.78296"></scales>
<clustering>
<clus scale="   30.951">  1  3  2 -1</clus>
<clus scale="   57.783">  2  6  1 -1</clus>
<clus scale="  100.949">  1  5  2 -1</clus>
<clus scale="   30.951">  1  3  2 -1</clus>
</clustering>
</event>
<event>
 6    0  0.2781617E+002  0.1273674E+03  0.7546771E-02  0.1231415E+00
          3   -1    0    0  504    0 -0.00000000000E+00  0.00000000000E+00  0.18919962069E+04  0.18919962069E+04  0.00000000000E+00 0.  1.
         21   -1    0    0  505  502  0.00000000000E+00 -0.00000000000E+00 -0.25899913106E+03  0.25899913106E+03  0.00000000000E+00 0.  1.
         21    1    1    2  503  501 -0.50368432375E+02  0.91693666212E+02 -0.12279767172E+02  0.10533517971E+03  0.00000000000E+00 0. -1.
         21    1    1    2  504  502 -0.17480625777E+02 -0.77938882087E+02 -0.12260083554E+03  0.14632500297E+03  0.00000000000E+00 0.  1.
         21    1    1    2  505  503 -0.28120982716E+02  0.47867265033E+02 -0.51893567070E+02  0.75993467048E+02  0.00000000000E+00 0. -1.
          3    1    1    2  501    0  0.95970040869E+02 -0.61622049158E+02  0.18197712456E+04  0.18233416882E+04  0.00000000000E+00 0.  1.
<scales pt_clust_3="40.71611" pt_clust_4="79.87516" pt_clust_5="40.71611" pt_clust_6="114.44839"></scales>
<clustering>
<clus scale="   40.716">  3  5 -1 -1</clus>
<clus scale="   79.875">  2  4  1 -1</clus>
<clus scale="  114.448">  1  6  2 -1</clus>
<clus scale="   79.875">  2  3  1 -1</clus>
</clustering>
</event>
<event>
 6    0  0.2781617E+002  0.7261743E+02  0.7546771E-02  0.1351412E+00
         21   -1    0    0  504  502  0.00000000000E+00  0.00000000000E+00  0.87661814614E+03  0.87661814614E+03  0.00000000000E+00 0. -1.
          2   -1    0    0  503    0 -0.00000000000E+00 -0.00000000000E+00 -0.13892941913E+04  0.13892941913E+04  0.00000000000E+00 0. -1.
         21    1    1    2  503  502 -0.38207869751E+02 -0.39004373697E+02  0.36839120258E+03  0.37241544090E+03  0.00000000000E+00 0.  1.
         21    1    1    2  504  505  0.35262706868E+02  0.11999655243E+03  0.46444323626E+03  0.48098872211E+03  0.00000000000E+00 0. -1.
         21    1    1    2  505  501  0.11291833047E+02 -0.42338996192E+02  0.18759176715E+02  0.47665530555E+02  0.00000000000E+00 0.  1.
          2    1    1    2  501    0 -0.83466701635E+01 -0.38653182542E+02 -0.13642696607E+04  0.13648426439E+04  0.00000000000E+00 0. -1.
<scales pt_clust_3="57.34684" pt_clust_4="14000.00000" pt_clust_5="72.61743" pt_clust_6="39.54409"></scales>
<clustering>
<clus scale="   39.544">  2  6  1 -1</clus>
<clus scale="   57.347">  1  3  2 -1</clus>
<clus scale="   72.617">  2  5  1 -1</clus>
<clus scale="   57.347">  1  3  2 -1</clus>
</clustering>
</event>
<event>
 6    0  0.2781617E+002  0.1103613E+03  0.7546771E-02  0.1259902E+00
          2   -1    0    0  505    0 -0.00000000000E+00  0.00000000000E+00  0.13736829750E+04  0.13736829750E+04  0.00000000000E+00 0.  1.
         21   -1    0    0  503  502  0.00000000000E+00 -0.00000000000E+00 -0.51621543739E+02  0.51621543739E+02  0.00000000000E+00 0.  1.
         21    1    1    2  503  504 -0.14767844174E+02 -0.31265155148E+02  0.47185501604E+02  0.58498467583E+02  0.00000000000E+00 0.  1.
         21    1    1    2  504  501  0.35785204863E+02 -0.87068986138E+02  0.38459853292E+02  0.10168947610E+03  0.00000000000E+00 0.  1.
         21    1    1    2  505  502 -0.90208185205E+02  0.89333039802E+02  0.30075880567E+03  0.32645637973E+03  0.00000000000E+00 0.  1.
          2    1    1    2  501    0  0.69190824517E+02  0.29001101484E+02  0.93565727070E+03  0.93866019533E+03  0.00000000000E+00 0.  1.
<scales pt_clust_3="34.57744" pt_clust_4="14000.00000" pt_clust_5="110.36126" pt_clust_6="74.18705"></scales>
<clustering>
<clus scale="   34.577">  2  3  1 -1</clus>
<clus scale="   74.187">  1  6  2 -1</clus>
<clus scale="  110.361">  1  5  2 -1</clus>
<clus scale="   34.577">  2  3  1 -1</clus>
</clustering>
</event>
<event>
 6    0  0.2781617E+002  0.9743656E+02  0.7546771E-02  0.1285781E+00
         21   -1    0    0  504  502  0.00000000000E+00  0.00000000000E+00  0.14614001858E+04  0.14614001858E+04  0.00000000000E+00 0. -1.
          2   -1    0    0  503    0 -0.00000000000E+00 -0.00000000000E+00 -0.21033364697E+04  0.21033364697E+04  0.00000000000E+00 0.  1.
         21    1    1    2  503  505  0.66234962720E+02 -0.50699995592E+02  0.43496206968E+02  0.94071674058E+02  0.00000000000E+00 0.  1.
         21    1    1    2  504  501  0.74138726653E+02  0.55779917794E+02  0.13088181344E+04  0.13121024575E+04  0.00000000000E+00 0. -1.
         21    1    1    2  505  502 -0.49287125873E+02  0.29540035074E+02  0.70817116509E+02  0.91197030871E+02  0.00000000000E+00 0. -1.
          2    1    1    2  501    0 -0.91086563499E+02 -0.34619957276E+02 -0.20650677418E+04  0.20673654930E+04  0.00000000000E+00 0.  1.
<scales pt_clust_3="80.56776" pt_clust_4="97.43656" pt_clust_5="57.46159" pt_clust_6="14000.00000"></scales>
<clustering>
<clus scale="   57.462">  1  5  2 -1</clus>
<clus scale="   80.568">  1  3  2 -1</clus>
<clus scale="   97.437">  1  4  2 -1</clus>
<clus scale="   57.462">  1  3  2 -1</clus>
</clustering>
</event>
<event>
 6    0  0.2781617E+002  0.1571090E+03  0.7546771E-02  0.1192000E+00
         21   -1    0    0  503  502  0.00000000000E+00  0.00000000000E+00  0.40792240281E+03  0.40792240281E+03  0.00000000000E+00 0. -1.
          2   -1    0    0  505    0 -0.00000000000E+00 -0.00000000000E+00 -0.89647847712E+03  0.89647847712E+03  0.00000000000E+00 0.  1.
         21    1    1    2  503  501 -0.18771804888E+01  0.12719462995E+03  0.14423783873E+03  0.19231888055E+03  0.00000000000E+00 0. -1.
         21    1    1    2  504  502  0.24665616129E+02  0.17238462670E+02  0.84254705166E+02  0.89467382642E+02  0.00000000000E+00 0. -1.
         21    1    1    2  505  504 -0.36386530837E+02 -0.21185752720E+03  0.74937649479E+02  0.22764718924E+03  0.00000000000E+00 0. -1.
          2    1    1    2  501    0  0.13598095196E+02  0.67424434588E+02 -0.79198626769E+03  0.79496742750E+03  0.00000000000E+00 0.  1.
<scales pt_clust_3="14000.00000" pt_clust_4="30.09248" pt_clust_5="157.10899" pt_clust_6="68.88315"></scales>
<clustering>
<clus scale="   30.092">  1  4  2 -1</clus>
<clus scale="   68.883">  2  6  1 -1</clus>
<clus scale="  157.109">  2  5  1 -1</clus>
<clus scale="   30.092">  1  3  2 -1</clus>
</clustering>
</event>
<event>
 6    0  0.2781617E+002  0.1077268E+03  0.7546771E-02  0.1264838E+00
          2   -1    0    0  504    0 -0.00000000000E+00  0.00000000000E+00  0.57261868189E+03  0.57261868189E+03  0.00000000000E+00 0.  1.
         21   -1    0    0  503  502  0.00000000000E+00 -0.00000000000E+00 -0.21578495780E+04  0.21578495780E+04  0.00000000000E+00 0.  1.
         21    1    1    2  503  501  0.52935073442E+02  0.74556745581E+02 -0.14422726584E+04  0.14451682433E+04  0.00000000000E+00 0.  1.
         21    1    1    2  504  505 -0.40104433539E+02 -0.71315368900E+02 -0.43575426339E+03  0.44336894963E+03  0.00000000000E+00 0.  1.
         21    1    1    2  505  502 -0.44993213231E+02 -0.12988938515E+02 -0.27206757844E+03  0.27606859474E+03  0.00000000000E+00 0.  1.
          2    1    1    2  501    0  0.32162573328E+02  0.97475618338E+01  0.56486360417E+03  0.56586247217E+03  0.00000000000E+00 0.  1.
<scales pt_clust_3="96.82601" pt_clust_4="34.55344" pt_clust_5="34.55344" pt_clust_6="33.60723"></scales>
<clustering>
<clus scale="   33.607">  1  6  2 -1</clus>
<clus scale="   34.553">  4  5 -1 -1</clus>
<clus scale="   96.826">  2  3  1 -1</clus>
<clus scale="   96.826">  2  3  1 -1</clus>
</clustering>
</event>
<event>
 6    0  0.2781617E+002  0.1163291E+03  0.7546771E-02  0.1249279E+00
         21   -1    0    0  503  502  0.00000000000E+00  0.00000000000E+00  0.20060046625E+03  0.20060046625E+03  0.00000000000E+00 0.  1.
         -4   -1    0    0    0  501 -0.00000000000E+00 -0.00000000000E+00 -0.52795088626E+03  0.52795088626E+03  0.00000000000E+00 0. -1.
         21    1    1    2  503  504 -0.73940196246E+02 -0.48911840217E+02  0.82267671864E+02  0.12094416302E+03  0.00000000000E+00 0.  1.
         21    1    1    2  504  501  0.29589818956E+02  0.19324338288E+02 -0.35996120909E+02  0.50445100422E+02  0.00000000000E+00 0.  1.
         21    1    1    2  505  502 -0.51180260419E+02  0.51339076864E+02  0.71240591098E+02  0.10163828850E+03  0.00000000000E+00 0.  1.
         -4    1    1    2    0  505  0.95530637709E+02 -0.21751574934E+02 -0.44486256206E+03  0.45552380056E+03  0.00000000000E+00 0. -1.
<scales pt_clust_3="116.32905" pt_clust_4="35.34102" pt_clust_5="72.27443" pt_clust_6="14000.00000"></scales>
<clustering>
<clus scale="   35.341">  2  4  1 -1</clus>
<clus scale="   72.274">  1  5  2 -1</clus>
<clus scale="  116.329">  1  3  2 -1</clus>
<clus scale="   72.274">  1  3  2 -1</clus>
</clustering>
</event>
<event>
 6    0  0.2781617E+002  0.1262835E+03  0.7546771E-02  0.1233077E+00
          2   -1    0    0  505    0 -0.00000000000E+00  0.00000000000E+00  0.12680662267E+04  0.12680662267E+04  0.00000000000E+00 0. -1.
         21   -1    0    0  503  502  0.00000000000E+00 -0.00000000000E+00 -0.24338501229E+03  0.24338501229E+03  0.00000000000E+00 0.  1.
         21    1    1    2  503  504  0.50253977030E+02 -0.11088980785E+03 -0.49278539281E+02  0.13134072532E+03  0.00000000000E+00 0.  1.
         21    1    1    2  504  501  0.75815188177E+02  0.84888245685E+02  0.11176344341E+03  0.15951496575E+03  0.00000000000E+00 0.  1.
         21    1    1    2  505  502 -0.99232206346E+02 -0.39688911815E+02 -0.10571689783E+03  0.15032731949E+03  0.00000000000E+00 0.  1.
          2    1    1    2  501    0 -0.26836958861E+02  0.65690473985E+02  0.10679132081E+04  0.10702682284E+04  0.00000000000E+00 0. -1.
<scales pt_clust_3="107.12449" pt_clust_4="126.28351" pt_clust_5="14000.00000" pt_clust_6="70.96098"></scales>
<clustering>
<clus scale="   70.961">  1  6  2 -1</clus>
<clus scale="  107.124">  2  3  1 -1</clus>
<clus scale="  126.284">  1  4  2 -1</clus>
<clus scale="  107.124">  2  3  1 -1</clus>
</clustering>
</event>
<event>
 6    0  0.2781617E+002  0.1079556E+03  0.7546771E-02  0.1264403E+00
         21   -1    0    0  503  502  0.00000000000E+00  0.00000000000E+00  0.42615520889E+03  0.42615520889E+03  0.00000000000E+00 0. -1.
          2   -1    0    0  504    0 -0.00000000000E+00 -0.00000000000E+00 -0.18652520665E+04  0.18652520665E+04  0.00000000000E+00 0.  1.
         21    1    1    2  503  501 -0.33287274424E+02  0.63001547169E+02 -0.13285777247E+01  0.71267122174E+02  0.00000000000E+00 0. -1.
         21    1    1    2  504  505  0.10265691612E+03 -0.92575438346E+02 -0.77464942765E+01  0.13845093855E+03  0.00000000000E+00 0. -1.
         21    1    1    2  505  502 -0.65493540245E+02  0.81621450144E+02  0.31703129555E+03  0.33385671671E+03  0.00000000000E+00 0. -1.
          2    1    1    2  501    0 -0.38761014485E+01 -0.52047558967E+02 -0.17470530812E+04  0.17478324980E+04  0.00000000000E+00 0.  1.
<scales pt_clust_3="58.26421" pt_clust_4="14000.00000" pt_clust_5="107.95565" pt_clust_6="52.19169"></scales>
<clustering>
<clus scale="   52.192">  2  6  1 -1</clus>
<clus scale="   58.264">  2  3  1 -1</clus>
<clus scale="  107.956">  1  5  2 -1</clus>
<clus scale="  107.956">  1  3  2 -1</clus>
</clustering>
</event>
<event>
 6    0  0.2781617E+002  0.1797754E+03  0.7546771E-02  0.1168021E+00
          2   -1    0    0  505    0 -0.00000000000E+00  0.00000000000E+00  0.52897238296E+03  0.52897238296E+03  0.00000000000E+00 0. -1.
         21   -1    0    0  503  502  0.00000000000E+00 -0.00000000000E+00 -0.82267092494E+03  0.82267092494E+03  0.00000000000E+00 0.  1.
         21    1    1    2  503  501  0.16423069563E+03  0.92814721563E+02 -0.13393130292E+02  0.18911813733E+03  0.00000000000E+00 0. -1.
         21    1    1    2  504  502 -0.14937449904E+03 -0.97932130648E+02 -0.65393012010E+03  0.67788497930E+03  0.00000000000E+00 0.  1.
         21    1    1    2  505  504 -0.42283304336E+02 -0.16539171844E+02 -0.45372653284E+02  0.64188002749E+02  0.00000000000E+00 0. -1.
          2    1    1    2  501    0  0.27427107746E+02  0.21656580929E+02  0.41899736169E+03  0.42045218853E+03  0.00000000000E+00 0. -1.
<scales pt_clust_3="179.77540" pt_clust_4="14000.00000" pt_clust_5="42.53301" pt_clust_6="34.94644"></scales>
<clustering>
<clus scale="   34.946">  1  6  2 -1</clus>
<clus scale="   42.533">  1  5  2 -1</clus>
<clus scale="  179.775">  1  3  2 -1</clus>
<clus scale="  179.775">  2  3  1 -1</clus>
</clustering>
</event>
<event>
 6    0  0.2781617E+002  0.1766080E+03  0.7546771E-02  0.1171127E+00
          2   -1    0    0  503    0 -0.00000000000E+00  0.00000000000E+00  0.48755690528E+03  0.48755690528E+03  0.00000000000E+00 0. -1.
         21   -1    0    0  504  502  0.00000000000E+00 -0.00000000000E+00 -0.18702447859E+03  0.18702447859E+03  0.00000000000E+00 0. -1.
         21    1    1    2  503  502 -0.14143524971E+03  0.10840511924E+03  0.59402487881E+02  0.18784103733E+03  0.00000000000E+00 0. -1.
         21    1    1    2  504  505  0.60630291586E+02 -0.10294719801E+03 -0.58743785326E+02  0.13313523257E+03  0.00000000000E+00 0. -1.
         21    1    1    2  505  501  0.45982379711E+02 -0.17584381606E+02 -0.22097005269E+01  0.49279534259E+02  0.00000000000E+00 0.  1.
          2    1    1    2  501    0  0.34822578416E+02  0.12126460376E+02  0.30208342467E+03  0.30432557971E+03  0.00000000000E+00 0. -1.
<scales pt_clust_3="165.90568" pt_clust_4="40.01368" pt_clust_5="40.01368" pt_clust_6="36.87361"></scales>
<clustering>
<clus scale="   36.874">  1  6  2 -1</clus>
<clus scale="   40.014">  4  5 -1 -1</clus>
<clus scale="  165.906">  1  3  2 -1</clus>
<clus scale="  176.608">  2  3  1 -1</clus>
</clustering>
</event>
<event>
 6    0  0.2781617E+002  0.1750016E+03  0.7546771E-02  0.1172730E+00
         21   -1    0    0  505  502  0.00000000000E+00  0.00000000000E+00  0.13110949150E+03  0.13110949150E+03  0.00000000000E+00 0.  1.
          1   -1    0    0  504    0 -0.00000000000E+00 -0.00000000000E+00 -0.10167630518E+04  0.10167630518E+04  0.00000000000E+00 0. -1.
         21    1    1    2  503  502 -0.14612102147E+02  0.50022266304E+02 -0.11799032218E+03  0.12898626587E+03  0.00000000000E+00 0. -1.
         21    1    1    2  504  503 -0.41968491538E+02  0.10659125510E+03 -0.12555038740E+03  0.16995867063E+03  0.00000000000E+00 0. -1.
         21    1    1    2  505  501  0.88389861049E+02 -0.14446118247E+03  0.33347936787E+02  0.17260905441E+03  0.00000000000E+00 0.  1.
          1    1    1    2  501    0 -0.31809267364E+02 -0.12152338937E+02 -0.67546078753E+03  0.67631855240E+03  0.00000000000E+00 0. -1.
<scales pt_clust_3="32.53468" pt_clust_4="32.53468" pt_clust_5="168.22227" pt_clust_6="34.05156"></scales>
<clustering>
<clus scale="   32.535">  3  4 -1 -1</clus>
<clus scale="   34.052">  2  6  1 -1</clus>
<clus scale="  168.222">  1  5  2 -1</clus>
<clus scale="  168.222">  1  3  2 -1</clus>
</clustering>
</event>
<event>
 6    0  0.2781617E+002  0.1821243E+03  0.7546771E-02  0.1165763E+00
          2   -1    0    0  503    0 -0.00000000000E+00  0.00000000000E+00  0.25086146167E+04  0.25086146167E+04  0.00000000000E+00 0.  1.
         21   -1    0    0  505  502  0.00000000000E+00 -0.00000000000E+00 -0.20154521784E+03  0.20154521784E+03  0.00000000000E+00 0. -1.
         21    1    1    2  503  504 -0.87909807674E+02 -0.15861887752E+02 -0.61190148984E+02  0.10827727417E+03  0.00000000000E+00 0. -1.
         21    1    1    2  504  502 -0.68528547320E+02  0.28445630866E+01 -0.85143116891E+02  0.10933253720E+03  0.00000000000E+00 0. -1.
         21    1    1    2  505  501 -0.10381459566E+02 -0.51968955752E+02  0.26863685814E+02  0.59415525582E+02  0.00000000000E+00 0. -1.
          2    1    1    2  501    0  0.16681981456E+03  0.64986280417E+02  0.24265389789E+04  0.24331344976E+04  0.00000000000E+00 0.  1.
<scales pt_clust_3="31.57153" pt_clust_4="31.57153" pt_clust_5="52.99573" pt_clust_6="178.52472"></scales>
<clustering>
<clus scale="   31.572">  3  4 -1 -1</clus>
<clus scale="   52.996">  2  5  1 -1</clus>
<clus scale="  178.525">  1  6  2 -1</clus>
<clus scale="   52.996">  2  3  1 -1</clus>
</clustering>
</event>
<event>
 6    0  0.2781617E+002  0.9749343E+02  0.7546771E-02  0.1285657E+00
         21   -1    0    0  501  502  0.00000000000E+00  0.00000000000E+00  0.23518981312E+02  0.23518981312E+02  0.00000000000E+00 0. -1.
          1   -1    0    0  505    0 -0.00000000000E+00 -0.00000000000E+00 -0.19458751276E+04  0.19458751276E+04  0.00000000000E+00 0. -1.
         21    1    1    2  503  502 -0.19423961045E+02  0.36825236498E+02 -0.27507207035E+02  0.49900247942E+02  0.00000000000E+00 0. -1.
         21    1    1    2  504  503 -0.50322271801E+02  0.11880533216E+02 -0.71844866302E+02  0.88516455660E+02  0.00000000000E+00 0. -1.
         21    1    1    2  505  504  0.14865619719E+02  0.49044796549E+02 -0.35242015565E+03  0.35612686620E+03  0.00000000000E+00 0. -1.
          1    1    1    2  501    0  0.54880613126E+02 -0.97750566264E+02 -0.14705839173E+04  0.14748505391E+04  0.00000000000E+00 0. -1.
<scales pt_clust_3="40.64405" pt_clust_4="40.64405" pt_clust_5="51.24821" pt_clust_6="86.33313"></scales>
<clustering>
<clus scale="   40.644">  3  4 -1 -1</clus>
<clus scale="   51.248">  2  5  1 -1</clus>
<clus scale="   86.333">  2  6  1 -1</clus>
<clus scale="   97.493">  1  3  2 -1</clus>
</clustering>
</event>
<event>
 6    0  0.2781617E+002  0.1390242E+03  0.7546771E-02  0.1214648E+00
         21   -1    0    0  504  502  0.00000000000E+00  0.00000000000E+00  0.49678046003E+02  0.49678046003E+02  0.00000000000E+00 0. -1.
          2   -1    0    0  503    0 -0.00000000000E+00 -0.00000000000E+00 -0.99544500784E+03  0.99544500784E+03  0.00000000000E+00 0.  1.
         21    1    1    2  503  505 -0.49189666245E+02  0.27286546407E+02 -0.86826383928E+02  0.10345530352E+03  0.00000000000E+00 0. -1.
         21    1    1    2  504  501 -0.90755678422E+02 -0.45518504635E+02 -0.88350159686E+02  0.13458929432E+03  0.00000000000E+00 0. -1.
         21    1    1    2  505  502 -0.87946300580E+01  0.51253357200E+02 -0.55983074937E+02  0.76409140955E+02  0.00000000000E+00 0.  1.
          2    1    1    2  501    0  0.14873997472E+03 -0.33021398972E+02 -0.71460734328E+03  0.73066931504E+03  0.00000000000E+00 0.  1.
<scales pt_clust_3="47.35767" pt_clust_4="101.53092" pt_clust_5="47.35767" pt_clust_6="130.00667"></scales>
<clustering>
<clus scale="   47.358">  3  5 -1 -1</clus>
<clus scale="  101.531">  1  4  2 -1</clus>
<clus scale="  130.007">  2  6  1 -1</clus>
<clus scale="  101.531">  1  3  2 -1</clus>
</clustering>
</event>
<event>
 6    0  0.2781617E+002  0.1643670E+03  0.7546771E-02  0.1183853E+00
         -1   -1    0    0    0  501 -0.00000000000E+00  0.00000000000E+00  0.13691252552E+04  0.13691252552E+04  0.00000000000E+00 0.  1.
         21   -1    0    0  504  502  0.00000000000E+00 -0.00000000000E+00 -0.28634924109E+04  0.28634924109E+04  0.00000000000E+00 0. -1.
         21    1    1    2  503  502  0.12660333252E+03 -0.69447685152E+02 -0.12658795525E+04  0.12740888612E+04  0.00000000000E+00 0. -1.
         21    1    1    2  504  505 -0.68172996277E+02  0.10302359410E+03 -0.11768920543E+04  0.11833580717E+04  0.00000000000E+00 0. -1.
         21    1    1    2  505  501 -0.40874139398E+02  0.53700941377E+02 -0.40916106022E+03  0.41468935310E+03  0.00000000000E+00 0. -1.
         -1    1    1    2    0  503 -0.17556196842E+02 -0.87276850324E+02  0.13575655112E+04  0.13604813802E+04  0.00000000000E+00 0.  1.
<scales pt_clust_3="158.99462" pt_clust_4="30.80634" pt_clust_5="30.80634" pt_clust_6="89.02510"></scales>
<clustering>
<clus scale="   30.806">  4  5 -1 -1</clus>
<clus scale="   89.025">  1  6  2 -1</clus>
<clus scale="  158.995">  2  3  1 -1</clus>
<clus scale="  158.995">  2  3  1 -1</clus>
</clustering>
</event>
<event>
 6    0  0.2781617E+002  0.9250943E+02  0.7546771E-02  0.1296886E+00
         21   -1    0    0  505  502  0.00000000000E+00  0.00000000000E+00  0.20307292713E+03  0.20307292713E+03  0.00000000000E+00 0. -1.
         -3   -1    0    0    0  501 -0.00000000000E+00 -0.00000000000E+00 -0.18289513300E+03  0.18289513300E+03  0.00000000000E+00 0. -1.
         21    1    1    2  503  502  0.27567309381E+02 -0.29552684570E+02  0.53550836173E+02  0.67089565258E+02  0.00000000000E+00 0. -1.
         21    1    1    2  504  501  0.79426392715E+02 -0.61512610478E+02  0.64897145827E+01  0.10067010233E+03  0.00000000000E+00 0. -1.
         21    1    1    2  505  504 -0.76607219536E+02  0.75287307122E+02  0.52608938293E+02  0.11960160988E+03  0.00000000000E+00 0. -1.
         -3    1    1    2    0  503 -0.30386482560E+02  0.15777987925E+02 -0.92471694922E+02  0.98606782662E+02  0.00000000000E+00 0. -1.
<scales pt_clust_3="37.92447" pt_clust_4="92.50943" pt_clust_5="14000.00000" pt_clust_6="34.23862"></scales>
<clustering>
<clus scale="   34.239">  2  6  1 -1</clus>
<clus scale="   37.924">  1  3  2 -1</clus>
<clus scale="   92.509">  2  4  1 -1</clus>
<clus scale="   37.924">  1  3  2 -1</clus>
</clustering>
</event>
<event>
 6    0  0.2781617E+002  0.3589711E+03  0.7546771E-02  0.1058992E+00
         21   -1    0    0  503  502  0.00000000000E+00  0.00000000000E+00  0.79995733766E+03  0.79995733766E+03  0.00000000000E+00 0.  1.
          2   -1    0    0  505    0 -0.00000000000E+00 -0.00000000000E+00 -0.12228493104E+04  0.12228493104E+04  0.00000000000E+00 0. -1.
         21    1    1    2  503  504  0.75216532581E+02  0.19662575711E+03  0.31262093764E+03  0.37689662480E+03  0.00000000000E+00 0.  1.
         21    1    1    2  504  501  0.65153188874E+02  0.11537052602E+03  0.13020153508E+03  0.18576257974E+03  0.00000000000E+00 0.  1.
         21    1    1    2  505  502 -0.16863830571E+03 -0.33887856487E+03  0.17618713936E+03  0.41751582959E+03  0.00000000000E+00 0.  1.
          2    1    1    2  501    0  0.28268584253E+02  0.26882281736E+02 -0.10419015848E+04  0.10426316139E+04  0.00000000000E+00 0. -1.
<scales pt_clust_3="46.89136" pt_clust_4="46.89136" pt_clust_5="354.13549" pt_clust_6="39.00987"></scales>
<clustering>
<clus scale="   39.010">  2  6  1 -1</clus>
<clus scale="   46.891">  3  4 -1 -1</clus>
<clus scale="  354.135">  2  5  1 -1</clus>
<clus scale="  358.971">  1  3  2 -1</clus>
</clustering>
</event>
<event>
 6    0  0.2781617E+002  0.1554756E+03  0.7546771E-02  0.1193902E+00
         21   -1    0    0  505  502  0.00000000000E+00  0.00000000000E+00  0.26152208381E+02  0.26152208381E+02  0.00000000000E+00 0. -1.
          2   -1    0    0  503    0 -0.00000000000E+00 -0.00000000000E+00 -0.23590616488E+04  0.23590616488E+04  0.00000000000E+00 0. -1.
         21    1    1    2  503  504 -0.11527783545E+03  0.39514018958E+02 -0.22936745467E+03  0.25973017981E+03  0.00000000000E+00 0. -1.
         21    1    1    2  504  502 -0.16172284995E+02  0.43305677342E+02 -0.10181312522E+03  0.11181608542E+03  0.00000000000E+00 0.  1.
         21    1    1    2  505  501  0.10026980251E+03 -0.60449093295E+02 -0.59470928268E+03  0.60612478672E+03  0.00000000000E+00 0. -1.
          2    1    1    2  501    0  0.31180317936E+02 -0.22370603005E+02 -0.14070195778E+04  0.14075428052E+04  0.00000000000E+00 0. -1.
<scales pt_clust_3="40.07507" pt_clust_4="40.07507" pt_clust_5="141.22626" pt_clust_6="38.37520"></scales>
<clustering>
<clus scale="   38.375">  2  6  1 -1</clus>
<clus scale="   40.075">  3  4 -1 -1</clus>
<clus scale="  141.226">  2  5  1 -1</clus>
<clus scale="  155.476">  1  3  2 -1</clus>
</clustering>
</event>
<event>
 6    0  0.2781617E+002  0.2285196E+03  0.7546771E-02  0.1127686E+00
          2   -1    0    0  505    0 -0.00000000000E+00  0.00000000000E+00  0.31673748967E+04  0.31673748967E+04  0.00000000000E+00 0. -1.
         21   -1    0    0  503  502  0.00000000000E+00 -0.00000000000E+00 -0.32426339195E+03  0.32426339195E+03  0.00000000000E+00 0. -1.
         21    1    1    2  503  501  0.25851013569E+02 -0.16772807973E+02 -0.10128081945E+02  0.32437324700E+02  0.00000000000E+00 0. -1.
         21    1    1    2  504  502 -0.74683029044E+02  0.56848403560E+02 -0.11878052250E+03  0.15138727932E+03  0.00000000000E+00 0. -1.
         21    1    1    2  505  504 -0.14963339824E+03  0.58385576190E+02 -0.12459683183E+03  0.20328157781E+03  0.00000000000E+00 0. -1.
          2    1    1    2  501    0  0.19846541372E+03 -0.98461171777E+02  0.30966169411E+04  0.31045321069E+04  0.00000000000E+00 0. -1.
<scales pt_clust_3="30.81561" pt_clust_4="40.55184" pt_clust_5="40.55184" pt_clust_6="221.94698"></scales>
<clustering>
<clus scale="   30.816">  2  3  1 -1</clus>
<clus scale="   40.552">  4  5 -1 -1</clus>
<clus scale="  221.947">  1  6  2 -1</clus>
<clus scale="   30.816">  2  3  1 -1</clus>
</clustering>
</event>
<event>
 6    0  0.2788178E+002  0.1121147E+03  0.7546771E-02  0.1256703E+00
         21   -1    0    0  504  502  0.00000000000E+00  0.00000000000E+00  0.43896478605E+03  0.43896478605E+03  0.00000000000E+00 0.  1.
          2   -1    0    0  503    0 -0.00000000000E+00 -0.00000000000E+00 -0.75439920017E+03  0.75439920017E+03  0.00000000000E+00 0.  1.
         21    1    1    2  503  502  0.27419718044E+02  0.16601653471E+02  0.38233548410E+02  0.49892485001E+02  0.00000000000E+00 0.  1.
         21    1    1    2  504  505 -0.10115933554E+03  0.69183097297E+02  0.32979175983E+03  0.35182682810E+03  0.00000000000E+00 0.  1.
         21    1    1    2  505  501  0.37487973996E+02 -0.10533460447E+03 -0.49816093049E+01  0.11191757469E+03  0.00000000000E+00 0. -1.
          2    1    1    2  501    0  0.36251643505E+02  0.19549853703E+02 -0.67847811305E+03  0.67972709842E+03  0.00000000000E+00 0.  1.
<scales pt_clust_3="32.05395" pt_clust_4="112.11473" pt_clust_5="14000.00000" pt_clust_6="41.23774"></scales>
<clustering>
<clus scale="   32.054">  1  3  2 -1</clus>
<clus scale="   41.238">  2  6  1 -1</clus>
<clus scale="  112.115">  1  4  2 -1</clus>
<clus scale="   32.054">  1  3  2 -1</clus>
</clustering>
</event>
<event>
 6    0  0.2781617E+002  0.1088923E+03  0.7546771E-02  0.1262635E+00
         21   -1    0    0  504  502  0.00000000000E+00  0.00000000000E+00  0.53291213484E+03  0.53291213484E+03  0.00000000000E+00 0.  1.
          2   -1    0    0  503    0 -0.00000000000E+00 -0.00000000000E+00 -0.52892661684E+03  0.52892661684E+03  0.00000000000E+00 0. -1.
         21    1    1    2  503  505 -0.11838828703E+03 -0.52408507642E+02  0.22084521561E+03  0.25599813952E+03  0.00000000000E+00 0.  1.
         21    1    1    2  504  501  0.94871586465E+02  0.41152311389E+02  0.26540062688E+03  0.28483613429E+03  0.00000000000E+00 0.  1.
         21    1    1    2  505  502 -0.30611467458E+02 -0.96210043187E+01  0.30559334846E+01  0.32232970597E+02  0.00000000000E+00 0. -1.
          2    1    1    2  501    0  0.54128168025E+02  0.20877200572E+02 -0.48531625797E+03  0.48877150728E+03  0.00000000000E+00 0. -1.
<scales pt_clust_3="14000.00000" pt_clust_4="108.89227" pt_clust_5="32.08778" pt_clust_6="57.90742"></scales>
<clustering>
<clus scale="   32.088">  1  5  2 -1</clus>
<clus scale="   57.907">  2  6  1 -1</clus>
<clus scale="  108.892">  1  4  2 -1</clus>
<clus scale="   32.088">  1  3  2 -1</clus>
</clustering>
</event>
<event>
 6    0  0.2781617E+002  0.1060256E+03  0.7546771E-02  0.1268112E+00
          1   -1    0    0  504    0 -0.00000000000E+00  0.00000000000E+00  0.32585542874E+03  0.32585542874E+03  0.00000000000E+00 0. -1.
         21   -1    0    0  503  502  0.00000000000E+00 -0.00000000000E+00 -0.18033970681E+03  0.18033970681E+03  0.00000000000E+00 0.  1.
         21    1    1    2  503  501  0.70230078426E+02  0.32206519780E+02 -0.12748874394E+03  0.14907348410E+03  0.00000000000E+00 0.  1.
         21    1    1    2  504  505 -0.14496412969E+02 -0.43794973071E+02  0.45046405639E+02  0.64477316292E+02  0.00000000000E+00 0. -1.
         21    1    1    2  505  502  0.38137756504E+02  0.24094635434E+01 -0.75489603935E+01  0.38952288620E+02  0.00000000000E+00 0.  1.
          1    1    1    2  501    0 -0.93871421961E+02  0.91789897475E+01  0.23550702063E+03  0.25369204654E+03  0.00000000000E+00 0. -1.
<scales pt_clust_3="14000.00000" pt_clust_4="45.30225" pt_clust_5="38.21379" pt_clust_6="106.02556"></scales>
<clustering>
<clus scale="   38.214">  2  5  1 -1</clus>
<clus scale="   45.302">  1  4  2 -1</clus>
<clus scale="  106.026">  1  6  2 -1</clus>
<clus scale="   38.214">  2  3  1 -1</clus>
</clustering>
</event>
<event>
 6    0  0.2781617E+002  0.1003410E+03  0.7546771E-02  0.1279580E+00
         -1   -1    0    0    0  501 -0.00000000000E+00  0.00000000000E+00  0.56966375312E+02  0.56966375312E+02  0.00000000000E+00 0. -1.
         21   -1    0    0  501  502  0.00000000000E+00 -0.00000000000E+00 -0.27000199233E+04  0.27000199233E+04  0.00000000000E+00 0.  1.
         21    1    1    2  503  504  0.80212609435E+01  0.10879841907E+03 -0.24335434335E+03  0.26668853189E+03  0.00000000000E+00 0. -1.
         21    1    1    2  504  505  0.43676121371E+01 -0.87404033585E+02 -0.19354258575E+04  0.19374033630E+04  0.00000000000E+00 0.  1.
         21    1    1    2  505  502  0.28791987842E+02 -0.95301879739E+01 -0.49765091301E+03  0.49857420137E+03  0.00000000000E+00 0.  1.
         -1    1    1    2    0  503 -0.41180860923E+02 -0.11864197506E+02  0.33377565814E+02  0.54320202397E+02  0.00000000000E+00 0. -1.
<scales pt_clust_3="14000.00000" pt_clust_4="100.34103" pt_clust_5="30.32825" pt_clust_6="42.73689"></scales>
<clustering>
<clus scale="   30.328">  2  5  1 -1</clus>
<clus scale="   42.737">  1  6  2 -1</clus>
<clus scale="  100.341">  2  4  1 -1</clus>
<clus scale="   30.328">  2  3  1 -1</clus>
</clustering>
</event>
<event>
 6    0  0.2781617E+002  0.1338504E+03  0.7546771E-02  0.1221852E+00
         21   -1    0    0  505  502  0.00000000000E+00  0.00000000000E+00  0.93032776248E+03  0.93032776248E+03  0.00000000000E+00 0. -1.
          2   -1    0    0  503    0 -0.00000000000E+00 -0.00000000000E+00 -0.92756498172E+03  0.92756498172E+03  0.00000000000E+00 0. -1.
         21    1    1    2  503  504 -0.16412232830E+00  0.36063547923E+02  0.10197598059E+03  0.10816518406E+03  0.00000000000E+00 0.  1.
         21    1    1    2  504  502 -0.55949351440E+02  0.39457166182E+02  0.17737040075E+03  0.19012484570E+03  0.00000000000E+00 0. -1.
         21    1    1    2  505  501  0.27209911621E+02 -0.17090584079E+03  0.62704814791E+03  0.65049101877E+03  0.00000000000E+00 0. -1.
          2    1    1    2  501    0  0.28903562147E+02  0.95385126684E+02 -0.90363174850E+03  0.90911169566E+03  0.00000000000E+00 0. -1.
<scales pt_clust_3="33.18387" pt_clust_4="33.18387" pt_clust_5="125.79940" pt_clust_6="99.66814"></scales>
<clustering>
<clus scale="   33.184">  3  4 -1 -1</clus>
<clus scale="   99.668">  2  6  1 -1</clus>
<clus scale="  125.799">  2  5  1 -1</clus>
<clus scale="  133.850">  1  3  2 -1</clus>
</clustering>
</event>
<event>
 6    0  0.2781617E+002  0.9896428E+02  0.7546771E-02  0.1282489E+00
         21   -1    0    0  501  502  0.00000000000E+00  0.00000000000E+00  0.26652266743E+03  0.26652266743E+03  0.00000000000E+00 0.  1.
          3   -1    0    0  505    0 -0.00000000000E+00 -0.00000000000E+00 -0.42192184764E+03  0.42192184764E+03  0.00000000000E+00 0.  1.
         21    1    1    2  503  504  0.87929248935E+01  0.51772282504E+02  0.44054261256E+02  0.68545333165E+02  0.00000000000E+00 0.  1.
         21    1    1    2  504  502 -0.42816152805E+02 -0.10860010875E+02 -0.12762892879E+00  0.44172152612E+02  0.00000000000E+00 0.  1.
         21    1    1    2  505  503  0.37733885473E+02  0.59367796066E+02  0.17477547587E+03  0.18840076509E+03  0.00000000000E+00 0.  1.
          3    1    1    2  501    0 -0.37106575617E+01 -0.10028006769E+03 -0.37410128841E+03  0.38732626421E+03  0.00000000000E+00 0.  1.
<scales pt_clust_3="49.28314" pt_clust_4="44.17197" pt_clust_5="14000.00000" pt_clust_6="98.96428"></scales>
<clustering>
<clus scale="   44.172">  1  4  2 -1</clus>
<clus scale="   49.283">  1  3  2 -1</clus>
<clus scale="   98.964">  2  6  1 -1</clus>
<clus scale="   44.172">  1  3  2 -1</clus>
</clustering>
</event>
<event>
 6    0  0.2781617E+002  0.1371508E+03  0.7546771E-02  0.1217215E+00
          1   -1    0    0  505    0 -0.00000000000E+00  0.00000000000E+00  0.56311621627E+03  0.56311621627E+03  0.00000000000E+00 0. -1.
         21   -1    0    0  503  502  0.00000000000E+00 -0.00000000000E+00 -0.19094803620E+03  0.19094803620E+03  0.00000000000E+00 0. -1.
         21    1    1    2  503  504  0.40514733376E+02 -0.31076302366E+02 -0.52597937909E+02  0.73305683692E+02  0.00000000000E+00 0. -1.
         21    1    1    2  504  501  0.41301843663E+02 -0.48254990931E+02  0.20507479609E+01  0.63549917443E+02  0.00000000000E+00 0. -1.
         21    1    1    2  505  502 -0.81919365425E+02  0.11187627014E+03 -0.46967002221E+02  0.14640007360E+03  0.00000000000E+00 0. -1.
          1    1    1    2  501    0  0.10278838520E+00 -0.32544976841E+02  0.46968237224E+03  0.47080857774E+03  0.00000000000E+00 0. -1.
<scales pt_clust_3="48.37796" pt_clust_4="48.37796" pt_clust_5="124.99328" pt_clust_6="32.54514"></scales>
<clustering>
<clus scale="   32.545">  1  6  2 -1</clus>
<clus scale="   48.378">  3  4 -1 -1</clus>
<clus scale="  124.993">  1  5  2 -1</clus>
<clus scale="  137.151">  2  3  1 -1</clus>
</clustering>
</event>
<event>
 6    0  0.2781617E+002  0.1745782E+03  0.7546771E-02  0.1173156E+00
          2   -1    0    0  505    0 -0.00000000000E+00  0.00000000000E+00  0.21153523221E+04  0.21153523221E+04  0.00000000000E+00 0. -1.
         21   -1    0    0  501  502  0.00000000000E+00 -0.00000000000E+00 -0.14823806648E+03  0.14823806648E+03  0.00000000000E+00 0.  1.
         21    1    1    2  503  504 -0.42102585689E+02 -0.48124907845E+02  0.20906726363E+03  0.21862697729E+03  0.00000000000E+00 0.  1.
         21    1    1    2  504  502  0.15208629511E+03  0.69297747219E+02 -0.87207826733E+02  0.18851425403E+03  0.00000000000E+00 0.  1.
         21    1    1    2  505  503 -0.73902031600E+02  0.70157588400E+01  0.25628209510E+03  0.26681687243E+03  0.00000000000E+00 0. -1.
          2    1    1    2  501    0 -0.36081677819E+02 -0.28188598214E+02  0.15889727237E+04  0.15896322849E+04  0.00000000000E+00 0. -1.
<scales pt_clust_3="59.47347" pt_clust_4="162.84620" pt_clust_5="59.47347" pt_clust_6="45.78738"></scales>
<clustering>
<clus scale="   45.787">  1  6  2 -1</clus>
<clus scale="   59.473">  3  5 -1 -1</clus>
<clus scale="  162.846">  2  4  1 -1</clus>
<clus scale="  162.846">  2  3  1 -1</clus>
</clustering>
</event>
<event>
 6    0  0.2781617E+002  0.1118810E+03  0.7546771E-02  0.1257126E+00
         21   -1    0    0  505  502  0.00000000000E+00  0.00000000000E+00  0.10688015697E+04  0.10688015697E+04  0.00000000000E+00 0. -1.
         -2   -1    0    0    0  501 -0.00000000000E+00 -0.00000000000E+00 -0.30589241038E+02  0.30589241038E+02  0.00000000000E+00 0. -1.
         21    1    1    2  503  501  0.54797645181E+02  0.24652133996E+02  0.31746611488E+03  0.32310252819E+03  0.00000000000E+00 0. -1.
         21    1    1    2  504  502 -0.20703260120E+02 -0.22879532836E+02  0.93834269544E+02  0.98777366554E+02  0.00000000000E+00 0. -1.
         21    1    1    2  505  503  0.38761683080E+02  0.65073500412E+02  0.54173982086E+03  0.54700919740E+03  0.00000000000E+00 0. -1.
         -2    1    1    2    0  504 -0.72856068142E+02 -0.66846101572E+02  0.85172123431E+02  0.13050171865E+03  0.00000000000E+00 0. -1.
<scales pt_clust_3="42.16100" pt_clust_4="30.85609" pt_clust_5="42.16100" pt_clust_6="102.28299"></scales>
<clustering>
<clus scale="   30.856">  1  4  2 -1</clus>
<clus scale="   42.161">  3  5 -1 -1</clus>
<clus scale="  102.283">  2  6  1 -1</clus>
<clus scale="   30.856">  1  3  2 -1</clus>
</clustering>
</event>
<event>
 6    0  0.2781617E+002  0.1641598E+03  0.7546771E-02  0.1184079E+00
         -2   -1    0    0    0  501 -0.00000000000E+00  0.00000000000E+00  0.12818483672E+03  0.12818483672E+03  0.00000000000E+00 0. -1.
         21   -1    0    0  505  502  0.00000000000E+00 -0.00000000000E+00 -0.23973823743E+04  0.23973823743E+04  0.00000000000E+00 0.  1.
         21    1    1    2  503  502  0.91633767103E+02  0.46984153153E+02 -0.14601087623E+04  0.14637355826E+04  0.00000000000E+00 0.  1.
         21    1    1    2  504  503  0.11418379117E+02  0.55291446028E+02 -0.58044862840E+03  0.58318790590E+03  0.00000000000E+00 0. -1.
         21    1    1    2  505  501 -0.14741467791E+03 -0.91551514935E+02 -0.32701075827E+03  0.37020103075E+03  0.00000000000E+00 0. -1.
         -2    1    1    2    0  504  0.44362531686E+02 -0.10724084246E+02  0.98370611434E+02  0.10844269175E+03  0.00000000000E+00 0. -1.
<scales pt_clust_3="51.40255" pt_clust_4="51.40255" pt_clust_5="148.34819" pt_clust_6="45.64034"></scales>
<clustering>
<clus scale="   45.640">  1  6  2 -1</clus>
<clus scale="   51.403">  3  4 -1 -1</clus>
<clus scale="  148.348">  1  5  2 -1</clus>
<clus scale="  164.160">  2  3  1 -1</clus>
</clustering>
</event>
<event>
 6    0  0.2781617E+002  0.2221797E+03  0.7546771E-02  0.1132268E+00
          2   -1    0    0  504    0 -0.00000000000E+00  0.00000000000E+00  0.16870236733E+04  0.16870236733E+04  0.00000000000E+00 0. -1.
         21   -1    0    0  505  502  0.00000000000E+00 -0.00000000000E+00 -0.23350511385E+03  0.23350511385E+03  0.00000000000E+00 0.  1.
         21    1    1    2  503  501  0.92858615094E+02  0.78924410839E+02 -0.12235144928E+03  0.17268949640E+03  0.00000000000E+00 0.  1.
         21    1    1    2  504  502 -0.99303137935E+02 -0.68566096288E+02  0.14987476903E+03  0.19241847405E+03  0.00000000000E+00 0. -1.
         21    1    1    2  505  503  0.32224126407E+02  0.10723691404E+03 -0.11800341912E+02  0.11259395243E+03  0.00000000000E+00 0.  1.
          2    1    1    2  501    0 -0.25779603567E+02 -0.11759522859E+03  0.14377955816E+04  0.14428268643E+04  0.00000000000E+00 0. -1.
<scales pt_clust_3="109.66142" pt_clust_4="190.46161" pt_clust_5="109.66142" pt_clust_6="120.38781"></scales>
<clustering>
<clus scale="  109.661">  3  5 -1 -1</clus>
<clus scale="  120.388">  1  6  2 -1</clus>
<clus scale="  190.462">  1  4  2 -1</clus>
<clus scale="  222.180">  2  3  1 -1</clus>
</clustering>
</event>
<event>
 6    0  0.2781617E+002  0.8986122E+02  0.7546771E-02  0.1303188E+00
         21   -1    0    0  505  502  0.00000000000E+00  0.00000000000E+00  0.40809220404E+03  0.40809220404E+03  0.00000000000E+00 0.  1.
          1   -1    0    0  503    0 -0.00000000000E+00 -0.00000000000E+00 -0.12432900013E+03  0.12432900013E+03  0.00000000000E+00 0. -1.
         21    1    1    2  503  502 -0.24021500320E+02  0.10492839723E+03  0.13045371654E+03  0.16913063939E+03  0.00000000000E+00 0.  1.
         21    1    1    2  504  501  0.17843825537E+01 -0.83462926086E+02  0.62972360084E+02  0.10456941325E+03  0.00000000000E+00 0.  1.
         21    1    1    2  505  504  0.56849282962E+02 -0.27148400394E+02  0.16478890868E+03  0.17642069335E+03  0.00000000000E+00 0.  1.
          1    1    1    2  501    0 -0.34612165196E+02  0.56829292520E+01 -0.74451781396E+02  0.82300458185E+02  0.00000000000E+00 0. -1.
<scales pt_clust_3="89.86122" pt_clust_4="14000.00000" pt_clust_5="58.74916" pt_clust_6="35.07560"></scales>
<clustering>
<clus scale="   35.076">  2  6  1 -1</clus>
<clus scale="   58.749">  1  5  2 -1</clus>
<clus scale="   89.861">  1  3  2 -1</clus>
<clus scale="   58.749">  1  3  2 -1</clus>
</clustering>
</event>
<event>
 6    0  0.2781617E+002  0.2099584E+03  0.7546771E-02  0.1141599E+00
         21   -1    0    0  505  502  0.00000000000E+00  0.00000000000E+00  0.93343828572E+03  0.93343828572E+03  0.00000000000E+00 0.  1.
         -3   -1    0    0    0  501 -0.00000000000E+00 -0.00000000000E+00 -0.10484737820E+03  0.10484737820E+03  0.00000000000E+00 0. -1.
         21    1    1    2  503  501 -0.11639663127E+03  0.66035404320E+02  0.33065658463E+03  0.35671084558E+03  0.00000000000E+00 0.  1.
         21    1    1    2  504  502  0.11021036520E+03 -0.12477158778E+03  0.27271151371E+03  0.31950875328E+03  0.00000000000E+00 0.  1.
         21    1    1    2  505  503 -0.76956930708E+02  0.90505717302E+02  0.24374287310E+03  0.27115353996E+03  0.00000000000E+00 0.  1.
         -3    1    1    2    0  504  0.83143196778E+02 -0.31769533839E+02 -0.18520063916E+02  0.90912525090E+02  0.00000000000E+00 0. -1.
<scales pt_clust_3="46.04482" pt_clust_4="204.19188" pt_clust_5="46.04482" pt_clust_6="89.00615"></scales>
<clustering>
<clus scale="   46.045">  3  5 -1 -1</clus>
<clus scale="   89.006">  2  6  1 -1</clus>
<clus scale="  204.192">  1  4  2 -1</clus>
<clus scale="  204.192">  1  3  2 -1</clus>
</clustering>
</event>
<event>
 6    0  0.2781617E+002  0.1425603E+03  0.7546771E-02  0.1209925E+00
          2   -1    0    0  505    0 -0.00000000000E+00  0.00000000000E+00  0.14099924303E+04  0.14099924303E+04  0.00000000000E+00 0. -1.
         21   -1    0    0  503  502  0.00000000000E+00 -0.00000000000E+00 -0.35127717953E+03  0.35127717953E+03  0.00000000000E+00 0.  1.
         21    1    1    2  503  501  0.14252667416E+03 -0.87096317170E+01 -0.16444522283E+03  0.21778875509E+03  0.00000000000E+00 0.  1.
         21    1    1    2  504  502  0.17907049439E+02  0.31553509142E+02 -0.41081233010E+01  0.36512505198E+02  0.00000000000E+00 0. -1.
         21    1    1    2  505  504 -0.32045803748E+02 -0.85280849060E+02 -0.12083282585E+03  0.15132854508E+03  0.00000000000E+00 0. -1.
          2    1    1    2  501    0 -0.12838791985E+03  0.62436971635E+02  0.13481014228E+04  0.13556398045E+04  0.00000000000E+00 0. -1.
<scales pt_clust_3="14000.00000" pt_clust_4="36.28066" pt_clust_5="76.40418" pt_clust_6="142.56032"></scales>
<clustering>
<clus scale="   36.281">  2  4  1 -1</clus>
<clus scale="   76.404">  2  5  1 -1</clus>
<clus scale="  142.560">  1  6  2 -1</clus>
<clus scale="   36.281">  2  3  1 -1</clus>
</clustering>
</event>
<event>
 6    0  0.2781617E+002  0.2976349E+03  0.7546771E-02  0.1086429E+00
         21   -1    0    0  505  502  0.00000000000E+00  0.00000000000E+00  0.98627714626E+03  0.98627714626E+03  0.00000000000E+00 0. -1.
          1   -1    0    0  502    0 -0.00000000000E+00 -0.00000000000E+00 -0.72966627790E+03  0.72966627790E+03  0.00000000000E+00 0.  1.
         21    1    1    2  503  504 -0.79266296638E+02 -0.25239866816E+01  0.37652533299E+03  0.38478674960E+03  0.00000000000E+00 0. -1.
         21    1    1    2  504  501 -0.96025959627E+02 -0.98285140046E-01  0.18235227536E+03  0.20609062791E+03  0.00000000000E+00 0. -1.
         21    1    1    2  505  503 -0.73951055619E+02 -0.73497137007E+02  0.38035648962E+03  0.39438768613E+03  0.00000000000E+00 0. -1.
          1    1    1    2  501    0  0.24924331188E+03  0.76119408828E+02 -0.68262322961E+03  0.73067836052E+03  0.00000000000E+00 0.  1.
<scales pt_clust_3="61.59588" pt_clust_4="89.72392" pt_clust_5="89.72392" pt_clust_6="260.60774"></scales>
<clustering>
<clus scale="   61.596">  3  5 -1 -1</clus>
<clus scale="   89.724">  3  4 -1 -1</clus>
<clus scale="  260.608">  2  6  1 -1</clus>
<clus scale="  297.635">  1  3  2 -1</clus>
</clustering>
</event>
<event>
 6    0  0.3060512E+002  0.1145228E+03  0.7546771E-02  0.1252416E+00
         21   -1    0    0  504  502  0.00000000000E+00  0.00000000000E+00  0.12382727174E+04  0.12382727174E+04  0.00000000000E+00 0.  1.
         -2   -1    0    0    0  501 -0.00000000000E+00 -0.00000000000E+00 -0.16119886881E+03  0.16119886881E+03  0.00000000000E+00 0.  1.
         21    1    1    2  503  501 -0.46019383182E+02 -0.93991526299E+01  0.48750435127E+02  0.67695883358E+02  0.00000000000E+00 0.  1.
         21    1    1    2  504  503  0.57086439494E+02 -0.79226844264E+02  0.10330055005E+04  0.10376107741E+04  0.00000000000E+00 0.  1.
         21    1    1    2  505  502  0.30267240140E+02  0.16548723834E+01  0.12726043225E+03  0.13082072483E+03  0.00000000000E+00 0. -1.
         -2    1    1    2    0  505 -0.41334296452E+02  0.86971124510E+02 -0.13194251929E+03  0.16334420393E+03  0.00000000000E+00 0.  1.
<scales pt_clust_3="45.39607" pt_clust_4="114.52280" pt_clust_5="30.31245" pt_clust_6="14000.00000"></scales>
<clustering>
<clus scale="   30.312">  1  5  2 -1</clus>
<clus scale="   45.396">  2  3  1 -1</clus>
<clus scale="  114.523">  1  4  2 -1</clus>
<clus scale="   30.312">  1  3  2 -1</clus>
</clustering>
</event>
<event>
 6    0  0.2781617E+002  0.1042987E+03  0.7546771E-02  0.1271508E+00
         -1   -1    0    0    0  501 -0.00000000000E+00  0.00000000000E+00  0.45634323588E+03  0.45634323588E+03  0.00000000000E+00 0.  1.
         21   -1    0    0  503  502  0.00000000000E+00 -0.00000000000E+00 -0.87393170664E+03  0.87393170664E+03  0.00000000000E+00 0. -1.
         21    1    1    2  503  501  0.40762340087E+02  0.10053860559E+02 -0.17797688951E+03  0.18286175565E+03  0.00000000000E+00 0. -1.
         21    1    1    2  504  505 -0.12164502972E+03 -0.29292751531E+02 -0.61751477344E+03  0.63006354756E+03  0.00000000000E+00 0. -1.
         21    1    1    2  505  502 -0.10252296728E+02 -0.31151147683E+02 -0.59381647037E+02  0.67835710323E+02  0.00000000000E+00 0. -1.
         -1    1    1    2    0  504  0.91134986357E+02  0.50390038655E+02  0.43728483923E+03  0.44951392898E+03  0.00000000000E+00 0.  1.
<scales pt_clust_3="38.60578" pt_clust_4="104.29868" pt_clust_5="32.79487" pt_clust_6="14000.00000"></scales>
<clustering>
<clus scale="   32.795">  2  5  1 -1</clus>
<clus scale="   38.606">  2  3  1 -1</clus>
<clus scale="  104.299">  2  4  1 -1</clus>
<clus scale="   32.795">  2  3  1 -1</clus>
</clustering>
</event>
<event>
 6    0  0.2781617E+002  0.1130750E+03  0.7546771E-02  0.1254979E+00
          2   -1    0    0  503    0 -0.00000000000E+00  0.00000000000E+00  0.95160947336E+02  0.95160947336E+02  0.00000000000E+00 0.  1.
         21   -1    0    0  505  502  0.00000000000E+00 -0.00000000000E+00 -0.51476469848E+03  0.51476469848E+03  0.00000000000E+00 0. -1.
         21    1    1    2  503  502  0.10203433947E+03  0.13729384527E+02 -0.13207514487E+03  0.16746147713E+03  0.00000000000E+00 0. -1.
         21    1    1    2  504  501 -0.23304713165E+02 -0.58941670907E+02 -0.93661559671E+02  0.11309163534E+03  0.00000000000E+00 0. -1.
         21    1    1    2  505  504 -0.12243130542E+03  0.16436146863E+01 -0.22804005790E+03  0.25883275299E+03  0.00000000000E+00 0. -1.
          2    1    1    2  501    0  0.43701679118E+02  0.43568671693E+02  0.34173011294E+02  0.70539780350E+02  0.00000000000E+00 0.  1.
<scales pt_clust_3="14000.00000" pt_clust_4="50.84686" pt_clust_5="113.07502" pt_clust_6="61.70953"></scales>
<clustering>
<clus scale="   61.710">  1  6  2 -1</clus>
<clus scale="   50.847">  1  4  2 -1</clus>
<clus scale="  113.075">  2  5  1 -1</clus>
<clus scale="  113.075">  2  3  1 -1</clus>
</clustering>
</event>
<event>
 6    0  0.2781617E+002  0.1041349E+03  0.7546771E-02  0.1271834E+00
         21   -1    0    0  503  502  0.00000000000E+00  0.00000000000E+00  0.12134291107E+04  0.12134291107E+04  0.00000000000E+00 0. -1.
          2   -1    0    0  504    0 -0.00000000000E+00 -0.00000000000E+00 -0.31441401314E+02  0.31441401314E+02  0.00000000000E+00 0.  1.
         21    1    1    2  503  501  0.28649261029E+01  0.42728038421E+02  0.20676768906E+03  0.21115579630E+03  0.00000000000E+00 0. -1.
         21    1    1    2  504  505 -0.41909392717E+02  0.55408050558E+02  0.91110854467E+02  0.11457590090E+03  0.00000000000E+00 0. -1.
         21    1    1    2  505  502  0.11632976736E+03 -0.38824615469E+02  0.70177863419E+03  0.71241365579E+03  0.00000000000E+00 0. -1.
          2    1    1    2  501    0 -0.77285300742E+02 -0.59311473510E+02  0.18233053164E+03  0.20672515902E+03  0.00000000000E+00 0.  1.
<scales pt_clust_3="42.82398" pt_clust_4="72.84147" pt_clust_5="104.13489" pt_clust_6="14000.00000"></scales>
<clustering>
<clus scale="   42.824">  1  3  2 -1</clus>
<clus scale="   72.841">  2  4  1 -1</clus>
<clus scale="  104.135">  1  5  2 -1</clus>
<clus scale="   42.824">  1  3  2 -1</clus>
</clustering>
</event>
<event>
 6    0  0.2781617E+002  0.1313811E+03  0.7546771E-02  0.1225421E+00
         -1   -1    0    0    0  501 -0.00000000000E+00  0.00000000000E+00  0.72430354498E+02  0.72430354498E+02  0.00000000000E+00 0. -1.
         21   -1    0    0  505  502  0.00000000000E+00 -0.00000000000E+00 -0.11034017825E+04  0.11034017825E+04  0.00000000000E+00 0.  1.
         21    1    1    2  503  502  0.40948738399E+02 -0.22864712195E+02 -0.15603191823E+03  0.16292806311E+03  0.00000000000E+00 0.  1.
         21    1    1    2  504  503 -0.60728001874E+02  0.13289778338E+03 -0.53678353531E+03  0.55631490616E+03  0.00000000000E+00 0.  1.
         21    1    1    2  505  501 -0.75010651220E+01 -0.13297453464E+03 -0.37938750090E+03  0.40208627020E+03  0.00000000000E+00 0.  1.
         -1    1    1    2    0  504  0.27280328597E+02  0.22941463451E+02  0.41231526406E+02  0.54502897568E+02  0.00000000000E+00 0. -1.
<scales pt_clust_3="48.89774" pt_clust_4="14000.00000" pt_clust_5="131.38112" pt_clust_6="35.64445"></scales>
<clustering>
<clus scale="   35.644">  1  6  2 -1</clus>
<clus scale="   48.898">  2  3  1 -1</clus>
<clus scale="  131.381">  1  5  2 -1</clus>
<clus scale="   48.898">  2  3  1 -1</clus>
</clustering>
</event>
<event>
 6    0  0.2781617E+002  0.1205308E+03  0.7546771E-02  0.1242224E+00
          2   -1    0    0  504    0 -0.00000000000E+00  0.00000000000E+00  0.13014767586E+04  0.13014767586E+04  0.00000000000E+00 0. -1.
         21   -1    0    0  505  502  0.00000000000E+00 -0.00000000000E+00 -0.10236432343E+03  0.10236432343E+03  0.00000000000E+00 0. -1.
         21    1    1    2  503  501  0.32544162519E+02  0.13217047418E+02 -0.71124492086E+01  0.35838523829E+02  0.00000000000E+00 0. -1.
         21    1    1    2  504  502 -0.32852916860E+02  0.17600496181E+02 -0.23174405265E+02  0.43887864740E+02  0.00000000000E+00 0. -1.
         21    1    1    2  505  503  0.21604355947E+02  0.78278950160E+02 -0.81226030703E+01  0.81610776952E+02  0.00000000000E+00 0. -1.
          2    1    1    2  501    0 -0.21295601606E+02 -0.10909649376E+03  0.12375218927E+04  0.12425039165E+04  0.00000000000E+00 0. -1.
<scales pt_clust_3="31.25677" pt_clust_4="37.27052" pt_clust_5="31.25677" pt_clust_6="110.76564"></scales>
<clustering>
<clus scale="   31.257">  3  5 -1 -1</clus>
<clus scale="   37.271">  2  4  1 -1</clus>
<clus scale="  110.766">  1  6  2 -1</clus>
<clus scale="   37.271">  2  3  1 -1</clus>
</clustering>
</event>
<event>
 6    0  0.2781617E+002  0.2122407E+03  0.7546771E-02  0.1139804E+00
         21   -1    0    0  504  502  0.00000000000E+00  0.00000000000E+00  0.37674675193E+03  0.37674675193E+03  0.00000000000E+00 0.  1.
         -1   -1    0    0    0  501 -0.00000000000E+00 -0.00000000000E+00 -0.16282179978E+03  0.16282179978E+03  0.00000000000E+00 0.  1.
         21    1    1    2  503  501 -0.68236639093E+02 -0.33864930103E+02  0.14504145938E+03  0.16382947642E+03  0.00000000000E+00 0.  1.
         21    1    1    2  504  505 -0.68071856916E+02 -0.75362705730E+01  0.35817605956E+02  0.77288252501E+02  0.00000000000E+00 0. -1.
         21    1    1    2  505  503 -0.48150975062E+02  0.13485585972E+02  0.90375783309E+02  0.10328678346E+03  0.00000000000E+00 0.  1.
         -1    1    1    2    0  502  0.18445947107E+03  0.27915614704E+02 -0.57309896489E+02  0.19516403933E+03  0.00000000000E+00 0.  1.
<scales pt_clust_3="66.14584" pt_clust_4="66.14584" pt_clust_5="35.94564" pt_clust_6="186.55985"></scales>
<clustering>
<clus scale="   35.946">  3  5 -1 -1</clus>
<clus scale="   66.146">  3  4 -1 -1</clus>
<clus scale="  186.560">  2  6  1 -1</clus>
<clus scale="  212.241">  1  3  2 -1</clus>
</clustering>
</event>
<event>
 6    0  0.2781617E+002  0.1401959E+03  0.7546771E-02  0.1213066E+00
         21   -1    0    0  505  502  0.00000000000E+00  0.00000000000E+00  0.82835864170E+02  0.82835864170E+02  0.00000000000E+00 0.  1.
          2   -1    0    0  503    0 -0.00000000000E+00 -0.00000000000E+00 -0.31866576651E+04  0.31866576651E+04  0.00000000000E+00 0.  1.
         21    1    1    2  503  502 -0.77056235185E+02 -0.26986650462E+02 -0.34786448980E+03  0.35731729030E+03  0.00000000000E+00 0. -1.
         21    1    1    2  504  501 -0.47982904790E+02  0.77763607980E+02 -0.39760956997E+03  0.40797415115E+03  0.00000000000E+00 0. -1.
         21    1    1    2  505  504  0.10264091212E+03 -0.10925288586E+03 -0.49652652334E+01  0.14998667864E+03  0.00000000000E+00 0.  1.
          2    1    1    2  501    0  0.22398227853E+02  0.58475928342E+02 -0.23533824760E+04  0.23542154092E+04  0.00000000000E+00 0.  1.
<scales pt_clust_3="67.61076" pt_clust_4="140.19592" pt_clust_5="14000.00000" pt_clust_6="62.61881"></scales>
<clustering>
<clus scale="   62.619">  2  6  1 -1</clus>
<clus scale="   67.611">  2  3  1 -1</clus>
<clus scale="  140.196">  2  4  1 -1</clus>
<clus scale="  140.196">  1  3  2 -1</clus>
</clustering>
</event>
<event>
 6    0  0.2781617E+002  0.1408443E+03  0.7546771E-02  0.1212197E+00
          2   -1    0    0  505    0 -0.00000000000E+00  0.00000000000E+00  0.26042420565E+04  0.26042420565E+04  0.00000000000E+00 0.  1.
         21   -1    0    0  503  502  0.00000000000E+00 -0.00000000000E+00 -0.59464756330E+02  0.59464756330E+02  0.00000000000E+00 0. -1.
         21    1    1    2  503  501 -0.11045285096E+03  0.46766417509E+02  0.75757252221E+02  0.14186645606E+03  0.00000000000E+00 0. -1.
         21    1    1    2  504  502  0.10965119761E+03 -0.48867893763E+02  0.13519369996E+03  0.18080042225E+03  0.00000000000E+00 0. -1.
         21    1    1    2  505  504  0.30712492299E+02  0.11156059576E+02  0.72792429590E+02  0.79790053604E+02  0.00000000000E+00 0. -1.
          2    1    1    2  501    0 -0.29910838945E+02 -0.90545833224E+01  0.22610339184E+04  0.22612498809E+04  0.00000000000E+00 0.  1.
<scales pt_clust_3="127.71878" pt_clust_4="30.97544" pt_clust_5="30.97544" pt_clust_6="31.25130"></scales>
<clustering>
<clus scale="   30.975">  4  5 -1 -1</clus>
<clus scale="   31.251">  1  6  2 -1</clus>
<clus scale="  127.719">  2  3  1 -1</clus>
<clus scale="  127.719">  2  3  1 -1</clus>
</clustering>
</event>
<event>
 6    0  0.2781617E+002  0.1482588E+03  0.7546771E-02  0.1202629E+00
         21   -1    0    0  501  502  0.00000000000E+00  0.00000000000E+00  0.93023183747E+03  0.93023183747E+03  0.00000000000E+00 0. -1.
          2   -1    0    0  505    0 -0.00000000000E+00 -0.00000000000E+00 -0.84577843429E+02  0.84577843429E+02  0.00000000000E+00 0. -1.
         21    1    1    2  503  504 -0.16290977441E+01 -0.59298554526E+02  0.62821645586E+02  0.86403308284E+02  0.00000000000E+00 0. -1.
         21    1    1    2  504  502  0.15437232650E+02  0.16653612634E+03  0.74608879180E+03  0.76460517575E+03  0.00000000000E+00 0. -1.
         21    1    1    2  505  503  0.31374551540E+02 -0.32602034827E+02  0.58429196634E+02  0.73900109462E+02  0.00000000000E+00 0. -1.
          2    1    1    2  501    0 -0.45182686446E+02 -0.74635536984E+02 -0.21685639981E+02  0.89901087406E+02  0.00000000000E+00 0. -1.
<scales pt_clust_3="35.63561" pt_clust_4="142.53335" pt_clust_5="35.63561" pt_clust_6="87.24642"></scales>
<clustering>
<clus scale="   35.636">  3  5 -1 -1</clus>
<clus scale="   87.246">  2  6  1 -1</clus>
<clus scale="  142.533">  1  4  2 -1</clus>
<clus scale="  142.533">  1  3  2 -1</clus>
</clustering>
</event>
<event>
 6    0  0.2781617E+002  0.1951524E+03  0.7546771E-02  0.1153895E+00
         -3   -1    0    0    0  501 -0.00000000000E+00  0.00000000000E+00  0.32060453811E+03  0.32060453811E+03  0.00000000000E+00 0. -1.
         21   -1    0    0  501  502  0.00000000000E+00 -0.00000000000E+00 -0.40832095115E+03  0.40832095115E+03  0.00000000000E+00 0.  1.
         21    1    1    2  503  505  0.69943986307E+02  0.16405370808E+02 -0.41447404483E+02  0.82940850913E+02  0.00000000000E+00 0.  1.
         21    1    1    2  504  503  0.70900763972E+02 -0.18485202585E+01 -0.29893644495E+01  0.70987827539E+02  0.00000000000E+00 0.  1.
         21    1    1    2  505  502 -0.22470507883E+03 -0.59115835737E+02 -0.25377201291E+03  0.34407453993E+03  0.00000000000E+00 0.  1.
         -3    1    1    2    0  504  0.83860328554E+02  0.44558985187E+02  0.21049236880E+03  0.23092227088E+03  0.00000000000E+00 0. -1.
<scales pt_clust_3="40.60713" pt_clust_4="40.60713" pt_clust_5="190.82499" pt_clust_6="94.96346"></scales>
<clustering>
<clus scale="   40.607">  3  4 -1 -1</clus>
<clus scale="   94.963">  1  6  2 -1</clus>
<clus scale="  190.825">  2  5  1 -1</clus>
<clus scale="  190.825">  2  3  1 -1</clus>
</clustering>
</event>
<event>
 6    0  0.2781617E+002  0.1110851E+03  0.7546771E-02  0.1258574E+00
          1   -1    0    0  505    0 -0.00000000000E+00  0.00000000000E+00  0.51850397373E+03  0.51850397373E+03  0.00000000000E+00 0.  1.
         21   -1    0    0  504  502  0.00000000000E+00 -0.00000000000E+00 -0.52363043689E+02  0.52363043689E+02  0.00000000000E+00 0.  1.
         21    1    1    2  503  501  0.42148592200E+02 -0.41026074527E+02  0.13811298392E+03  0.15011608489E+03  0.00000000000E+00 0. -1.
         21    1    1    2  504  503  0.32841062886E+02 -0.13515944278E+02  0.13812669671E+02  0.38105196557E+02  0.00000000000E+00 0.  1.
         21    1    1    2  505  502 -0.11063742904E+03  0.65051109968E+02  0.93418134454E+02  0.15874267056E+03  0.00000000000E+00 0.  1.
          1    1    1    2  501    0  0.35647773956E+02 -0.10509091163E+02  0.22079714200E+03  0.22390306541E+03  0.00000000000E+00 0.  1.
<scales pt_clust_3="37.80690" pt_clust_4="35.51361" pt_clust_5="99.87087" pt_clust_6="37.80690"></scales>
<clustering>
<clus scale="   35.514">  2  4  1 -1</clus>
<clus scale="   37.807">  3  6 -1 -1</clus>
<clus scale="   99.871">  2  5  1 -1</clus>
<clus scale="   35.514">  2  3  1 -1</clus>
</clustering>
</event>
<event>
 6    0  0.2781617E+002  0.1293492E+03  0.7546771E-02  0.1228425E+00
          4   -1    0    0  503    0 -0.00000000000E+00  0.00000000000E+00  0.49670770534E+03  0.49670770534E+03  0.00000000000E+00 0. -1.
         21   -1    0    0  505  502  0.00000000000E+00 -0.00000000000E+00 -0.18321443546E+03  0.18321443546E+03  0.00000000000E+00 0. -1.
         21    1    1    2  503  502  0.12737231727E+03 -0.44956310755E+02  0.95778770921E+02  0.16558487262E+03  0.00000000000E+00 0. -1.
         21    1    1    2  504  501 -0.61194010734E+02  0.51751316547E+02 -0.90515526241E+02  0.12089651031E+03  0.00000000000E+00 0. -1.
         21    1    1    2  505  504 -0.18838451893E+02  0.42827917433E+02 -0.25122780558E+02  0.53106232067E+02  0.00000000000E+00 0. -1.
          4    1    1    2  501    0 -0.47339854641E+02 -0.49622923225E+02  0.33335280575E+03  0.34033452580E+03  0.00000000000E+00 0. -1.
<scales pt_clust_3="123.19460" pt_clust_4="30.12334" pt_clust_5="30.12334" pt_clust_6="68.58204"></scales>
<clustering>
<clus scale="   30.123">  4  5 -1 -1</clus>
<clus scale="   68.582">  1  6  2 -1</clus>
<clus scale="  123.195">  1  3  2 -1</clus>
<clus scale="  129.349">  2  3  1 -1</clus>
</clustering>
</event>
<event>
 6    0  0.2781617E+002  0.1227798E+03  0.7546771E-02  0.1238580E+00
         -2   -1    0    0    0  501 -0.00000000000E+00  0.00000000000E+00  0.57838273784E+03  0.57838273784E+03  0.00000000000E+00 0.  1.
         21   -1    0    0  504  502  0.00000000000E+00 -0.00000000000E+00 -0.89256270315E+02  0.89256270315E+02  0.00000000000E+00 0.  1.
         21    1    1    2  503  505  0.56843811103E+02 -0.26786758075E+01 -0.27610059892E+02  0.63251162614E+02  0.00000000000E+00 0.  1.
         21    1    1    2  504  501  0.26593764232E+02 -0.40697450126E+02  0.66737671458E+02  0.82567714843E+02  0.00000000000E+00 0.  1.
         21    1    1    2  505  502  0.57032858257E+02  0.73904740120E+01  0.97819584819E+01  0.58335690094E+02  0.00000000000E+00 0.  1.
         -2    1    1    2    0  503 -0.14047043359E+03  0.35985651922E+02  0.44021689747E+03  0.46348444060E+03  0.00000000000E+00 0.  1.
<scales pt_clust_3="38.20941" pt_clust_4="48.61595" pt_clust_5="38.20941" pt_clust_6="116.61673"></scales>
<clustering>
<clus scale="   38.209">  3  5 -1 -1</clus>
<clus scale="   48.616">  1  4  2 -1</clus>
<clus scale="  116.617">  1  6  2 -1</clus>
<clus scale="  122.780">  2  3  1 -1</clus>
</clustering>
</event>
<event>
 6    0  0.2781617E+002  0.6604850E+02  0.7546771E-02  0.1374070E+00
          2   -1    0    0  503    0 -0.00000000000E+00  0.00000000000E+00  0.17059735323E+04  0.17059735323E+04  0.00000000000E+00 0.  1.
         21   -1    0    0  505  502  0.00000000000E+00 -0.00000000000E+00 -0.60991928879E+02  0.60991928879E+02  0.00000000000E+00 0.  1.
         21    1    1    2  503  504  0.19995422858E+02 -0.36432625618E+02  0.10599881872E+03  0.11385474393E+03  0.00000000000E+00 0.  1.
         21    1    1    2  504  502  0.30839288439E+02 -0.47063892352E+02  0.40844313004E+02  0.69529343298E+02  0.00000000000E+00 0.  1.
         21    1    1    2  505  501  0.12192663440E+02  0.96304222878E+02  0.14031942732E+02  0.98081903544E+02  0.00000000000E+00 0.  1.
          2    1    1    2  501    0 -0.63027374736E+02 -0.12807704908E+02  0.14841065290E+04  0.14854994705E+04  0.00000000000E+00 0.  1.
<scales pt_clust_3="41.55903" pt_clust_4="57.70058" pt_clust_5="66.04850" pt_clust_6="14000.00000"></scales>
<clustering>
<clus scale="   41.559">  1  3  2 -1</clus>
<clus scale="   57.701">  2  4  1 -1</clus>
<clus scale="   66.049">  2  5  1 -1</clus>
<clus scale="   57.701">  2  3  1 -1</clus>
</clustering>
</event>
<event>
 6    0  0.2781617E+002  0.8071839E+02  0.7546771E-02  0.1327025E+00
          1   -1    0    0  503    0 -0.00000000000E+00  0.00000000000E+00  0.10870633717E+04  0.10870633717E+04  0.00000000000E+00 0.  1.
         21   -1    0    0  504  502  0.00000000000E+00 -0.00000000000E+00 -0.54010495110E+02  0.54010495110E+02  0.00000000000E+00 0. -1.
         21    1    1    2  503  502 -0.38748105883E+02 -0.23856448033E+02  0.35862609970E+02  0.57936798464E+02  0.00000000000E+00 0. -1.
         21    1    1    2  504  505  0.60367990095E+02  0.10685998240E+03  0.57188511417E+02  0.13540264364E+03  0.00000000000E+00 0. -1.
         21    1    1    2  505  501 -0.29827506720E+02 -0.48796941010E+02  0.23512935125E+03  0.24198477933E+03  0.00000000000E+00 0.  1.
          1    1    1    2  501    0  0.82076225088E+01 -0.34206593353E+02  0.70487240395E+03  0.70574964538E+03  0.00000000000E+00 0.  1.
<scales pt_clust_3="47.02754" pt_clust_4="14000.00000" pt_clust_5="80.71839" pt_clust_6="35.17749"></scales>
<clustering>
<clus scale="   35.177">  1  6  2 -1</clus>
<clus scale="   47.028">  2  3  1 -1</clus>
<clus scale="   80.718">  1  5  2 -1</clus>
<clus scale="   47.028">  2  3  1 -1</clus>
</clustering>
</event>
<event>
 6    0  0.2781617E+002  0.1363604E+03  0.7546771E-02  0.1218312E+00
         21   -1    0    0  504  502  0.00000000000E+00  0.00000000000E+00  0.12543288734E+04  0.12543288734E+04  0.00000000000E+00 0.  1.
         -2   -1    0    0    0  501 -0.00000000000E+00 -0.00000000000E+00 -0.93332482785E+02  0.93332482785E+02  0.00000000000E+00 0.  1.
         21    1    1    2  503  502 -0.38648404984E+02  0.24809683604E+01  0.18524243960E+03  0.18924749890E+03  0.00000000000E+00 0.  1.
         21    1    1    2  504  505 -0.46836938623E+02  0.10373008145E+02  0.60867299176E+03  0.61056048759E+03  0.00000000000E+00 0.  1.
         21    1    1    2  505  501 -0.31165427107E+02  0.75903171230E+02  0.39084156358E+03  0.39936161942E+03  0.00000000000E+00 0.  1.
         -2    1    1    2    0  503  0.11665077071E+03 -0.88757147736E+02 -0.23760604309E+02  0.14849175027E+03  0.00000000000E+00 0.  1.
<scales pt_clust_3="38.72795" pt_clust_4="69.91776" pt_clust_5="14000.00000" pt_clust_6="136.36035"></scales>
<clustering>
<clus scale="   38.728">  1  3  2 -1</clus>
<clus scale="   69.918">  1  4  2 -1</clus>
<clus scale="  136.360">  2  6  1 -1</clus>
<clus scale="   38.728">  1  3  2 -1</clus>
</clustering>
</event>
<event>
 6    0  0.2781617E+002  0.1777661E+03  0.7546771E-02  0.1169983E+00
         21   -1    0    0  503  502  0.00000000000E+00  0.00000000000E+00  0.19264876622E+03  0.19264876622E+03  0.00000000000E+00 0. -1.
         -1   -1    0    0    0  501 -0.00000000000E+00 -0.00000000000E+00 -0.80819405506E+03  0.80819405506E+03  0.00000000000E+00 0. -1.
         21    1    1    2  503  501 -0.76121645236E+02  0.29803625342E+02  0.77333306280E+02  0.11253089006E+03  0.00000000000E+00 0. -1.
         21    1    1    2  504  502 -0.11915756203E+02  0.77981166868E+02  0.34927590253E+02  0.86272731456E+02  0.00000000000E+00 0. -1.
         21    1    1    2  505  504  0.27176219928E+02  0.54983101387E+02 -0.83550495206E+01  0.61899072854E+02  0.00000000000E+00 0. -1.
         -1    1    1    2    0  505  0.60861181512E+02 -0.16276789360E+03 -0.71945113585E+03  0.74014012692E+03  0.00000000000E+00 0. -1.
<scales pt_clust_3="81.74816" pt_clust_4="50.93125" pt_clust_5="50.93125" pt_clust_6="168.12015"></scales>
<clustering>
<clus scale="   50.931">  4  5 -1 -1</clus>
<clus scale="   81.748">  1  3  2 -1</clus>
<clus scale="  168.120">  2  6  1 -1</clus>
<clus scale="   81.748">  1  3  2 -1</clus>
</clustering>
</event>
<event>
 6    0  0.2781617E+002  0.1811707E+03  0.7546771E-02  0.1166675E+00
         21   -1    0    0  504  502  0.00000000000E+00  0.00000000000E+00  0.16828607476E+03  0.16828607476E+03  0.00000000000E+00 0. -1.
          1   -1    0    0  505    0 -0.00000000000E+00 -0.00000000000E+00 -0.13560315550E+04  0.13560315550E+04  0.00000000000E+00 0. -1.
         21    1    1    2  503  502 -0.14641727863E+03  0.14015938348E+03  0.54157296625E+02  0.20979915404E+03  0.00000000000E+00 0. -1.
         21    1    1    2  504  501  0.72527272111E+02 -0.58174017723E+02 -0.62194439975E+02  0.11185959906E+03  0.00000000000E+00 0. -1.
         21    1    1    2  505  503  0.41731129943E+02 -0.10368211980E+03 -0.27126226573E+03  0.29338487688E+03  0.00000000000E+00 0. -1.
          1    1    1    2  501    0  0.32158876574E+02  0.21696754036E+02 -0.90844607113E+03  0.90927399976E+03  0.00000000000E+00 0. -1.
<scales pt_clust_3="181.17074" pt_clust_4="95.48813" pt_clust_5="14000.00000" pt_clust_6="38.79359"></scales>
<clustering>
<clus scale="   38.794">  2  6  1 -1</clus>
<clus scale="   95.488">  2  4  1 -1</clus>
<clus scale="  181.171">  1  3  2 -1</clus>
<clus scale="  181.171">  1  3  2 -1</clus>
</clustering>
</event>
<event>
 6    0  0.2781617E+002  0.7972903E+02  0.7546771E-02  0.1329822E+00
         21   -1    0    0  505  502  0.00000000000E+00  0.00000000000E+00  0.91321540046E+02  0.91321540046E+02  0.00000000000E+00 0.  1.
          2   -1    0    0  503    0 -0.00000000000E+00 -0.00000000000E+00 -0.10871673137E+04  0.10871673137E+04  0.00000000000E+00 0. -1.
         21    1    1    2  503  504 -0.12074719147E+02  0.47939629228E+02 -0.14129553488E+02  0.51416448485E+02  0.00000000000E+00 0.  1.
         21    1    1    2  504  502  0.21503725373E+01  0.75160884914E+02  0.30594013228E+02  0.81177437558E+02  0.00000000000E+00 0.  1.
         21    1    1    2  505  501  0.16888836045E+02 -0.58719801596E+02 -0.43692743014E+02  0.75115269251E+02  0.00000000000E+00 0.  1.
          2    1    1    2  501    0 -0.69644894359E+01 -0.64380712546E+02 -0.96861749035E+03  0.97077969842E+03  0.00000000000E+00 0. -1.
<scales pt_clust_3="36.78288" pt_clust_4="36.78288" pt_clust_5="61.10031" pt_clust_6="65.56590"></scales>
<clustering>
<clus scale="   36.783">  3  4 -1 -1</clus>
<clus scale="   61.100">  1  5  2 -1</clus>
<clus scale="   65.566">  2  6  1 -1</clus>
<clus scale="   61.100">  1  3  2 -1</clus>
</clustering>
</event>
<event>
 6    0  0.2781617E+002  0.5338594E+03  0.7546771E-02  0.1005300E+00
          2   -1    0    0  505    0 -0.00000000000E+00  0.00000000000E+00  0.19013637278E+04  0.19013637278E+04  0.00000000000E+00 0. -1.
         21   -1    0    0  503  502  0.00000000000E+00 -0.00000000000E+00 -0.13529983857E+04  0.13529983857E+04  0.00000000000E+00 0. -1.
         21    1    1    2  503  501 -0.14483225982E+03  0.59195909905E+03  0.24303105121E+03  0.65609149536E+03  0.00000000000E+00 0. -1.
         21    1    1    2  504  502  0.24869166243E+02 -0.16765584180E+03 -0.34209725432E+03  0.38178199032E+03  0.00000000000E+00 0. -1.
         21    1    1    2  505  504  0.15788273643E+03 -0.31695952774E+03 -0.74212452778E+03  0.82227678760E+03  0.00000000000E+00 0. -1.
          2    1    1    2  501    0 -0.37919642851E+02 -0.10734372951E+03  0.13895560730E+04  0.13942118403E+04  0.00000000000E+00 0. -1.
<scales pt_clust_3="528.23813" pt_clust_4="53.45723" pt_clust_5="53.45723" pt_clust_6="113.84452"></scales>
<clustering>
<clus scale="   53.457">  4  5 -1 -1</clus>
<clus scale="  113.845">  1  6  2 -1</clus>
<clus scale="  528.238">  1  3  2 -1</clus>
<clus scale="  533.859">  2  3  1 -1</clus>
</clustering>
</event>
<event>
 6    0  0.2781617E+002  0.3268103E+03  0.7546771E-02  0.1072557E+00
          1   -1    0    0  502    0 -0.00000000000E+00  0.00000000000E+00  0.30878012477E+03  0.30878012477E+03  0.00000000000E+00 0. -1.
         21   -1    0    0  504  502  0.00000000000E+00 -0.00000000000E+00 -0.12788738816E+04  0.12788738816E+04  0.00000000000E+00 0.  1.
         21    1    1    2  503  501  0.29884940354E+02 -0.44935489381E+02 -0.39246750890E+03  0.39616038849E+03  0.00000000000E+00 0.  1.
         21    1    1    2  504  505  0.94497473971E+02 -0.16944380469E+03 -0.56394554038E+03  0.59638540227E+03  0.00000000000E+00 0.  1.
         21    1    1    2  505  503  0.57747238860E+02 -0.20977082895E+02 -0.22297462838E+03  0.23128438448E+03  0.00000000000E+00 0.  1.
          1    1    1    2  501    0 -0.18212965319E+03  0.23535637697E+03  0.20929392088E+03  0.36382383108E+03  0.00000000000E+00 0. -1.
<scales pt_clust_3="44.62574" pt_clust_4="44.86191" pt_clust_5="44.86191" pt_clust_6="297.59677"></scales>
<clustering>
<clus scale="   44.862">  4  5 -1 -1</clus>
<clus scale="   44.626">  3  4 -1 -1</clus>
<clus scale="  297.597">  1  6  2 -1</clus>
<clus scale="  326.810">  2  3  1 -1</clus>
</clustering>
</event>
<event>
 6    0  0.3239317E+002  0.1502453E+03  0.7546771E-02  0.1200172E+00
         21   -1    0    0  503  502  0.00000000000E+00  0.00000000000E+00  0.50469578176E+03  0.50469578176E+03  0.00000000000E+00 0.  1.
          2   -1    0    0  505    0 -0.00000000000E+00 -0.00000000000E+00 -0.14273023677E+04  0.14273023677E+04  0.00000000000E+00 0.  1.
         21    1    1    2  503  501 -0.10932999088E+03  0.10073670130E+03 -0.24614965665E+03  0.28755970399E+03  0.00000000000E+00 0.  1.
         21    1    1    2  504  502  0.70711996725E+02 -0.13306358305E+03  0.45325917161E+03  0.47765047918E+03  0.00000000000E+00 0.  1.
         21    1    1    2  505  504  0.46796481348E+02 -0.44688649428E+00 -0.11670015265E+02  0.48231728461E+02  0.00000000000E+00 0. -1.
          2    1    1    2  501    0 -0.81784871907E+01  0.32773768247E+02 -0.11180460857E+04  0.11185562379E+04  0.00000000000E+00 0.  1.
<scales pt_clust_3="150.24530" pt_clust_4="14000.00000" pt_clust_5="46.08468" pt_clust_6="33.77880"></scales>
<clustering>
<clus scale="   33.779">  2  6  1 -1</clus>
<clus scale="   46.085">  2  5  1 -1</clus>
<clus scale="  150.245">  2  3  1 -1</clus>
<clus scale="  150.245">  1  3  2 -1</clus>
</clustering>
</event>
<event>
 6    0  0.2781617E+002  0.7800039E+02  0.7546771E-02  0.1334824E+00
         21   -1    0    0  503  502  0.00000000000E+00  0.00000000000E+00  0.50363492078E+03  0.50363492078E+03  0.00000000000E+00 0.  1.
          2   -1    0    0  504    0 -0.00000000000E+00 -0.00000000000E+00 -0.12199293893E+04  0.12199293893E+04  0.00000000000E+00 0. -1.
         21    1    1    2  503  501 -0.29046828477E+02 -0.16580625584E+02  0.15215708857E+02  0.36744430671E+02  0.00000000000E+00 0. -1.
         21    1    1    2  504  505  0.98280596703E+02  0.18613185747E+02  0.10575625554E+03  0.14556755118E+03  0.00000000000E+00 0.  1.
         21    1    1    2  505  502 -0.86377069824E+01 -0.51359871949E+02  0.34877392870E+03  0.35264103529E+03  0.00000000000E+00 0.  1.
          2    1    1    2  501    0 -0.60596061244E+02  0.49327311786E+02 -0.11860403616E+04  0.11886112929E+04  0.00000000000E+00 0. -1.
<scales pt_clust_3="33.44601" pt_clust_4="78.00039" pt_clust_5="70.24550" pt_clust_6="14000.00000"></scales>
<clustering>
<clus scale="   33.446">  1  3  2 -1</clus>
<clus scale="   70.246">  1  5  2 -1</clus>
<clus scale="   78.000">  1  4  2 -1</clus>
<clus scale="   33.446">  1  3  2 -1</clus>
</clustering>
</event>
<event>
 6    0  0.2781617E+002  0.1834643E+03  0.7546771E-02  0.1164492E+00
         -1   -1    0    0    0  501 -0.00000000000E+00  0.00000000000E+00  0.45588270665E+02  0.45588270665E+02  0.00000000000E+00 0. -1.
         21   -1    0    0  504  502  0.00000000000E+00 -0.00000000000E+00 -0.11050607854E+04  0.11050607854E+04  0.00000000000E+00 0. -1.
         21    1    1    2  503  501 -0.15591026324E+03 -0.11184785112E+03 -0.44964167294E+03  0.48887174804E+03  0.00000000000E+00 0. -1.
         21    1    1    2  504  505  0.99858703600E+02  0.80486102584E+02 -0.38163434116E+03  0.40260966673E+03  0.00000000000E+00 0. -1.
         21    1    1    2  505  503  0.37692795262E+02  0.60752781994E+01 -0.22447494826E+03  0.22769861268E+03  0.00000000000E+00 0. -1.
         -1    1    1    2    0  502  0.18358764375E+02  0.25286470339E+02 -0.37215524037E+01  0.31469028645E+02  0.00000000000E+00 0. -1.
<scales pt_clust_3="173.64445" pt_clust_4="31.58065" pt_clust_5="31.58065" pt_clust_6="31.24820"></scales>
<clustering>
<clus scale="   31.248">  1  6  2 -1</clus>
<clus scale="   31.581">  4  5 -1 -1</clus>
<clus scale="  173.644">  1  3  2 -1</clus>
<clus scale="  183.464">  2  3  1 -1</clus>
</clustering>
</event>
<event>
 6    0  0.2781617E+002  0.1275863E+03  0.7546771E-02  0.1231082E+00
          2   -1    0    0  503    0 -0.00000000000E+00  0.00000000000E+00  0.90588641392E+03  0.90588641392E+03  0.00000000000E+00 0. -1.
         21   -1    0    0  504  502  0.00000000000E+00 -0.00000000000E+00 -0.25423293926E+03  0.25423293926E+03  0.00000000000E+00 0. -1.
         21    1    1    2  503  505 -0.34791892479E+02  0.69762997855E+02  0.28096303757E+00  0.77957877038E+02  0.00000000000E+00 0. -1.
         21    1    1    2  504  501 -0.69228446866E+02  0.15890831808E+02 -0.14098816098E+03  0.15786943317E+03  0.00000000000E+00 0. -1.
         21    1    1    2  505  502 -0.19359429260E+02 -0.46430332886E+02 -0.50657035518E+02  0.71391165844E+02  0.00000000000E+00 0. -1.
          2    1    1    2  501    0  0.12337976860E+03 -0.39223496777E+02  0.84301770812E+03  0.85290087713E+03  0.00000000000E+00 0. -1.
<scales pt_clust_3="71.75065" pt_clust_4="14000.00000" pt_clust_5="50.30470" pt_clust_6="127.58634"></scales>
<clustering>
<clus scale="   50.305">  2  5  1 -1</clus>
<clus scale="   71.751">  2  3  1 -1</clus>
<clus scale="  127.586">  1  6  2 -1</clus>
<clus scale="   50.305">  2  3  1 -1</clus>
</clustering>
</event>
<event>
 6    0  0.2781617E+002  0.1762674E+03  0.7546771E-02  0.1171465E+00
         21   -1    0    0  504  502  0.00000000000E+00  0.00000000000E+00  0.13754586504E+03  0.13754586504E+03  0.00000000000E+00 0. -1.
          1   -1    0    0  505    0 -0.00000000000E+00 -0.00000000000E+00 -0.25420565236E+04  0.25420565236E+04  0.00000000000E+00 0. -1.
         21    1    1    2  503  501  0.50780269540E+02 -0.71683273870E+00  0.28899148963E+02  0.58432101062E+02  0.00000000000E+00 0. -1.
         21    1    1    2  504  503  0.50596390989E+02  0.66210184759E+02  0.31229512417E+02  0.88989133004E+02  0.00000000000E+00 0. -1.
         21    1    1    2  505  502 -0.12472565576E+01  0.68573625042E+02 -0.70997664915E+01  0.68951463977E+02  0.00000000000E+00 0. -1.
          1    1    1    2  501    0 -0.10012940397E+03 -0.13406697706E+03 -0.24575395535E+04  0.24632296906E+04  0.00000000000E+00 0. -1.
<scales pt_clust_3="46.52034" pt_clust_4="46.52034" pt_clust_5="68.58497" pt_clust_6="165.88920"></scales>
<clustering>
<clus scale="   46.520">  3  4 -1 -1</clus>
<clus scale="   68.585">  1  5  2 -1</clus>
<clus scale="  165.889">  2  6  1 -1</clus>
<clus scale="   68.585">  1  3  2 -1</clus>
</clustering>
</event>
<event>
 6    0  0.2781617E+002  0.1157860E+03  0.7546771E-02  0.1250215E+00
          4   -1    0    0  504    0 -0.00000000000E+00  0.00000000000E+00  0.38036010364E+02  0.38036010364E+02  0.00000000000E+00 0. -1.
         21   -1    0    0  501  502  0.00000000000E+00 -0.00000000000E+00 -0.53499202875E+03  0.53499202875E+03  0.00000000000E+00 0. -1.
         21    1    1    2  503  502  0.39397713177E+02 -0.47771759152E+02 -0.47766510385E+02  0.78204605302E+02  0.00000000000E+00 0. -1.
         21    1    1    2  504  505 -0.23847109958E+02 -0.33143777568E+02 -0.37642637670E+02  0.55535239403E+02  0.00000000000E+00 0. -1.
         21    1    1    2  505  503  0.40363082211E+02 -0.13077431268E+02 -0.86698307522E+02  0.96523541903E+02  0.00000000000E+00 0. -1.
          4    1    1    2  501    0 -0.55913685431E+02  0.93992967988E+02 -0.32484856281E+03  0.34276465251E+03  0.00000000000E+00 0. -1.
<scales pt_clust_3="40.42290" pt_clust_4="40.83129" pt_clust_5="40.42290" pt_clust_6="104.98410"></scales>
<clustering>
<clus scale="   40.423">  3  5 -1 -1</clus>
<clus scale="   40.831">  1  4  2 -1</clus>
<clus scale="  104.984">  2  6  1 -1</clus>
<clus scale="  104.984">  2  3  1 -1</clus>
</clustering>
</event>
<event>
 6    0  0.2781617E+002  0.9686272E+02  0.7546771E-02  0.1287035E+00
         -2   -1    0    0    0  501 -0.00000000000E+00  0.00000000000E+00  0.12760426527E+04  0.12760426527E+04  0.00000000000E+00 0.  1.
         21   -1    0    0  505  502  0.00000000000E+00 -0.00000000000E+00 -0.83693520940E+02  0.83693520940E+02  0.00000000000E+00 0. -1.
         21    1    1    2  503  502 -0.21137267979E+02 -0.70960425638E+02  0.88370785841E+02  0.11528903631E+03  0.00000000000E+00 0.  1.
         21    1    1    2  504  501  0.35284560813E+02  0.43922172996E+02  0.31772868221E+02  0.64681316216E+02  0.00000000000E+00 0. -1.
         21    1    1    2  505  504  0.19875065001E+02  0.95612304422E+02 -0.69458037262E+01  0.97902886347E+02  0.00000000000E+00 0. -1.
         -2    1    1    2    0  503 -0.34022357835E+02 -0.68574051781E+02  0.10791512815E+04  0.10818629348E+04  0.00000000000E+00 0.  1.
<scales pt_clust_3="74.04165" pt_clust_4="43.66454" pt_clust_5="43.66454" pt_clust_6="77.95897"></scales>
<clustering>
<clus scale="   43.665">  4  5 -1 -1</clus>
<clus scale="   74.042">  2  3  1 -1</clus>
<clus scale="   77.959">  1  6  2 -1</clus>
<clus scale="   74.042">  2  3  1 -1</clus>
</clustering>
</event>
<event>
 6    0  0.2781617E+002  0.1275889E+03  0.7546771E-02  0.1231078E+00
          1   -1    0    0  503    0 -0.00000000000E+00  0.00000000000E+00  0.91011980862E+03  0.91011980862E+03  0.00000000000E+00 0.  1.
         21   -1    0    0  505  502  0.00000000000E+00 -0.00000000000E+00 -0.42495223096E+03  0.42495223096E+03  0.00000000000E+00 0.  1.
         21    1    1    2  503  504  0.50484238099E+02 -0.96225252936E+01 -0.10459384302E+03  0.11653807655E+03  0.00000000000E+00 0.  1.
         21    1    1    2  504  502  0.73765111709E+02  0.12872253513E+02 -0.27182855272E+03  0.28195345128E+03  0.00000000000E+00 0.  1.
         21    1    1    2  505  501 -0.99062827108E+02  0.30585766592E+02  0.35755390034E+02  0.10966941574E+03  0.00000000000E+00 0.  1.
          1    1    1    2  501    0 -0.25186522699E+02 -0.33835494812E+02  0.82583458336E+03  0.82691109601E+03  0.00000000000E+00 0.  1.
<scales pt_clust_3="33.68487" pt_clust_4="33.68487" pt_clust_5="120.93679" pt_clust_6="42.18058"></scales>
<clustering>
<clus scale="   33.685">  3  4 -1 -1</clus>
<clus scale="   42.181">  1  6  2 -1</clus>
<clus scale="  120.937">  1  5  2 -1</clus>
<clus scale="  127.589">  2  3  1 -1</clus>
</clustering>
</event>
<event>
 6    0  0.2781617E+002  0.1505037E+03  0.7546771E-02  0.1199855E+00
          1   -1    0    0  505    0 -0.00000000000E+00  0.00000000000E+00  0.22066933128E+03  0.22066933128E+03  0.00000000000E+00 0. -1.
         21   -1    0    0  503  502  0.00000000000E+00 -0.00000000000E+00 -0.40896847603E+03  0.40896847603E+03  0.00000000000E+00 0.  1.
         21    1    1    2  503  504 -0.70305437540E+02  0.15752907092E+02 -0.15567699921E+03  0.17154106421E+03  0.00000000000E+00 0.  1.
         21    1    1    2  504  501 -0.10370106008E+03 -0.24136272000E+02 -0.15431455241E+03  0.18748186732E+03  0.00000000000E+00 0.  1.
         21    1    1    2  505  502  0.94864199021E+02  0.14104682382E+02 -0.29095662674E+02  0.10022333016E+03  0.00000000000E+00 0. -1.
          1    1    1    2  501    0  0.79142298596E+02 -0.57213174735E+01  0.15078806955E+03  0.17039154562E+03  0.00000000000E+00 0. -1.
<scales pt_clust_3="40.75163" pt_clust_4="40.75163" pt_clust_5="142.11690" pt_clust_6="79.34883"></scales>
<clustering>
<clus scale="   40.752">  3  4 -1 -1</clus>
<clus scale="   79.349">  1  6  2 -1</clus>
<clus scale="  142.117">  1  5  2 -1</clus>
<clus scale="  150.504">  2  3  1 -1</clus>
</clustering>
</event>
<event>
 6    0  0.2781617E+002  0.1220484E+03  0.7546771E-02  0.1239756E+00
          2   -1    0    0  505    0 -0.00000000000E+00  0.00000000000E+00  0.33452702364E+03  0.33452702364E+03  0.00000000000E+00 0. -1.
         21   -1    0    0  503  502  0.00000000000E+00 -0.00000000000E+00 -0.11417110986E+04  0.11417110986E+04  0.00000000000E+00 0. -1.
         21    1    1    2  503  501  0.16112785997E+03  0.96155600473E+01 -0.73193416838E+03  0.74952136267E+03  0.00000000000E+00 0. -1.
         21    1    1    2  504  502 -0.30554642521E+02  0.10169317871E+02 -0.27101588695E+03  0.27292235560E+03  0.00000000000E+00 0. -1.
         21    1    1    2  505  504 -0.10970909162E+02 -0.41207749090E+02 -0.11364427710E+03  0.12138146955E+03  0.00000000000E+00 0. -1.
          2    1    1    2  501    0 -0.11960230829E+03  0.21422871172E+02  0.30941025746E+03  0.33241293443E+03  0.00000000000E+00 0. -1.
<scales pt_clust_3="14000.00000" pt_clust_4="32.20250" pt_clust_5="42.59946" pt_clust_6="122.04844"></scales>
<clustering>
<clus scale="   32.203">  2  4  1 -1</clus>
<clus scale="   42.599">  2  5  1 -1</clus>
<clus scale="  122.048">  1  6  2 -1</clus>
<clus scale="   32.203">  2  3  1 -1</clus>
</clustering>
</event>
<event>
 6    0  0.2781617E+002  0.1743875E+03  0.7546771E-02  0.1173348E+00
         -2   -1    0    0    0  501 -0.00000000000E+00  0.00000000000E+00  0.17826079635E+03  0.17826079635E+03  0.00000000000E+00 0. -1.
         21   -1    0    0  501  502  0.00000000000E+00 -0.00000000000E+00 -0.11924912795E+04  0.11924912795E+04  0.00000000000E+00 0. -1.
         21    1    1    2  503  505  0.13710827845E+01 -0.36901759760E+02  0.44898027771E+01  0.37199167603E+02  0.00000000000E+00 0.  1.
         21    1    1    2  504  502  0.11356043143E+03  0.12188852909E+03 -0.10968441834E+04  0.11094232500E+04  0.00000000000E+00 0. -1.
         21    1    1    2  505  504 -0.83146646727E+02 -0.72908749433E+02 -0.26840116615E+02  0.11379561708E+03  0.00000000000E+00 0. -1.
         -2    1    1    2    0  503 -0.31784867489E+02 -0.12078019894E+02  0.10496401410E+03  0.11033404109E+03  0.00000000000E+00 0. -1.
<scales pt_clust_3="33.53130" pt_clust_4="163.88010" pt_clust_5="33.53130" pt_clust_6="34.00230"></scales>
<clustering>
<clus scale="   34.002">  1  6  2 -1</clus>
<clus scale="   33.531">  3  5 -1 -1</clus>
<clus scale="  163.880">  2  4  1 -1</clus>
<clus scale="  163.880">  2  3  1 -1</clus>
</clustering>
</event>
<event>
 6    0  0.2781617E+002  0.6483776E+02  0.7546771E-02  0.1378583E+00
         21   -1    0    0  504  502  0.00000000000E+00  0.00000000000E+00  0.24253890147E+02  0.24253890147E+02  0.00000000000E+00 0.  1.
          3   -1    0    0  503    0 -0.00000000000E+00 -0.00000000000E+00 -0.25233422019E+04  0.25233422019E+04  0.00000000000E+00 0. -1.
         21    1    1    2  503  505  0.44149312658E+02  0.25071998940E+02 -0.45591890588E+03  0.45873719675E+03  0.00000000000E+00 0. -1.
         21    1    1    2  504  501 -0.28608842644E+02 -0.17399294693E+02 -0.31433978735E+02  0.45927076462E+02  0.00000000000E+00 0.  1.
         21    1    1    2  505  502  0.84823821777E+02 -0.14325631678E+01 -0.11183287632E+03  0.14036995834E+03  0.00000000000E+00 0.  1.
          3    1    1    2  501    0 -0.10036429179E+03 -0.62401410800E+01 -0.18999025508E+04  0.19025618605E+04  0.00000000000E+00 0. -1.
<scales pt_clust_3="47.99868" pt_clust_4="33.48434" pt_clust_5="14000.00000" pt_clust_6="64.83776"></scales>
<clustering>
<clus scale="   33.484">  1  4  2 -1</clus>
<clus scale="   47.999">  2  3  1 -1</clus>
<clus scale="   64.838">  2  6  1 -1</clus>
<clus scale="   33.484">  1  3  2 -1</clus>
</clustering>
</event>
<event>
 6    0  0.2781617E+002  0.1205923E+03  0.7546771E-02  0.1242123E+00
          2   -1    0    0  503    0 -0.00000000000E+00  0.00000000000E+00  0.31359776174E+03  0.31359776174E+03  0.00000000000E+00 0. -1.
         21   -1    0    0  504  502  0.00000000000E+00 -0.00000000000E+00 -0.12164345458E+04  0.12164345458E+04  0.00000000000E+00 0. -1.
         21    1    1    2  503  505 -0.16460028073E+03 -0.17006276983E+02 -0.78728612740E+03  0.80448860295E+03  0.00000000000E+00 0. -1.
         21    1    1    2  504  501  0.21003484787E+02 -0.34977712500E+02 -0.13107241815E+03  0.13727550963E+03  0.00000000000E+00 0. -1.
         21    1    1    2  505  502  0.23784870818E+02  0.46905452608E+02 -0.27184405326E+03  0.27688450815E+03  0.00000000000E+00 0. -1.
          2    1    1    2  501    0  0.11981192512E+03  0.50785368748E+01  0.28736581474E+03  0.31138368682E+03  0.00000000000E+00 0. -1.
<scales pt_clust_3="14000.00000" pt_clust_4="40.79935" pt_clust_5="47.89853" pt_clust_6="120.59227"></scales>
<clustering>
<clus scale="   40.799">  2  4  1 -1</clus>
<clus scale="   47.899">  2  5  1 -1</clus>
<clus scale="  120.592">  1  6  2 -1</clus>
<clus scale="   40.799">  2  3  1 -1</clus>
</clustering>
</event>
<event>
 6    0  0.2781617E+002  0.9464752E+02  0.7546771E-02  0.1291972E+00
          2   -1    0    0  505    0 -0.00000000000E+00  0.00000000000E+00  0.44321171808E+04  0.44321171808E+04  0.00000000000E+00 0. -1.
         21   -1    0    0  503  502  0.00000000000E+00 -0.00000000000E+00 -0.17429802753E+02  0.17429802753E+02  0.00000000000E+00 0.  1.
         21    1    1    2  503  501 -0.42649505937E+02  0.21469943879E+02  0.36875245328E+03  0.37183102432E+03  0.00000000000E+00 0. -1.
         21    1    1    2  504  502 -0.24603651240E+02 -0.11085582561E+03  0.20463582444E+03  0.23403028515E+03  0.00000000000E+00 0.  1.
         21    1    1    2  505  504  0.42924621648E+02  0.46613571723E+02  0.10250645790E+04  0.10270212945E+04  0.00000000000E+00 0. -1.
          2    1    1    2  501    0  0.24328535529E+02  0.42772310003E+02  0.28162345214E+04  0.28166643796E+04  0.00000000000E+00 0. -1.
<scales pt_clust_3="47.74871" pt_clust_4="14000.00000" pt_clust_5="94.64752" pt_clust_6="49.17864"></scales>
<clustering>
<clus scale="   47.749">  2  3  1 -1</clus>
<clus scale="   49.179">  1  6  2 -1</clus>
<clus scale="   94.648">  1  5  2 -1</clus>
<clus scale="   47.749">  2  3  1 -1</clus>
</clustering>
</event>
<event>
 6    0  0.2781617E+002  0.1838302E+03  0.7546771E-02  0.1164147E+00
          1   -1    0    0  504    0 -0.00000000000E+00  0.00000000000E+00  0.42828271828E+03  0.42828271828E+03  0.00000000000E+00 0. -1.
         21   -1    0    0  505  502  0.00000000000E+00 -0.00000000000E+00 -0.63521616518E+03  0.63521616518E+03  0.00000000000E+00 0. -1.
         21    1    1    2  503  502 -0.46264239891E+02 -0.30331211567E+02 -0.16856338514E+03  0.17740906712E+03  0.00000000000E+00 0. -1.
         21    1    1    2  504  503  0.54997653174E+01 -0.11645715839E+03 -0.31088624318E+03  0.33202827192E+03  0.00000000000E+00 0. -1.
         21    1    1    2  505  501  0.58642707646E+02 -0.18427293861E+02 -0.11612022792E+03  0.13138660377E+03  0.00000000000E+00 0. -1.
          1    1    1    2  501    0 -0.17878233072E+02  0.16521566382E+03  0.38863640933E+03  0.42267494064E+03  0.00000000000E+00 0. -1.
<scales pt_clust_3="55.30439" pt_clust_4="55.30439" pt_clust_5="61.46977" pt_clust_6="165.37123"></scales>
<clustering>
<clus scale="   55.304">  3  4 -1 -1</clus>
<clus scale="   61.470">  2  5  1 -1</clus>
<clus scale="  165.371">  1  6  2 -1</clus>
<clus scale="   61.470">  2  3  1 -1</clus>
</clustering>
</event>
<event>
 6    0  0.2781617E+002  0.1615793E+03  0.7546771E-02  0.1186925E+00
          2   -1    0    0  503    0 -0.00000000000E+00  0.00000000000E+00  0.89645544651E+03  0.89645544651E+03  0.00000000000E+00 0.  1.
         21   -1    0    0  504  502  0.00000000000E+00 -0.00000000000E+00 -0.15065685237E+03  0.15065685237E+03  0.00000000000E+00 0.  1.
         21    1    1    2  503  505 -0.97217454684E+02 -0.10387594891E+02 -0.25283945412E+02  0.10098719482E+03  0.00000000000E+00 0.  1.
         21    1    1    2  504  501  0.15031965395E+03 -0.99340661642E+01  0.23451093315E+03  0.27872937018E+03  0.00000000000E+00 0.  1.
         21    1    1    2  505  502 -0.49784252934E+02 -0.35866356595E+02 -0.49371511219E+02  0.78755402962E+02  0.00000000000E+00 0.  1.
          2    1    1    2  501    0 -0.33179463352E+01  0.56188017651E+02  0.58594311762E+03  0.58864033092E+03  0.00000000000E+00 0.  1.
<scales pt_clust_3="43.28201" pt_clust_4="152.06194" pt_clust_5="43.28201" pt_clust_6="56.28590"></scales>
<clustering>
<clus scale="   43.282">  3  5 -1 -1</clus>
<clus scale="   56.286">  1  6  2 -1</clus>
<clus scale="  152.062">  1  4  2 -1</clus>
<clus scale="  161.579">  2  3  1 -1</clus>
</clustering>
</event>
<event>
 6    0  0.2781617E+002  0.9315193E+02  0.7546771E-02  0.1295393E+00
          2   -1    0    0  505    0 -0.00000000000E+00  0.00000000000E+00  0.24043772417E+04  0.24043772417E+04  0.00000000000E+00 0.  1.
         21   -1    0    0  504  502  0.00000000000E+00 -0.00000000000E+00 -0.83779330510E+03  0.83779330510E+03  0.00000000000E+00 0.  1.
         21    1    1    2  503  501  0.39149385679E+02 -0.68799798043E+02 -0.17221642871E+03  0.18953781926E+03  0.00000000000E+00 0.  1.
         21    1    1    2  504  503  0.42097883223E+02 -0.24414312463E+02 -0.62191609407E+03  0.62381721561E+03  0.00000000000E+00 0.  1.
         21    1    1    2  505  502 -0.87259965467E+01  0.34594995232E+02 -0.23534686038E+02  0.42741527321E+02  0.00000000000E+00 0.  1.
          2    1    1    2  501    0 -0.72521272354E+02  0.58619115274E+02  0.23842511454E+04  0.23860739846E+04  0.00000000000E+00 0.  1.
<scales pt_clust_3="93.15193" pt_clust_4="35.42231" pt_clust_5="35.67852" pt_clust_6="14000.00000"></scales>
<clustering>
<clus scale="   35.679">  2  5  1 -1</clus>
<clus scale="   35.422">  2  4  1 -1</clus>
<clus scale="   93.152">  2  3  1 -1</clus>
<clus scale="   35.679">  2  3  1 -1</clus>
</clustering>
</event>
<event>
 6    0  0.2781617E+002  0.1639304E+03  0.7546771E-02  0.1184329E+00
          2   -1    0    0  505    0 -0.00000000000E+00  0.00000000000E+00  0.17355691328E+04  0.17355691328E+04  0.00000000000E+00 0.  1.
         21   -1    0    0  504  502  0.00000000000E+00 -0.00000000000E+00 -0.24351291079E+03  0.24351291079E+03  0.00000000000E+00 0. -1.
         21    1    1    2  503  502  0.36370847487E+02  0.18455562864E+02 -0.46866295617E+02  0.62128061393E+02  0.00000000000E+00 0. -1.
         21    1    1    2  504  501  0.38324812555E+01  0.75514121651E+02 -0.15413145753E+03  0.17167870189E+03  0.00000000000E+00 0. -1.
         21    1    1    2  505  503  0.32360579956E+02  0.55689750570E+02  0.25223553994E+02  0.69172126827E+02  0.00000000000E+00 0.  1.
          2    1    1    2  501    0 -0.72563908698E+02 -0.14965943509E+03  0.16678304211E+04  0.16761031535E+04  0.00000000000E+00 0.  1.
<scales pt_clust_3="40.78537" pt_clust_4="14000.00000" pt_clust_5="68.43738" pt_clust_6="163.93040"></scales>
<clustering>
<clus scale="   40.785">  2  3  1 -1</clus>
<clus scale="   68.437">  2  5  1 -1</clus>
<clus scale="  163.930">  1  6  2 -1</clus>
<clus scale="   40.785">  2  3  1 -1</clus>
</clustering>
</event>
<event>
 6    0  0.2781617E+002  0.1012067E+03  0.7546771E-02  0.1277779E+00
         21   -1    0    0  501  502  0.00000000000E+00  0.00000000000E+00  0.70709808083E+03  0.70709808083E+03  0.00000000000E+00 0. -1.
          1   -1    0    0  504    0 -0.00000000000E+00 -0.00000000000E+00 -0.12068784197E+03  0.12068784197E+03  0.00000000000E+00 0.  1.
         21    1    1    2  503  502 -0.38975973251E+02 -0.28666094759E+02  0.37667144779E+03  0.37976604780E+03  0.00000000000E+00 0. -1.
         21    1    1    2  504  505  0.64015146021E+02  0.77999918364E+02  0.76891267042E+02  0.12686289108E+03  0.00000000000E+00 0. -1.
         21    1    1    2  505  503 -0.49565874546E+02  0.64693549194E+00  0.21570760484E+03  0.22132999171E+03  0.00000000000E+00 0. -1.
          1    1    1    2  501    0  0.24526701777E+02 -0.49980759097E+02 -0.82860080824E+02  0.99826992212E+02  0.00000000000E+00 0.  1.
<scales pt_clust_3="41.66726" pt_clust_4="92.00008" pt_clust_5="41.66726" pt_clust_6="55.67437"></scales>
<clustering>
<clus scale="   41.667">  3  5 -1 -1</clus>
<clus scale="   55.674">  2  6  1 -1</clus>
<clus scale="   92.000">  2  4  1 -1</clus>
<clus scale="  101.207">  1  3  2 -1</clus>
</clustering>
</event>
<event>
 6    0  0.2781617E+002  0.1619316E+03  0.7546771E-02  0.1186533E+00
         21   -1    0    0  501  502  0.00000000000E+00  0.00000000000E+00  0.61710352996E+03  0.61710352996E+03  0.00000000000E+00 0.  1.
         -1   -1    0    0    0  501 -0.00000000000E+00 -0.00000000000E+00 -0.78066697498E+03  0.78066697498E+03  0.00000000000E+00 0. -1.
         21    1    1    2  503  504 -0.74594831856E+02  0.10401106898E+03  0.13843342591E+03  0.18853780740E+03  0.00000000000E+00 0.  1.
         21    1    1    2  504  505 -0.53954798964E+02  0.21645559221E+02  0.41759165970E+02  0.71578477964E+02  0.00000000000E+00 0.  1.
         21    1    1    2  505  502  0.41769325509E+02 -0.93164253989E+00  0.38802359345E+03  0.39026638798E+03  0.00000000000E+00 0.  1.
         -1    1    1    2    0  503  0.86780305311E+02 -0.12472498566E+03 -0.73177963034E+03  0.74738783160E+03  0.00000000000E+00 0. -1.
<scales pt_clust_3="36.14557" pt_clust_4="36.14557" pt_clust_5="41.77971" pt_clust_6="152.79179"></scales>
<clustering>
<clus scale="   36.146">  3  4 -1 -1</clus>
<clus scale="   41.780">  1  5  2 -1</clus>
<clus scale="  152.792">  2  6  1 -1</clus>
<clus scale="   41.780">  1  3  2 -1</clus>
</clustering>
</event>
<event>
 6    0  0.2781617E+002  0.2688143E+03  0.7546771E-02  0.1101960E+00
          1   -1    0    0  502    0 -0.00000000000E+00  0.00000000000E+00  0.76170207055E+03  0.76170207055E+03  0.00000000000E+00 0.  1.
         21   -1    0    0  503  502  0.00000000000E+00 -0.00000000000E+00 -0.29552965709E+03  0.29552965709E+03  0.00000000000E+00 0.  1.
         21    1    1    2  503  504 -0.48730263646E+02 -0.35489596253E+02 -0.40966119125E+02  0.72886027148E+02  0.00000000000E+00 0. -1.
         21    1    1    2  504  505 -0.23012188912E+03 -0.59051294910E+01 -0.13285790018E+03  0.26578595908E+03  0.00000000000E+00 0.  1.
         21    1    1    2  505  501  0.18774828780E+03  0.11955162384E+02  0.22804902947E+03  0.29563272032E+03  0.00000000000E+00 0.  1.
          1    1    1    2  501    0  0.91103864965E+02  0.29439563360E+02  0.41194740329E+03  0.42292702110E+03  0.00000000000E+00 0.  1.
<scales pt_clust_3="36.22851" pt_clust_4="36.22851" pt_clust_5="259.32461" pt_clust_6="95.74237"></scales>
<clustering>
<clus scale="   36.229">  3  4 -1 -1</clus>
<clus scale="   95.742">  1  6  2 -1</clus>
<clus scale="  259.325">  1  5  2 -1</clus>
<clus scale="  268.814">  2  3  1 -1</clus>
</clustering>
</event>
<event>
 6    0  0.2781617E+002  0.1680113E+03  0.7546771E-02  0.1179938E+00
         -1   -1    0    0    0  501 -0.00000000000E+00  0.00000000000E+00  0.90789086169E+03  0.90789086169E+03  0.00000000000E+00 0. -1.
         21   -1    0    0  503  502  0.00000000000E+00 -0.00000000000E+00 -0.14186752576E+03  0.14186752576E+03  0.00000000000E+00 0. -1.
         21    1    1    2  503  505  0.31277104299E+02 -0.61491140159E+02 -0.13487741896E+02  0.70294642419E+02  0.00000000000E+00 0. -1.
         21    1    1    2  504  502  0.47590321817E+02  0.18203652217E+01 -0.43907977086E+02  0.64777024568E+02  0.00000000000E+00 0. -1.
         21    1    1    2  505  501 -0.15626683881E+02 -0.86889354750E+02  0.13646645210E+02  0.89331876413E+02  0.00000000000E+00 0. -1.
         -1    1    1    2    0  504 -0.63240742236E+02  0.14656012969E+03  0.80977240970E+03  0.82535484405E+03  0.00000000000E+00 0. -1.
<scales pt_clust_3="55.05784" pt_clust_4="47.62512" pt_clust_5="55.05784" pt_clust_6="158.14207"></scales>
<clustering>
<clus scale="   47.625">  2  4  1 -1</clus>
<clus scale="   55.058">  3  5 -1 -1</clus>
<clus scale="  158.142">  1  6  2 -1</clus>
<clus scale="   47.625">  2  3  1 -1</clus>
</clustering>
</event>
<event>
 6    0  0.2781617E+002  0.1090389E+03  0.7546771E-02  0.1262360E+00
         21   -1    0    0  503  502  0.00000000000E+00  0.00000000000E+00  0.77069130656E+02  0.77069130656E+02  0.00000000000E+00 0. -1.
          2   -1    0    0  504    0 -0.00000000000E+00 -0.00000000000E+00 -0.13799542213E+04  0.13799542213E+04  0.00000000000E+00 0.  1.
         21    1    1    2  503  501 -0.15532073416E+01  0.12163217069E+03 -0.39956600455E+01  0.12170769367E+03  0.00000000000E+00 0. -1.
         21    1    1    2  504  505  0.40492856540E+02  0.21426724502E+02 -0.11497136290E+03  0.12376263669E+03  0.00000000000E+00 0. -1.
         21    1    1    2  505  502 -0.33507419829E+02 -0.79032080855E+02 -0.13065391169E+03  0.15633061641E+03  0.00000000000E+00 0.  1.
          2    1    1    2  501    0 -0.54322293693E+01 -0.64026814333E+02 -0.10532641561E+04  0.10552224052E+04  0.00000000000E+00 0.  1.
<scales pt_clust_3="14000.00000" pt_clust_4="45.81240" pt_clust_5="109.03891" pt_clust_6="54.16913"></scales>
<clustering>
<clus scale="   45.812">  2  4  1 -1</clus>
<clus scale="   54.169">  2  6  1 -1</clus>
<clus scale="  109.039">  2  5  1 -1</clus>
<clus scale="  109.039">  1  3  2 -1</clus>
</clustering>
</event>
<event>
 6    0  0.2781617E+002  0.1405494E+03  0.7546771E-02  0.1212592E+00
         21   -1    0    0  504  502  0.00000000000E+00  0.00000000000E+00  0.50941660941E+03  0.50941660941E+03  0.00000000000E+00 0.  1.
          2   -1    0    0  503    0 -0.00000000000E+00 -0.00000000000E+00 -0.47340860272E+03  0.47340860272E+03  0.00000000000E+00 0. -1.
         21    1    1    2  503  502 -0.76651399585E+02 -0.30981252115E+02  0.15050554916E+03  0.17171836061E+03  0.00000000000E+00 0. -1.
         21    1    1    2  504  505 -0.13703392217E+01  0.51439058325E+02  0.31799888853E+02  0.60490391650E+02  0.00000000000E+00 0.  1.
         21    1    1    2  505  501  0.10529641426E+03  0.11757857307E+03  0.26913496759E+03  0.31200270268E+03  0.00000000000E+00 0.  1.
          2    1    1    2  501    0 -0.27274675453E+02 -0.13803637928E+03 -0.41543239892E+03  0.43861375719E+03  0.00000000000E+00 0. -1.
<scales pt_clust_3="78.23126" pt_clust_4="51.45731" pt_clust_5="14000.00000" pt_clust_6="140.54940"></scales>
<clustering>
<clus scale="   51.457">  1  4  2 -1</clus>
<clus scale="   78.231">  1  3  2 -1</clus>
<clus scale="  140.549">  2  6  1 -1</clus>
<clus scale="   51.457">  1  3  2 -1</clus>
</clustering>
</event>
<event>
 6    0  0.2781617E+002  0.1252505E+03  0.7546771E-02  0.1234678E+00
         -4   -1    0    0    0  501 -0.00000000000E+00  0.00000000000E+00  0.14897043216E+04  0.14897043216E+04  0.00000000000E+00 0.  1.
         21   -1    0    0  503  502  0.00000000000E+00 -0.00000000000E+00 -0.45248008200E+02  0.45248008200E+02  0.00000000000E+00 0. -1.
         21    1    1    2  503  504 -0.34058755615E+02  0.26831660643E+02  0.29504443188E+02  0.52444723422E+02  0.00000000000E+00 0.  1.
         21    1    1    2  504  505 -0.19030261048E+02  0.76564613176E+02  0.31450680502E+02  0.84931949998E+02  0.00000000000E+00 0. -1.
         21    1    1    2  505  501  0.23654520847E+01  0.36161973375E+02  0.11927334983E+03  0.12465719258E+03  0.00000000000E+00 0.  1.
         -4    1    1    2    0  502  0.50723564579E+02 -0.13955824719E+03  0.12642278399E+04  0.12729184638E+04  0.00000000000E+00 0.  1.
<scales pt_clust_3="30.09109" pt_clust_4="30.09109" pt_clust_5="36.23926" pt_clust_6="118.49097"></scales>
<clustering>
<clus scale="   30.091">  3  4 -1 -1</clus>
<clus scale="   36.239">  1  5  2 -1</clus>
<clus scale="  118.491">  1  6  2 -1</clus>
<clus scale="  125.251">  2  3  1 -1</clus>
</clustering>
</event>
<event>
 6    0  0.2781617E+002  0.1903224E+03  0.7546771E-02  0.1158171E+00
          1   -1    0    0  502    0 -0.00000000000E+00  0.00000000000E+00  0.20314865825E+04  0.20314865825E+04  0.00000000000E+00 0. -1.
         21   -1    0    0  505  502  0.00000000000E+00 -0.00000000000E+00 -0.16982968033E+03  0.16982968033E+03  0.00000000000E+00 0. -1.
         21    1    1    2  503  501 -0.31006653351E+02 -0.27128548631E+02  0.19700392552E+02  0.45667014020E+02  0.00000000000E+00 0. -1.
         21    1    1    2  504  503  0.21483404399E+01 -0.12836418419E+03  0.30664854134E+02  0.13199360753E+03  0.00000000000E+00 0. -1.
         21    1    1    2  505  504  0.17381276110E+02  0.19615029798E+03 -0.14428492265E+02  0.19744677648E+03  0.00000000000E+00 0. -1.
          1    1    1    2  501    0  0.11477036801E+02 -0.40657565153E+02  0.18257201477E+04  0.18262088648E+04  0.00000000000E+00 0. -1.
<scales pt_clust_3="35.89884" pt_clust_4="35.89884" pt_clust_5="179.46240" pt_clust_6="42.24642"></scales>
<clustering>
<clus scale="   35.899">  3  4 -1 -1</clus>
<clus scale="   42.246">  1  6  2 -1</clus>
<clus scale="  179.462">  2  5  1 -1</clus>
<clus scale="  179.462">  2  3  1 -1</clus>
</clustering>
</event>
<event>
 6    0  0.2781617E+002  0.1799823E+03  0.7546771E-02  0.1167820E+00
          3   -1    0    0  503    0 -0.00000000000E+00  0.00000000000E+00  0.54338260850E+03  0.54338260850E+03  0.00000000000E+00 0. -1.
         21   -1    0    0  501  502  0.00000000000E+00 -0.00000000000E+00 -0.92576407138E+02  0.92576407138E+02  0.00000000000E+00 0.  1.
         21    1    1    2  503  504  0.50411242614E+02  0.16815571603E+02  0.31136665423E+02  0.61591791368E+02  0.00000000000E+00 0.  1.
         21    1    1    2  504  505  0.36115665644E+02  0.52744344797E+02  0.18906745710E+02  0.66661624990E+02  0.00000000000E+00 0.  1.
         21    1    1    2  505  502  0.43419524557E+02  0.16876098116E+02 -0.25966573576E+02  0.53332173626E+02  0.00000000000E+00 0.  1.
          3    1    1    2  501    0 -0.12994643281E+03 -0.86436014516E+02  0.42672936380E+03  0.45437342565E+03  0.00000000000E+00 0. -1.
<scales pt_clust_3="36.68796" pt_clust_4="46.41624" pt_clust_5="46.41624" pt_clust_6="156.06813"></scales>
<clustering>
<clus scale="   36.688">  3  4 -1 -1</clus>
<clus scale="   46.416">  3  5 -1 -1</clus>
<clus scale="  156.068">  1  6  2 -1</clus>
<clus scale="  179.982">  2  3  1 -1</clus>
</clustering>
</event>
<event>
 6    0  0.2781617E+002  0.1343523E+03  0.7546771E-02  0.1221137E+00
         21   -1    0    0  501  502  0.00000000000E+00  0.00000000000E+00  0.69852873069E+03  0.69852873069E+03  0.00000000000E+00 0. -1.
         -2   -1    0    0    0  501 -0.00000000000E+00 -0.00000000000E+00 -0.29906531514E+03  0.29906531514E+03  0.00000000000E+00 0. -1.
         21    1    1    2  503  504 -0.20259947855E+03  0.11635415701E+03  0.18854319569E+03  0.30022220971E+03  0.00000000000E+00 0. -1.
         21    1    1    2  504  505  0.68135657432E+02 -0.17022740706E+02  0.76764690171E+02  0.10404354459E+03  0.00000000000E+00 0. -1.
         21    1    1    2  505  502  0.39508592916E+02 -0.14315626995E+02  0.34467843530E+03  0.34723060039E+03  0.00000000000E+00 0. -1.
         -2    1    1    2    0  503  0.94955228202E+02 -0.85015789314E+02 -0.21052290561E+03  0.24609769113E+03  0.00000000000E+00 0. -1.
<scales pt_clust_3="134.35229" pt_clust_4="80.95557" pt_clust_5="42.02221" pt_clust_6="14000.00000"></scales>
<clustering>
<clus scale="   42.022">  1  5  2 -1</clus>
<clus scale="   80.956">  1  4  2 -1</clus>
<clus scale="  134.352">  1  3  2 -1</clus>
<clus scale="   42.022">  1  3  2 -1</clus>
</clustering>
</event>
<event>
 6    0  0.2781617E+002  0.1211506E+03  0.7546771E-02  0.1241211E+00
         21   -1    0    0  504  502  0.00000000000E+00  0.00000000000E+00  0.28461864969E+03  0.28461864969E+03  0.00000000000E+00 0.  1.
          2   -1    0    0  503    0 -0.00000000000E+00 -0.00000000000E+00 -0.78565904551E+03  0.78565904551E+03  0.00000000000E+00 0. -1.
         21    1    1    2  503  505 -0.31842795133E+02 -0.26813449597E+02  0.21442676205E+02  0.46826413956E+02  0.00000000000E+00 0.  1.
         21    1    1    2  504  501  0.81573593074E+02  0.94510578064E+02  0.21663390374E+03  0.25003349516E+03  0.00000000000E+00 0.  1.
         21    1    1    2  505  502 -0.16466361348E+02 -0.42328406385E+02 -0.14619275653E+02  0.47713292318E+02  0.00000000000E+00 0.  1.
          2    1    1    2  501    0 -0.33264436593E+02 -0.25368722081E+02 -0.72449770011E+03  0.72570449376E+03  0.00000000000E+00 0. -1.
<scales pt_clust_3="40.35537" pt_clust_4="113.58104" pt_clust_5="40.35537" pt_clust_6="41.83413"></scales>
<clustering>
<clus scale="   40.355">  3  5 -1 -1</clus>
<clus scale="   41.834">  2  6  1 -1</clus>
<clus scale="  113.581">  1  4  2 -1</clus>
<clus scale="  113.581">  1  3  2 -1</clus>
</clustering>
</event>
<event>
 6    0  0.2781617E+002  0.1336749E+03  0.7546771E-02  0.1222103E+00
         21   -1    0    0  505  502  0.00000000000E+00  0.00000000000E+00  0.99673196738E+02  0.99673196738E+02  0.00000000000E+00 0.  1.
          2   -1    0    0  504    0 -0.00000000000E+00 -0.00000000000E+00 -0.78235937506E+03  0.78235937506E+03  0.00000000000E+00 0. -1.
         21    1    1    2  503  502  0.11798383206E+03 -0.71436434188E+02 -0.11127726878E+03  0.17721732225E+03  0.00000000000E+00 0.  1.
         21    1    1    2  504  503  0.36626072188E+02 -0.34354516423E+02 -0.94995533568E+02  0.10745163266E+03  0.00000000000E+00 0.  1.
         21    1    1    2  505  501 -0.42883989362E+02  0.94739471360E+02  0.39364774433E+01  0.10406776558E+03  0.00000000000E+00 0.  1.
          2    1    1    2  501    0 -0.11172591489E+03  0.11051479251E+02 -0.48034985341E+03  0.49329585132E+03  0.00000000000E+00 0. -1.
<scales pt_clust_3="35.14224" pt_clust_4="35.14224" pt_clust_5="103.99329" pt_clust_6="120.32032"></scales>
<clustering>
<clus scale="   35.142">  3  4 -1 -1</clus>
<clus scale="  103.993">  1  5  2 -1</clus>
<clus scale="  120.320">  2  6  1 -1</clus>
<clus scale="  103.993">  1  3  2 -1</clus>
</clustering>
</event>
<event>
 6    0  0.2781617E+002  0.1924747E+03  0.7546771E-02  0.1156248E+00
         21   -1    0    0  504  502  0.00000000000E+00  0.00000000000E+00  0.16472844133E+03  0.16472844133E+03  0.00000000000E+00 0.  1.
          2   -1    0    0  503    0 -0.00000000000E+00 -0.00000000000E+00 -0.58378026159E+03  0.58378026159E+03  0.00000000000E+00 0.  1.
         21    1    1    2  503  505 -0.81030561647E+02 -0.99066944190E+02 -0.71456807052E+02  0.14658201331E+03  0.00000000000E+00 0.  1.
         21    1    1    2  504  501  0.10878956176E+03  0.12891126442E+03  0.15221430402E+01  0.16868787675E+03  0.00000000000E+00 0.  1.
         21    1    1    2  505  502 -0.70356684134E+02 -0.49847298204E+02 -0.54855334561E+01  0.86399694547E+02  0.00000000000E+00 0.  1.
          2    1    1    2  501    0  0.42597684020E+02  0.20002977973E+02 -0.34363162279E+03  0.34683911831E+03  0.00000000000E+00 0.  1.
<scales pt_clust_3="46.91364" pt_clust_4="183.79257" pt_clust_5="46.91364" pt_clust_6="47.06041"></scales>
<clustering>
<clus scale="   46.914">  3  5 -1 -1</clus>
<clus scale="   47.060">  2  6  1 -1</clus>
<clus scale="  183.793">  1  4  2 -1</clus>
<clus scale="  183.793">  1  3  2 -1</clus>
</clustering>
</event>
<event>
 6    0  0.2781617E+002  0.3284194E+03  0.7546771E-02  0.1071838E+00
         21   -1    0    0  501  502  0.00000000000E+00  0.00000000000E+00  0.11122189702E+03  0.11122189702E+03  0.00000000000E+00 0. -1.
          1   -1    0    0  504    0 -0.00000000000E+00 -0.00000000000E+00 -0.13949456722E+04  0.13949456722E+04  0.00000000000E+00 0. -1.
         21    1    1    2  503  505 -0.25967169840E+02  0.68311785178E+02 -0.15245829477E+02  0.74654063655E+02  0.00000000000E+00 0. -1.
         21    1    1    2  504  503  0.32228954314E+02  0.21902734825E+03 -0.21737836924E+03  0.31026607967E+03  0.00000000000E+00 0. -1.
         21    1    1    2  505  502 -0.48394830831E+02  0.28929341716E+02 -0.71859622736E+02  0.91338775135E+02  0.00000000000E+00 0.  1.
          1    1    1    2  501    0  0.42133046357E+02 -0.31626847515E+03 -0.97923995376E+03  0.10299086508E+04  0.00000000000E+00 0. -1.
<scales pt_clust_3="65.31100" pt_clust_4="65.31100" pt_clust_5="56.38232" pt_clust_6="310.50414"></scales>
<clustering>
<clus scale="   56.382">  1  5  2 -1</clus>
<clus scale="   65.311">  3  4 -1 -1</clus>
<clus scale="  310.504">  2  6  1 -1</clus>
<clus scale="   56.382">  1  3  2 -1</clus>
</clustering>
</event>
<event>
 6    0  0.2781617E+002  0.8591244E+02  0.7546771E-02  0.1313064E+00
         21   -1    0    0  505  502  0.00000000000E+00  0.00000000000E+00  0.13599804120E+03  0.13599804120E+03  0.00000000000E+00 0. -1.
          1   -1    0    0  503    0 -0.00000000000E+00 -0.00000000000E+00 -0.19417320734E+04  0.19417320734E+04  0.00000000000E+00 0.  1.
         21    1    1    2  503  504  0.22844560181E+02 -0.12111790864E+03 -0.78003580882E+02  0.14586288203E+03  0.00000000000E+00 0. -1.
         21    1    1    2  504  502  0.11426284503E+02  0.54220335932E+02  0.83905459259E+02  0.10055113575E+03  0.00000000000E+00 0. -1.
         21    1    1    2  505  501 -0.31873497382E+02 -0.17914395126E+02 -0.29013812243E+02  0.46675975501E+02  0.00000000000E+00 0. -1.
          1    1    1    2  501    0 -0.23973473018E+01  0.84811967831E+02 -0.17826220984E+04  0.17846401214E+04  0.00000000000E+00 0.  1.
<scales pt_clust_3="85.91244" pt_clust_4="42.85317" pt_clust_5="36.56290" pt_clust_6="14000.00000"></scales>
<clustering>
<clus scale="   36.563">  1  5  2 -1</clus>
<clus scale="   42.853">  1  4  2 -1</clus>
<clus scale="   85.912">  1  3  2 -1</clus>
<clus scale="   36.563">  1  3  2 -1</clus>
</clustering>
</event>
<event>
 6    0  0.2781617E+002  0.9771481E+02  0.7546771E-02  0.1285176E+00
          2   -1    0    0  504    0 -0.00000000000E+00  0.00000000000E+00  0.19506927478E+04  0.19506927478E+04  0.00000000000E+00 0.  1.
         21   -1    0    0  503  502  0.00000000000E+00 -0.00000000000E+00 -0.50727398746E+03  0.50727398746E+03  0.00000000000E+00 0. -1.
         21    1    1    2  503  501  0.77196614158E+01  0.45782802290E+02 -0.93798688946E+02  0.10466065262E+03  0.00000000000E+00 0. -1.
         21    1    1    2  504  505 -0.51834878327E+02 -0.90746568997E+02 -0.36680072496E+03  0.38139817282E+03  0.00000000000E+00 0. -1.
         21    1    1    2  505  502 -0.28922829358E+02 -0.19942075720E+02 -0.23273403282E+02  0.42141045815E+02  0.00000000000E+00 0.  1.
          2    1    1    2  501    0  0.73038046269E+02  0.64905842426E+02  0.19272915775E+04  0.19297668640E+04  0.00000000000E+00 0.  1.
<scales pt_clust_3="41.64659" pt_clust_4="97.71481" pt_clust_5="35.13142" pt_clust_6="14000.00000"></scales>
<clustering>
<clus scale="   35.131">  2  5  1 -1</clus>
<clus scale="   41.647">  2  3  1 -1</clus>
<clus scale="   97.715">  2  4  1 -1</clus>
<clus scale="   35.131">  2  3  1 -1</clus>
</clustering>
</event>
<event>
 6    0  0.2781617E+002  0.1702458E+03  0.7546771E-02  0.1177592E+00
         21   -1    0    0  505  502  0.00000000000E+00  0.00000000000E+00  0.55611426754E+03  0.55611426754E+03  0.00000000000E+00 0. -1.
          2   -1    0    0  503    0 -0.00000000000E+00 -0.00000000000E+00 -0.31517737563E+03  0.31517737563E+03  0.00000000000E+00 0. -1.
         21    1    1    2  503  504 -0.11496592905E+03  0.68941030611E+02  0.30470954717E+03  0.33289328422E+03  0.00000000000E+00 0. -1.
         21    1    1    2  504  502 -0.70409337690E+02  0.38708142889E+02  0.64237896009E+02  0.10287031857E+03  0.00000000000E+00 0.  1.
         21    1    1    2  505  501  0.89268706626E+02 -0.22055902834E+01  0.11989841196E+03  0.14949714312E+03  0.00000000000E+00 0. -1.
          2    1    1    2  501    0  0.96106560111E+02 -0.10544358322E+03 -0.24790896323E+03  0.28603089726E+03  0.00000000000E+00 0. -1.
<scales pt_clust_3="68.44235" pt_clust_4="68.44235" pt_clust_5="89.29595" pt_clust_6="145.49319"></scales>
<clustering>
<clus scale="   68.442">  3  4 -1 -1</clus>
<clus scale="   89.296">  1  5  2 -1</clus>
<clus scale="  145.493">  2  6  1 -1</clus>
<clus scale="   89.296">  1  3  2 -1</clus>
</clustering>
</event>
<event>
 6    0  0.2781617E+002  0.2682764E+03  0.7546771E-02  0.1102270E+00
         -4   -1    0    0    0  501 -0.00000000000E+00  0.00000000000E+00  0.11724066109E+04  0.11724066109E+04  0.00000000000E+00 0. -1.
         21   -1    0    0  505  502  0.00000000000E+00 -0.00000000000E+00 -0.49540722435E+03  0.49540722435E+03  0.00000000000E+00 0. -1.
         21    1    1    2  503  504  0.18075491172E+03 -0.40273013202E+01 -0.21323021103E+03  0.27956337415E+03  0.00000000000E+00 0. -1.
         21    1    1    2  504  501 -0.22698481507E+03  0.55019304497E+02  0.56390785468E+02  0.24026891357E+03  0.00000000000E+00 0. -1.
         21    1    1    2  505  503  0.83317076757E+02 -0.44758131097E+02 -0.14243923975E+03  0.17097942156E+03  0.00000000000E+00 0. -1.
         -4    1    1    2    0  502 -0.37087173402E+02 -0.62338720799E+01  0.97627805182E+03  0.97700212593E+03  0.00000000000E+00 0. -1.
<scales pt_clust_3="48.12658" pt_clust_4="259.99653" pt_clust_5="48.12658" pt_clust_6="37.60744"></scales>
<clustering>
<clus scale="   37.607">  1  6  2 -1</clus>
<clus scale="   48.127">  3  5 -1 -1</clus>
<clus scale="  259.997">  1  4  2 -1</clus>
<clus scale="  268.276">  2  3  1 -1</clus>
</clustering>
</event>
<event>
 6    0  0.2781617E+002  0.1555982E+03  0.7546771E-02  0.1193758E+00
          2   -1    0    0  504    0 -0.00000000000E+00  0.00000000000E+00  0.12139912659E+04  0.12139912659E+04  0.00000000000E+00 0.  1.
         21   -1    0    0  503  502  0.00000000000E+00 -0.00000000000E+00 -0.13178307789E+03  0.13178307789E+03  0.00000000000E+00 0. -1.
         21    1    1    2  503  505 -0.61376224055E+00 -0.43140181663E+02 -0.17335297561E+02  0.46496930216E+02  0.00000000000E+00 0. -1.
         21    1    1    2  504  502  0.57722398613E+02 -0.10640031354E+03  0.20537665448E+03  0.23839562124E+03  0.00000000000E+00 0. -1.
         21    1    1    2  505  501 -0.65647932739E+02  0.18887781430E+03  0.37717873254E+02  0.20348738971E+03  0.00000000000E+00 0. -1.
          2    1    1    2  501    0  0.85392963673E+01 -0.39337319104E+02  0.85644895786E+03  0.85739440264E+03  0.00000000000E+00 0.  1.
<scales pt_clust_3="44.74729" pt_clust_4="14000.00000" pt_clust_5="155.59816" pt_clust_6="40.25350"></scales>
<clustering>
<clus scale="   40.253">  1  6  2 -1</clus>
<clus scale="   44.747">  2  3  1 -1</clus>
<clus scale="  155.598">  2  5  1 -1</clus>
<clus scale="   44.747">  2  3  1 -1</clus>
</clustering>
</event>
<event>
 6    0  0.2781617E+002  0.8896166E+02  0.7546771E-02  0.1305386E+00
          2   -1    0    0  503    0 -0.00000000000E+00  0.00000000000E+00  0.30723371767E+04  0.30723371767E+04  0.00000000000E+00 0. -1.
         21   -1    0    0  501  502  0.00000000000E+00 -0.00000000000E+00 -0.30467639181E+03  0.30467639181E+03  0.00000000000E+00 0.  1.
         21    1    1    2  503  505 -0.21357508009E+01 -0.90098466342E+02 -0.60275736852E+01  0.90325116735E+02  0.00000000000E+00 0. -1.
         21    1    1    2  504  502 -0.48579729581E+02  0.33583263613E+02 -0.11918696175E+03  0.13301638084E+03  0.00000000000E+00 0.  1.
         21    1    1    2  505  504  0.11403385727E+02  0.69003135904E+02 -0.12086915038E+03  0.13964534179E+03  0.00000000000E+00 0.  1.
          2    1    1    2  501    0  0.39312094655E+02 -0.12487933175E+02  0.30137444707E+04  0.30140267291E+04  0.00000000000E+00 0. -1.
<scales pt_clust_3="88.96166" pt_clust_4="54.41109" pt_clust_5="14000.00000" pt_clust_6="41.24790"></scales>
<clustering>
<clus scale="   41.248">  1  6  2 -1</clus>
<clus scale="   54.411">  2  4  1 -1</clus>
<clus scale="   88.962">  1  3  2 -1</clus>
<clus scale="   54.411">  2  3  1 -1</clus>
</clustering>
</event>
<event>
 6    0  0.2781617E+002  0.1129378E+03  0.7546771E-02  0.1255224E+00
         21   -1    0    0  501  502  0.00000000000E+00  0.00000000000E+00  0.62742115466E+03  0.62742115466E+03  0.00000000000E+00 0. -1.
         -1   -1    0    0    0  501 -0.00000000000E+00 -0.00000000000E+00 -0.40465867380E+03  0.40465867380E+03  0.00000000000E+00 0. -1.
         21    1    1    2  503  504 -0.14224854746E+02  0.67568635547E+02  0.18394082661E+03  0.19647415784E+03  0.00000000000E+00 0. -1.
         21    1    1    2  504  502  0.13325047770E+01  0.33331293477E+02  0.23088793304E+03  0.23328520810E+03  0.00000000000E+00 0. -1.
         21    1    1    2  505  503  0.62135457070E+02 -0.92749773724E+02  0.18818463715E+03  0.21880766259E+03  0.00000000000E+00 0.  1.
         -1    1    1    2    0  505 -0.49243107100E+02 -0.81501553005E+01 -0.38025091594E+03  0.38351279992E+03  0.00000000000E+00 0. -1.
<scales pt_clust_3="33.06590" pt_clust_4="33.06590" pt_clust_5="102.42917" pt_clust_6="49.91301"></scales>
<clustering>
<clus scale="   33.066">  3  4 -1 -1</clus>
<clus scale="   49.913">  2  6  1 -1</clus>
<clus scale="  102.429">  2  5  1 -1</clus>
<clus scale="  112.938">  1  3  2 -1</clus>
</clustering>
</event>
<event>
 6    0  0.2781617E+002  0.8467935E+02  0.7546771E-02  0.1316273E+00
         21   -1    0    0  505  502  0.00000000000E+00  0.00000000000E+00  0.35857898484E+02  0.35857898484E+02  0.00000000000E+00 0. -1.
          2   -1    0    0  504    0 -0.00000000000E+00 -0.00000000000E+00 -0.27021022212E+04  0.27021022212E+04  0.00000000000E+00 0. -1.
         21    1    1    2  503  502 -0.24121407397E+02 -0.72862022532E+02 -0.25090803485E+03  0.26238437182E+03  0.00000000000E+00 0. -1.
         21    1    1    2  504  503 -0.57530221203E+02 -0.18690653609E+02 -0.90779769419E+02  0.10908727433E+03  0.00000000000E+00 0. -1.
         21    1    1    2  505  501  0.54844255666E+02  0.69945366536E+02 -0.73964281138E+02  0.11563287406E+03  0.00000000000E+00 0. -1.
          2    1    1    2  501    0  0.26807372934E+02  0.21607309605E+02 -0.22505922373E+04  0.22508555995E+04  0.00000000000E+00 0. -1.
<scales pt_clust_3="14000.00000" pt_clust_4="53.43653" pt_clust_5="84.67935" pt_clust_6="34.43125"></scales>
<clustering>
<clus scale="   34.431">  2  6  1 -1</clus>
<clus scale="   53.437">  2  4  1 -1</clus>
<clus scale="   84.679">  1  5  2 -1</clus>
<clus scale="   84.679">  1  3  2 -1</clus>
</clustering>
</event>
<event>
 6    0  0.2781617E+002  0.1180752E+03  0.7546771E-02  0.1246306E+00
          1   -1    0    0  505    0 -0.00000000000E+00  0.00000000000E+00  0.65355089069E+03  0.65355089069E+03  0.00000000000E+00 0. -1.
         21   -1    0    0  503  502  0.00000000000E+00 -0.00000000000E+00 -0.13725249634E+04  0.13725249634E+04  0.00000000000E+00 0.  1.
         21    1    1    2  503  504  0.67462026598E+02  0.10867428145E+02 -0.29610058256E+03  0.30388284094E+03  0.00000000000E+00 0.  1.
         21    1    1    2  504  501  0.56913530337E+02 -0.32746860052E+02 -0.10201137075E+04  0.10222247713E+04  0.00000000000E+00 0.  1.
         21    1    1    2  505  502 -0.17573524722E+02 -0.29125423582E+02 -0.39610908589E+02  0.52212480780E+02  0.00000000000E+00 0.  1.
          1    1    1    2  501    0 -0.10680203221E+03  0.51004855489E+02  0.63685112596E+03  0.64775576108E+03  0.00000000000E+00 0. -1.
<scales pt_clust_3="63.63225" pt_clust_4="14000.00000" pt_clust_5="34.01645" pt_clust_6="118.07524"></scales>
<clustering>
<clus scale="   34.016">  2  5  1 -1</clus>
<clus scale="   63.632">  2  3  1 -1</clus>
<clus scale="  118.075">  1  6  2 -1</clus>
<clus scale="   34.016">  2  3  1 -1</clus>
</clustering>
</event>
<event>
 6    0  0.2781617E+002  0.2309068E+03  0.7546771E-02  0.1126003E+00
          1   -1    0    0  503    0 -0.00000000000E+00  0.00000000000E+00  0.26937927105E+03  0.26937927105E+03  0.00000000000E+00 0. -1.
         21   -1    0    0  501  502  0.00000000000E+00 -0.00000000000E+00 -0.94573949109E+03  0.94573949109E+03  0.00000000000E+00 0. -1.
         21    1    1    2  503  505  0.33701219566E+02  0.18884836198E+02  0.28445073974E+01  0.38736293844E+02  0.00000000000E+00 0. -1.
         21    1    1    2  504  502  0.52636988781E+02 -0.34025655437E+02 -0.33032105630E+03  0.33621480939E+03  0.00000000000E+00 0.  1.
         21    1    1    2  505  504  0.52576820434E+02 -0.15450789676E+03 -0.53076017181E+03  0.55528674772E+03  0.00000000000E+00 0. -1.
          1    1    1    2  501    0 -0.13891502878E+03  0.16964871600E+03  0.18187650067E+03  0.28488091119E+03  0.00000000000E+00 0. -1.
<scales pt_clust_3="38.63171" pt_clust_4="50.86145" pt_clust_5="50.86145" pt_clust_6="215.91352"></scales>
<clustering>
<clus scale="   38.632">  1  3  2 -1</clus>
<clus scale="   50.861">  4  5 -1 -1</clus>
<clus scale="  215.914">  1  6  2 -1</clus>
<clus scale="  230.907">  2  3  1 -1</clus>
</clustering>
</event>
<event>
 6    0  0.2864529E+002  0.1125493E+03  0.7546771E-02  0.1255921E+00
          1   -1    0    0  503    0 -0.00000000000E+00  0.00000000000E+00  0.30805292685E+04  0.30805292685E+04  0.00000000000E+00 0.  1.
         21   -1    0    0  505  502  0.00000000000E+00 -0.00000000000E+00 -0.39543144993E+03  0.39543144993E+03  0.00000000000E+00 0. -1.
         21    1    1    2  503  502 -0.75950454904E+02 -0.12533066206E+03 -0.33100485702E+03  0.36199511298E+03  0.00000000000E+00 0. -1.
         21    1    1    2  504  501  0.14386568600E+02  0.78638528414E+02  0.19494048784E+03  0.21069595466E+03  0.00000000000E+00 0. -1.
         21    1    1    2  505  504  0.21573411124E+02  0.24370186970E+02 -0.34390324234E+02  0.47349894207E+02  0.00000000000E+00 0.  1.
          1    1    1    2  501    0  0.39990475180E+02  0.22321946678E+02  0.28555525119E+04  0.28559197565E+04  0.00000000000E+00 0.  1.
<scales pt_clust_3="112.54927" pt_clust_4="14000.00000" pt_clust_5="32.54717" pt_clust_6="45.81446"></scales>
<clustering>
<clus scale="   32.547">  2  5  1 -1</clus>
<clus scale="   45.814">  1  6  2 -1</clus>
<clus scale="  112.549">  2  3  1 -1</clus>
<clus scale="   32.547">  2  3  1 -1</clus>
</clustering>
</event>
<event>
 6    0  0.2781617E+002  0.8305161E+02  0.7546771E-02  0.1320608E+00
         21   -1    0    0  505  502  0.00000000000E+00  0.00000000000E+00  0.33060479207E+02  0.33060479207E+02  0.00000000000E+00 0. -1.
          2   -1    0    0  503    0 -0.00000000000E+00 -0.00000000000E+00 -0.11641192377E+04  0.11641192377E+04  0.00000000000E+00 0. -1.
         21    1    1    2  503  502 -0.94670327895E+02  0.94924550381E+01 -0.14834932778E+03  0.17623876061E+03  0.00000000000E+00 0. -1.
         21    1    1    2  504  501  0.38047557708E+02 -0.15323100406E+02 -0.11872211837E+03  0.12560794339E+03  0.00000000000E+00 0.  1.
         21    1    1    2  505  504 -0.22146560309E+02  0.26820472283E+02 -0.82834510768E+01  0.35755047598E+02  0.00000000000E+00 0.  1.
          2    1    1    2  501    0  0.78769330497E+02 -0.20989826916E+02 -0.85570386129E+03  0.85957796533E+03  0.00000000000E+00 0. -1.
<scales pt_clust_3="14000.00000" pt_clust_4="35.69496" pt_clust_5="34.78229" pt_clust_6="83.05161"></scales>
<clustering>
<clus scale="   34.782">  1  5  2 -1</clus>
<clus scale="   35.695">  1  4  2 -1</clus>
<clus scale="   83.052">  2  6  1 -1</clus>
<clus scale="   34.782">  1  3  2 -1</clus>
</clustering>
</event>
<event>
 6    0  0.2781617E+002  0.1938227E+03  0.7546771E-02  0.1155058E+00
         21   -1    0    0  503  502  0.00000000000E+00  0.00000000000E+00  0.11159546180E+04  0.11159546180E+04  0.00000000000E+00 0.  1.
          2   -1    0    0  505    0 -0.00000000000E+00 -0.00000000000E+00 -0.10191847035E+04  0.10191847035E+04  0.00000000000E+00 0.  1.
         21    1    1    2  503  504 -0.71321025604E+02 -0.75989665200E+02  0.36290419235E+03  0.37757194114E+03  0.00000000000E+00 0.  1.
         21    1    1    2  504  501 -0.63891941467E+02 -0.10967921698E+03  0.53707915354E+03  0.55187473940E+03  0.00000000000E+00 0.  1.
         21    1    1    2  505  502  0.25423040386E+02  0.30036564819E+02  0.19017856904E+03  0.19420714285E+03  0.00000000000E+00 0.  1.
          2    1    1    2  501    0  0.10978992669E+03  0.15563231736E+03 -0.99339200043E+03  0.10114854980E+04  0.00000000000E+00 0.  1.
<scales pt_clust_3="30.66939" pt_clust_4="30.66939" pt_clust_5="39.35132" pt_clust_6="190.84451"></scales>
<clustering>
<clus scale="   30.669">  3  4 -1 -1</clus>
<clus scale="   39.351">  1  5  2 -1</clus>
<clus scale="  190.845">  2  6  1 -1</clus>
<clus scale="   39.351">  1  3  2 -1</clus>
</clustering>
</event>
<event>
 6    0  0.2781617E+002  0.8984318E+02  0.7546771E-02  0.1303232E+00
         21   -1    0    0  505  502  0.00000000000E+00  0.00000000000E+00  0.26332494374E+03  0.26332494374E+03  0.00000000000E+00 0.  1.
         -1   -1    0    0    0  501 -0.00000000000E+00 -0.00000000000E+00 -0.30752786793E+03  0.30752786793E+03  0.00000000000E+00 0.  1.
         21    1    1    2  503  501  0.21673291046E+02  0.21286163509E+02 -0.16338795294E+02  0.34493311429E+02  0.00000000000E+00 0.  1.
         21    1    1    2  504  502  0.77186107843E+02  0.52453395885E+02  0.14370107069E+03  0.17134483272E+03  0.00000000000E+00 0.  1.
         21    1    1    2  505  503 -0.44008512252E+02 -0.78949082621E+02  0.71835449869E+02  0.11545578658E+03  0.00000000000E+00 0.  1.
         -1    1    1    2    0  504 -0.54850886636E+02  0.52095232267E+01 -0.24340064945E+03  0.24955888093E+03  0.00000000000E+00 0.  1.
<scales pt_clust_3="30.37816" pt_clust_4="14000.00000" pt_clust_5="89.84318" pt_clust_6="43.08909"></scales>
<clustering>
<clus scale="   30.378">  2  3  1 -1</clus>
<clus scale="   43.089">  2  6  1 -1</clus>
<clus scale="   89.843">  2  5  1 -1</clus>
<clus scale="   89.843">  1  3  2 -1</clus>
</clustering>
</event>
<event>
 6    0  0.2781617E+002  0.1863797E+03  0.7546771E-02  0.1161768E+00
          2   -1    0    0  505    0 -0.00000000000E+00  0.00000000000E+00  0.28925848762E+03  0.28925848762E+03  0.00000000000E+00 0.  1.
         21   -1    0    0  504  502  0.00000000000E+00 -0.00000000000E+00 -0.10897139473E+04  0.10897139473E+04  0.00000000000E+00 0. -1.
         21    1    1    2  503  501  0.21845341901E+03 -0.49203307268E+02 -0.28902754805E+02  0.22578359320E+03  0.00000000000E+00 0. -1.
         21    1    1    2  504  503 -0.15000362431E+03  0.35503907279E+02 -0.91443293112E+03  0.92733445976E+03  0.00000000000E+00 0. -1.
         21    1    1    2  505  502 -0.31916434746E+02 -0.23985088314E+01 -0.32721076459E+02  0.45772049289E+02  0.00000000000E+00 0. -1.
          2    1    1    2  501    0 -0.36533359949E+02  0.16097908821E+02  0.17560130267E+03  0.18008233271E+03  0.00000000000E+00 0.  1.
<scales pt_clust_3="186.37974" pt_clust_4="14000.00000" pt_clust_5="32.00643" pt_clust_6="39.98303"></scales>
<clustering>
<clus scale="   32.006">  2  5  1 -1</clus>
<clus scale="   39.983">  1  6  2 -1</clus>
<clus scale="  186.380">  1  3  2 -1</clus>
<clus scale="   32.006">  2  3  1 -1</clus>
</clustering>
</event>
<event>
 6    0  0.2781617E+002  0.1658551E+03  0.7546771E-02  0.1182241E+00
          1   -1    0    0  505    0 -0.00000000000E+00  0.00000000000E+00  0.26827520419E+03  0.26827520419E+03  0.00000000000E+00 0.  1.
         21   -1    0    0  503  502  0.00000000000E+00 -0.00000000000E+00 -0.83684739966E+03  0.83684739966E+03  0.00000000000E+00 0. -1.
         21    1    1    2  503  501 -0.13295398053E+03  0.67375250795E+02 -0.53782313172E+03  0.55809489012E+03  0.00000000000E+00 0. -1.
         21    1    1    2  504  502  0.40860286754E+02  0.70546127360E+01 -0.11713158481E+03  0.12425433093E+03  0.00000000000E+00 0.  1.
         21    1    1    2  505  504  0.11786146507E+03 -0.39966701004E+02 -0.14289476673E+03  0.18949294577E+03  0.00000000000E+00 0.  1.
          1    1    1    2  501    0 -0.25767771292E+02 -0.34463162527E+02  0.22927728779E+03  0.23328043704E+03  0.00000000000E+00 0.  1.
<scales pt_clust_3="151.52583" pt_clust_4="38.92597" pt_clust_5="38.92597" pt_clust_6="43.03124"></scales>
<clustering>
<clus scale="   38.926">  4  5 -1 -1</clus>
<clus scale="   43.031">  1  6  2 -1</clus>
<clus scale="  151.526">  2  3  1 -1</clus>
<clus scale="  151.526">  2  3  1 -1</clus>
</clustering>
</event>
<event>
 6    0  0.2781617E+002  0.1093570E+03  0.7546771E-02  0.1261765E+00
         21   -1    0    0  505  502  0.00000000000E+00  0.00000000000E+00  0.41951384122E+03  0.41951384122E+03  0.00000000000E+00 0. -1.
          2   -1    0    0  502    0 -0.00000000000E+00 -0.00000000000E+00 -0.13413787997E+04  0.13413787997E+04  0.00000000000E+00 0. -1.
         21    1    1    2  503  504  0.60845260027E+02 -0.12718768785E+02  0.27076679894E+02  0.67801617542E+02  0.00000000000E+00 0. -1.
         21    1    1    2  504  501 -0.41153953975E+02  0.10399426528E+03  0.61821944346E+02  0.12779048455E+03  0.00000000000E+00 0.  1.
         21    1    1    2  505  503 -0.28319087881E+02  0.17797751700E+02  0.27392581716E+03  0.27596029426E+03  0.00000000000E+00 0. -1.
          2    1    1    2  501    0  0.86277818291E+01 -0.10907324820E+03 -0.12846893999E+04  0.12893402446E+04  0.00000000000E+00 0. -1.
<scales pt_clust_3="52.00958" pt_clust_4="109.35696" pt_clust_5="33.44743" pt_clust_6="14000.00000"></scales>
<clustering>
<clus scale="   33.447">  1  5  2 -1</clus>
<clus scale="   52.010">  1  3  2 -1</clus>
<clus scale="  109.357">  1  4  2 -1</clus>
<clus scale="   33.447">  1  3  2 -1</clus>
</clustering>
</event>
<event>
 6    0  0.2781617E+002  0.1065337E+03  0.7546771E-02  0.1267127E+00
         21   -1    0    0  505  502  0.00000000000E+00  0.00000000000E+00  0.55133335823E+03  0.55133335823E+03  0.00000000000E+00 0.  1.
          1   -1    0    0  504    0 -0.00000000000E+00 -0.00000000000E+00 -0.38308852659E+02  0.38308852659E+02  0.00000000000E+00 0.  1.
         21    1    1    2  503  502 -0.34901782282E+02 -0.39485817020E+02  0.11878013267E+03  0.12994608140E+03  0.00000000000E+00 0.  1.
         21    1    1    2  504  503 -0.11851420095E+02 -0.58247240049E+02  0.20469443815E+03  0.21315020559E+03  0.00000000000E+00 0.  1.
         21    1    1    2  505  501 -0.32466376992E+02  0.36463588722E+02  0.10377462718E+03  0.11468579766E+03  0.00000000000E+00 0.  1.
          1    1    1    2  501    0  0.79219579368E+02  0.61269468347E+02  0.85775307565E+02  0.13186012625E+03  0.00000000000E+00 0.  1.
<scales pt_clust_3="34.48913" pt_clust_4="34.48913" pt_clust_5="48.82273" pt_clust_6="100.03887"></scales>
<clustering>
<clus scale="   34.489">  3  4 -1 -1</clus>
<clus scale="   48.823">  1  5  2 -1</clus>
<clus scale="  100.039">  2  6  1 -1</clus>
<clus scale="   48.823">  1  3  2 -1</clus>
</clustering>
</event>
<event>
 6    0  0.2781617E+002  0.1591341E+03  0.7546771E-02  0.1189678E+00
         21   -1    0    0  503  502  0.00000000000E+00  0.00000000000E+00  0.97452477593E+03  0.97452477593E+03  0.00000000000E+00 0.  1.
          1   -1    0    0  505    0 -0.00000000000E+00 -0.00000000000E+00 -0.10630707650E+04  0.10630707650E+04  0.00000000000E+00 0.  1.
         21    1    1    2  503  501  0.17866481856E+03 -0.80681477015E+02  0.65130429051E+03  0.68016755066E+03  0.00000000000E+00 0.  1.
         21    1    1    2  504  502 -0.38709310505E+01 -0.36142517302E+02  0.27568997139E+03  0.27807593565E+03  0.00000000000E+00 0.  1.
         21    1    1    2  505  504 -0.29127332265E+02  0.53616931794E+02 -0.10584734605E+02  0.61929100321E+02  0.00000000000E+00 0.  1.
          1    1    1    2  501    0 -0.14566655525E+03  0.63207062523E+02 -0.10049555164E+04  0.10174229543E+04  0.00000000000E+00 0.  1.
<scales pt_clust_3="14000.00000" pt_clust_4="36.34922" pt_clust_5="59.92198" pt_clust_6="159.13413"></scales>
<clustering>
<clus scale="   36.349">  1  4  2 -1</clus>
<clus scale="   59.922">  1  5  2 -1</clus>
<clus scale="  159.134">  2  6  1 -1</clus>
<clus scale="   36.349">  1  3  2 -1</clus>
</clustering>
</event>
<event>
 6    0  0.2781617E+002  0.8131777E+02  0.7546771E-02  0.1325353E+00
         21   -1    0    0  505  502  0.00000000000E+00  0.00000000000E+00  0.12234033746E+03  0.12234033746E+03  0.00000000000E+00 0. -1.
          1   -1    0    0  503    0 -0.00000000000E+00 -0.00000000000E+00 -0.81698616134E+03  0.81698616134E+03  0.00000000000E+00 0.  1.
         21    1    1    2  503  504  0.84490815133E+02 -0.23344215570E+02 -0.41091005159E+02  0.96809715150E+02  0.00000000000E+00 0.  1.
         21    1    1    2  504  502  0.27009068263E+01 -0.36328862310E+02  0.76656564755E+02  0.84872316184E+02  0.00000000000E+00 0. -1.
         21    1    1    2  505  501 -0.70677210274E+01  0.48920681768E+02 -0.42470461519E+02  0.65168442415E+02  0.00000000000E+00 0. -1.
          1    1    1    2  501    0 -0.80124000932E+02  0.10752396112E+02 -0.68774092195E+03  0.69247602505E+03  0.00000000000E+00 0.  1.
<scales pt_clust_3="81.31777" pt_clust_4="36.42912" pt_clust_5="39.51436" pt_clust_6="14000.00000"></scales>
<clustering>
<clus scale="   36.429">  1  4  2 -1</clus>
<clus scale="   39.514">  1  5  2 -1</clus>
<clus scale="   81.318">  1  3  2 -1</clus>
<clus scale="   36.429">  1  3  2 -1</clus>
</clustering>
</event>
<event>
 6    0  0.2781617E+002  0.9191741E+02  0.7546771E-02  0.1298274E+00
         21   -1    0    0  503  502  0.00000000000E+00  0.00000000000E+00  0.38292696133E+03  0.38292696133E+03  0.00000000000E+00 0. -1.
          2   -1    0    0  502    0 -0.00000000000E+00 -0.00000000000E+00 -0.35809244290E+03  0.35809244290E+03  0.00000000000E+00 0.  1.
         21    1    1    2  503  504  0.70851509376E+01 -0.43685292555E+02  0.50509355557E+02  0.67155038145E+02  0.00000000000E+00 0. -1.
         21    1    1    2  504  505 -0.28249894136E+02 -0.53379035420E+02  0.16787022548E+03  0.17840344880E+03  0.00000000000E+00 0.  1.
         21    1    1    2  505  501  0.72889997334E+02  0.10725997332E+03  0.12049772392E+03  0.17702360028E+03  0.00000000000E+00 0. -1.
          2    1    1    2  501    0 -0.51725254136E+02 -0.10195645346E+02 -0.31404278652E+03  0.31843731701E+03  0.00000000000E+00 0.  1.
<scales pt_clust_3="44.25612" pt_clust_4="14000.00000" pt_clust_5="91.91741" pt_clust_6="52.73152"></scales>
<clustering>
<clus scale="   44.256">  1  3  2 -1</clus>
<clus scale="   52.732">  2  6  1 -1</clus>
<clus scale="   91.917">  2  5  1 -1</clus>
<clus scale="   44.256">  1  3  2 -1</clus>
</clustering>
</event>
<event>
 6    0  0.2781617E+002  0.1172810E+03  0.7546771E-02  0.1247651E+00
         21   -1    0    0  505  502  0.00000000000E+00  0.00000000000E+00  0.77569494788E+03  0.77569494788E+03  0.00000000000E+00 0.  1.
          2   -1    0    0  503    0 -0.00000000000E+00 -0.00000000000E+00 -0.29483732752E+03  0.29483732752E+03  0.00000000000E+00 0.  1.
         21    1    1    2  503  504 -0.43251716204E+02 -0.98545425549E+02  0.61273257253E+03  0.62211182056E+03  0.00000000000E+00 0.  1.
         21    1    1    2  504  502  0.37173718062E+00 -0.43157776860E+02  0.97583129019E+02  0.10670144779E+03  0.00000000000E+00 0.  1.
         21    1    1    2  505  501  0.12895939042E+02  0.28094038685E+02  0.38356529980E+02  0.49262598850E+02  0.00000000000E+00 0. -1.
          2    1    1    2  501    0  0.29984039981E+02  0.11360916372E+03 -0.26781461117E+03  0.29245640819E+03  0.00000000000E+00 0.  1.
<scales pt_clust_3="117.28103" pt_clust_4="39.29700" pt_clust_5="30.91246" pt_clust_6="14000.00000"></scales>
<clustering>
<clus scale="   30.912">  1  5  2 -1</clus>
<clus scale="   39.297">  1  4  2 -1</clus>
<clus scale="  117.281">  1  3  2 -1</clus>
<clus scale="   30.912">  1  3  2 -1</clus>
</clustering>
</event>
<event>
 6    0  0.2781617E+002  0.2373141E+03  0.7546771E-02  0.1121595E+00
         21   -1    0    0  501  502  0.00000000000E+00  0.00000000000E+00  0.40877501922E+03  0.40877501922E+03  0.00000000000E+00 0. -1.
          4   -1    0    0  505    0 -0.00000000000E+00 -0.00000000000E+00 -0.54460913343E+03  0.54460913343E+03  0.00000000000E+00 0.  1.
         21    1    1    2  503  504  0.16010354190E+03 -0.43436816052E+02  0.17733399464E+03  0.24283172521E+03  0.00000000000E+00 0. -1.
         21    1    1    2  504  502  0.70337695157E+02 -0.14150380348E+02  0.12889362576E+03  0.14751674951E+03  0.00000000000E+00 0. -1.
         21    1    1    2  505  503 -0.33976372510E+02  0.95696357837E+02 -0.31544708207E+02  0.10633557922E+03  0.00000000000E+00 0.  1.
          4    1    1    2  501    0 -0.19646486455E+03 -0.38109161437E+02 -0.41051702640E+03  0.45670009870E+03  0.00000000000E+00 0.  1.
<scales pt_clust_3="30.68541" pt_clust_4="30.68541" pt_clust_5="101.54894" pt_clust_6="232.68187"></scales>
<clustering>
<clus scale="   30.685">  3  4 -1 -1</clus>
<clus scale="  101.549">  2  5  1 -1</clus>
<clus scale="  232.682">  2  6  1 -1</clus>
<clus scale="  237.314">  1  3  2 -1</clus>
</clustering>
</event>
<event>
 6    0  0.2781617E+002  0.1580330E+03  0.7546771E-02  0.1190936E+00
          1   -1    0    0  505    0 -0.00000000000E+00  0.00000000000E+00  0.12362980403E+04  0.12362980403E+04  0.00000000000E+00 0.  1.
         21   -1    0    0  504  502  0.00000000000E+00 -0.00000000000E+00 -0.24461977840E+03  0.24461977840E+03  0.00000000000E+00 0. -1.
         21    1    1    2  503  501  0.78885048576E+02  0.58987163979E+02 -0.47570093692E+02  0.10938578617E+03  0.00000000000E+00 0. -1.
         21    1    1    2  504  503  0.13083793846E+03  0.23639387692E+02 -0.79418492978E+02  0.15486989320E+03  0.00000000000E+00 0. -1.
         21    1    1    2  505  502 -0.69986803747E+02 -0.37839211164E+02 -0.84728423415E+01  0.80010922114E+02  0.00000000000E+00 0.  1.
          1    1    1    2  501    0 -0.13973618329E+03 -0.44787340507E+02  0.11271396909E+04  0.11366512172E+04  0.00000000000E+00 0.  1.
<scales pt_clust_3="46.30418" pt_clust_4="46.30418" pt_clust_5="79.56104" pt_clust_6="148.59455"></scales>
<clustering>
<clus scale="   46.304">  3  4 -1 -1</clus>
<clus scale="   79.561">  2  5  1 -1</clus>
<clus scale="  148.595">  1  6  2 -1</clus>
<clus scale="   79.561">  2  3  1 -1</clus>
</clustering>
</event>
<event>
 6    0  0.2781617E+002  0.1297088E+03  0.7546771E-02  0.1227888E+00
         21   -1    0    0  505  502  0.00000000000E+00  0.00000000000E+00  0.31271222408E+03  0.31271222408E+03  0.00000000000E+00 0.  1.
         -1   -1    0    0    0  501 -0.00000000000E+00 -0.00000000000E+00 -0.28092562766E+03  0.28092562766E+03  0.00000000000E+00 0.  1.
         21    1    1    2  503  502 -0.73324721958E+01  0.97822936804E+02 -0.10185265187E+02  0.98624701472E+02  0.00000000000E+00 0. -1.
         21    1    1    2  504  501 -0.18200707514E+01 -0.95349780837E+02  0.18492454927E+03  0.20806725424E+03  0.00000000000E+00 0.  1.
         21    1    1    2  505  504  0.29173936531E+02 -0.28032716942E+02  0.64951276980E+02  0.76522024106E+02  0.00000000000E+00 0.  1.
         -1    1    1    2    0  503 -0.20021393584E+02  0.25559560975E+02 -0.20790396465E+03  0.21042387192E+03  0.00000000000E+00 0.  1.
<scales pt_clust_3="119.34287" pt_clust_4="32.71121" pt_clust_5="32.71121" pt_clust_6="32.46764"></scales>
<clustering>
<clus scale="   32.468">  2  6  1 -1</clus>
<clus scale="   32.711">  4  5 -1 -1</clus>
<clus scale="  119.343">  2  3  1 -1</clus>
<clus scale="  129.709">  1  3  2 -1</clus>
</clustering>
</event>
<event>
 6    0  0.2781617E+002  0.6001089E+02  0.7546771E-02  0.1397786E+00
          2   -1    0    0  503    0 -0.00000000000E+00  0.00000000000E+00  0.99908611006E+03  0.99908611006E+03  0.00000000000E+00 0. -1.
         21   -1    0    0  504  502  0.00000000000E+00 -0.00000000000E+00 -0.59101456809E+02  0.59101456809E+02  0.00000000000E+00 0.  1.
         21    1    1    2  503  505 -0.13018283598E+02  0.94171874424E+02  0.29202426411E+03  0.30710908236E+03  0.00000000000E+00 0. -1.
         21    1    1    2  504  501  0.66096780058E+02 -0.58495089165E+02  0.25188787099E+01  0.88299516082E+02  0.00000000000E+00 0.  1.
         21    1    1    2  505  502 -0.50505864315E+02  0.18370109986E+02  0.90861756952E+02  0.10556591376E+03  0.00000000000E+00 0. -1.
          2    1    1    2  501    0 -0.25726321448E+01 -0.54046895245E+02  0.55457975348E+03  0.55721305467E+03  0.00000000000E+00 0. -1.
<scales pt_clust_3="60.01089" pt_clust_4="49.59548" pt_clust_5="53.74294" pt_clust_6="14000.00000"></scales>
<clustering>
<clus scale="   53.743">  2  5  1 -1</clus>
<clus scale="   49.595">  2  4  1 -1</clus>
<clus scale="   60.011">  2  3  1 -1</clus>
<clus scale="   53.743">  2  3  1 -1</clus>
</clustering>
</event>
<event>
 6    0  0.2781617E+002  0.8599609E+02  0.7546771E-02  0.1312848E+00
         21   -1    0    0  503  502  0.00000000000E+00  0.00000000000E+00  0.27154862449E+03  0.27154862449E+03  0.00000000000E+00 0.  1.
         -3   -1    0    0    0  501 -0.00000000000E+00 -0.00000000000E+00 -0.73306239550E+02  0.73306239550E+02  0.00000000000E+00 0. -1.
         21    1    1    2  503  504  0.34226121064E+02  0.37770508555E+02  0.26213414267E+02  0.57316505189E+02  0.00000000000E+00 0.  1.
         21    1    1    2  504  501  0.15883105799E+02  0.50249724745E+02  0.61108577232E+02  0.80694275498E+02  0.00000000000E+00 0.  1.
         21    1    1    2  505  502  0.21020974852E+02 -0.74506096908E+02  0.10990707085E+03  0.13443438579E+03  0.00000000000E+00 0.  1.
         -3    1    1    2    0  505 -0.71130201714E+02 -0.13514136392E+02  0.10133225908E+01  0.72409697562E+02  0.00000000000E+00 0. -1.
<scales pt_clust_3="33.54366" pt_clust_4="33.54366" pt_clust_5="78.94288" pt_clust_6="72.40261"></scales>
<clustering>
<clus scale="   33.544">  3  4 -1 -1</clus>
<clus scale="   72.403">  2  6  1 -1</clus>
<clus scale="   78.943">  1  5  2 -1</clus>
<clus scale="   78.943">  1  3  2 -1</clus>
</clustering>
</event>
<event>
 6    0  0.2781617E+002  0.1170491E+03  0.7546771E-02  0.1248046E+00
          1   -1    0    0  504    0 -0.00000000000E+00  0.00000000000E+00  0.18923018021E+04  0.18923018021E+04  0.00000000000E+00 0. -1.
         21   -1    0    0  505  502  0.00000000000E+00 -0.00000000000E+00 -0.14785708862E+03  0.14785708862E+03  0.00000000000E+00 0. -1.
         21    1    1    2  503  501  0.26248417678E+02 -0.59025938082E+02  0.18576557365E+02  0.67217031179E+02  0.00000000000E+00 0.  1.
         21    1    1    2  504  502 -0.82060727422E+02 -0.76727154453E+02 -0.62327652189E+02  0.12847472686E+03  0.00000000000E+00 0. -1.
         21    1    1    2  505  503  0.23436642156E+02  0.22845854670E+02 -0.16014688015E+02  0.36437336666E+02  0.00000000000E+00 0. -1.
          1    1    1    2  501    0  0.32375667588E+02  0.11290723786E+03  0.18042104963E+04  0.18080297960E+04  0.00000000000E+00 0. -1.
<scales pt_clust_3="62.63075" pt_clust_4="14000.00000" pt_clust_5="32.72933" pt_clust_6="117.04908"></scales>
<clustering>
<clus scale="   32.729">  2  5  1 -1</clus>
<clus scale="   62.631">  2  3  1 -1</clus>
<clus scale="  117.049">  1  6  2 -1</clus>
<clus scale="   32.729">  2  3  1 -1</clus>
</clustering>
</event>
<event>
 6    0  0.2781617E+002  0.1294764E+03  0.7546771E-02  0.1228235E+00
          2   -1    0    0  503    0 -0.00000000000E+00  0.00000000000E+00  0.51187321023E+03  0.51187321023E+03  0.00000000000E+00 0. -1.
         21   -1    0    0  505  502  0.00000000000E+00 -0.00000000000E+00 -0.27289744648E+03  0.27289744648E+03  0.00000000000E+00 0.  1.
         21    1    1    2  503  504  0.38766551290E+02 -0.68912606577E+01 -0.11700634009E+03  0.12345371033E+03  0.00000000000E+00 0.  1.
         21    1    1    2  504  502  0.35321984450E+02  0.33243935608E+02 -0.10970981011E+03  0.11995434246E+03  0.00000000000E+00 0.  1.
         21    1    1    2  505  501  0.47130063747E+02  0.16147129488E+01 -0.11235207447E+02  0.48477624664E+02  0.00000000000E+00 0. -1.
          2    1    1    2  501    0 -0.12121859949E+03 -0.27967387899E+02  0.47692712140E+03  0.49288497926E+03  0.00000000000E+00 0. -1.
<scales pt_clust_3="36.74909" pt_clust_4="36.74909" pt_clust_5="47.15772" pt_clust_6="122.88386"></scales>
<clustering>
<clus scale="   36.749">  3  4 -1 -1</clus>
<clus scale="   47.158">  2  5  1 -1</clus>
<clus scale="  122.884">  1  6  2 -1</clus>
<clus scale="   47.158">  2  3  1 -1</clus>
</clustering>
</event>
<event>
 6    0  0.2781617E+002  0.1179154E+03  0.7546771E-02  0.1246576E+00
         21   -1    0    0  504  502  0.00000000000E+00  0.00000000000E+00  0.21075188780E+03  0.21075188780E+03  0.00000000000E+00 0.  1.
          1   -1    0    0  503    0 -0.00000000000E+00 -0.00000000000E+00 -0.15784383272E+04  0.15784383272E+04  0.00000000000E+00 0.  1.
         21    1    1    2  503  502 -0.22174708356E+02 -0.96790725242E+02  0.85084891170E+02  0.13076544226E+03  0.00000000000E+00 0.  1.
         21    1    1    2  504  505  0.66555338552E+01  0.37995729408E+02  0.39971956319E+02  0.55549337315E+02  0.00000000000E+00 0. -1.
         21    1    1    2  505  501  0.10672501301E+03 -0.17651227438E+02 -0.28247894029E+01  0.10821170763E+03  0.00000000000E+00 0.  1.
          1    1    1    2  501    0 -0.91205838513E+02  0.76446223273E+02 -0.14899184975E+04  0.14946637278E+04  0.00000000000E+00 0.  1.
<scales pt_clust_3="73.80242" pt_clust_4="38.57423" pt_clust_5="117.91543" pt_clust_6="14000.00000"></scales>
<clustering>
<clus scale="   38.574">  1  4  2 -1</clus>
<clus scale="   73.802">  1  3  2 -1</clus>
<clus scale="  117.915">  1  5  2 -1</clus>
<clus scale="   38.574">  1  3  2 -1</clus>
</clustering>
</event>
<event>
 6    0  0.2781617E+002  0.2023611E+03  0.7546771E-02  0.1147762E+00
          2   -1    0    0  504    0 -0.00000000000E+00  0.00000000000E+00  0.10705865797E+04  0.10705865797E+04  0.00000000000E+00 0.  1.
         21   -1    0    0  503  502  0.00000000000E+00 -0.00000000000E+00 -0.20130211915E+03  0.20130211915E+03  0.00000000000E+00 0. -1.
         21    1    1    2  503  501 -0.24824272337E+02  0.13138787961E+03  0.16991605029E+03  0.21621860131E+03  0.00000000000E+00 0.  1.
         21    1    1    2  504  505 -0.65553367677E+02 -0.31463513293E+02  0.69857210518E+02  0.10083266606E+03  0.00000000000E+00 0. -1.
         21    1    1    2  505  502  0.14781939408E+03 -0.18948656118E+03 -0.67601862707E+02  0.24965124068E+03  0.00000000000E+00 0. -1.
          2    1    1    2  501    0 -0.57441754066E+02  0.89562194856E+02  0.69711306249E+03  0.70518619084E+03  0.00000000000E+00 0.  1.
<scales pt_clust_3="14000.00000" pt_clust_4="72.71311" pt_clust_5="202.36106" pt_clust_6="123.88424"></scales>
<clustering>
<clus scale="   72.713">  1  4  2 -1</clus>
<clus scale="  123.884">  1  6  2 -1</clus>
<clus scale="  202.361">  2  5  1 -1</clus>
<clus scale="  202.361">  2  3  1 -1</clus>
</clustering>
</event>
<event>
 6    0  0.2781617E+002  0.1105084E+03  0.7546771E-02  0.1259631E+00
          2   -1    0    0  503    0 -0.00000000000E+00  0.00000000000E+00  0.32630313143E+04  0.32630313143E+04  0.00000000000E+00 0.  1.
         21   -1    0    0  505  502  0.00000000000E+00 -0.00000000000E+00 -0.14686424058E+03  0.14686424058E+03  0.00000000000E+00 0. -1.
         21    1    1    2  503  502 -0.57169668249E+02 -0.33333454249E+02  0.22221942816E+03  0.23186410760E+03  0.00000000000E+00 0.  1.
         21    1    1    2  504  501  0.63024777899E+02  0.95103405541E+02 -0.33050205012E+02  0.11878171756E+03  0.00000000000E+00 0. -1.
         21    1    1    2  505  504  0.49507075939E+02 -0.36113155222E+02 -0.51549249563E+02  0.80077685273E+02  0.00000000000E+00 0. -1.
          2    1    1    2  501    0 -0.55362185589E+02 -0.25656796069E+02  0.29785471002E+04  0.29791720445E+04  0.00000000000E+00 0.  1.
<scales pt_clust_3="14000.00000" pt_clust_4="110.50841" pt_clust_5="59.85277" pt_clust_6="61.01838"></scales>
<clustering>
<clus scale="   61.018">  1  6  2 -1</clus>
<clus scale="   59.853">  2  5  1 -1</clus>
<clus scale="  110.508">  2  4  1 -1</clus>
<clus scale="   59.853">  2  3  1 -1</clus>
</clustering>
</event>
<event>
 6    0  0.2781617E+002  0.1821108E+03  0.7546771E-02  0.1165776E+00
          2   -1    0    0  504    0 -0.00000000000E+00  0.00000000000E+00  0.18641768942E+04  0.18641768942E+04  0.00000000000E+00 0. -1.
         21   -1    0    0  503  502  0.00000000000E+00 -0.00000000000E+00 -0.44773720360E+03  0.44773720360E+03  0.00000000000E+00 0. -1.
         21    1    1    2  503  501 -0.98181235206E+02  0.11575482459E+03 -0.32202746017E+03  0.35600620706E+03  0.00000000000E+00 0. -1.
         21    1    1    2  504  505  0.90698425049E+02 -0.18845851111E+03  0.37958680326E+02  0.21256452227E+03  0.00000000000E+00 0. -1.
         21    1    1    2  505  502 -0.36228433897E+02  0.12246670399E+02 -0.28532519953E+01  0.38348681925E+02  0.00000000000E+00 0. -1.
          2    1    1    2  501    0  0.43711244054E+02  0.60457016130E+02  0.17033617225E+04  0.17049946866E+04  0.00000000000E+00 0. -1.
<scales pt_clust_3="182.11077" pt_clust_4="14000.00000" pt_clust_5="38.24239" pt_clust_6="74.58221"></scales>
<clustering>
<clus scale="   38.242">  2  5  1 -1</clus>
<clus scale="   74.582">  1  6  2 -1</clus>
<clus scale="  182.111">  2  3  1 -1</clus>
<clus scale="   38.242">  2  3  1 -1</clus>
</clustering>
</event>
<event>
 6    0  0.2781617E+002  0.1599589E+03  0.7546771E-02  0.1188743E+00
          2   -1    0    0  505    0 -0.00000000000E+00  0.00000000000E+00  0.51308260395E+03  0.51308260395E+03  0.00000000000E+00 0. -1.
         21   -1    0    0  504  502  0.00000000000E+00 -0.00000000000E+00 -0.28919059735E+03  0.28919059735E+03  0.00000000000E+00 0.  1.
         21    1    1    2  503  502  0.42967114810E+02  0.38190434820E+02 -0.45103765179E+02  0.73068679338E+02  0.00000000000E+00 0. -1.
         21    1    1    2  504  501  0.10824244521E+03 -0.11527549554E+03 -0.15982896860E+03  0.22483364076E+03  0.00000000000E+00 0.  1.
         21    1    1    2  505  503 -0.11594876584E+03  0.86316892172E+02  0.10539393470E+03  0.17889271546E+03  0.00000000000E+00 0. -1.
          2    1    1    2  501    0 -0.35260794186E+02 -0.92318314572E+01  0.32343080567E+03  0.32547816575E+03  0.00000000000E+00 0. -1.
<scales pt_clust_3="55.09174" pt_clust_4="14000.00000" pt_clust_5="159.95886" pt_clust_6="36.44928"></scales>
<clustering>
<clus scale="   36.449">  1  6  2 -1</clus>
<clus scale="   55.092">  2  3  1 -1</clus>
<clus scale="  159.959">  1  5  2 -1</clus>
<clus scale="   55.092">  2  3  1 -1</clus>
</clustering>
</event>
<event>
 6    0  0.2781617E+002  0.1405204E+03  0.7546771E-02  0.1212630E+00
         21   -1    0    0  501  502  0.00000000000E+00  0.00000000000E+00  0.94459062783E+01  0.94459062783E+01  0.00000000000E+00 0.  1.
          2   -1    0    0  504    0 -0.00000000000E+00 -0.00000000000E+00 -0.51342633744E+04  0.51342633744E+04  0.00000000000E+00 0. -1.
         21    1    1    2  503  505  0.46188924566E+02  0.51328824241E+01 -0.16458916205E+03  0.17102442954E+03  0.00000000000E+00 0.  1.
         21    1    1    2  504  503  0.37989455809E+02  0.34901705519E+02 -0.79578178707E+03  0.79745218066E+03  0.00000000000E+00 0.  1.
         21    1    1    2  505  502  0.76034689497E+02 -0.40698519710E+02 -0.50729656927E+03  0.51457502146E+03  0.00000000000E+00 0.  1.
          2    1    1    2  501    0 -0.16021306987E+03  0.66393176708E+00 -0.36571499497E+04  0.36606576490E+04  0.00000000000E+00 0. -1.
<scales pt_clust_3="36.05698" pt_clust_4="51.58806" pt_clust_5="36.05698" pt_clust_6="131.65611"></scales>
<clustering>
<clus scale="   36.057">  3  5 -1 -1</clus>
<clus scale="   51.588">  2  4  1 -1</clus>
<clus scale="  131.656">  2  6  1 -1</clus>
<clus scale="  140.520">  1  3  2 -1</clus>
</clustering>
</event>
<event>
 6    0  0.2781617E+002  0.1978183E+03  0.7546771E-02  0.1151593E+00
         21   -1    0    0  505  502  0.00000000000E+00  0.00000000000E+00  0.29636076009E+03  0.29636076009E+03  0.00000000000E+00 0. -1.
         -1   -1    0    0    0  501 -0.00000000000E+00 -0.00000000000E+00 -0.43542284794E+03  0.43542284794E+03  0.00000000000E+00 0. -1.
         21    1    1    2  503  502  0.73993041502E+02  0.10549930792E+03  0.65531877380E+02  0.14456659751E+03  0.00000000000E+00 0. -1.
         21    1    1    2  504  503  0.85044207447E+01  0.86855204395E+02  0.27773177068E+02  0.91583301247E+02  0.00000000000E+00 0. -1.
         21    1    1    2  505  501 -0.46282358901E+02 -0.16773650150E+03  0.71868870444E+02  0.18826238397E+03  0.00000000000E+00 0. -1.
         -1    1    1    2    0  504 -0.36215103345E+02 -0.24618010822E+02 -0.30423601274E+03  0.30737132530E+03  0.00000000000E+00 0. -1.
<scales pt_clust_3="47.51723" pt_clust_4="47.51723" pt_clust_5="189.41290" pt_clust_6="43.79018"></scales>
<clustering>
<clus scale="   43.790">  2  6  1 -1</clus>
<clus scale="   47.517">  3  4 -1 -1</clus>
<clus scale="  189.413">  1  5  2 -1</clus>
<clus scale="  189.413">  1  3  2 -1</clus>
</clustering>
</event>
<event>
 6    0  0.2781617E+002  0.2114410E+03  0.7546771E-02  0.1140430E+00
          2   -1    0    0  505    0 -0.00000000000E+00  0.00000000000E+00  0.15111144501E+04  0.15111144501E+04  0.00000000000E+00 0. -1.
         21   -1    0    0  503  502  0.00000000000E+00 -0.00000000000E+00 -0.16503476256E+03  0.16503476256E+03  0.00000000000E+00 0.  1.
         21    1    1    2  503  501 -0.42161369234E+02 -0.44582511574E+02 -0.46321467562E+02  0.76882115938E+02  0.00000000000E+00 0.  1.
         21    1    1    2  504  502  0.20240769555E+02  0.40272776342E+02  0.78397710369E+00  0.45079927757E+02  0.00000000000E+00 0. -1.
         21    1    1    2  505  504  0.19859209379E+03 -0.10875034676E+03  0.10323572158E+03  0.24884346856E+03  0.00000000000E+00 0.  1.
          2    1    1    2  501    0 -0.17667149411E+03  0.11306008199E+03  0.12883814564E+04  0.13053437004E+04  0.00000000000E+00 0. -1.
<scales pt_clust_3="43.11420" pt_clust_4="45.07311" pt_clust_5="14000.00000" pt_clust_6="211.44101"></scales>
<clustering>
<clus scale="   45.073">  2  4  1 -1</clus>
<clus scale="   43.114">  2  3  1 -1</clus>
<clus scale="  211.441">  1  6  2 -1</clus>
<clus scale="   45.073">  2  3  1 -1</clus>
</clustering>
</event>
<event>
 6    0  0.2781617E+002  0.9200071E+02  0.7546771E-02  0.1298078E+00
         21   -1    0    0  504  502  0.00000000000E+00  0.00000000000E+00  0.18580855800E+03  0.18580855800E+03  0.00000000000E+00 0.  1.
          2   -1    0    0  505    0 -0.00000000000E+00 -0.00000000000E+00 -0.12770029865E+04  0.12770029865E+04  0.00000000000E+00 0. -1.
         21    1    1    2  503  502 -0.49833532440E+02  0.18989039720E+02 -0.36364771659E+01  0.53452675808E+02  0.00000000000E+00 0.  1.
         21    1    1    2  504  501  0.87963236234E+02 -0.24680672025E+02  0.87349895060E+02  0.12639885548E+03  0.00000000000E+00 0.  1.
         21    1    1    2  505  503  0.13975649963E+02 -0.71173515333E+02  0.27055850791E+02  0.77414515039E+02  0.00000000000E+00 0.  1.
          2    1    1    2  501    0 -0.52105353757E+02  0.76865147639E+02 -0.12019636972E+04  0.12055454982E+04  0.00000000000E+00 0. -1.
<scales pt_clust_3="53.32883" pt_clust_4="56.17401" pt_clust_5="92.00071" pt_clust_6="14000.00000"></scales>
<clustering>
<clus scale="   53.329">  1  3  2 -1</clus>
<clus scale="   56.174">  1  4  2 -1</clus>
<clus scale="   92.001">  1  5  2 -1</clus>
<clus scale="   53.329">  1  3  2 -1</clus>
</clustering>
</event>
<event>
 6    0  0.6554469E+002  0.1044806E+03  0.7546771E-02  0.1271146E+00
         21   -1    0    0  503  502  0.00000000000E+00  0.00000000000E+00  0.15589139936E+03  0.15589139936E+03  0.00000000000E+00 0.  1.
          2   -1    0    0  502    0 -0.00000000000E+00 -0.00000000000E+00 -0.33121291878E+04  0.33121291878E+04  0.00000000000E+00 0. -1.
         21    1    1    2  503  505  0.17185829691E+02  0.25833870273E+02  0.58315082655E+01  0.31571317427E+02  0.00000000000E+00 0. -1.
         21    1    1    2  504  501 -0.60912621810E+02  0.11372539715E+02 -0.17495532105E+03  0.18560454337E+03  0.00000000000E+00 0.  1.
         21    1    1    2  505  504  0.92337227881E+02 -0.56682989120E+02  0.10935066639E+03  0.15393730265E+03  0.00000000000E+00 0.  1.
          2    1    1    2  501    0 -0.48610435762E+02  0.19476579132E+02 -0.30964646421E+04  0.30969074237E+04  0.00000000000E+00 0. -1.
<scales pt_clust_3="31.02808" pt_clust_4="14000.00000" pt_clust_5="104.48058" pt_clust_6="52.35687"></scales>
<clustering>
<clus scale="   31.028">  1  3  2 -1</clus>
<clus scale="   52.357">  2  6  1 -1</clus>
<clus scale="  104.481">  1  5  2 -1</clus>
<clus scale="   31.028">  1  3  2 -1</clus>
</clustering>
</event>
<event>
 6    0  0.2781617E+002  0.1691902E+03  0.7546771E-02  0.1178695E+00
         21   -1    0    0  505  502  0.00000000000E+00  0.00000000000E+00  0.39380726053E+02  0.39380726053E+02  0.00000000000E+00 0.  1.
          2   -1    0    0  503    0 -0.00000000000E+00 -0.00000000000E+00 -0.19472899623E+04  0.19472899623E+04  0.00000000000E+00 0. -1.
         21    1    1    2  503  504  0.53691310145E+02 -0.33247150820E+01 -0.85279386317E+02  0.10082848926E+03  0.00000000000E+00 0.  1.
         21    1    1    2  504  502  0.63215014144E+02 -0.43608027961E+02 -0.50855711158E+02  0.92109182350E+02  0.00000000000E+00 0.  1.
         21    1    1    2  505  501  0.50688535574E+02  0.63746507952E+02 -0.25633484913E+03  0.26896189282E+03  0.00000000000E+00 0.  1.
          2    1    1    2  501    0 -0.16759485986E+03 -0.16813764910E+02 -0.15154392896E+04  0.15247711239E+04  0.00000000000E+00 0. -1.
<scales pt_clust_3="44.46364" pt_clust_4="44.46364" pt_clust_5="81.44289" pt_clust_6="160.63291"></scales>
<clustering>
<clus scale="   44.464">  3  4 -1 -1</clus>
<clus scale="   81.443">  1  5  2 -1</clus>
<clus scale="  160.633">  2  6  1 -1</clus>
<clus scale="   81.443">  1  3  2 -1</clus>
</clustering>
</event>
<event>
 6    0  0.2781617E+002  0.1267415E+03  0.7546771E-02  0.1232372E+00
         21   -1    0    0  504  502  0.00000000000E+00  0.00000000000E+00  0.41855413717E+02  0.41855413717E+02  0.00000000000E+00 0. -1.
          2   -1    0    0  503    0 -0.00000000000E+00 -0.00000000000E+00 -0.14812852691E+04  0.14812852691E+04  0.00000000000E+00 0.  1.
         21    1    1    2  503  502  0.58055110236E+02 -0.10515728225E+03 -0.20103894603E+03  0.23419032358E+03  0.00000000000E+00 0. -1.
         21    1    1    2  504  505 -0.45917942043E+02  0.22332621197E+02 -0.13219129872E+03  0.14171006608E+03  0.00000000000E+00 0. -1.
         21    1    1    2  505  501  0.72422401161E+02 -0.14402686669E+02 -0.65838934890E+02  0.98930313457E+02  0.00000000000E+00 0.  1.
          2    1    1    2  501    0 -0.84559569354E+02  0.97227347726E+02 -0.10403606757E+04  0.10483099797E+04  0.00000000000E+00 0.  1.
<scales pt_clust_3="14000.00000" pt_clust_4="51.06078" pt_clust_5="52.13151" pt_clust_6="126.74149"></scales>
<clustering>
<clus scale="   51.061">  1  4  2 -1</clus>
<clus scale="   52.132">  1  5  2 -1</clus>
<clus scale="  126.741">  2  6  1 -1</clus>
<clus scale="   51.061">  1  3  2 -1</clus>
</clustering>
</event>
<event>
 6    0  0.2781617E+002  0.6355449E+02  0.7546771E-02  0.1383493E+00
          2   -1    0    0  503    0 -0.00000000000E+00  0.00000000000E+00  0.40064316344E+04  0.40064316344E+04  0.00000000000E+00 0. -1.
         21   -1    0    0  504  502  0.00000000000E+00 -0.00000000000E+00 -0.31148827295E+02  0.31148827295E+02  0.00000000000E+00 0. -1.
         21    1    1    2  503  505 -0.98265810756E+02  0.57925680083E+02  0.14590837475E+03  0.18520477261E+03  0.00000000000E+00 0. -1.
         21    1    1    2  504  501  0.48855485622E+02  0.20366891095E+02  0.28546381974E+03  0.29032957326E+03  0.00000000000E+00 0.  1.
         21    1    1    2  505  502 -0.12025766014E+02 -0.64827676729E+02  0.11501220706E+03  0.13257094135E+03  0.00000000000E+00 0. -1.
          2    1    1    2  501    0  0.61436091147E+02 -0.13464894449E+02  0.34288984056E+04  0.34294751745E+04  0.00000000000E+00 0. -1.
<scales pt_clust_3="14000.00000" pt_clust_4="52.93079" pt_clust_5="58.67313" pt_clust_6="63.55449"></scales>
<clustering>
<clus scale="   52.931">  2  4  1 -1</clus>
<clus scale="   58.673">  2  5  1 -1</clus>
<clus scale="   63.554">  1  6  2 -1</clus>
<clus scale="   52.931">  2  3  1 -1</clus>
</clustering>
</event>
<event>
 6    0  0.2781617E+002  0.1292565E+03  0.7546771E-02  0.1228563E+00
         -2   -1    0    0    0  501 -0.00000000000E+00  0.00000000000E+00  0.17935778192E+03  0.17935778192E+03  0.00000000000E+00 0.  1.
         21   -1    0    0  504  502  0.00000000000E+00 -0.00000000000E+00 -0.91054087399E+03  0.91054087399E+03  0.00000000000E+00 0. -1.
         21    1    1    2  503  502 -0.48891844465E+02 -0.12519661977E+03 -0.84536511012E+03  0.85598292943E+03  0.00000000000E+00 0. -1.
         21    1    1    2  504  501 -0.14102944031E+02  0.27188555855E+02 -0.14450946622E+02  0.33866509388E+02  0.00000000000E+00 0.  1.
         21    1    1    2  505  503  0.28821830429E+02  0.74987419777E+02  0.18468163496E+02  0.82431086957E+02  0.00000000000E+00 0.  1.
         -2    1    1    2    0  505  0.34172958068E+02  0.23020644141E+02  0.11016480118E+03  0.11761813014E+03  0.00000000000E+00 0.  1.
<scales pt_clust_3="14000.00000" pt_clust_4="30.62859" pt_clust_5="129.25649" pt_clust_6="48.10222"></scales>
<clustering>
<clus scale="   30.629">  1  4  2 -1</clus>
<clus scale="   48.102">  1  6  2 -1</clus>
<clus scale="  129.256">  1  5  2 -1</clus>
<clus scale="  129.256">  2  3  1 -1</clus>
</clustering>
</event>
<event>
 6    0  0.2781617E+002  0.1015454E+03  0.7546771E-02  0.1277079E+00
         -1   -1    0    0    0  501 -0.00000000000E+00  0.00000000000E+00  0.19098838505E+03  0.19098838505E+03  0.00000000000E+00 0. -1.
         21   -1    0    0  505  502  0.00000000000E+00 -0.00000000000E+00 -0.16938318523E+03  0.16938318523E+03  0.00000000000E+00 0.  1.
         21    1    1    2  503  504  0.30574739891E+02 -0.41645164635E+02 -0.44592036328E+02  0.68246495593E+02  0.00000000000E+00 0.  1.
         21    1    1    2  504  502  0.67837791574E+02 -0.86589533373E+01 -0.50316881469E+02  0.84904251950E+02  0.00000000000E+00 0.  1.
         21    1    1    2  505  501 -0.35254031424E+02  0.63706642114E+02 -0.13590179084E+01  0.72823278632E+02  0.00000000000E+00 0. -1.
         -1    1    1    2    0  503 -0.63158500041E+02 -0.13402524142E+02  0.11787313553E+03  0.13439754410E+03  0.00000000000E+00 0. -1.
<scales pt_clust_3="41.06211" pt_clust_4="41.06211" pt_clust_5="89.88632" pt_clust_6="64.56488"></scales>
<clustering>
<clus scale="   41.062">  3  4 -1 -1</clus>
<clus scale="   64.565">  1  6  2 -1</clus>
<clus scale="   89.886">  1  5  2 -1</clus>
<clus scale="  101.545">  2  3  1 -1</clus>
</clustering>
</event>
<event>
 6    0  0.2781617E+002  0.3295005E+03  0.7546771E-02  0.1071358E+00
          4   -1    0    0  502    0 -0.00000000000E+00  0.00000000000E+00  0.24847693489E+04  0.24847693489E+04  0.00000000000E+00 0.  1.
         21   -1    0    0  505  502  0.00000000000E+00 -0.00000000000E+00 -0.41369848025E+03  0.41369848025E+03  0.00000000000E+00 0.  1.
         21    1    1    2  503  501  0.24888680181E+01 -0.46261461858E+02  0.13485651501E+02  0.48251218779E+02  0.00000000000E+00 0.  1.
         21    1    1    2  504  503 -0.25701168415E+01 -0.34978405924E+03 -0.24944766019E+03  0.42962731382E+03  0.00000000000E+00 0.  1.
         21    1    1    2  505  504  0.94365446463E+02  0.10865674723E+03  0.64423147988E+02  0.15767519843E+03  0.00000000000E+00 0.  1.
          4    1    1    2  501    0 -0.94284197640E+02  0.28738877387E+03  0.22426097294E+04  0.22629140982E+04  0.00000000000E+00 0.  1.
<scales pt_clust_3="45.79990" pt_clust_4="45.79990" pt_clust_5="143.91361" pt_clust_6="304.52061"></scales>
<clustering>
<clus scale="   45.800">  3  4 -1 -1</clus>
<clus scale="  143.914">  2  5  1 -1</clus>
<clus scale="  304.521">  1  6  2 -1</clus>
<clus scale="  143.914">  2  3  1 -1</clus>
</clustering>
</event>
<event>
 6    0  0.2781617E+002  0.8402937E+02  0.7546771E-02  0.1317991E+00
         21   -1    0    0  504  502  0.00000000000E+00  0.00000000000E+00  0.50220284187E+03  0.50220284187E+03  0.00000000000E+00 0. -1.
          2   -1    0    0  503    0 -0.00000000000E+00 -0.00000000000E+00 -0.25426552293E+04  0.25426552293E+04  0.00000000000E+00 0.  1.
         21    1    1    2  503  502 -0.67930433449E+01  0.82318137529E+02  0.33437759096E+03  0.34442821391E+03  0.00000000000E+00 0. -1.
         21    1    1    2  504  505 -0.28184503291E+02 -0.94441818390E+02  0.47195502815E+02  0.10927506016E+03  0.00000000000E+00 0. -1.
         21    1    1    2  505  501  0.75344091588E+02  0.14550438517E+02  0.66958411546E+02  0.10184240902E+03  0.00000000000E+00 0. -1.
          2    1    1    2  501    0 -0.40366544952E+02 -0.24267576561E+01 -0.24889838928E+04  0.24893123881E+04  0.00000000000E+00 0.  1.
<scales pt_clust_3="14000.00000" pt_clust_4="84.02937" pt_clust_5="63.68962" pt_clust_6="40.43943"></scales>
<clustering>
<clus scale="   40.439">  2  6  1 -1</clus>
<clus scale="   63.690">  2  5  1 -1</clus>
<clus scale="   84.029">  2  4  1 -1</clus>
<clus scale="   84.029">  1  3  2 -1</clus>
</clustering>
</event>
<event>
 6    0  0.2781617E+002  0.8947020E+02  0.7546771E-02  0.1304140E+00
         21   -1    0    0  505  502  0.00000000000E+00  0.00000000000E+00  0.22840040881E+03  0.22840040881E+03  0.00000000000E+00 0. -1.
          1   -1    0    0  503    0 -0.00000000000E+00 -0.00000000000E+00 -0.39074865544E+03  0.39074865544E+03  0.00000000000E+00 0. -1.
         21    1    1    2  503  504 -0.22764084888E+02 -0.59451763629E+02  0.31825618098E+02  0.71172928327E+02  0.00000000000E+00 0. -1.
         21    1    1    2  504  502 -0.47877852769E+02 -0.41230828533E+02  0.98558398821E+02  0.11707274655E+03  0.00000000000E+00 0. -1.
         21    1    1    2  505  501  0.37032262052E+02  0.14521362945E+02  0.56799613090E+02  0.69343020281E+02  0.00000000000E+00 0. -1.
          1    1    1    2  501    0  0.33609675605E+02  0.86161229217E+02 -0.34953187664E+03  0.36156036910E+03  0.00000000000E+00 0. -1.
<scales pt_clust_3="89.47020" pt_clust_4="39.64578" pt_clust_5="39.77761" pt_clust_6="14000.00000"></scales>
<clustering>
<clus scale="   39.778">  1  5  2 -1</clus>
<clus scale="   39.646">  1  4  2 -1</clus>
<clus scale="   89.470">  1  3  2 -1</clus>
<clus scale="   39.778">  1  3  2 -1</clus>
</clustering>
</event>
<event>
 6    0  0.2781617E+002  0.1293730E+03  0.7546771E-02  0.1228389E+00
          2   -1    0    0  504    0 -0.00000000000E+00  0.00000000000E+00  0.16544390721E+04  0.16544390721E+04  0.00000000000E+00 0.  1.
         21   -1    0    0  503  502  0.00000000000E+00 -0.00000000000E+00 -0.23359566915E+03  0.23359566915E+03  0.00000000000E+00 0. -1.
         21    1    1    2  503  501  0.33917763164E+02  0.16576151240E+02 -0.39140013075E+02  0.54379445303E+02  0.00000000000E+00 0.  1.
         21    1    1    2  504  505 -0.80005001545E+02  0.77684102934E+02  0.24204523195E+02  0.11411169556E+03  0.00000000000E+00 0.  1.
         21    1    1    2  505  502  0.89307378327E+02 -0.97544636953E+02 -0.11069346200E+03  0.17246392826E+03  0.00000000000E+00 0. -1.
          2    1    1    2  501    0 -0.43220139945E+02  0.32843827786E+01  0.15464723548E+04  0.15470796721E+04  0.00000000000E+00 0.  1.
<scales pt_clust_3="37.75160" pt_clust_4="14000.00000" pt_clust_5="129.37298" pt_clust_6="43.29184"></scales>
<clustering>
<clus scale="   37.752">  2  3  1 -1</clus>
<clus scale="   43.292">  1  6  2 -1</clus>
<clus scale="  129.373">  2  5  1 -1</clus>
<clus scale="   37.752">  2  3  1 -1</clus>
</clustering>
</event>
<event>
 6    0  0.2781617E+002  0.1904656E+03  0.7546771E-02  0.1158042E+00
          1   -1    0    0  502    0 -0.00000000000E+00  0.00000000000E+00  0.12885040915E+04  0.12885040915E+04  0.00000000000E+00 0. -1.
         21   -1    0    0  503  502  0.00000000000E+00 -0.00000000000E+00 -0.21996744733E+03  0.21996744733E+03  0.00000000000E+00 0.  1.
         21    1    1    2  503  505  0.32749771794E+01 -0.54883659307E+02 -0.35896127780E+02  0.65661811763E+02  0.00000000000E+00 0.  1.
         21    1    1    2  504  501 -0.70578817191E+02 -0.62377991331E+02 -0.88560901086E+02  0.12928811407E+03  0.00000000000E+00 0.  1.
         21    1    1    2  505  504 -0.60137525326E+02 -0.20921274610E+02 -0.34020717213E+02  0.72191626130E+02  0.00000000000E+00 0.  1.
          1    1    1    2  501    0  0.12744136534E+03  0.13818292525E+03  0.12270143903E+04  0.12413299869E+04  0.00000000000E+00 0. -1.
<scales pt_clust_3="54.98128" pt_clust_4="32.28878" pt_clust_5="32.28878" pt_clust_6="186.37286"></scales>
<clustering>
<clus scale="   32.289">  4  5 -1 -1</clus>
<clus scale="   54.981">  2  3  1 -1</clus>
<clus scale="  186.373">  1  6  2 -1</clus>
<clus scale="   54.981">  2  3  1 -1</clus>
</clustering>
</event>
<event>
 6    0  0.2781617E+002  0.3042436E+03  0.7546771E-02  0.1083138E+00
         -3   -1    0    0    0  501 -0.00000000000E+00  0.00000000000E+00  0.27804844020E+03  0.27804844020E+03  0.00000000000E+00 0. -1.
         21   -1    0    0  505  502  0.00000000000E+00 -0.00000000000E+00 -0.60172200854E+03  0.60172200854E+03  0.00000000000E+00 0.  1.
         21    1    1    2  503  504  0.37771303097E+02 -0.86762644555E+02 -0.17088887700E+03  0.19533928460E+03  0.00000000000E+00 0. -1.
         21    1    1    2  504  502 -0.53218004984E+02 -0.18243342441E+03 -0.16807414151E+03  0.25369869420E+03  0.00000000000E+00 0. -1.
         21    1    1    2  505  501  0.45843999210E+01  0.30173508429E+03 -0.94091388765E+02  0.31609850878E+03  0.00000000000E+00 0.  1.
         -3    1    1    2    0  503  0.10862301966E+02 -0.32539015332E+02  0.10938083893E+03  0.11463396115E+03  0.00000000000E+00 0. -1.
<scales pt_clust_3="83.11080" pt_clust_4="83.11080" pt_clust_5="280.23225" pt_clust_6="34.30419"></scales>
<clustering>
<clus scale="   34.304">  1  6  2 -1</clus>
<clus scale="   83.111">  3  4 -1 -1</clus>
<clus scale="  280.232">  1  5  2 -1</clus>
<clus scale="  304.244">  2  3  1 -1</clus>
</clustering>
</event>
<event>
 6    0  0.2781617E+002  0.9903703E+02  0.7546771E-02  0.1282334E+00
         21   -1    0    0  505  502  0.00000000000E+00  0.00000000000E+00  0.62882834347E+03  0.62882834347E+03  0.00000000000E+00 0. -1.
          2   -1    0    0  504    0 -0.00000000000E+00 -0.00000000000E+00 -0.33955847583E+03  0.33955847583E+03  0.00000000000E+00 0.  1.
         21    1    1    2  503  501  0.46356851533E+02  0.32836850900E+02  0.61944084269E+02  0.84049307178E+02  0.00000000000E+00 0. -1.
         21    1    1    2  504  502 -0.58120519744E+02 -0.38916470914E+02  0.34247548758E+03  0.34954534200E+03  0.00000000000E+00 0. -1.
         21    1    1    2  505  503  0.67752913189E+02  0.15521851007E+02  0.20146908658E+03  0.21312244826E+03  0.00000000000E+00 0. -1.
          2    1    1    2  501    0 -0.55989244979E+02 -0.94422309939E+01 -0.31661879079E+03  0.32166972186E+03  0.00000000000E+00 0.  1.
<scales pt_clust_3="53.97789" pt_clust_4="79.01507" pt_clust_5="53.97789" pt_clust_6="56.77985"></scales>
<clustering>
<clus scale="   53.978">  3  5 -1 -1</clus>
<clus scale="   56.780">  2  6  1 -1</clus>
<clus scale="   79.015">  1  4  2 -1</clus>
<clus scale="   79.015">  1  3  2 -1</clus>
</clustering>
</event>
<event>
 6    0  0.2781617E+002  0.8357796E+02  0.7546771E-02  0.1319194E+00
         21   -1    0    0  504  502  0.00000000000E+00  0.00000000000E+00  0.15535999854E+02  0.15535999854E+02  0.00000000000E+00 0.  1.
          2   -1    0    0  505    0 -0.00000000000E+00 -0.00000000000E+00 -0.26675098595E+04  0.26675098595E+04  0.00000000000E+00 0.  1.
         21    1    1    2  503  501 -0.22321289345E+02  0.10256719476E+03 -0.91927654282E+03  0.92525003733E+03  0.00000000000E+00 0.  1.
         21    1    1    2  504  503 -0.55508772563E+02 -0.65679744196E+02 -0.15803930254E+03  0.17992074304E+03  0.00000000000E+00 0.  1.
         21    1    1    2  505  502  0.39338169610E+02  0.53247142706E+01 -0.44262336546E+03  0.44439991879E+03  0.00000000000E+00 0. -1.
          2    1    1    2  501    0  0.38491892299E+02 -0.42212164832E+02 -0.11320346489E+04  0.11334751602E+04  0.00000000000E+00 0.  1.
<scales pt_clust_3="83.57796" pt_clust_4="14000.00000" pt_clust_5="39.69690" pt_clust_6="70.61019"></scales>
<clustering>
<clus scale="   39.697">  2  5  1 -1</clus>
<clus scale="   70.610">  2  6  1 -1</clus>
<clus scale="   83.578">  2  3  1 -1</clus>
<clus scale="   83.578">  1  3  2 -1</clus>
</clustering>
</event>
<event>
 6    0  0.2781617E+002  0.1130940E+03  0.7546771E-02  0.1254945E+00
          4   -1    0    0  504    0 -0.00000000000E+00  0.00000000000E+00  0.59832487436E+03  0.59832487436E+03  0.00000000000E+00 0. -1.
         21   -1    0    0  505  502  0.00000000000E+00 -0.00000000000E+00 -0.13918118832E+03  0.13918118832E+03  0.00000000000E+00 0.  1.
         21    1    1    2  503  502  0.57767568034E+02 -0.10769776071E+02 -0.54716185039E+01  0.59017104319E+02  0.00000000000E+00 0. -1.
         21    1    1    2  504  503  0.48439713235E+02 -0.91659494977E+02 -0.23587685374E+02  0.10632143593E+03  0.00000000000E+00 0.  1.
         21    1    1    2  505  501 -0.70781172034E+02  0.21957760242E+02 -0.20059039597E+01  0.74135964282E+02  0.00000000000E+00 0.  1.
          4    1    1    2  501    0 -0.35426109235E+02  0.80471510806E+02  0.49020889388E+03  0.49803155814E+03  0.00000000000E+00 0. -1.
<scales pt_clust_3="51.72754" pt_clust_4="51.72754" pt_clust_5="74.10882" pt_clust_6="89.83094"></scales>
<clustering>
<clus scale="   51.728">  3  4 -1 -1</clus>
<clus scale="   74.109">  2  5  1 -1</clus>
<clus scale="   89.831">  1  6  2 -1</clus>
<clus scale="   74.109">  2  3  1 -1</clus>
</clustering>
</event>
<event>
 6    0  0.2781617E+002  0.1221318E+03  0.7546771E-02  0.1239621E+00
          2   -1    0    0  505    0 -0.00000000000E+00  0.00000000000E+00  0.16917076887E+04  0.16917076887E+04  0.00000000000E+00 0. -1.
         21   -1    0    0  504  502  0.00000000000E+00 -0.00000000000E+00 -0.42890997370E+03  0.42890997370E+03  0.00000000000E+00 0.  1.
         21    1    1    2  503  502 -0.28187716749E+02 -0.77473264952E+02 -0.22861041798E+03  0.24302135167E+03  0.00000000000E+00 0.  1.
         21    1    1    2  504  501 -0.32404964137E+02  0.93877647543E+02 -0.98285958114E+01  0.99798275058E+02  0.00000000000E+00 0.  1.
         21    1    1    2  505  503 -0.30939330666E+02 -0.79800207373E+02 -0.12294602083E+03  0.14980333547E+03  0.00000000000E+00 0.  1.
          2    1    1    2  501    0  0.91532011552E+02  0.63395824783E+02  0.16241827496E+04  0.16279947002E+04  0.00000000000E+00 0. -1.
<scales pt_clust_3="48.95794" pt_clust_4="99.31311" pt_clust_5="48.95794" pt_clust_6="111.48011"></scales>
<clustering>
<clus scale="   48.958">  3  5 -1 -1</clus>
<clus scale="   99.313">  2  4  1 -1</clus>
<clus scale="  111.480">  1  6  2 -1</clus>
<clus scale="   99.313">  2  3  1 -1</clus>
</clustering>
</event>
<event>
 6    0  0.2781617E+002  0.1731158E+03  0.7546771E-02  0.1174637E+00
          2   -1    0    0  504    0 -0.00000000000E+00  0.00000000000E+00  0.93164820736E+03  0.93164820736E+03  0.00000000000E+00 0.  1.
         21   -1    0    0  503  502  0.00000000000E+00 -0.00000000000E+00 -0.10513688754E+04  0.10513688754E+04  0.00000000000E+00 0. -1.
         21    1    1    2  503  501  0.54544343274E+02 -0.35554326970E+02 -0.13004683892E+03  0.14543512596E+03  0.00000000000E+00 0. -1.
         21    1    1    2  504  505 -0.90408545718E+02  0.91275045098E+02 -0.15140689296E+02  0.12936027006E+03  0.00000000000E+00 0. -1.
         21    1    1    2  505  502  0.79078256526E+02 -0.10616917287E+03 -0.83488188529E+03  0.84531238386E+03  0.00000000000E+00 0. -1.
          2    1    1    2  501    0 -0.43214054082E+02  0.50448454741E+02  0.86034874550E+03  0.86290930284E+03  0.00000000000E+00 0.  1.
<scales pt_clust_3="65.10910" pt_clust_4="14000.00000" pt_clust_5="173.11575" pt_clust_6="66.33910"></scales>
<clustering>
<clus scale="   65.109">  2  3  1 -1</clus>
<clus scale="   66.339">  1  6  2 -1</clus>
<clus scale="  173.116">  2  5  1 -1</clus>
<clus scale="   65.109">  2  3  1 -1</clus>
</clustering>
</event>
<event>
 6    0  0.2781617E+002  0.9501326E+02  0.7546771E-02  0.1291146E+00
          2   -1    0    0  505    0 -0.00000000000E+00  0.00000000000E+00  0.18311256761E+04  0.18311256761E+04  0.00000000000E+00 0.  1.
         21   -1    0    0  503  502  0.00000000000E+00 -0.00000000000E+00 -0.31038160425E+03  0.31038160425E+03  0.00000000000E+00 0. -1.
         21    1    1    2  503  501  0.10173089095E+03  0.11903247645E+03 -0.22421404081E+03  0.27347731299E+03  0.00000000000E+00 0. -1.
         21    1    1    2  504  502 -0.20994360411E+02 -0.68633832053E+02 -0.24354593273E+02  0.75792560881E+02  0.00000000000E+00 0. -1.
         21    1    1    2  505  504 -0.35307524466E+02 -0.85445718330E+02  0.18432747503E+03  0.20621399107E+03  0.00000000000E+00 0.  1.
          2    1    1    2  501    0 -0.45429006076E+02  0.35047073932E+02  0.15849852309E+04  0.15860234154E+04  0.00000000000E+00 0.  1.
<scales pt_clust_3="95.01326" pt_clust_4="69.88172" pt_clust_5="14000.00000" pt_clust_6="57.37675"></scales>
<clustering>
<clus scale="   57.377">  1  6  2 -1</clus>
<clus scale="   69.882">  2  4  1 -1</clus>
<clus scale="   95.013">  2  3  1 -1</clus>
<clus scale="   69.882">  2  3  1 -1</clus>
</clustering>
</event>
<event>
 6    0  0.2781617E+002  0.6559151E+02  0.7546771E-02  0.1375760E+00
         21   -1    0    0  504  502  0.00000000000E+00  0.00000000000E+00  0.36560315403E+02  0.36560315403E+02  0.00000000000E+00 0.  1.
          2   -1    0    0  503    0 -0.00000000000E+00 -0.00000000000E+00 -0.94338594327E+03  0.94338594327E+03  0.00000000000E+00 0. -1.
         21    1    1    2  503  502  0.10367170724E+02  0.29576711896E+02 -0.41647549755E+02  0.52122725523E+02  0.00000000000E+00 0. -1.
         21    1    1    2  504  505  0.41223837256E+02 -0.21402054668E+02 -0.47424493314E+02  0.66381738966E+02  0.00000000000E+00 0.  1.
         21    1    1    2  505  501 -0.11052168891E+03  0.12899096351E+02 -0.13115750883E+03  0.17199919339E+03  0.00000000000E+00 0.  1.
          2    1    1    2  501    0  0.58930680931E+02 -0.21073753579E+02 -0.68659607597E+03  0.68944260079E+03  0.00000000000E+00 0. -1.
<scales pt_clust_3="31.34103" pt_clust_4="46.07550" pt_clust_5="14000.00000" pt_clust_6="65.59151"></scales>
<clustering>
<clus scale="   31.341">  1  3  2 -1</clus>
<clus scale="   46.075">  1  4  2 -1</clus>
<clus scale="   65.592">  2  6  1 -1</clus>
<clus scale="   31.341">  1  3  2 -1</clus>
</clustering>
</event>
<event>
 6    0  0.2781617E+002  0.1412710E+03  0.7546771E-02  0.1211629E+00
         21   -1    0    0  501  502  0.00000000000E+00  0.00000000000E+00  0.27976255690E+03  0.27976255690E+03  0.00000000000E+00 0.  1.
          1   -1    0    0  503    0 -0.00000000000E+00 -0.00000000000E+00 -0.11331972217E+04  0.11331972217E+04  0.00000000000E+00 0.  1.
         21    1    1    2  503  504  0.56899001997E+02  0.34536479143E+02 -0.13729140172E+03  0.15257520705E+03  0.00000000000E+00 0.  1.
         21    1    1    2  504  505 -0.80748054429E+02  0.53167284235E+02  0.16630596387E+03  0.19236601057E+03  0.00000000000E+00 0.  1.
         21    1    1    2  505  502 -0.12624230319E+02  0.42986080474E+02  0.82337736289E+02  0.93737277125E+02  0.00000000000E+00 0.  1.
          1    1    1    2  501    0  0.36473282751E+02 -0.13068984385E+03 -0.96478696328E+03  0.97428128390E+03  0.00000000000E+00 0.  1.
<scales pt_clust_3="66.56023" pt_clust_4="30.95323" pt_clust_5="30.95323" pt_clust_6="133.75328"></scales>
<clustering>
<clus scale="   30.953">  4  5 -1 -1</clus>
<clus scale="   66.560">  2  3  1 -1</clus>
<clus scale="  133.753">  2  6  1 -1</clus>
<clus scale="  141.271">  1  3  2 -1</clus>
</clustering>
</event>
<event>
 6    0  0.2781617E+002  0.1267935E+03  0.7546771E-02  0.1232293E+00
          1   -1    0    0  505    0 -0.00000000000E+00  0.00000000000E+00  0.33268749019E+04  0.33268749019E+04  0.00000000000E+00 0.  1.
         21   -1    0    0  504  502  0.00000000000E+00 -0.00000000000E+00 -0.53196660935E+03  0.53196660935E+03  0.00000000000E+00 0.  1.
         21    1    1    2  503  501  0.11295683046E+03  0.38190389972E+02 -0.26147839097E+03  0.28738249839E+03  0.00000000000E+00 0.  1.
         21    1    1    2  504  503 -0.85521491198E+02  0.47735692871E+02 -0.22777735962E+03  0.24794182258E+03  0.00000000000E+00 0.  1.
         21    1    1    2  505  502  0.13582736821E+02  0.34304800031E+02 -0.11971369711E-02  0.36895935361E+02  0.00000000000E+00 0. -1.
          1    1    1    2  501    0 -0.41018076082E+02 -0.12023088287E+03  0.32841652403E+04  0.32866212549E+04  0.00000000000E+00 0.  1.
<scales pt_clust_3="126.79350" pt_clust_4="101.61499" pt_clust_5="36.89594" pt_clust_6="14000.00000"></scales>
<clustering>
<clus scale="   36.896">  2  5  1 -1</clus>
<clus scale="  101.615">  2  4  1 -1</clus>
<clus scale="  126.794">  2  3  1 -1</clus>
<clus scale="   36.896">  2  3  1 -1</clus>
</clustering>
</event>
<event>
 6    0  0.2781617E+002  0.1800991E+03  0.7546771E-02  0.1167707E+00
          1   -1    0    0  505    0 -0.00000000000E+00  0.00000000000E+00  0.14465315854E+04  0.14465315854E+04  0.00000000000E+00 0. -1.
         21   -1    0    0  504  502  0.00000000000E+00 -0.00000000000E+00 -0.12656136907E+03  0.12656136907E+03  0.00000000000E+00 0.  1.
         21    1    1    2  503  502 -0.33907621522E+02 -0.18096071523E+02  0.46601374610E+02  0.60405982463E+02  0.00000000000E+00 0.  1.
         21    1    1    2  504  501  0.17412841660E+03 -0.10438557614E+03  0.13683980494E+03  0.24483093389E+03  0.00000000000E+00 0. -1.
         21    1    1    2  505  503 -0.13673410870E+03  0.81017528961E+02  0.31477375304E+02  0.16202123823E+03  0.00000000000E+00 0.  1.
          1    1    1    2  501    0 -0.34866863709E+01  0.41464118701E+02  0.11050516615E+04  0.11058347999E+04  0.00000000000E+00 0. -1.
<scales pt_clust_3="38.43429" pt_clust_4="180.09911" pt_clust_5="14000.00000" pt_clust_6="41.56091"></scales>
<clustering>
<clus scale="   38.434">  2  3  1 -1</clus>
<clus scale="   41.561">  1  6  2 -1</clus>
<clus scale="  180.099">  1  4  2 -1</clus>
<clus scale="   38.434">  2  3  1 -1</clus>
</clustering>
</event>
<event>
 6    0  0.2781617E+002  0.1955550E+03  0.7546771E-02  0.1153544E+00
          2   -1    0    0  505    0 -0.00000000000E+00  0.00000000000E+00  0.29361416574E+04  0.29361416574E+04  0.00000000000E+00 0.  1.
         21   -1    0    0  503  502  0.00000000000E+00 -0.00000000000E+00 -0.34983584128E+02  0.34983584128E+02  0.00000000000E+00 0.  1.
         21    1    1    2  503  501  0.41735678000E+02  0.51960985666E+02  0.83555223426E+02  0.10687977457E+03  0.00000000000E+00 0.  1.
         21    1    1    2  504  502 -0.61297755349E+02 -0.36842388738E+02  0.30656522778E+03  0.31479678414E+03  0.00000000000E+00 0.  1.
         21    1    1    2  505  504 -0.14216731624E+02 -0.20449719323E+03  0.73587660168E+03  0.76389501267E+03  0.00000000000E+00 0.  1.
          2    1    1    2  501    0  0.33778808973E+02  0.18937859630E+03  0.17751610204E+04  0.17855536701E+04  0.00000000000E+00 0.  1.
<scales pt_clust_3="66.64691" pt_clust_4="60.61710" pt_clust_5="14000.00000" pt_clust_6="195.55501"></scales>
<clustering>
<clus scale="   66.647">  2  3  1 -1</clus>
<clus scale="   60.617">  2  4  1 -1</clus>
<clus scale="  195.555">  1  6  2 -1</clus>
<clus scale="   66.647">  2  3  1 -1</clus>
</clustering>
</event>
<event>
 6    0  0.2781617E+002  0.8500984E+02  0.7546771E-02  0.1315407E+00
         21   -1    0    0  503  502  0.00000000000E+00  0.00000000000E+00  0.94772251024E+02  0.94772251024E+02  0.00000000000E+00 0.  1.
          2   -1    0    0  505    0 -0.00000000000E+00 -0.00000000000E+00 -0.69784816312E+03  0.69784816312E+03  0.00000000000E+00 0.  1.
         21    1    1    2  503  504  0.72373219801E+02  0.26173023387E+02  0.31986140655E+02  0.83342805878E+02  0.00000000000E+00 0.  1.
         21    1    1    2  504  501  0.40683029423E+02 -0.78288862171E+02 -0.84895551927E+02  0.12243982016E+03  0.00000000000E+00 0.  1.
         21    1    1    2  505  502 -0.29160722135E+02  0.24060772939E+02 -0.94984688020E+01  0.38980628772E+02  0.00000000000E+00 0.  1.
          2    1    1    2  501    0 -0.83895527089E+02  0.28055065845E+02 -0.54066803202E+03  0.54785715933E+03  0.00000000000E+00 0.  1.
<scales pt_clust_3="67.31377" pt_clust_4="14000.00000" pt_clust_5="37.80567" pt_clust_6="85.00984"></scales>
<clustering>
<clus scale="   37.806">  1  5  2 -1</clus>
<clus scale="   67.314">  1  3  2 -1</clus>
<clus scale="   85.010">  2  6  1 -1</clus>
<clus scale="   37.806">  1  3  2 -1</clus>
</clustering>
</event>
<event>
 6    0  0.3288920E+002  0.1634185E+03  0.7546771E-02  0.1184891E+00
          1   -1    0    0  505    0 -0.00000000000E+00  0.00000000000E+00  0.15969002746E+04  0.15969002746E+04  0.00000000000E+00 0.  1.
         21   -1    0    0  503  502  0.00000000000E+00 -0.00000000000E+00 -0.70653141299E+03  0.70653141299E+03  0.00000000000E+00 0. -1.
         21    1    1    2  503  501 -0.45255496417E+02  0.11497584483E+02 -0.20233988783E+02  0.50888787635E+02  0.00000000000E+00 0. -1.
         21    1    1    2  504  502 -0.10658333162E+03 -0.77937302807E+02 -0.64277957378E+03  0.65620104406E+03  0.00000000000E+00 0. -1.
         21    1    1    2  505  504  0.66621520052E+02  0.19509278086E+02  0.40570889508E+02  0.80405447209E+02  0.00000000000E+00 0. -1.
          1    1    1    2  501    0  0.85217307990E+02  0.46930440238E+02  0.15128115347E+04  0.15159364087E+04  0.00000000000E+00 0.  1.
<scales pt_clust_3="46.69319" pt_clust_4="163.41846" pt_clust_5="68.22962" pt_clust_6="14000.00000"></scales>
<clustering>
<clus scale="   46.693">  2  3  1 -1</clus>
<clus scale="   68.230">  1  5  2 -1</clus>
<clus scale="  163.418">  2  4  1 -1</clus>
<clus scale="   46.693">  2  3  1 -1</clus>
</clustering>
</event>
<event>
 6    0  0.2781617E+002  0.1185371E+03  0.7546771E-02  0.1245530E+00
          2   -1    0    0  505    0 -0.00000000000E+00  0.00000000000E+00  0.97374292919E+03  0.97374292919E+03  0.00000000000E+00 0.  1.
         21   -1    0    0  504  502  0.00000000000E+00 -0.00000000000E+00 -0.72380355895E+02  0.72380355895E+02  0.00000000000E+00 0.  1.
         21    1    1    2  503  501  0.26609740568E+02  0.39941656180E+02  0.24399649914E+02  0.53840106866E+02  0.00000000000E+00 0.  1.
         21    1    1    2  504  503  0.55045779708E+01  0.75605683814E+02  0.82213767119E+01  0.76250316975E+02  0.00000000000E+00 0.  1.
         21    1    1    2  505  502 -0.63665629628E+02 -0.83874520062E+02  0.97535021921E+02  0.14353162722E+03  0.00000000000E+00 0.  1.
          2    1    1    2  501    0  0.31551311090E+02 -0.31672819932E+02  0.77120652475E+03  0.77250123402E+03  0.00000000000E+00 0.  1.
<scales pt_clust_3="30.57827" pt_clust_4="30.57827" pt_clust_5="112.13461" pt_clust_6="44.70629"></scales>
<clustering>
<clus scale="   30.578">  3  4 -1 -1</clus>
<clus scale="   44.706">  1  6  2 -1</clus>
<clus scale="  112.135">  1  5  2 -1</clus>
<clus scale="  118.537">  2  3  1 -1</clus>
</clustering>
</event>
<event>
 6    0  0.2781617E+002  0.8602105E+02  0.7546771E-02  0.1312784E+00
          2   -1    0    0  504    0 -0.00000000000E+00  0.00000000000E+00  0.36383352304E+04  0.36383352304E+04  0.00000000000E+00 0.  1.
         21   -1    0    0  503  502  0.00000000000E+00 -0.00000000000E+00 -0.20138400317E+03  0.20138400317E+03  0.00000000000E+00 0.  1.
         21    1    1    2  503  501 -0.24900047985E+02 -0.33113330104E+02 -0.32320340660E+02  0.52546260006E+02  0.00000000000E+00 0.  1.
         21    1    1    2  504  505  0.34278414181E+01  0.60531171607E+02 -0.18567097449E+02  0.63407491203E+02  0.00000000000E+00 0.  1.
         21    1    1    2  505  502  0.30202091088E+02  0.58482555234E+02 -0.10822308041E+03  0.12666732297E+03  0.00000000000E+00 0.  1.
          2    1    1    2  501    0 -0.87298845209E+01 -0.85900396738E+02  0.35960617458E+04  0.35970981594E+04  0.00000000000E+00 0.  1.
<scales pt_clust_3="41.43073" pt_clust_4="86.02105" pt_clust_5="36.00571" pt_clust_6="14000.00000"></scales>
<clustering>
<clus scale="   41.431">  2  3  1 -1</clus>
<clus scale="   36.006">  2  5  1 -1</clus>
<clus scale="   86.021">  2  4  1 -1</clus>
<clus scale="   41.431">  2  3  1 -1</clus>
</clustering>
</event>
<event>
 6    0  0.2781617E+002  0.1790289E+03  0.7546771E-02  0.1168746E+00
          2   -1    0    0  505    0 -0.00000000000E+00  0.00000000000E+00  0.60942722554E+03  0.60942722554E+03  0.00000000000E+00 0.  1.
         21   -1    0    0  504  502  0.00000000000E+00 -0.00000000000E+00 -0.32401235493E+03  0.32401235493E+03  0.00000000000E+00 0. -1.
         21    1    1    2  503  501 -0.32024820644E+02  0.15419267602E+02 -0.25967187337E+02  0.44018607075E+02  0.00000000000E+00 0. -1.
         21    1    1    2  504  503 -0.84928851054E+02  0.66607489116E+02 -0.22680645547E+03  0.25117849349E+03  0.00000000000E+00 0. -1.
         21    1    1    2  505  502 -0.50683722122E+02 -0.40408954886E+02 -0.80750142759E+01  0.65321735882E+02  0.00000000000E+00 0.  1.
          2    1    1    2  501    0  0.16763739382E+03 -0.41617801833E+02  0.54626352770E+03  0.57292074402E+03  0.00000000000E+00 0.  1.
<scales pt_clust_3="30.58321" pt_clust_4="30.58321" pt_clust_5="64.82070" pt_clust_6="170.91255"></scales>
<clustering>
<clus scale="   30.583">  3  4 -1 -1</clus>
<clus scale="   64.821">  2  5  1 -1</clus>
<clus scale="  170.913">  1  6  2 -1</clus>
<clus scale="   64.821">  2  3  1 -1</clus>
</clustering>
</event>
<event>
 6    0  0.2781617E+002  0.2742412E+03  0.7546771E-02  0.1098877E+00
         21   -1    0    0  501  502  0.00000000000E+00  0.00000000000E+00  0.98253199984E+03  0.98253199984E+03  0.00000000000E+00 0.  1.
          1   -1    0    0  503    0 -0.00000000000E+00 -0.00000000000E+00 -0.20943873235E+03  0.20943873235E+03  0.00000000000E+00 0.  1.
         21    1    1    2  503  504  0.97525137393E+02 -0.36136308640E+01  0.20643558047E+03  0.22834154164E+03  0.00000000000E+00 0.  1.
         21    1    1    2  504  505  0.92229264532E+02  0.10314325399E+02  0.28319070041E+03  0.29800938801E+03  0.00000000000E+00 0.  1.
         21    1    1    2  505  502  0.63163024898E+02 -0.60150895737E+01  0.38712025055E+03  0.39228540300E+03  0.00000000000E+00 0.  1.
          1    1    1    2  501    0 -0.25291742682E+03 -0.68560496117E+00 -0.10365326394E+03  0.27333439954E+03  0.00000000000E+00 0.  1.
<scales pt_clust_3="55.22056" pt_clust_4="34.61170" pt_clust_5="55.22056" pt_clust_6="252.91836"></scales>
<clustering>
<clus scale="   34.612">  3  4 -1 -1</clus>
<clus scale="   55.221">  3  5 -1 -1</clus>
<clus scale="  252.918">  2  6  1 -1</clus>
<clus scale="  274.241">  1  3  2 -1</clus>
</clustering>
</event>
<event>
 6    0  0.2781617E+002  0.9440465E+02  0.7546771E-02  0.1292523E+00
         21   -1    0    0  504  502  0.00000000000E+00  0.00000000000E+00  0.21002541986E+03  0.21002541986E+03  0.00000000000E+00 0.  1.
          2   -1    0    0  503    0 -0.00000000000E+00 -0.00000000000E+00 -0.23045141810E+03  0.23045141810E+03  0.00000000000E+00 0. -1.
         21    1    1    2  503  502 -0.13406005452E+02 -0.61575259430E+02  0.11435611978E+03  0.13057011789E+03  0.00000000000E+00 0.  1.
         21    1    1    2  504  505  0.18614580859E+02 -0.27800476260E+02  0.12228979891E+02  0.35621861967E+02  0.00000000000E+00 0.  1.
         21    1    1    2  505  501  0.76337058235E+02  0.15698602179E+02  0.14159705877E+02  0.79210414977E+02  0.00000000000E+00 0.  1.
          2    1    1    2  501    0 -0.81545633641E+02  0.73677133511E+02 -0.16117080378E+03  0.19507444312E+03  0.00000000000E+00 0. -1.
<scales pt_clust_3="79.87774" pt_clust_4="33.45697" pt_clust_5="94.40465" pt_clust_6="14000.00000"></scales>
<clustering>
<clus scale="   33.457">  1  4  2 -1</clus>
<clus scale="   79.878">  1  3  2 -1</clus>
<clus scale="   94.405">  1  5  2 -1</clus>
<clus scale="   33.457">  1  3  2 -1</clus>
</clustering>
</event>
<event>
 6    0  0.2781617E+002  0.1410301E+03  0.7546771E-02  0.1211950E+00
          2   -1    0    0  504    0 -0.00000000000E+00  0.00000000000E+00  0.12352295920E+04  0.12352295920E+04  0.00000000000E+00 0. -1.
         21   -1    0    0  505  502  0.00000000000E+00 -0.00000000000E+00 -0.73735370779E+03  0.73735370779E+03  0.00000000000E+00 0. -1.
         21    1    1    2  503  502 -0.67993908544E+02  0.50716957190E+02 -0.55088003554E+03  0.55737258176E+03  0.00000000000E+00 0. -1.
         21    1    1    2  504  503 -0.48076293084E+02 -0.84274744514E+02 -0.22086250725E+02  0.99505602810E+02  0.00000000000E+00 0. -1.
         21    1    1    2  505  501  0.26835626703E+01 -0.56353156520E+02 -0.11127706151E+03  0.12476162943E+03  0.00000000000E+00 0. -1.
          2    1    1    2  501    0  0.11338663896E+03  0.89910943844E+02  0.11821192320E+04  0.11909434858E+04  0.00000000000E+00 0. -1.
<scales pt_clust_3="65.59356" pt_clust_4="141.03008" pt_clust_5="56.41702" pt_clust_6="14000.00000"></scales>
<clustering>
<clus scale="   56.417">  2  5  1 -1</clus>
<clus scale="   65.594">  2  3  1 -1</clus>
<clus scale="  141.030">  2  4  1 -1</clus>
<clus scale="   56.417">  2  3  1 -1</clus>
</clustering>
</event>
<event>
 6    0  0.2781617E+002  0.1239188E+03  0.7546771E-02  0.1236769E+00
         21   -1    0    0  503  502  0.00000000000E+00  0.00000000000E+00  0.13679609867E+03  0.13679609867E+03  0.00000000000E+00 0.  1.
         -2   -1    0    0    0  501 -0.00000000000E+00 -0.00000000000E+00 -0.33214039581E+03  0.33214039581E+03  0.00000000000E+00 0. -1.
         21    1    1    2  503  505 -0.36371647055E+02 -0.17069072090E+02  0.15421830279E+02  0.43035831358E+02  0.00000000000E+00 0.  1.
         21    1    1    2  504  502  0.42379970021E+02 -0.37897022663E+02 -0.56342774720E+01  0.57131351011E+02  0.00000000000E+00 0.  1.
         21    1    1    2  505  501 -0.71703073886E+01 -0.80769294426E+02  0.38586347978E+02  0.89799768821E+02  0.00000000000E+00 0.  1.
         -2    1    1    2    0  504  0.11619844224E+01  0.13573538918E+03 -0.24371819793E+03  0.27896954329E+03  0.00000000000E+00 0. -1.
<scales pt_clust_3="40.17773" pt_clust_4="53.81891" pt_clust_5="14000.00000" pt_clust_6="123.91875"></scales>
<clustering>
<clus scale="   40.178">  1  3  2 -1</clus>
<clus scale="   53.819">  1  4  2 -1</clus>
<clus scale="  123.919">  2  6  1 -1</clus>
<clus scale="   40.178">  1  3  2 -1</clus>
</clustering>
</event>
<event>
 6    0  0.2781617E+002  0.1629134E+03  0.7546771E-02  0.1185446E+00
         21   -1    0    0  503  502  0.00000000000E+00  0.00000000000E+00  0.57403218256E+03  0.57403218256E+03  0.00000000000E+00 0. -1.
         -1   -1    0    0    0  501 -0.00000000000E+00 -0.00000000000E+00 -0.14096931766E+03  0.14096931766E+03  0.00000000000E+00 0.  1.
         21    1    1    2  503  504 -0.12699100543E+03  0.10528144013E+03  0.45425433034E+03  0.48327827773E+03  0.00000000000E+00 0. -1.
         21    1    1    2  504  505  0.38438161593E+02  0.19463926934E+02  0.80788781218E+01  0.43836115134E+02  0.00000000000E+00 0. -1.
         21    1    1    2  505  501  0.76438447521E+02 -0.43492552973E+02  0.22507816489E+02  0.90780175295E+02  0.00000000000E+00 0.  1.
         -1    1    1    2    0  502  0.12114396319E+02 -0.81252814088E+02 -0.51778160052E+02  0.97106932058E+02  0.00000000000E+00 0.  1.
<scales pt_clust_3="152.08150" pt_clust_4="40.88470" pt_clust_5="40.88470" pt_clust_6="82.15095"></scales>
<clustering>
<clus scale="   40.885">  4  5 -1 -1</clus>
<clus scale="   82.151">  2  6  1 -1</clus>
<clus scale="  152.082">  1  3  2 -1</clus>
<clus scale="  152.082">  1  3  2 -1</clus>
</clustering>
</event>
<event>
 6    0  0.2781617E+002  0.1338445E+03  0.7546771E-02  0.1221860E+00
         21   -1    0    0  505  502  0.00000000000E+00  0.00000000000E+00  0.16013968356E+03  0.16013968356E+03  0.00000000000E+00 0.  1.
         -2   -1    0    0    0  501 -0.00000000000E+00 -0.00000000000E+00 -0.63175370145E+03  0.63175370145E+03  0.00000000000E+00 0. -1.
         21    1    1    2  503  504 -0.57930510213E+02  0.12100899956E+02  0.48732962714E+02  0.76663403579E+02  0.00000000000E+00 0.  1.
         21    1    1    2  504  501  0.97728774703E+02  0.30773431174E+02 -0.42670126257E+02  0.11098944610E+03  0.00000000000E+00 0. -1.
         21    1    1    2  505  503 -0.76616308700E+02 -0.34335783020E+02  0.34427902674E+02  0.90742962465E+02  0.00000000000E+00 0.  1.
         -2    1    1    2    0  502  0.36818044210E+02 -0.85385481103E+01 -0.51210475701E+03  0.51349757286E+03  0.00000000000E+00 0. -1.
<scales pt_clust_3="42.25398" pt_clust_4="124.10656" pt_clust_5="42.25398" pt_clust_6="37.79517"></scales>
<clustering>
<clus scale="   37.795">  2  6  1 -1</clus>
<clus scale="   42.254">  3  5 -1 -1</clus>
<clus scale="  124.107">  2  4  1 -1</clus>
<clus scale="  133.845">  1  3  2 -1</clus>
</clustering>
</event>
<event>
 6    0  0.2781617E+002  0.1554636E+03  0.7546771E-02  0.1193916E+00
          1   -1    0    0  503    0 -0.00000000000E+00  0.00000000000E+00  0.16570985096E+04  0.16570985096E+04  0.00000000000E+00 0. -1.
         21   -1    0    0  501  502  0.00000000000E+00 -0.00000000000E+00 -0.36104284944E+02  0.36104284944E+02  0.00000000000E+00 0.  1.
         21    1    1    2  503  504 -0.39959117143E+02 -0.49289757956E+01  0.13879096104E+03  0.14451282542E+03  0.00000000000E+00 0.  1.
         21    1    1    2  504  505 -0.59295172489E+02  0.76742995646E+02  0.10577971615E+03  0.14350872172E+03  0.00000000000E+00 0.  1.
         21    1    1    2  505  502 -0.86760729505E+00  0.56337725711E+02  0.75892469589E+02  0.94521738351E+02  0.00000000000E+00 0.  1.
          1    1    1    2  501    0  0.10012189693E+03 -0.12815174556E+03  0.13005310778E+04  0.13106595090E+04  0.00000000000E+00 0. -1.
<scales pt_clust_3="40.26197" pt_clust_4="36.74253" pt_clust_5="36.74253" pt_clust_6="147.80141"></scales>
<clustering>
<clus scale="   36.743">  4  5 -1 -1</clus>
<clus scale="   40.262">  1  3  2 -1</clus>
<clus scale="  147.801">  1  6  2 -1</clus>
<clus scale="  155.464">  2  3  1 -1</clus>
</clustering>
</event>
<event>
 6    0  0.2781617E+002  0.1357367E+03  0.7546771E-02  0.1219183E+00
         -2   -1    0    0    0  501 -0.00000000000E+00  0.00000000000E+00  0.18452551743E+04  0.18452551743E+04  0.00000000000E+00 0.  1.
         21   -1    0    0  504  502  0.00000000000E+00 -0.00000000000E+00 -0.26075727278E+02  0.26075727278E+02  0.00000000000E+00 0.  1.
         21    1    1    2  503  501  0.35573838604E+02 -0.83299167581E+02  0.19727528528E+03  0.21707553408E+03  0.00000000000E+00 0.  1.
         21    1    1    2  504  503  0.36787182828E+02 -0.16684016370E+02  0.57554148851E+02  0.70314531020E+02  0.00000000000E+00 0.  1.
         21    1    1    2  505  502 -0.52767195632E+02 -0.27642654282E+02  0.12142258365E+03  0.13524768793E+03  0.00000000000E+00 0.  1.
         -2    1    1    2    0  505 -0.19593825800E+02  0.12762583823E+03  0.14429274293E+04  0.14486931486E+04  0.00000000000E+00 0.  1.
<scales pt_clust_3="32.86678" pt_clust_4="32.86678" pt_clust_5="59.56923" pt_clust_6="126.49979"></scales>
<clustering>
<clus scale="   32.867">  3  4 -1 -1</clus>
<clus scale="   59.569">  2  5  1 -1</clus>
<clus scale="  126.500">  1  6  2 -1</clus>
<clus scale="   59.569">  2  3  1 -1</clus>
</clustering>
</event>
<event>
 6    0  0.2781617E+002  0.1418724E+03  0.7546771E-02  0.1210831E+00
          2   -1    0    0  504    0 -0.00000000000E+00  0.00000000000E+00  0.25070559841E+03  0.25070559841E+03  0.00000000000E+00 0. -1.
         21   -1    0    0  503  502  0.00000000000E+00 -0.00000000000E+00 -0.11828682239E+03  0.11828682239E+03  0.00000000000E+00 0.  1.
         21    1    1    2  503  505  0.79738599295E+02  0.33057081197E+01 -0.19502343999E+02  0.82155421885E+02  0.00000000000E+00 0.  1.
         21    1    1    2  504  502 -0.12408828645E+03 -0.45856485037E+01  0.10452149139E+03  0.16230734170E+03  0.00000000000E+00 0. -1.
         21    1    1    2  505  501  0.57299031571E+02  0.34931360297E+02  0.27833784947E+01  0.67164917532E+02  0.00000000000E+00 0.  1.
          2    1    1    2  501    0 -0.12949344420E+02 -0.33651419913E+02  0.44616250139E+02  0.57364739688E+02  0.00000000000E+00 0. -1.
<scales pt_clust_3="37.70098" pt_clust_4="135.47001" pt_clust_5="37.70098" pt_clust_6="36.05695"></scales>
<clustering>
<clus scale="   36.057">  1  6  2 -1</clus>
<clus scale="   37.701">  3  5 -1 -1</clus>
<clus scale="  135.470">  1  4  2 -1</clus>
<clus scale="  141.872">  2  3  1 -1</clus>
</clustering>
</event>
<event>
 6    0  0.2781617E+002  0.1209572E+03  0.7546771E-02  0.1241526E+00
         -1   -1    0    0    0  501 -0.00000000000E+00  0.00000000000E+00  0.62812842158E+03  0.62812842158E+03  0.00000000000E+00 0. -1.
         21   -1    0    0  504  502  0.00000000000E+00 -0.00000000000E+00 -0.61082228933E+03  0.61082228933E+03  0.00000000000E+00 0.  1.
         21    1    1    2  503  501  0.16940641739E+02 -0.49649564610E+02  0.92698869456E+01  0.53272839351E+02  0.00000000000E+00 0. -1.
         21    1    1    2  504  503  0.85631208967E+02  0.10830007430E+03 -0.50515295652E+03  0.52368036007E+03  0.00000000000E+00 0.  1.
         21    1    1    2  505  502 -0.12210811122E+03  0.13441823778E+02 -0.19249947774E+02  0.12434481872E+03  0.00000000000E+00 0. -1.
         -1    1    1    2    0  505  0.19536260515E+02 -0.72092333469E+02  0.53243914959E+03  0.53765269277E+03  0.00000000000E+00 0. -1.
<scales pt_clust_3="52.46012" pt_clust_4="119.59945" pt_clust_5="120.95724" pt_clust_6="14000.00000"></scales>
<clustering>
<clus scale="   52.460">  1  3  2 -1</clus>
<clus scale="  120.957">  2  5  1 -1</clus>
<clus scale="  119.599">  2  4  1 -1</clus>
<clus scale="  120.957">  2  3  1 -1</clus>
</clustering>
</event>
<event>
 6    0  0.2781617E+002  0.1169670E+03  0.7546771E-02  0.1248186E+00
          1   -1    0    0  505    0 -0.00000000000E+00  0.00000000000E+00  0.15385862933E+03  0.15385862933E+03  0.00000000000E+00 0. -1.
         21   -1    0    0  503  502  0.00000000000E+00 -0.00000000000E+00 -0.95755377573E+03  0.95755377573E+03  0.00000000000E+00 0. -1.
         21    1    1    2  503  501  0.58566867390E+02  0.85938195427E+02 -0.70281422945E+03  0.71046695385E+03  0.00000000000E+00 0. -1.
         21    1    1    2  504  502  0.37147254851E+02  0.16270544165E+02 -0.99672290645E+02  0.10760675942E+03  0.00000000000E+00 0. -1.
         21    1    1    2  505  504 -0.82353336675E+02 -0.52812798394E+02 -0.12538237470E+03  0.15903459882E+03  0.00000000000E+00 0.  1.
          1    1    1    2  501    0 -0.13360785566E+02 -0.49395941198E+02  0.12417374840E+03  0.13430409298E+03  0.00000000000E+00 0. -1.
<scales pt_clust_3="116.96697" pt_clust_4="40.55427" pt_clust_5="14000.00000" pt_clust_6="51.02063"></scales>
<clustering>
<clus scale="   40.554">  2  4  1 -1</clus>
<clus scale="   51.021">  1  6  2 -1</clus>
<clus scale="  116.967">  2  3  1 -1</clus>
<clus scale="   40.554">  2  3  1 -1</clus>
</clustering>
</event>
<event>
 6    0  0.2781617E+002  0.1372971E+03  0.7546771E-02  0.1217013E+00
          1   -1    0    0  503    0 -0.00000000000E+00  0.00000000000E+00  0.22460045671E+04  0.22460045671E+04  0.00000000000E+00 0. -1.
         21   -1    0    0  505  502  0.00000000000E+00 -0.00000000000E+00 -0.18448829700E+03  0.18448829700E+03  0.00000000000E+00 0. -1.
         21    1    1    2  503  502  0.16840019529E+03  0.66173835524E+02 -0.11332165111E+03  0.21349332283E+03  0.00000000000E+00 0. -1.
         21    1    1    2  504  501 -0.75199128340E+02 -0.73185932807E+02  0.24531760453E+03  0.26681794684E+03  0.00000000000E+00 0. -1.
         21    1    1    2  505  504 -0.39378250867E+02 -0.24781870495E+01  0.29225695375E+02  0.49101215082E+02  0.00000000000E+00 0. -1.
          1    1    1    2  501    0 -0.53822816088E+02  0.94902843332E+01  0.19002946213E+04  0.19010803793E+04  0.00000000000E+00 0. -1.
<scales pt_clust_3="14000.00000" pt_clust_4="137.29714" pt_clust_5="39.45615" pt_clust_6="54.73942"></scales>
<clustering>
<clus scale="   39.456">  2  5  1 -1</clus>
<clus scale="   54.739">  1  6  2 -1</clus>
<clus scale="  137.297">  1  4  2 -1</clus>
<clus scale="   39.456">  2  3  1 -1</clus>
</clustering>
</event>
<event>
 6    0  0.2781617E+002  0.8282752E+02  0.7546771E-02  0.1321214E+00
         21   -1    0    0  503  502  0.00000000000E+00  0.00000000000E+00  0.22688205209E+03  0.22688205209E+03  0.00000000000E+00 0.  1.
         -1   -1    0    0    0  501 -0.00000000000E+00 -0.00000000000E+00 -0.63640641858E+03  0.63640641858E+03  0.00000000000E+00 0. -1.
         21    1    1    2  503  504  0.41830008889E+02  0.16279570347E+02  0.10111259520E+02  0.46010994593E+02  0.00000000000E+00 0. -1.
         21    1    1    2  504  501  0.45342850275E+02  0.74009535415E+02  0.16632243602E+03  0.18760740424E+03  0.00000000000E+00 0.  1.
         21    1    1    2  505  502 -0.22086277361E+02 -0.39027089337E+02 -0.76908473311E+01  0.45497983279E+02  0.00000000000E+00 0. -1.
         -1    1    1    2    0  505 -0.65086581803E+02 -0.51262016425E+02 -0.57826721470E+03  0.58417208856E+03  0.00000000000E+00 0. -1.
<scales pt_clust_3="40.38110" pt_clust_4="82.82752" pt_clust_5="44.84325" pt_clust_6="14000.00000"></scales>
<clustering>
<clus scale="   44.843">  1  5  2 -1</clus>
<clus scale="   40.381">  1  3  2 -1</clus>
<clus scale="   82.828">  1  4  2 -1</clus>
<clus scale="   44.843">  1  3  2 -1</clus>
</clustering>
</event>
<event>
 6    0  0.2781617E+002  0.1257548E+03  0.7546771E-02  0.1233894E+00
         21   -1    0    0  505  502  0.00000000000E+00  0.00000000000E+00  0.15330756807E+04  0.15330756807E+04  0.00000000000E+00 0. -1.
          3   -1    0    0  502    0 -0.00000000000E+00 -0.00000000000E+00 -0.27453082168E+02  0.27453082168E+02  0.00000000000E+00 0.  1.
         21    1    1    2  503  501 -0.32988933293E+02 -0.90800504395E+02  0.29117780830E+03  0.30678578416E+03  0.00000000000E+00 0. -1.
         21    1    1    2  504  503 -0.43304668069E+01  0.50017948089E+02  0.35456332163E+03  0.35810012165E+03  0.00000000000E+00 0. -1.
         21    1    1    2  505  504  0.33834309275E+02  0.77393970782E+02  0.85427547141E+03  0.85844112684E+03  0.00000000000E+00 0. -1.
          3    1    1    2  501    0  0.34850908259E+01 -0.36611414477E+02  0.56059972071E+01  0.37201730238E+02  0.00000000000E+00 0.  1.
<scales pt_clust_3="119.31962" pt_clust_4="30.61697" pt_clust_5="30.61697" pt_clust_6="36.77692"></scales>
<clustering>
<clus scale="   30.617">  4  5 -1 -1</clus>
<clus scale="   36.777">  2  6  1 -1</clus>
<clus scale="  119.320">  2  3  1 -1</clus>
<clus scale="  125.755">  1  3  2 -1</clus>
</clustering>
</event>
<event>
 6    0  0.2781617E+002  0.2096140E+03  0.7546771E-02  0.1141872E+00
          1   -1    0    0  504    0 -0.00000000000E+00  0.00000000000E+00  0.49941730048E+03  0.49941730048E+03  0.00000000000E+00 0. -1.
         21   -1    0    0  501  502  0.00000000000E+00 -0.00000000000E+00 -0.78693672531E+02  0.78693672531E+02  0.00000000000E+00 0. -1.
         21    1    1    2  503  502 -0.77248935289E+02 -0.65957882339E+02  0.10893781904E+03  0.14894726806E+03  0.00000000000E+00 0. -1.
         21    1    1    2  504  505 -0.16268951441E+02 -0.60931161669E+02  0.33376028363E+02  0.71352957280E+02  0.00000000000E+00 0. -1.
         21    1    1    2  505  503  0.22477135359E+02 -0.28934963679E+02  0.76370936624E+01  0.37426981399E+02  0.00000000000E+00 0. -1.
          1    1    1    2  501    0  0.71040751371E+02  0.15582400769E+03  0.27077268689E+03  0.32038376627E+03  0.00000000000E+00 0. -1.
<scales pt_clust_3="97.41647" pt_clust_4="97.41647" pt_clust_5="34.39729" pt_clust_6="171.25393"></scales>
<clustering>
<clus scale="   34.397">  4  5 -1 -1</clus>
<clus scale="   97.416">  3  4 -1 -1</clus>
<clus scale="  171.254">  1  6  2 -1</clus>
<clus scale="  209.614">  2  3  1 -1</clus>
</clustering>
</event>
<event>
 6    0  0.2781617E+002  0.1363658E+03  0.7546771E-02  0.1218304E+00
         21   -1    0    0  504  502  0.00000000000E+00  0.00000000000E+00  0.95798532935E+02  0.95798532935E+02  0.00000000000E+00 0.  1.
          1   -1    0    0  505    0 -0.00000000000E+00 -0.00000000000E+00 -0.16667888120E+04  0.16667888120E+04  0.00000000000E+00 0.  1.
         21    1    1    2  503  501  0.50865394222E+02 -0.76036568263E+02 -0.14462459373E+03  0.17112896059E+03  0.00000000000E+00 0.  1.
         21    1    1    2  504  503 -0.92827573094E+02  0.13041757233E+03 -0.65055385121E+01  0.16021243251E+03  0.00000000000E+00 0.  1.
         21    1    1    2  505  502  0.70013874514E+02 -0.16122601501E+02 -0.24222319835E+03  0.25265383180E+03  0.00000000000E+00 0.  1.
          1    1    1    2  501    0 -0.28051695642E+02 -0.38258402566E+02 -0.11776369485E+04  0.11785921200E+04  0.00000000000E+00 0.  1.
<scales pt_clust_3="136.36575" pt_clust_4="14000.00000" pt_clust_5="66.14093" pt_clust_6="47.44052"></scales>
<clustering>
<clus scale="   47.441">  2  6  1 -1</clus>
<clus scale="   66.141">  2  5  1 -1</clus>
<clus scale="  136.366">  2  3  1 -1</clus>
<clus scale="  136.366">  1  3  2 -1</clus>
</clustering>
</event>
<event>
 6    0  0.2781617E+002  0.1360031E+03  0.7546771E-02  0.1218811E+00
         21   -1    0    0  505  502  0.00000000000E+00  0.00000000000E+00  0.21968265796E+02  0.21968265796E+02  0.00000000000E+00 0. -1.
          2   -1    0    0  502    0 -0.00000000000E+00 -0.00000000000E+00 -0.42685041162E+04  0.42685041162E+04  0.00000000000E+00 0.  1.
         21    1    1    2  503  501  0.37722856441E+01 -0.37197688983E+02 -0.31447829065E+03  0.31669305881E+03  0.00000000000E+00 0. -1.
         21    1    1    2  504  503  0.12844637159E+02 -0.92683030837E+02 -0.30762281900E+03  0.32153837668E+03  0.00000000000E+00 0. -1.
         21    1    1    2  505  504 -0.61850680519E+02  0.13705535062E+02 -0.65502969775E+02  0.91126216981E+02  0.00000000000E+00 0. -1.
          2    1    1    2  501    0  0.45233757715E+02  0.11617518476E+03 -0.35589317709E+04  0.35611147295E+04  0.00000000000E+00 0.  1.
<scales pt_clust_3="35.67143" pt_clust_4="35.67143" pt_clust_5="63.35099" pt_clust_6="123.74328"></scales>
<clustering>
<clus scale="   35.671">  3  4 -1 -1</clus>
<clus scale="   63.351">  1  5  2 -1</clus>
<clus scale="  123.743">  2  6  1 -1</clus>
<clus scale="   63.351">  1  3  2 -1</clus>
</clustering>
</event>
<event>
 6    0  0.2781617E+002  0.1439828E+03  0.7546771E-02  0.1208068E+00
          2   -1    0    0  502    0 -0.00000000000E+00  0.00000000000E+00  0.23515222667E+04  0.23515222667E+04  0.00000000000E+00 0. -1.
         21   -1    0    0  505  502  0.00000000000E+00 -0.00000000000E+00 -0.24528957468E+02  0.24528957468E+02  0.00000000000E+00 0. -1.
         21    1    1    2  503  501 -0.48048404280E+02 -0.40400399476E+01  0.21029836277E+03  0.21575535326E+03  0.00000000000E+00 0. -1.
         21    1    1    2  504  503 -0.36370545189E+02  0.29578427726E+02  0.15169653147E+03  0.15877511645E+03  0.00000000000E+00 0. -1.
         21    1    1    2  505  504 -0.84414927718E+02  0.15554749221E+01  0.11004080178E+03  0.13869851326E+03  0.00000000000E+00 0. -1.
          2    1    1    2  501    0  0.16883387719E+03 -0.27093862700E+02  0.18549576132E+04  0.18628222412E+04  0.00000000000E+00 0. -1.
<scales pt_clust_3="37.59846" pt_clust_4="37.59846" pt_clust_5="84.42926" pt_clust_6="138.84177"></scales>
<clustering>
<clus scale="   37.598">  3  4 -1 -1</clus>
<clus scale="   84.429">  2  5  1 -1</clus>
<clus scale="  138.842">  1  6  2 -1</clus>
<clus scale="   84.429">  2  3  1 -1</clus>
</clustering>
</event>
<event>
 6    0  0.2781617E+002  0.1417299E+03  0.7546771E-02  0.1211020E+00
         21   -1    0    0  504  502  0.00000000000E+00  0.00000000000E+00  0.76099370207E+02  0.76099370207E+02  0.00000000000E+00 0.  1.
          2   -1    0    0  503    0 -0.00000000000E+00 -0.00000000000E+00 -0.10376960297E+04  0.10376960297E+04  0.00000000000E+00 0.  1.
         21    1    1    2  503  505  0.76567846415E+02  0.94805648186E+02 -0.11419530613E+03  0.16700692793E+03  0.00000000000E+00 0.  1.
         21    1    1    2  504  501 -0.11782514949E+03  0.17097561523E+02 -0.76538603945E+02  0.14153886518E+03  0.00000000000E+00 0.  1.
         21    1    1    2  505  502  0.57592672625E+02  0.18475254555E+02 -0.71503201170E+02  0.93653396887E+02  0.00000000000E+00 0.  1.
          2    1    1    2  501    0 -0.16335369548E+02 -0.13037846426E+03 -0.69935954821E+03  0.71159620988E+03  0.00000000000E+00 0.  1.
<scales pt_clust_3="36.11733" pt_clust_4="119.05920" pt_clust_5="36.11733" pt_clust_6="132.13286"></scales>
<clustering>
<clus scale="   36.117">  3  5 -1 -1</clus>
<clus scale="  119.059">  1  4  2 -1</clus>
<clus scale="  132.133">  2  6  1 -1</clus>
<clus scale="  119.059">  1  3  2 -1</clus>
</clustering>
</event>
<event>
 6    0  0.2781617E+002  0.1157329E+03  0.7546771E-02  0.1250307E+00
         21   -1    0    0  503  502  0.00000000000E+00  0.00000000000E+00  0.14361147436E+03  0.14361147436E+03  0.00000000000E+00 0.  1.
         -1   -1    0    0    0  501 -0.00000000000E+00 -0.00000000000E+00 -0.13754658035E+04  0.13754658035E+04  0.00000000000E+00 0.  1.
         21    1    1    2  503  501  0.68076172707E+02  0.76570883305E+02  0.57876336686E+02  0.11767385355E+03  0.00000000000E+00 0.  1.
         21    1    1    2  504  502 -0.53812497325E+02 -0.60847935508E+02 -0.24478358441E+01  0.81266524623E+02  0.00000000000E+00 0.  1.
         21    1    1    2  505  504 -0.12327356066E+02 -0.48196508182E+02 -0.21932068985E+02  0.54368030666E+02  0.00000000000E+00 0.  1.
         -1    1    1    2    0  505 -0.19363193159E+01  0.32473560386E+02 -0.12653507610E+04  0.12657688691E+04  0.00000000000E+00 0.  1.
<scales pt_clust_3="108.88954" pt_clust_4="30.68268" pt_clust_5="30.68268" pt_clust_6="32.53124"></scales>
<clustering>
<clus scale="   30.683">  4  5 -1 -1</clus>
<clus scale="   32.531">  2  6  1 -1</clus>
<clus scale="  108.890">  1  3  2 -1</clus>
<clus scale="  108.890">  1  3  2 -1</clus>
</clustering>
</event>
<event>
 6    0  0.2781617E+002  0.2589489E+03  0.7546771E-02  0.1107776E+00
         21   -1    0    0  503  502  0.00000000000E+00  0.00000000000E+00  0.95075049934E+03  0.95075049934E+03  0.00000000000E+00 0. -1.
          2   -1    0    0  505    0 -0.00000000000E+00 -0.00000000000E+00 -0.11663295505E+04  0.11663295505E+04  0.00000000000E+00 0. -1.
         21    1    1    2  503  501  0.16644230851E+02 -0.25196645418E+02  0.39583496285E+02  0.49787092093E+02  0.00000000000E+00 0. -1.
         21    1    1    2  504  502 -0.19532783094E+03 -0.17307182019E+03  0.83271261153E+03  0.87264947710E+03  0.00000000000E+00 0. -1.
         21    1    1    2  505  504  0.17971469035E+03  0.10225856216E+03 -0.15904278828E+03  0.26086163376E+03  0.00000000000E+00 0.  1.
          2    1    1    2  501    0 -0.10310902588E+01  0.96009903445E+02 -0.92883237069E+03  0.93378184687E+03  0.00000000000E+00 0. -1.
<scales pt_clust_3="30.19770" pt_clust_4="14000.00000" pt_clust_5="258.94892" pt_clust_6="95.94615"></scales>
<clustering>
<clus scale="   30.198">  1  3  2 -1</clus>
<clus scale="   95.946">  2  6  1 -1</clus>
<clus scale="  258.949">  2  5  1 -1</clus>
<clus scale="   30.198">  1  3  2 -1</clus>
</clustering>
</event>
<event>
 6    0  0.2781617E+002  0.1456908E+03  0.7546771E-02  0.1205870E+00
          2   -1    0    0  505    0 -0.00000000000E+00  0.00000000000E+00  0.52323585610E+03  0.52323585610E+03  0.00000000000E+00 0. -1.
         21   -1    0    0  503  502  0.00000000000E+00 -0.00000000000E+00 -0.78509852926E+03  0.78509852926E+03  0.00000000000E+00 0. -1.
         21    1    1    2  503  501 -0.45936899263E+02 -0.18758454512E+02 -0.23430142956E+02  0.54873034621E+02  0.00000000000E+00 0. -1.
         21    1    1    2  504  502 -0.62615364031E+02 -0.33501752403E+00 -0.58193104236E+03  0.58529012815E+03  0.00000000000E+00 0. -1.
         21    1    1    2  505  504 -0.25018429687E+02 -0.20992835376E+02 -0.15094483319E+03  0.15443757194E+03  0.00000000000E+00 0. -1.
          2    1    1    2  501    0  0.13357069298E+03  0.40086307413E+02  0.49444334533E+03  0.51373365065E+03  0.00000000000E+00 0. -1.
<scales pt_clust_3="49.61933" pt_clust_4="31.93623" pt_clust_5="31.93623" pt_clust_6="138.81763"></scales>
<clustering>
<clus scale="   31.936">  4  5 -1 -1</clus>
<clus scale="   49.619">  2  3  1 -1</clus>
<clus scale="  138.818">  1  6  2 -1</clus>
<clus scale="   49.619">  2  3  1 -1</clus>
</clustering>
</event>
<event>
 6    0  0.2781617E+002  0.1204850E+03  0.7546771E-02  0.1242299E+00
         21   -1    0    0  504  502  0.00000000000E+00  0.00000000000E+00  0.92054030933E+03  0.92054030933E+03  0.00000000000E+00 0.  1.
          2   -1    0    0  503    0 -0.00000000000E+00 -0.00000000000E+00 -0.23401908937E+03  0.23401908937E+03  0.00000000000E+00 0. -1.
         21    1    1    2  503  502 -0.43336073241E+02  0.40345966193E+02  0.36379687656E+02  0.69493121285E+02  0.00000000000E+00 0.  1.
         21    1    1    2  504  505  0.33690222429E+02  0.56181280220E+02  0.24248130376E+03  0.25117434185E+03  0.00000000000E+00 0.  1.
         21    1    1    2  505  501  0.80724922291E+02 -0.91949730411E+00  0.60121514858E+03  0.60661108911E+03  0.00000000000E+00 0.  1.
          2    1    1    2  501    0 -0.71079071479E+02 -0.95607749109E+02 -0.19355492004E+03  0.22728084645E+03  0.00000000000E+00 0. -1.
<scales pt_clust_3="59.20990" pt_clust_4="65.76485" pt_clust_5="120.48502" pt_clust_6="14000.00000"></scales>
<clustering>
<clus scale="   59.210">  2  3  1 -1</clus>
<clus scale="   65.765">  1  4  2 -1</clus>
<clus scale="  120.485">  1  5  2 -1</clus>
<clus scale="   65.765">  1  3  2 -1</clus>
</clustering>
</event>
<event>
 6    0  0.2781617E+002  0.1221781E+03  0.7546771E-02  0.1239547E+00
          2   -1    0    0  504    0 -0.00000000000E+00  0.00000000000E+00  0.13454205470E+04  0.13454205470E+04  0.00000000000E+00 0. -1.
         21   -1    0    0  503  502  0.00000000000E+00 -0.00000000000E+00 -0.87925424406E+02  0.87925424406E+02  0.00000000000E+00 0.  1.
         21    1    1    2  503  501 -0.59920976623E+02 -0.21818773538E+02  0.71736811410E+02  0.95983084080E+02  0.00000000000E+00 0.  1.
         21    1    1    2  504  505  0.27958333470E+02  0.14496017913E+03  0.28006180067E+03  0.31659079920E+03  0.00000000000E+00 0.  1.
         21    1    1    2  505  502  0.10598045535E+03 -0.89014706861E+02  0.30417574368E+02  0.14170639994E+03  0.00000000000E+00 0.  1.
          2    1    1    2  501    0 -0.74017812193E+02 -0.34126698732E+02  0.87527893611E+03  0.87906568815E+03  0.00000000000E+00 0. -1.
<scales pt_clust_3="63.76976" pt_clust_4="122.17810" pt_clust_5="14000.00000" pt_clust_6="83.09372"></scales>
<clustering>
<clus scale="   63.770">  2  3  1 -1</clus>
<clus scale="   83.094">  1  6  2 -1</clus>
<clus scale="  122.178">  1  4  2 -1</clus>
<clus scale="   63.770">  2  3  1 -1</clus>
</clustering>
</event>
<event>
 6    0  0.2781617E+002  0.1576290E+03  0.7546771E-02  0.1191400E+00
         21   -1    0    0  504  502  0.00000000000E+00  0.00000000000E+00  0.41611928115E+03  0.41611928115E+03  0.00000000000E+00 0. -1.
          2   -1    0    0  503    0 -0.00000000000E+00 -0.00000000000E+00 -0.94667743740E+03  0.94667743740E+03  0.00000000000E+00 0.  1.
         21    1    1    2  503  505 -0.75443749658E+02 -0.15838568129E+01  0.49799370066E+02  0.90411532582E+02  0.00000000000E+00 0. -1.
         21    1    1    2  504  501  0.95053670145E+02  0.82870513943E+02  0.63384008214E+02  0.14113913273E+03  0.00000000000E+00 0.  1.
         21    1    1    2  505  502 -0.15693639879E+03 -0.30601052266E+02  0.21061966208E+03  0.26443543582E+03  0.00000000000E+00 0. -1.
          2    1    1    2  501    0  0.13732647830E+03 -0.50685604864E+02 -0.85436119662E+03  0.86681061742E+03  0.00000000000E+00 0.  1.
<scales pt_clust_3="38.01381" pt_clust_4="126.10600" pt_clust_5="38.01381" pt_clust_6="147.59746"></scales>
<clustering>
<clus scale="   38.014">  3  5 -1 -1</clus>
<clus scale="  126.106">  1  4  2 -1</clus>
<clus scale="  147.597">  2  6  1 -1</clus>
<clus scale="  126.106">  1  3  2 -1</clus>
</clustering>
</event>
<event>
 6    0  0.2781617E+002  0.1638567E+03  0.7546771E-02  0.1184410E+00
          2   -1    0    0  504    0 -0.00000000000E+00  0.00000000000E+00  0.12769794126E+04  0.12769794126E+04  0.00000000000E+00 0. -1.
         21   -1    0    0  503  502  0.00000000000E+00 -0.00000000000E+00 -0.85928383484E+02  0.85928383484E+02  0.00000000000E+00 0.  1.
         21    1    1    2  503  505  0.26570396870E+01 -0.46720051313E+02 -0.11631160646E+02  0.48219362838E+02  0.00000000000E+00 0.  1.
         21    1    1    2  504  502  0.11084904144E+02  0.31654822381E+02  0.69958777330E+02  0.77583074219E+02  0.00000000000E+00 0.  1.
         21    1    1    2  505  501 -0.54686727641E+02 -0.10272402631E+03  0.20808532559E+02  0.11821953641E+03  0.00000000000E+00 0.  1.
          2    1    1    2  501    0  0.40944783810E+02  0.11778925524E+03  0.11119148798E+04  0.11188858226E+04  0.00000000000E+00 0. -1.
<scales pt_clust_3="32.19119" pt_clust_4="33.53957" pt_clust_5="32.19119" pt_clust_6="155.79463"></scales>
<clustering>
<clus scale="   32.191">  3  5 -1 -1</clus>
<clus scale="   33.540">  1  4  2 -1</clus>
<clus scale="  155.795">  1  6  2 -1</clus>
<clus scale="  163.857">  2  3  1 -1</clus>
</clustering>
</event>
<event>
 6    0  0.2781617E+002  0.9831723E+02  0.7546771E-02  0.1283875E+00
          1   -1    0    0  505    0 -0.00000000000E+00  0.00000000000E+00  0.34976083475E+04  0.34976083475E+04  0.00000000000E+00 0.  1.
         21   -1    0    0  503  502  0.00000000000E+00 -0.00000000000E+00 -0.11529716147E+02  0.11529716147E+02  0.00000000000E+00 0.  1.
         21    1    1    2  503  501 -0.35854297117E+02 -0.32073167691E+02  0.37097674728E+03  0.37408283271E+03  0.00000000000E+00 0.  1.
         21    1    1    2  504  502  0.32281276964E+02 -0.25474662491E+02  0.14854105119E+03  0.15412813877E+03  0.00000000000E+00 0.  1.
         21    1    1    2  505  504 -0.93922607646E+02  0.65692251787E+02  0.52315382908E+03  0.53556218785E+03  0.00000000000E+00 0.  1.
          1    1    1    2  501    0  0.97495627799E+02 -0.81444216053E+01  0.24434070038E+04  0.24453649043E+04  0.00000000000E+00 0.  1.
<scales pt_clust_3="47.39878" pt_clust_4="41.12225" pt_clust_5="98.31723" pt_clust_6="14000.00000"></scales>
<clustering>
<clus scale="   41.122">  2  4  1 -1</clus>
<clus scale="   47.399">  2  3  1 -1</clus>
<clus scale="   98.317">  2  5  1 -1</clus>
<clus scale="   41.122">  2  3  1 -1</clus>
</clustering>
</event>
<event>
 6    0  0.3427217E+002  0.1348061E+03  0.7546771E-02  0.1220494E+00
          2   -1    0    0  504    0 -0.00000000000E+00  0.00000000000E+00  0.21048293912E+04  0.21048293912E+04  0.00000000000E+00 0.  1.
         21   -1    0    0  505  502  0.00000000000E+00 -0.00000000000E+00 -0.73544328231E+02  0.73544328231E+02  0.00000000000E+00 0.  1.
         21    1    1    2  503  502 -0.29224923269E+02  0.10199078074E+02  0.43600610960E+02  0.53470838872E+02  0.00000000000E+00 0. -1.
         21    1    1    2  504  503 -0.96458962448E+02  0.92624164605E+02  0.16017098426E+02  0.13468524324E+03  0.00000000000E+00 0.  1.
         21    1    1    2  505  501  0.77729330931E+02 -0.55493913973E+02  0.25611764677E+03  0.27334533536E+03  0.00000000000E+00 0. -1.
          2    1    1    2  501    0  0.47954554785E+02 -0.47329328706E+02  0.17155497068E+04  0.17168723020E+04  0.00000000000E+00 0.  1.
<scales pt_clust_3="30.95347" pt_clust_4="14000.00000" pt_clust_5="134.80613" pt_clust_6="67.10791"></scales>
<clustering>
<clus scale="   30.953">  2  3  1 -1</clus>
<clus scale="   67.108">  1  6  2 -1</clus>
<clus scale="  134.806">  1  5  2 -1</clus>
<clus scale="   30.953">  2  3  1 -1</clus>
</clustering>
</event>
<event>
 6    0  0.2781617E+002  0.1716136E+03  0.7546771E-02  0.1176176E+00
         21   -1    0    0  504  502  0.00000000000E+00  0.00000000000E+00  0.81359968458E+02  0.81359968458E+02  0.00000000000E+00 0. -1.
          2   -1    0    0  505    0 -0.00000000000E+00 -0.00000000000E+00 -0.14125944041E+04  0.14125944041E+04  0.00000000000E+00 0.  1.
         21    1    1    2  503  501  0.99183961900E+02 -0.49824973398E+02 -0.10262345519E+03  0.15116732394E+03  0.00000000000E+00 0. -1.
         21    1    1    2  504  503  0.59900345303E+02 -0.31688643090E+02 -0.18826823682E+02  0.70332572527E+02  0.00000000000E+00 0. -1.
         21    1    1    2  505  502 -0.21331134927E+01  0.36144108961E+02  0.13250794926E+02  0.38555548912E+02  0.00000000000E+00 0. -1.
          2    1    1    2  501    0 -0.15695119371E+03  0.45369507526E+02 -0.12230349517E+04  0.12338989272E+04  0.00000000000E+00 0.  1.
<scales pt_clust_3="37.13737" pt_clust_4="37.13737" pt_clust_5="36.20700" pt_clust_6="164.59489"></scales>
<clustering>
<clus scale="   36.207">  1  5  2 -1</clus>
<clus scale="   37.137">  3  4 -1 -1</clus>
<clus scale="  164.595">  2  6  1 -1</clus>
<clus scale="   36.207">  1  3  2 -1</clus>
</clustering>
</event>
<event>
 6    0  0.2781617E+002  0.1162930E+03  0.7546771E-02  0.1249341E+00
         21   -1    0    0  503  502  0.00000000000E+00  0.00000000000E+00  0.26390888527E+04  0.26390888527E+04  0.00000000000E+00 0. -1.
          1   -1    0    0  505    0 -0.00000000000E+00 -0.00000000000E+00 -0.22131746078E+03  0.22131746078E+03  0.00000000000E+00 0.  1.
         21    1    1    2  503  501 -0.12191302567E+03 -0.52382649050E+02  0.16343640064E+04  0.16397415751E+04  0.00000000000E+00 0. -1.
         21    1    1    2  504  502  0.27617295577E+02  0.13448735101E+02  0.46744304357E+03  0.46845125944E+03  0.00000000000E+00 0. -1.
         21    1    1    2  505  504  0.17461491463E+02 -0.48314722733E+02  0.51723455343E+03  0.51977956806E+03  0.00000000000E+00 0. -1.
          1    1    1    2  501    0  0.76834238627E+02  0.87248636682E+02 -0.20127021154E+03  0.23243391078E+03  0.00000000000E+00 0.  1.
<scales pt_clust_3="116.29301" pt_clust_4="30.71780" pt_clust_5="51.11764" pt_clust_6="14000.00000"></scales>
<clustering>
<clus scale="   30.718">  1  4  2 -1</clus>
<clus scale="   51.118">  1  5  2 -1</clus>
<clus scale="  116.293">  1  3  2 -1</clus>
<clus scale="   30.718">  1  3  2 -1</clus>
</clustering>
</event>
<event>
 6    0  0.2781617E+002  0.9729060E+02  0.7546771E-02  0.1286099E+00
         21   -1    0    0  505  502  0.00000000000E+00  0.00000000000E+00  0.26803781737E+04  0.26803781737E+04  0.00000000000E+00 0.  1.
          2   -1    0    0  503    0 -0.00000000000E+00 -0.00000000000E+00 -0.58618601828E+03  0.58618601828E+03  0.00000000000E+00 0.  1.
         21    1    1    2  503  504  0.86908240618E+01 -0.13910577168E+03 -0.52691323626E+02  0.14900443524E+03  0.00000000000E+00 0.  1.
         21    1    1    2  504  502  0.42497827882E+02  0.11728795280E+03  0.68421335992E+03  0.69549295549E+03  0.00000000000E+00 0.  1.
         21    1    1    2  505  501 -0.91069067573E+02 -0.37474000831E+02  0.19384505587E+04  0.19409503972E+04  0.00000000000E+00 0.  1.
          2    1    1    2  501    0  0.39880415629E+02  0.59291819706E+02 -0.47578043964E+03  0.48111640398E+03  0.00000000000E+00 0.  1.
<scales pt_clust_3="95.43492" pt_clust_4="14000.00000" pt_clust_5="97.29060" pt_clust_6="71.45605"></scales>
<clustering>
<clus scale="   71.456">  2  6  1 -1</clus>
<clus scale="   95.435">  2  3  1 -1</clus>
<clus scale="   97.291">  1  5  2 -1</clus>
<clus scale="   97.291">  1  3  2 -1</clus>
</clustering>
</event>
<event>
 6    0  0.2781617E+002  0.6703331E+02  0.7546771E-02  0.1370482E+00
         -2   -1    0    0    0  501 -0.00000000000E+00  0.00000000000E+00  0.94577022721E+03  0.94577022721E+03  0.00000000000E+00 0. -1.
         21   -1    0    0  505  502  0.00000000000E+00 -0.00000000000E+00 -0.64145828739E+03  0.64145828739E+03  0.00000000000E+00 0.  1.
         21    1    1    2  503  504 -0.84708876983E+02 -0.67194644091E+02 -0.13928635687E+03  0.17632754533E+03  0.00000000000E+00 0.  1.
         21    1    1    2  504  502  0.37149062282E+02  0.10876809513E+02 -0.43911913840E+03  0.44082193176E+03  0.00000000000E+00 0.  1.
         21    1    1    2  505  501  0.35320469963E+02 -0.94723017692E+01 -0.34588677284E+02  0.50335243075E+02  0.00000000000E+00 0.  1.
         -2    1    1    2    0  503  0.12239344738E+02  0.65790136347E+02  0.91730611237E+03  0.91974379443E+03  0.00000000000E+00 0. -1.
<scales pt_clust_3="67.03331" pt_clust_4="63.21402" pt_clust_5="36.56857" pt_clust_6="14000.00000"></scales>
<clustering>
<clus scale="   36.569">  2  5  1 -1</clus>
<clus scale="   63.214">  2  4  1 -1</clus>
<clus scale="   67.033">  2  3  1 -1</clus>
<clus scale="   36.569">  2  3  1 -1</clus>
</clustering>
</event>
<event>
 6    0  0.2781617E+002  0.1574103E+03  0.7546771E-02  0.1191652E+00
          2   -1    0    0  505    0 -0.00000000000E+00  0.00000000000E+00  0.19698809542E+04  0.19698809542E+04  0.00000000000E+00 0. -1.
         21   -1    0    0  503  502  0.00000000000E+00 -0.00000000000E+00 -0.34694739991E+03  0.34694739991E+03  0.00000000000E+00 0. -1.
         21    1    1    2  503  501 -0.32351782403E+02 -0.20308782042E+02  0.16976427950E+02  0.41800521033E+02  0.00000000000E+00 0. -1.
         21    1    1    2  504  502 -0.28522655812E+02  0.12375841446E+03 -0.26173004548E+03  0.29091631744E+03  0.00000000000E+00 0. -1.
         21    1    1    2  505  504  0.15267399219E+03 -0.22229295301E+03  0.27785892334E+03  0.38720677438E+03  0.00000000000E+00 0. -1.
          2    1    1    2  501    0 -0.91799553975E+02  0.11884332059E+03  0.15898282484E+04  0.15969047412E+04  0.00000000000E+00 0. -1.
<scales pt_clust_3="38.19796" pt_clust_4="120.40549" pt_clust_5="157.41026" pt_clust_6="14000.00000"></scales>
<clustering>
<clus scale="   38.198">  2  3  1 -1</clus>
<clus scale="  120.405">  2  4  1 -1</clus>
<clus scale="  157.410">  2  5  1 -1</clus>
<clus scale="   38.198">  2  3  1 -1</clus>
</clustering>
</event>
<event>
 6    0  0.2781617E+002  0.1388153E+03  0.7546771E-02  0.1214932E+00
          3   -1    0    0  505    0 -0.00000000000E+00  0.00000000000E+00  0.43338050138E+02  0.43338050138E+02  0.00000000000E+00 0.  1.
         21   -1    0    0  503  502  0.00000000000E+00 -0.00000000000E+00 -0.21390308342E+04  0.21390308342E+04  0.00000000000E+00 0.  1.
         21    1    1    2  503  504  0.63351997668E+01  0.96340960852E+02 -0.58444091270E+03  0.59236213243E+03  0.00000000000E+00 0.  1.
         21    1    1    2  504  501  0.22815697529E+02  0.31367663924E+02 -0.11579939205E+03  0.12212282994E+03  0.00000000000E+00 0.  1.
         21    1    1    2  505  502  0.27991216873E+02 -0.12684295880E+03 -0.14040905271E+04  0.14100861153E+04  0.00000000000E+00 0.  1.
          3    1    1    2  501    0 -0.57142114169E+02 -0.86566597543E+00  0.86380477211E+01  0.57797806686E+02  0.00000000000E+00 0.  1.
<scales pt_clust_3="34.67585" pt_clust_4="34.67585" pt_clust_5="127.58008" pt_clust_6="57.14867"></scales>
<clustering>
<clus scale="   34.676">  3  4 -1 -1</clus>
<clus scale="   57.149">  1  6  2 -1</clus>
<clus scale="  127.580">  2  5  1 -1</clus>
<clus scale="  127.580">  2  3  1 -1</clus>
</clustering>
</event>
<event>
 6    0  0.2781617E+002  0.2325593E+03  0.7546771E-02  0.1124851E+00
         21   -1    0    0  505  502  0.00000000000E+00  0.00000000000E+00  0.14636936155E+03  0.14636936155E+03  0.00000000000E+00 0. -1.
          2   -1    0    0  504    0 -0.00000000000E+00 -0.00000000000E+00 -0.40728471461E+04  0.40728471461E+04  0.00000000000E+00 0. -1.
         21    1    1    2  503  502  0.12767128076E+03 -0.15603421162E+03  0.44543265293E+02  0.20647211340E+03  0.00000000000E+00 0. -1.
         21    1    1    2  504  503 -0.96898692910E+02  0.14956346513E+03 -0.86393896706E+03  0.88212761299E+03  0.00000000000E+00 0.  1.
         21    1    1    2  505  501  0.16180935835E+02 -0.44750900439E+02 -0.38398597767E+02  0.61146693165E+02  0.00000000000E+00 0.  1.
          2    1    1    2  501    0 -0.46953523689E+02  0.51221646929E+02 -0.30686834850E+04  0.30694700881E+04  0.00000000000E+00 0. -1.
<scales pt_clust_3="14000.00000" pt_clust_4="232.55926" pt_clust_5="47.58640" pt_clust_6="69.35796"></scales>
<clustering>
<clus scale="   47.586">  1  5  2 -1</clus>
<clus scale="   69.358">  2  6  1 -1</clus>
<clus scale="  232.559">  2  4  1 -1</clus>
<clus scale="   47.586">  1  3  2 -1</clus>
</clustering>
</event>
<event>
 6    0  0.2781617E+002  0.1001384E+03  0.7546771E-02  0.1280005E+00
         -2   -1    0    0    0  501 -0.00000000000E+00  0.00000000000E+00  0.25709276404E+04  0.25709276404E+04  0.00000000000E+00 0.  1.
         21   -1    0    0  504  502  0.00000000000E+00 -0.00000000000E+00 -0.60414923274E+02  0.60414923274E+02  0.00000000000E+00 0.  1.
         21    1    1    2  503  501 -0.29433395943E+02  0.35044354313E+02  0.18781843505E+03  0.19331372458E+03  0.00000000000E+00 0.  1.
         21    1    1    2  504  503  0.25086398300E+01  0.42861594469E+02  0.67380497151E+02  0.79897064718E+02  0.00000000000E+00 0. -1.
         21    1    1    2  505  502  0.32455140540E+02 -0.13684340503E+03  0.45921693781E+02  0.14794679992E+03  0.00000000000E+00 0.  1.
         -2    1    1    2    0  505 -0.55303844269E+01  0.58937456246E+02  0.22093920912E+04  0.22101849745E+04  0.00000000000E+00 0.  1.
<scales pt_clust_3="47.37192" pt_clust_4="42.93495" pt_clust_5="100.13844" pt_clust_6="14000.00000"></scales>
<clustering>
<clus scale="   42.935">  2  4  1 -1</clus>
<clus scale="   47.372">  1  3  2 -1</clus>
<clus scale="  100.138">  2  5  1 -1</clus>
<clus scale="   42.935">  2  3  1 -1</clus>
</clustering>
</event>
<event>
 6    0  0.2781617E+002  0.1387968E+03  0.7546771E-02  0.1214957E+00
         21   -1    0    0  501  502  0.00000000000E+00  0.00000000000E+00  0.19901751285E+02  0.19901751285E+02  0.00000000000E+00 0. -1.
          2   -1    0    0  504    0 -0.00000000000E+00 -0.00000000000E+00 -0.17264368851E+04  0.17264368851E+04  0.00000000000E+00 0. -1.
         21    1    1    2  503  505  0.18428973451E+02  0.28165666623E+02 -0.12168890210E+03  0.12625815116E+03  0.00000000000E+00 0.  1.
         21    1    1    2  504  503  0.25633844452E+02  0.87561486159E+02 -0.79357685080E+03  0.79880431018E+03  0.00000000000E+00 0. -1.
         21    1    1    2  505  502  0.68145377167E+02 -0.16908589870E+02 -0.23523124013E+03  0.24548610790E+03  0.00000000000E+00 0. -1.
          2    1    1    2  501    0 -0.11220819507E+03 -0.98818562912E+02 -0.55603814082E+03  0.57579006718E+03  0.00000000000E+00 0. -1.
<scales pt_clust_3="31.53073" pt_clust_4="31.53073" pt_clust_5="70.21177" pt_clust_6="128.72339"></scales>
<clustering>
<clus scale="   31.531">  3  4 -1 -1</clus>
<clus scale="   70.212">  1  5  2 -1</clus>
<clus scale="  128.723">  1  6  2 -1</clus>
<clus scale="   70.212">  1  3  2 -1</clus>
</clustering>
</event>
<event>
 6    0  0.2781617E+002  0.1239214E+03  0.7546771E-02  0.1236765E+00
         21   -1    0    0  504  502  0.00000000000E+00  0.00000000000E+00  0.40450460587E+03  0.40450460587E+03  0.00000000000E+00 0.  1.
          2   -1    0    0  505    0 -0.00000000000E+00 -0.00000000000E+00 -0.14047199080E+04  0.14047199080E+04  0.00000000000E+00 0. -1.
         21    1    1    2  503  501 -0.41687447548E+02 -0.76442945858E+01  0.17218308534E+03  0.17732256878E+03  0.00000000000E+00 0.  1.
         21    1    1    2  504  503 -0.85284612136E+02  0.99248755831E+00  0.14243414366E+03  0.16601787669E+03  0.00000000000E+00 0.  1.
         21    1    1    2  505  502  0.79958905205E+02  0.42154469530E+02  0.47614180064E+02  0.10216425973E+03  0.00000000000E+00 0.  1.
          2    1    1    2  501    0  0.47013154479E+02 -0.35502662503E+02 -0.13624467112E+04  0.13637198087E+04  0.00000000000E+00 0. -1.
<scales pt_clust_3="36.84888" pt_clust_4="36.84888" pt_clust_5="112.35658" pt_clust_6="58.91244"></scales>
<clustering>
<clus scale="   36.849">  3  4 -1 -1</clus>
<clus scale="   58.912">  2  6  1 -1</clus>
<clus scale="  112.357">  2  5  1 -1</clus>
<clus scale="  123.921">  1  3  2 -1</clus>
</clustering>
</event>
<event>
 6    0  0.2781617E+002  0.8690707E+02  0.7546771E-02  0.1310519E+00
          2   -1    0    0  505    0 -0.00000000000E+00  0.00000000000E+00  0.13702307337E+04  0.13702307337E+04  0.00000000000E+00 0.  1.
         21   -1    0    0  503  502  0.00000000000E+00 -0.00000000000E+00 -0.20478834506E+03  0.20478834506E+03  0.00000000000E+00 0.  1.
         21    1    1    2  503  501  0.41550645314E+02 -0.88155717126E+02 -0.12256073994E+03  0.15658550879E+03  0.00000000000E+00 0.  1.
         21    1    1    2  504  502 -0.31819462195E+02  0.62286881137E+02 -0.17253111844E+02  0.72040291535E+02  0.00000000000E+00 0.  1.
         21    1    1    2  505  504  0.26128134970E+02  0.37626849668E+02  0.55552789202E+01  0.46144559559E+02  0.00000000000E+00 0.  1.
          2    1    1    2  501    0 -0.35859318089E+02 -0.11758013680E+02  0.12997009615E+04  0.13002487188E+04  0.00000000000E+00 0.  1.
<scales pt_clust_3="86.90707" pt_clust_4="14000.00000" pt_clust_5="35.72424" pt_clust_6="37.73780"></scales>
<clustering>
<clus scale="   37.738">  1  6  2 -1</clus>
<clus scale="   35.724">  1  5  2 -1</clus>
<clus scale="   86.907">  2  3  1 -1</clus>
<clus scale="   86.907">  2  3  1 -1</clus>
</clustering>
</event>
<event>
 6    0  0.2781617E+002  0.1568045E+03  0.7546771E-02  0.1192352E+00
          1   -1    0    0  503    0 -0.00000000000E+00  0.00000000000E+00  0.12205666704E+04  0.12205666704E+04  0.00000000000E+00 0.  1.
         21   -1    0    0  504  502  0.00000000000E+00 -0.00000000000E+00 -0.14148432344E+03  0.14148432344E+03  0.00000000000E+00 0. -1.
         21    1    1    2  503  505 -0.33559884151E+02 -0.16820036026E+02  0.88882687136E+02  0.96484773455E+02  0.00000000000E+00 0. -1.
         21    1    1    2  504  501  0.20763926627E+02  0.10918876669E+03 -0.18379811278E+02  0.11265498161E+03  0.00000000000E+00 0. -1.
         21    1    1    2  505  502 -0.50530659022E+02  0.53825800097E+02 -0.45590315435E+02  0.86770047359E+02  0.00000000000E+00 0. -1.
          1    1    1    2  501    0  0.63326616547E+02 -0.14619453076E+03  0.10541697866E+04  0.10661411915E+04  0.00000000000E+00 0.  1.
<scales pt_clust_3="37.53904" pt_clust_4="14000.00000" pt_clust_5="74.02630" pt_clust_6="156.80450"></scales>
<clustering>
<clus scale="   37.539">  1  3  2 -1</clus>
<clus scale="   74.026">  2  5  1 -1</clus>
<clus scale="  156.804">  1  6  2 -1</clus>
<clus scale="   74.026">  2  3  1 -1</clus>
</clustering>
</event>
<event>
 6    0  0.2781617E+002  0.1417966E+03  0.7546771E-02  0.1210932E+00
          1   -1    0    0  503    0 -0.00000000000E+00  0.00000000000E+00  0.51454016742E+02  0.51454016742E+02  0.00000000000E+00 0.  1.
         21   -1    0    0  505  502  0.00000000000E+00 -0.00000000000E+00 -0.11727919555E+04  0.11727919555E+04  0.00000000000E+00 0. -1.
         21    1    1    2  503  502  0.33833968636E+02  0.12976328246E+03 -0.72039041505E+03  0.73276571768E+03  0.00000000000E+00 0. -1.
         21    1    1    2  504  501  0.43932380532E+01 -0.82695666449E+02 -0.25725102707E+03  0.27025166922E+03  0.00000000000E+00 0. -1.
         21    1    1    2  505  504  0.13313801772E+02 -0.71138868417E+02 -0.14741421801E+03  0.16422225059E+03  0.00000000000E+00 0. -1.
          1    1    1    2  501    0 -0.51541008461E+02  0.24071252403E+02  0.37177214051E+01  0.57006334717E+02  0.00000000000E+00 0.  1.
<scales pt_clust_3="138.09875" pt_clust_4="30.07592" pt_clust_5="30.07592" pt_clust_6="56.88498"></scales>
<clustering>
<clus scale="   30.076">  4  5 -1 -1</clus>
<clus scale="   56.885">  1  6  2 -1</clus>
<clus scale="  138.099">  2  3  1 -1</clus>
<clus scale="  138.099">  2  3  1 -1</clus>
</clustering>
</event>
<event>
 6    0  0.2781617E+002  0.3186810E+03  0.7546771E-02  0.1076258E+00
          1   -1    0    0  503    0 -0.00000000000E+00  0.00000000000E+00  0.15771397387E+04  0.15771397387E+04  0.00000000000E+00 0. -1.
         21   -1    0    0  505  502  0.00000000000E+00 -0.00000000000E+00 -0.89234469637E+03  0.89234469637E+03  0.00000000000E+00 0. -1.
         21    1    1    2  503  504 -0.24008018725E+03  0.32318788369E+03  0.35726528626E+03  0.53826330847E+03  0.00000000000E+00 0. -1.
         21    1    1    2  504  502  0.19030751040E+03 -0.24822751453E+03 -0.74549426150E+03  0.80845255978E+03  0.00000000000E+00 0. -1.
         21    1    1    2  505  501  0.88435958363E+02 -0.48155264714E+02  0.79937989511E+02  0.12856877700E+03  0.00000000000E+00 0. -1.
          1    1    1    2  501    0 -0.38663281520E+02 -0.26805104447E+02  0.99308602805E+03  0.99419978981E+03  0.00000000000E+00 0. -1.
<scales pt_clust_3="14000.00000" pt_clust_4="318.68098" pt_clust_5="97.21078" pt_clust_6="47.04639"></scales>
<clustering>
<clus scale="   47.046">  1  6  2 -1</clus>
<clus scale="   97.211">  1  5  2 -1</clus>
<clus scale="  318.681">  2  4  1 -1</clus>
<clus scale="  318.681">  2  3  1 -1</clus>
</clustering>
</event>
<event>
 6    0  0.2781617E+002  0.1203855E+03  0.7546771E-02  0.1242462E+00
          1   -1    0    0  503    0 -0.00000000000E+00  0.00000000000E+00  0.38463600212E+03  0.38463600212E+03  0.00000000000E+00 0. -1.
         21   -1    0    0  505  502  0.00000000000E+00 -0.00000000000E+00 -0.16406771501E+03  0.16406771501E+03  0.00000000000E+00 0. -1.
         21    1    1    2  503  502 -0.54019308990E+01 -0.10248202595E+03 -0.48375355072E+02  0.11345449079E+03  0.00000000000E+00 0. -1.
         21    1    1    2  504  501  0.36938152266E+02  0.66997560818E+02 -0.16293377639E+02  0.78221316809E+02  0.00000000000E+00 0. -1.
         21    1    1    2  505  504 -0.73110967529E+01  0.61304229881E+02 -0.74686499009E+01  0.62188756768E+02  0.00000000000E+00 0. -1.
          1    1    1    2  501    0 -0.24225124614E+02 -0.25819764745E+02  0.29270566973E+03  0.29483915277E+03  0.00000000000E+00 0. -1.
<scales pt_clust_3="112.61180" pt_clust_4="39.35645" pt_clust_5="39.35645" pt_clust_6="35.40504"></scales>
<clustering>
<clus scale="   35.405">  1  6  2 -1</clus>
<clus scale="   39.356">  4  5 -1 -1</clus>
<clus scale="  112.612">  2  3  1 -1</clus>
<clus scale="  112.612">  2  3  1 -1</clus>
</clustering>
</event>
<event>
 6    0  0.2781617E+002  0.1507532E+03  0.7546771E-02  0.1199550E+00
         21   -1    0    0  505  502  0.00000000000E+00  0.00000000000E+00  0.20137732850E+03  0.20137732850E+03  0.00000000000E+00 0.  1.
         -3   -1    0    0    0  501 -0.00000000000E+00 -0.00000000000E+00 -0.25856410180E+04  0.25856410180E+04  0.00000000000E+00 0.  1.
         21    1    1    2  503  502  0.65276396532E+02 -0.72672931338E+02 -0.26765391817E+01  0.97721680069E+02  0.00000000000E+00 0.  1.
         21    1    1    2  504  503 -0.11370745126E+03 -0.77311191189E+02  0.32754406694E+02  0.14134799579E+03  0.00000000000E+00 0.  1.
         21    1    1    2  505  501  0.35258969258E+02  0.18333868436E+03 -0.64044031800E+02  0.19737757244E+03  0.00000000000E+00 0.  1.
         -3    1    1    2    0  504  0.13172085473E+02 -0.33354561830E+02 -0.23502975252E+04  0.23505710981E+04  0.00000000000E+00 0.  1.
<scales pt_clust_3="104.89345" pt_clust_4="150.75323" pt_clust_5="14000.00000" pt_clust_6="35.86127"></scales>
<clustering>
<clus scale="   35.861">  2  6  1 -1</clus>
<clus scale="  104.893">  1  3  2 -1</clus>
<clus scale="  150.753">  1  4  2 -1</clus>
<clus scale="  104.893">  1  3  2 -1</clus>
</clustering>
</event>
<event>
 6    0  0.2781617E+002  0.1411277E+03  0.7546771E-02  0.1211820E+00
          2   -1    0    0  505    0 -0.00000000000E+00  0.00000000000E+00  0.16369101455E+04  0.16369101455E+04  0.00000000000E+00 0. -1.
         21   -1    0    0  501  502  0.00000000000E+00 -0.00000000000E+00 -0.29698427498E+02  0.29698427498E+02  0.00000000000E+00 0.  1.
         21    1    1    2  503  504 -0.15353095406E+03 -0.25835989151E+02  0.40122736434E+03  0.43037501099E+03  0.00000000000E+00 0.  1.
         21    1    1    2  504  502 -0.65049284607E+01 -0.38150919276E+02  0.56610545976E+02  0.68575218932E+02  0.00000000000E+00 0.  1.
         21    1    1    2  505  503  0.10295641323E+03  0.77475959332E+02  0.52684715903E+03  0.54237484849E+03  0.00000000000E+00 0.  1.
          2    1    1    2  501    0  0.57079469288E+02 -0.13489050905E+02  0.62252664861E+03  0.62528349453E+03  0.00000000000E+00 0. -1.
<scales pt_clust_3="14000.00000" pt_clust_4="38.70151" pt_clust_5="141.12771" pt_clust_6="58.83656"></scales>
<clustering>
<clus scale="   38.702">  2  4  1 -1</clus>
<clus scale="   58.837">  1  6  2 -1</clus>
<clus scale="  141.128">  1  5  2 -1</clus>
<clus scale="   38.702">  2  3  1 -1</clus>
</clustering>
</event>
<event>
 6    0  0.2781617E+002  0.9555373E+02  0.7546771E-02  0.1289934E+00
         21   -1    0    0  505  502  0.00000000000E+00  0.00000000000E+00  0.28707038578E+03  0.28707038578E+03  0.00000000000E+00 0.  1.
          2   -1    0    0  503    0 -0.00000000000E+00 -0.00000000000E+00 -0.63901617700E+03  0.63901617700E+03  0.00000000000E+00 0. -1.
         21    1    1    2  503  504  0.39765257374E+02  0.29024042421E+02  0.21474388731E+02  0.53710521352E+02  0.00000000000E+00 0.  1.
         21    1    1    2  504  502 -0.26282723046E+02 -0.37754118727E+02  0.44051228899E+02  0.63691960082E+02  0.00000000000E+00 0.  1.
         21    1    1    2  505  501  0.35672792998E+02  0.90657685156E+02  0.17943635831E+03  0.20417828171E+03  0.00000000000E+00 0.  1.
          2    1    1    2  501    0 -0.49155327326E+02 -0.81927608850E+02 -0.59690776716E+03  0.60450579963E+03  0.00000000000E+00 0. -1.
<scales pt_clust_3="42.28967" pt_clust_4="46.00168" pt_clust_5="14000.00000" pt_clust_6="95.55373"></scales>
<clustering>
<clus scale="   46.002">  1  4  2 -1</clus>
<clus scale="   42.290">  1  3  2 -1</clus>
<clus scale="   95.554">  2  6  1 -1</clus>
<clus scale="   46.002">  1  3  2 -1</clus>
</clustering>
</event>
<event>
 6    0  0.2781617E+002  0.1718096E+03  0.7546771E-02  0.1175974E+00
         21   -1    0    0  504  502  0.00000000000E+00  0.00000000000E+00  0.13033783462E+04  0.13033783462E+04  0.00000000000E+00 0. -1.
          1   -1    0    0  503    0 -0.00000000000E+00 -0.00000000000E+00 -0.14247416204E+03  0.14247416204E+03  0.00000000000E+00 0. -1.
         21    1    1    2  503  505 -0.27250929570E+02  0.12003156556E+03  0.37325598665E+03  0.39302699839E+03  0.00000000000E+00 0. -1.
         21    1    1    2  504  501 -0.30642614494E+02 -0.22556041560E+03  0.31080782489E+03  0.38525053526E+03  0.00000000000E+00 0. -1.
         21    1    1    2  505  502  0.53180051732E+02  0.73686870571E+02  0.56575838217E+03  0.57300996483E+03  0.00000000000E+00 0. -1.
          1    1    1    2  501    0  0.47134923314E+01  0.31841979470E+02 -0.88918009494E+02  0.94565009802E+02  0.00000000000E+00 0. -1.
<scales pt_clust_3="14000.00000" pt_clust_4="171.80963" pt_clust_5="92.92133" pt_clust_6="32.18895"></scales>
<clustering>
<clus scale="   32.189">  2  6  1 -1</clus>
<clus scale="   92.921">  1  5  2 -1</clus>
<clus scale="  171.810">  2  4  1 -1</clus>
<clus scale="   92.921">  1  3  2 -1</clus>
</clustering>
</event>
<event>
 6    0  0.2781617E+002  0.8219181E+02  0.7546771E-02  0.1322944E+00
          1   -1    0    0  504    0 -0.00000000000E+00  0.00000000000E+00  0.16026538973E+03  0.16026538973E+03  0.00000000000E+00 0. -1.
         21   -1    0    0  503  502  0.00000000000E+00 -0.00000000000E+00 -0.91458148662E+03  0.91458148662E+03  0.00000000000E+00 0. -1.
         21    1    1    2  503  501  0.63123930953E+01 -0.33393533661E+02 -0.75674445135E+02  0.82955385862E+02  0.00000000000E+00 0.  1.
         21    1    1    2  504  505 -0.97403206814E+02  0.22808743855E+02 -0.10869333821E+03  0.14772225718E+03  0.00000000000E+00 0. -1.
         21    1    1    2  505  502  0.27422282235E+02  0.61163848253E+02 -0.69324259432E+03  0.69647562232E+03  0.00000000000E+00 0. -1.
          1    1    1    2  501    0  0.63668531484E+02 -0.50579058447E+02  0.12329428078E+03  0.14769361099E+03  0.00000000000E+00 0. -1.
<scales pt_clust_3="33.98491" pt_clust_4="14000.00000" pt_clust_5="46.71227" pt_clust_6="82.19181"></scales>
<clustering>
<clus scale="   33.985">  2  3  1 -1</clus>
<clus scale="   46.712">  2  5  1 -1</clus>
<clus scale="   82.192">  1  6  2 -1</clus>
<clus scale="   33.985">  2  3  1 -1</clus>
</clustering>
</event>
<event>
 6    0  0.2781617E+002  0.1456212E+03  0.7546771E-02  0.1205959E+00
          2   -1    0    0  504    0 -0.00000000000E+00  0.00000000000E+00  0.30376773154E+04  0.30376773154E+04  0.00000000000E+00 0.  1.
         21   -1    0    0  505  502  0.00000000000E+00 -0.00000000000E+00 -0.91946126782E+02  0.91946126782E+02  0.00000000000E+00 0.  1.
         21    1    1    2  503  501  0.42907955726E+02  0.79301298400E+02  0.85706833441E+02  0.12440036130E+03  0.00000000000E+00 0.  1.
         21    1    1    2  504  502 -0.75002796842E+02 -0.21360108570E+03  0.45469890354E+03  0.50793890993E+03  0.00000000000E+00 0.  1.
         21    1    1    2  505  503  0.10950196291E+02  0.75673836291E+02 -0.13509669276E+02  0.77646297154E+02  0.00000000000E+00 0. -1.
          2    1    1    2  501    0  0.21144644825E+02  0.58625951010E+02  0.24188351209E+04  0.24196378738E+04  0.00000000000E+00 0.  1.
<scales pt_clust_3="14000.00000" pt_clust_4="145.62124" pt_clust_5="79.63029" pt_clust_6="62.32253"></scales>
<clustering>
<clus scale="   62.323">  1  6  2 -1</clus>
<clus scale="   79.630">  2  5  1 -1</clus>
<clus scale="  145.621">  1  4  2 -1</clus>
<clus scale="   79.630">  2  3  1 -1</clus>
</clustering>
</event>
<event>
 6    0  0.2781617E+002  0.1397201E+03  0.7546771E-02  0.1213706E+00
         21   -1    0    0  505  502  0.00000000000E+00  0.00000000000E+00  0.51663938585E+03  0.51663938585E+03  0.00000000000E+00 0. -1.
          2   -1    0    0  504    0 -0.00000000000E+00 -0.00000000000E+00 -0.44899843320E+04  0.44899843320E+04  0.00000000000E+00 0. -1.
         21    1    1    2  503  501  0.44088277976E+02 -0.62070599393E+02 -0.18744613905E+03  0.20231804321E+03  0.00000000000E+00 0. -1.
         21    1    1    2  504  502  0.28930480167E+02  0.14526530515E+02  0.63929450573E+02  0.71658686996E+02  0.00000000000E+00 0. -1.
         21    1    1    2  505  503 -0.89278048904E+02  0.11738986782E+03  0.42878146401E+03  0.45343631853E+03  0.00000000000E+00 0. -1.
          2    1    1    2  501    0  0.16259290761E+02 -0.69845798940E+02 -0.42786097217E+04  0.42792106691E+04  0.00000000000E+00 0. -1.
<scales pt_clust_3="14000.00000" pt_clust_4="32.37272" pt_clust_5="139.72011" pt_clust_6="71.70824"></scales>
<clustering>
<clus scale="   32.373">  1  4  2 -1</clus>
<clus scale="   71.708">  2  6  1 -1</clus>
<clus scale="  139.720">  1  5  2 -1</clus>
<clus scale="   32.373">  1  3  2 -1</clus>
</clustering>
</event>
<event>
 6    0  0.2781617E+002  0.1565490E+03  0.7546771E-02  0.1192649E+00
          2   -1    0    0  505    0 -0.00000000000E+00  0.00000000000E+00  0.17544095375E+04  0.17544095375E+04  0.00000000000E+00 0. -1.
         21   -1    0    0  501  502  0.00000000000E+00 -0.00000000000E+00 -0.33578332378E+02  0.33578332378E+02  0.00000000000E+00 0. -1.
         21    1    1    2  503  504 -0.55242597586E+02 -0.39233502127E+02  0.12062648295E+03  0.13835375191E+03  0.00000000000E+00 0. -1.
         21    1    1    2  504  502 -0.62236921268E+02 -0.51225899388E+02  0.72113061208E+02  0.10815646413E+03  0.00000000000E+00 0. -1.
         21    1    1    2  505  503 -0.30928126704E+02  0.62299692560E+01  0.20128909766E+03  0.20374656408E+03  0.00000000000E+00 0. -1.
          2    1    1    2  501    0  0.14840764556E+03  0.84229432259E+02  0.13268025633E+04  0.13377310898E+04  0.00000000000E+00 0. -1.
<scales pt_clust_3="37.29314" pt_clust_4="37.29314" pt_clust_5="31.54935" pt_clust_6="151.23880"></scales>
<clustering>
<clus scale="   31.549">  1  5  2 -1</clus>
<clus scale="   37.293">  3  4 -1 -1</clus>
<clus scale="  151.239">  1  6  2 -1</clus>
<clus scale="  156.549">  2  3  1 -1</clus>
</clustering>
</event>
<event>
 6    0  0.2781617E+002  0.1321471E+03  0.7546771E-02  0.1224304E+00
          1   -1    0    0  503    0 -0.00000000000E+00  0.00000000000E+00  0.62898682150E+03  0.62898682150E+03  0.00000000000E+00 0.  1.
         21   -1    0    0  504  502  0.00000000000E+00 -0.00000000000E+00 -0.24887223586E+03  0.24887223586E+03  0.00000000000E+00 0. -1.
         21    1    1    2  503  505  0.36796994494E+02  0.12614748413E+03 -0.74104484073E+02  0.15085980616E+03  0.00000000000E+00 0. -1.
         21    1    1    2  504  501 -0.10357358099E+03 -0.94042325288E+02 -0.18360279426E+02  0.14109764522E+03  0.00000000000E+00 0. -1.
         21    1    1    2  505  502  0.29966917074E+02 -0.18033219492E+01 -0.51525067617E+02  0.59633050248E+02  0.00000000000E+00 0.  1.
          1    1    1    2  501    0  0.36809669427E+02 -0.30301836893E+02  0.52410441676E+03  0.52626855573E+03  0.00000000000E+00 0.  1.
<scales pt_clust_3="132.14711" pt_clust_4="14000.00000" pt_clust_5="30.02113" pt_clust_6="47.81363"></scales>
<clustering>
<clus scale="   30.021">  2  5  1 -1</clus>
<clus scale="   47.814">  1  6  2 -1</clus>
<clus scale="  132.147">  2  3  1 -1</clus>
<clus scale="   30.021">  2  3  1 -1</clus>
</clustering>
</event>
<event>
 6    0  0.2781617E+002  0.8697927E+02  0.7546771E-02  0.1310336E+00
          2   -1    0    0  504    0 -0.00000000000E+00  0.00000000000E+00  0.78105037762E+03  0.78105037762E+03  0.00000000000E+00 0.  1.
         21   -1    0    0  501  502  0.00000000000E+00 -0.00000000000E+00 -0.60535375094E+03  0.60535375094E+03  0.00000000000E+00 0. -1.
         21    1    1    2  503  502  0.24004731869E+02 -0.76263258912E+02 -0.39924143713E+03  0.40716831524E+03  0.00000000000E+00 0. -1.
         21    1    1    2  504  505 -0.53031784522E+02  0.27684589039E+02  0.18059207596E+02  0.62489532074E+02  0.00000000000E+00 0.  1.
         21    1    1    2  505  503 -0.80528666590E+02  0.12157038901E+03 -0.14321149594E+03  0.20438629649E+03  0.00000000000E+00 0.  1.
          2    1    1    2  501    0  0.10955571924E+03 -0.72991719133E+02  0.70009035215E+03  0.71235998474E+03  0.00000000000E+00 0.  1.
<scales pt_clust_3="86.97927" pt_clust_4="59.82313" pt_clust_5="14000.00000" pt_clust_6="75.18047"></scales>
<clustering>
<clus scale="   59.823">  1  4  2 -1</clus>
<clus scale="   75.180">  1  6  2 -1</clus>
<clus scale="   86.979">  2  3  1 -1</clus>
<clus scale="   86.979">  2  3  1 -1</clus>
</clustering>
</event>
<event>
 6    0  0.2781617E+002  0.1114195E+03  0.7546771E-02  0.1257964E+00
         21   -1    0    0  503  502  0.00000000000E+00  0.00000000000E+00  0.85896157462E+02  0.85896157462E+02  0.00000000000E+00 0. -1.
          2   -1    0    0  505    0 -0.00000000000E+00 -0.00000000000E+00 -0.23972760380E+04  0.23972760380E+04  0.00000000000E+00 0. -1.
         21    1    1    2  503  501  0.63302687563E+02 -0.63270050111E+02  0.11829488873E+02  0.90278825318E+02  0.00000000000E+00 0. -1.
         21    1    1    2  504  502 -0.52208582884E+02 -0.33347668809E+02 -0.17556590989E+02  0.64389727666E+02  0.00000000000E+00 0. -1.
         21    1    1    2  505  504 -0.46134576817E+02 -0.28491983817E+01 -0.42179535543E+02  0.62574997627E+02  0.00000000000E+00 0. -1.
          2    1    1    2  501    0  0.35040472138E+02  0.99466917302E+02 -0.22634732428E+04  0.22659286448E+04  0.00000000000E+00 0. -1.
<scales pt_clust_3="89.50044" pt_clust_4="34.22647" pt_clust_5="34.22647" pt_clust_6="104.13580"></scales>
<clustering>
<clus scale="   34.226">  4  5 -1 -1</clus>
<clus scale="   89.500">  1  3  2 -1</clus>
<clus scale="  104.136">  2  6  1 -1</clus>
<clus scale="   89.500">  1  3  2 -1</clus>
</clustering>
</event>
<event>
 6    0  0.2781617E+002  0.7544949E+02  0.7546771E-02  0.1342485E+00
         21   -1    0    0  505  502  0.00000000000E+00  0.00000000000E+00  0.18731029891E+03  0.18731029891E+03  0.00000000000E+00 0. -1.
          3   -1    0    0  504    0 -0.00000000000E+00 -0.00000000000E+00 -0.37594965974E+03  0.37594965974E+03  0.00000000000E+00 0.  1.
         21    1    1    2  503  502  0.68370612947E+02  0.24719587222E+02  0.10224124610E+03  0.12545465759E+03  0.00000000000E+00 0. -1.
         21    1    1    2  504  503  0.56475057095E+02 -0.44795959444E+01  0.19694125390E+02  0.59977974529E+02  0.00000000000E+00 0. -1.
         21    1    1    2  505  501 -0.82509278217E+02 -0.39360396883E+02 -0.34245442183E+02  0.97620551858E+02  0.00000000000E+00 0. -1.
          3    1    1    2  501    0 -0.42336391825E+02  0.19120405606E+02 -0.27632929013E+03  0.28020677467E+03  0.00000000000E+00 0.  1.
<scales pt_clust_3="14000.00000" pt_clust_4="47.74832" pt_clust_5="75.44949" pt_clust_6="46.45385"></scales>
<clustering>
<clus scale="   46.454">  2  6  1 -1</clus>
<clus scale="   47.748">  2  4  1 -1</clus>
<clus scale="   75.449">  2  5  1 -1</clus>
<clus scale="   75.449">  1  3  2 -1</clus>
</clustering>
</event>
<event>
 6    0  0.2781617E+002  0.1818534E+03  0.7546771E-02  0.1166021E+00
         21   -1    0    0  503  502  0.00000000000E+00  0.00000000000E+00  0.14870516524E+04  0.14870516524E+04  0.00000000000E+00 0.  1.
          1   -1    0    0  504    0 -0.00000000000E+00 -0.00000000000E+00 -0.14814160298E+04  0.14814160298E+04  0.00000000000E+00 0.  1.
         21    1    1    2  503  501  0.21648041583E+03 -0.80295124394E+02  0.46979120796E+02  0.23562282408E+03  0.00000000000E+00 0. -1.
         21    1    1    2  504  505 -0.98921404245E+02  0.10495358127E+03  0.58888486899E+03  0.60628878215E+03  0.00000000000E+00 0.  1.
         21    1    1    2  505  502 -0.76808075042E+02 -0.48000084636E+02  0.74502037262E+03  0.75050572559E+03  0.00000000000E+00 0.  1.
          1    1    1    2  501    0 -0.40750936540E+02  0.23341627760E+02 -0.13752487398E+04  0.13760503503E+04  0.00000000000E+00 0.  1.
<scales pt_clust_3="181.85336" pt_clust_4="14000.00000" pt_clust_5="91.15479" pt_clust_6="46.96244"></scales>
<clustering>
<clus scale="   46.962">  2  6  1 -1</clus>
<clus scale="   91.155">  1  5  2 -1</clus>
<clus scale="  181.853">  2  3  1 -1</clus>
<clus scale="   91.155">  1  3  2 -1</clus>
</clustering>
</event>
<event>
 6    0  0.2781617E+002  0.1451207E+03  0.7546771E-02  0.1206600E+00
          1   -1    0    0  504    0 -0.00000000000E+00  0.00000000000E+00  0.17372626974E+04  0.17372626974E+04  0.00000000000E+00 0.  1.
         21   -1    0    0  505  502  0.00000000000E+00 -0.00000000000E+00 -0.77531623087E+03  0.77531623087E+03  0.00000000000E+00 0. -1.
         21    1    1    2  503  501 -0.69130273055E+02 -0.45786398374E+02 -0.43964756762E+03  0.44739844953E+03  0.00000000000E+00 0. -1.
         21    1    1    2  504  502  0.50742760269E+02 -0.64588709585E+01 -0.20484483769E+02  0.55101350338E+02  0.00000000000E+00 0. -1.
         21    1    1    2  505  503 -0.86796969118E+02 -0.33404460513E+02 -0.28388513914E+03  0.29873122377E+03  0.00000000000E+00 0. -1.
          1    1    1    2  501    0  0.10518448190E+03  0.85649729845E+02  0.17059636570E+04  0.17113479046E+04  0.00000000000E+00 0.  1.
<scales pt_clust_3="48.38098" pt_clust_4="51.15217" pt_clust_5="48.38098" pt_clust_6="135.77412"></scales>
<clustering>
<clus scale="   48.381">  3  5 -1 -1</clus>
<clus scale="   51.152">  2  4  1 -1</clus>
<clus scale="  135.774">  1  6  2 -1</clus>
<clus scale="   51.152">  2  3  1 -1</clus>
</clustering>
</event>
<event>
 6    0  0.2781617E+002  0.7987095E+02  0.7546771E-02  0.1329418E+00
          2   -1    0    0  505    0 -0.00000000000E+00  0.00000000000E+00  0.60709656556E+03  0.60709656556E+03  0.00000000000E+00 0. -1.
         21   -1    0    0  503  502  0.00000000000E+00 -0.00000000000E+00 -0.40823690929E+03  0.40823690929E+03  0.00000000000E+00 0. -1.
         21    1    1    2  503  504 -0.36534714099E+02 -0.84772445749E+01 -0.20824620763E+03  0.21159662569E+03  0.00000000000E+00 0. -1.
         21    1    1    2  504  501 -0.42585590231E+02 -0.11908411628E+02  0.12626185139E+02  0.45986555796E+02  0.00000000000E+00 0. -1.
         21    1    1    2  505  502  0.10824431173E+03 -0.53807251843E+02 -0.15834387172E+03  0.19921052453E+03  0.00000000000E+00 0.  1.
          2    1    1    2  501    0 -0.29124007397E+02  0.74192908045E+02  0.55282355048E+03  0.55853976884E+03  0.00000000000E+00 0. -1.
<scales pt_clust_3="37.50532" pt_clust_4="47.37087" pt_clust_5="79.87095" pt_clust_6="14000.00000"></scales>
<clustering>
<clus scale="   37.505">  2  3  1 -1</clus>
<clus scale="   47.371">  2  4  1 -1</clus>
<clus scale="   79.871">  2  5  1 -1</clus>
<clus scale="   37.505">  2  3  1 -1</clus>
</clustering>
</event>
<event>
 6    0  0.2781617E+002  0.1286456E+03  0.7546771E-02  0.1229479E+00
         21   -1    0    0  505  502  0.00000000000E+00  0.00000000000E+00  0.13908766889E+04  0.13908766889E+04  0.00000000000E+00 0.  1.
         -3   -1    0    0    0  501 -0.00000000000E+00 -0.00000000000E+00 -0.31981515668E+03  0.31981515668E+03  0.00000000000E+00 0.  1.
         21    1    1    2  503  504 -0.11798801543E+02  0.44322825469E+02  0.83122565664E+02  0.94937271385E+02  0.00000000000E+00 0.  1.
         21    1    1    2  504  502 -0.34372100724E+02  0.96417672393E+00  0.13329643733E+03  0.13766012912E+03  0.00000000000E+00 0.  1.
         21    1    1    2  505  501  0.31406548757E+02  0.83091831101E+02  0.11511910753E+04  0.11546131454E+04  0.00000000000E+00 0.  1.
         -3    1    1    2    0  503  0.14764353510E+02 -0.12837883329E+03 -0.29654854614E+03  0.32348129960E+03  0.00000000000E+00 0.  1.
<scales pt_clust_3="46.61817" pt_clust_4="34.38562" pt_clust_5="128.64555" pt_clust_6="14000.00000"></scales>
<clustering>
<clus scale="   34.386">  1  4  2 -1</clus>
<clus scale="   46.618">  1  3  2 -1</clus>
<clus scale="  128.646">  1  5  2 -1</clus>
<clus scale="   34.386">  1  3  2 -1</clus>
</clustering>
</event>
<event>
 6    0  0.2781617E+002  0.1714663E+03  0.7546771E-02  0.1176327E+00
         21   -1    0    0  504  502  0.00000000000E+00  0.00000000000E+00  0.35268444085E+03  0.35268444085E+03  0.00000000000E+00 0. -1.
          2   -1    0    0  502    0 -0.00000000000E+00 -0.00000000000E+00 -0.25593245267E+04  0.25593245267E+04  0.00000000000E+00 0.  1.
         21    1    1    2  503  505  0.89440585573E+02 -0.13798725774E+03 -0.25650967197E+03  0.30469216179E+03  0.00000000000E+00 0.  1.
         21    1    1    2  504  503 -0.30927031845E+02  0.17042963974E+03  0.26043590827E+03  0.31277724616E+03  0.00000000000E+00 0. -1.
         21    1    1    2  505  501 -0.10696731235E+03 -0.54153492570E+02 -0.44597519186E+02  0.12792007421E+03  0.00000000000E+00 0. -1.
          2    1    1    2  501    0  0.48453758621E+02  0.21711110573E+02 -0.21659688030E+04  0.21666194854E+04  0.00000000000E+00 0.  1.
<scales pt_clust_3="171.46633" pt_clust_4="14000.00000" pt_clust_5="108.25570" pt_clust_6="53.09557"></scales>
<clustering>
<clus scale="   53.096">  2  6  1 -1</clus>
<clus scale="  108.256">  2  5  1 -1</clus>
<clus scale="  171.466">  2  3  1 -1</clus>
<clus scale="  171.466">  1  3  2 -1</clus>
</clustering>
</event>
<event>
 6    0  0.2781617E+002  0.1617663E+03  0.7546771E-02  0.1186717E+00
         21   -1    0    0  504  502  0.00000000000E+00  0.00000000000E+00  0.35567814174E+03  0.35567814174E+03  0.00000000000E+00 0. -1.
          1   -1    0    0  503    0 -0.00000000000E+00 -0.00000000000E+00 -0.98313492781E+03  0.98313492781E+03  0.00000000000E+00 0.  1.
         21    1    1    2  503  502  0.89631859192E+02  0.11622834872E+01  0.25429602063E+03  0.26963250396E+03  0.00000000000E+00 0. -1.
         21    1    1    2  504  505 -0.10965059715E+02 -0.28896425408E+02  0.42387919740E+02  0.52459238231E+02  0.00000000000E+00 0. -1.
         21    1    1    2  505  501  0.89282857008E+02 -0.29059403138E+02 -0.20829020382E+02  0.96175493533E+02  0.00000000000E+00 0. -1.
          1    1    1    2  501    0 -0.16794965649E+03  0.56793545059E+02 -0.90331170606E+03  0.92054583383E+03  0.00000000000E+00 0.  1.
<scales pt_clust_3="83.65142" pt_clust_4="30.90689" pt_clust_5="14000.00000" pt_clust_6="161.76634"></scales>
<clustering>
<clus scale="   30.907">  1  4  2 -1</clus>
<clus scale="   83.651">  1  3  2 -1</clus>
<clus scale="  161.766">  2  6  1 -1</clus>
<clus scale="   30.907">  1  3  2 -1</clus>
</clustering>
</event>
<event>
 6    0  0.2781617E+002  0.9251025E+02  0.7546771E-02  0.1296884E+00
          2   -1    0    0  504    0 -0.00000000000E+00  0.00000000000E+00  0.12468451407E+04  0.12468451407E+04  0.00000000000E+00 0.  1.
         21   -1    0    0  505  502  0.00000000000E+00 -0.00000000000E+00 -0.11688830729E+03  0.11688830729E+03  0.00000000000E+00 0. -1.
         21    1    1    2  503  502  0.99341589997E+01 -0.12865846915E+03 -0.52238911868E+02  0.13921419868E+03  0.00000000000E+00 0. -1.
         21    1    1    2  504  503  0.50093975097E+01  0.29835300142E+02  0.52514133139E+02  0.60605060658E+02  0.00000000000E+00 0.  1.
         21    1    1    2  505  501 -0.59020269335E+01  0.36832964418E+02  0.51705372116E+01  0.37659469524E+02  0.00000000000E+00 0. -1.
          2    1    1    2  501    0 -0.90415295760E+01  0.61990204593E+02  0.11245110749E+04  0.11262547191E+04  0.00000000000E+00 0.  1.
<scales pt_clust_3="92.51025" pt_clust_4="30.25292" pt_clust_5="37.81899" pt_clust_6="14000.00000"></scales>
<clustering>
<clus scale="   30.253">  1  4  2 -1</clus>
<clus scale="   37.819">  2  5  1 -1</clus>
<clus scale="   92.510">  2  3  1 -1</clus>
<clus scale="   37.819">  2  3  1 -1</clus>
</clustering>
</event>
<event>
 6    0  0.2781617E+002  0.2344645E+03  0.7546771E-02  0.1123536E+00
          2   -1    0    0  504    0 -0.00000000000E+00  0.00000000000E+00  0.20171120464E+04  0.20171120464E+04  0.00000000000E+00 0.  1.
         21   -1    0    0  505  502  0.00000000000E+00 -0.00000000000E+00 -0.72821597694E+02  0.72821597694E+02  0.00000000000E+00 0.  1.
         21    1    1    2  503  501  0.28055210678E+02 -0.45616914085E+02  0.72322967528E+02  0.89992273717E+02  0.00000000000E+00 0.  1.
         21    1    1    2  504  502  0.30863762445E+02 -0.26531261160E+02  0.12415044475E+03  0.13065149284E+03  0.00000000000E+00 0.  1.
         21    1    1    2  505  503  0.10100486765E+03 -0.13572492116E+03  0.91511165189E+02  0.19234742230E+03  0.00000000000E+00 0.  1.
          2    1    1    2  501    0 -0.15992384077E+03  0.20787309640E+03  0.16563058713E+04  0.16769424552E+04  0.00000000000E+00 0.  1.
<scales pt_clust_3="32.47986" pt_clust_4="40.69987" pt_clust_5="32.47986" pt_clust_6="227.24633"></scales>
<clustering>
<clus scale="   32.480">  3  5 -1 -1</clus>
<clus scale="   40.700">  1  4  2 -1</clus>
<clus scale="  227.246">  1  6  2 -1</clus>
<clus scale="  234.465">  2  3  1 -1</clus>
</clustering>
</event>
<event>
 6    0  0.2781617E+002  0.1299146E+03  0.7546771E-02  0.1227583E+00
         21   -1    0    0  504  502  0.00000000000E+00  0.00000000000E+00  0.55634116383E+02  0.55634116383E+02  0.00000000000E+00 0.  1.
          2   -1    0    0  505    0 -0.00000000000E+00 -0.00000000000E+00 -0.22354085647E+04  0.22354085647E+04  0.00000000000E+00 0.  1.
         21    1    1    2  503  502 -0.33080643108E+01 -0.50034896572E+02 -0.21863346749E+02  0.54703200048E+02  0.00000000000E+00 0.  1.
         21    1    1    2  504  501 -0.22045819038E+02 -0.28694532373E+02  0.14570001474E+02  0.39008707594E+02  0.00000000000E+00 0.  1.
         21    1    1    2  505  503  0.30063851812E+02 -0.45427742137E+02 -0.59388274531E+02  0.80588349612E+02  0.00000000000E+00 0. -1.
          2    1    1    2  501    0 -0.47099684627E+01  0.12415717108E+03 -0.21130928285E+04  0.21167424238E+04  0.00000000000E+00 0.  1.
<scales pt_clust_3="40.62483" pt_clust_4="36.18555" pt_clust_5="40.62483" pt_clust_6="122.49409"></scales>
<clustering>
<clus scale="   36.186">  1  4  2 -1</clus>
<clus scale="   40.625">  3  5 -1 -1</clus>
<clus scale="  122.494">  2  6  1 -1</clus>
<clus scale="   36.186">  1  3  2 -1</clus>
</clustering>
</event>
<event>
 6    0  0.2781617E+002  0.1420575E+03  0.7546771E-02  0.1210587E+00
         21   -1    0    0  505  502  0.00000000000E+00  0.00000000000E+00  0.12180198104E+04  0.12180198104E+04  0.00000000000E+00 0. -1.
          1   -1    0    0  503    0 -0.00000000000E+00 -0.00000000000E+00 -0.16331263804E+03  0.16331263804E+03  0.00000000000E+00 0.  1.
         21    1    1    2  503  504  0.31293539385E+01  0.54048294326E+02  0.24724988297E+03  0.25310771542E+03  0.00000000000E+00 0. -1.
         21    1    1    2  504  502  0.57343726977E+02  0.62819117353E+02  0.46928486771E+03  0.47693063603E+03  0.00000000000E+00 0. -1.
         21    1    1    2  505  501 -0.89853914770E+02 -0.10679933394E+03  0.48321283580E+03  0.50296567319E+03  0.00000000000E+00 0. -1.
          1    1    1    2  501    0  0.29380833854E+02 -0.10068077740E+02 -0.14504041410E+03  0.14832842381E+03  0.00000000000E+00 0.  1.
<scales pt_clust_3="36.50317" pt_clust_4="36.50317" pt_clust_5="134.02004" pt_clust_6="31.05800"></scales>
<clustering>
<clus scale="   31.058">  2  6  1 -1</clus>
<clus scale="   36.503">  3  4 -1 -1</clus>
<clus scale="  134.020">  2  5  1 -1</clus>
<clus scale="  142.057">  1  3  2 -1</clus>
</clustering>
</event>
<event>
 6    0  0.2781617E+002  0.1097977E+03  0.7546771E-02  0.1260945E+00
         21   -1    0    0  505  502  0.00000000000E+00  0.00000000000E+00  0.11331739034E+02  0.11331739034E+02  0.00000000000E+00 0.  1.
          2   -1    0    0  504    0 -0.00000000000E+00 -0.00000000000E+00 -0.32284458993E+04  0.32284458993E+04  0.00000000000E+00 0. -1.
         21    1    1    2  503  502  0.57100654268E+02  0.78397849724E+01 -0.15845369556E+03  0.16861055893E+03  0.00000000000E+00 0.  1.
         21    1    1    2  504  503  0.60619474359E+02  0.32534790729E+02 -0.33385171111E+03  0.34086683366E+03  0.00000000000E+00 0.  1.
         21    1    1    2  505  501 -0.17979255904E+02 -0.42882639135E+02 -0.31364490277E+03  0.31707301906E+03  0.00000000000E+00 0. -1.
          2    1    1    2  501    0 -0.99740872723E+02  0.25080634338E+01 -0.24111638508E+04  0.24132272267E+04  0.00000000000E+00 0. -1.
<scales pt_clust_3="37.89859" pt_clust_4="37.89859" pt_clust_5="46.49919" pt_clust_6="101.69103"></scales>
<clustering>
<clus scale="   37.899">  3  4 -1 -1</clus>
<clus scale="   46.499">  1  5  2 -1</clus>
<clus scale="  101.691">  2  6  1 -1</clus>
<clus scale="   46.499">  1  3  2 -1</clus>
</clustering>
</event>
<event>
 6    0  0.2781617E+002  0.1950078E+03  0.7546771E-02  0.1154021E+00
          2   -1    0    0  504    0 -0.00000000000E+00  0.00000000000E+00  0.45540654146E+03  0.45540654146E+03  0.00000000000E+00 0. -1.
         21   -1    0    0  505  502  0.00000000000E+00 -0.00000000000E+00 -0.31521590670E+03  0.31521590670E+03  0.00000000000E+00 0.  1.
         21    1    1    2  503  501 -0.16703815938E+02 -0.94769256195E+02 -0.85956329796E+02  0.12902991908E+03  0.00000000000E+00 0.  1.
         21    1    1    2  504  502  0.31628108421E+02  0.14171417795E+03  0.53446623397E+02  0.15472487527E+03  0.00000000000E+00 0. -1.
         21    1    1    2  505  503 -0.64706949038E+02 -0.97524850144E+02 -0.13060316567E+03  0.17537181225E+03  0.00000000000E+00 0.  1.
          2    1    1    2  501    0  0.49782656554E+02  0.50579928393E+02  0.30330350684E+03  0.31149584156E+03  0.00000000000E+00 0. -1.
<scales pt_clust_3="42.11941" pt_clust_4="189.39476" pt_clust_5="42.11941" pt_clust_6="70.96930"></scales>
<clustering>
<clus scale="   42.119">  3  5 -1 -1</clus>
<clus scale="   70.969">  1  6  2 -1</clus>
<clus scale="  189.395">  1  4  2 -1</clus>
<clus scale="  195.008">  2  3  1 -1</clus>
</clustering>
</event>
<event>
 6    0  0.3237463E+002  0.1217890E+03  0.7546771E-02  0.1240175E+00
         21   -1    0    0  504  502  0.00000000000E+00  0.00000000000E+00  0.30698533580E+03  0.30698533580E+03  0.00000000000E+00 0. -1.
          2   -1    0    0  503    0 -0.00000000000E+00 -0.00000000000E+00 -0.33131785475E+04  0.33131785475E+04  0.00000000000E+00 0. -1.
         21    1    1    2  503  502  0.21963346543E+02 -0.11441528384E+03  0.26306809691E+03  0.28771178179E+03  0.00000000000E+00 0. -1.
         21    1    1    2  504  505 -0.23596938054E+02  0.32732282294E+02 -0.60040040695E+01  0.40795414626E+02  0.00000000000E+00 0.  1.
         21    1    1    2  505  501  0.57938585657E+01 -0.40062649337E+02 -0.18317266604E+02  0.44430923070E+02  0.00000000000E+00 0. -1.
          2    1    1    2  501    0 -0.41602670554E+01  0.12174565089E+03 -0.32449400379E+04  0.32472257638E+04  0.00000000000E+00 0. -1.
<scales pt_clust_3="121.78897" pt_clust_4="40.35118" pt_clust_5="38.87565" pt_clust_6="14000.00000"></scales>
<clustering>
<clus scale="   40.351">  1  4  2 -1</clus>
<clus scale="   38.876">  1  5  2 -1</clus>
<clus scale="  121.789">  1  3  2 -1</clus>
<clus scale="   40.351">  1  3  2 -1</clus>
</clustering>
</event>
<event>
 6    0  0.2781617E+002  0.1645840E+03  0.7546771E-02  0.1183617E+00
          3   -1    0    0  502    0 -0.00000000000E+00  0.00000000000E+00  0.67658183117E+03  0.67658183117E+03  0.00000000000E+00 0. -1.
         21   -1    0    0  503  502  0.00000000000E+00 -0.00000000000E+00 -0.71712693103E+03  0.71712693103E+03  0.00000000000E+00 0. -1.
         21    1    1    2  503  504 -0.49083169007E+02  0.18903482676E+02 -0.30827716062E+03  0.31273200492E+03  0.00000000000E+00 0. -1.
         21    1    1    2  504  505 -0.13294995812E+02  0.65715268276E+02 -0.12624432876E+03  0.14294363905E+03  0.00000000000E+00 0. -1.
         21    1    1    2  505  501 -0.84702829944E+01  0.54709045300E+02 -0.25990167546E+03  0.26573239592E+03  0.00000000000E+00 0.  1.
          3    1    1    2  501    0  0.70848447814E+02 -0.13932779625E+03  0.65387806498E+03  0.67230072232E+03  0.00000000000E+00 0. -1.
<scales pt_clust_3="52.59752" pt_clust_4="49.20020" pt_clust_5="49.20020" pt_clust_6="155.42290"></scales>
<clustering>
<clus scale="   49.200">  4  5 -1 -1</clus>
<clus scale="   52.598">  2  3  1 -1</clus>
<clus scale="  155.423">  1  6  2 -1</clus>
<clus scale="   52.598">  2  3  1 -1</clus>
</clustering>
</event>
<event>
 6    0  0.2781617E+002  0.8249599E+02  0.7546771E-02  0.1322114E+00
         21   -1    0    0  505  502  0.00000000000E+00  0.00000000000E+00  0.62480734811E+02  0.62480734811E+02  0.00000000000E+00 0. -1.
          2   -1    0    0  504    0 -0.00000000000E+00 -0.00000000000E+00 -0.10894667834E+04  0.10894667834E+04  0.00000000000E+00 0. -1.
         21    1    1    2  503  501 -0.51535309776E+02  0.29928165065E+02 -0.62974670522E+02  0.86702896982E+02  0.00000000000E+00 0. -1.
         21    1    1    2  504  502  0.44378964630E+02  0.16036747127E+02 -0.37268902369E+01  0.47334548386E+02  0.00000000000E+00 0.  1.
         21    1    1    2  505  503 -0.56991123140E+02  0.11995261617E+02 -0.47070203756E+01  0.58429705278E+02  0.00000000000E+00 0. -1.
          2    1    1    2  501    0  0.64147468285E+02 -0.57960173809E+02 -0.95557746748E+03  0.95948036759E+03  0.00000000000E+00 0. -1.
<scales pt_clust_3="14000.00000" pt_clust_4="47.18760" pt_clust_5="35.72896" pt_clust_6="82.49599"></scales>
<clustering>
<clus scale="   47.188">  1  4  2 -1</clus>
<clus scale="   35.729">  1  5  2 -1</clus>
<clus scale="   82.496">  2  6  1 -1</clus>
<clus scale="   47.188">  1  3  2 -1</clus>
</clustering>
</event>
<event>
 6    0  0.2781617E+002  0.2207882E+03  0.7546771E-02  0.1133297E+00
          2   -1    0    0  503    0 -0.00000000000E+00  0.00000000000E+00  0.90440956071E+03  0.90440956071E+03  0.00000000000E+00 0.  1.
         21   -1    0    0  505  502  0.00000000000E+00 -0.00000000000E+00 -0.25187028315E+03  0.25187028315E+03  0.00000000000E+00 0. -1.
         21    1    1    2  503  502  0.25371421809E+02  0.11052567403E+03 -0.92294077368E+02  0.14621159455E+03  0.00000000000E+00 0.  1.
         21    1    1    2  504  501  0.10965793749E+03 -0.74125924618E+02 -0.25865888730E+02  0.13486497008E+03  0.00000000000E+00 0. -1.
         21    1    1    2  505  504  0.83092929237E+02 -0.32538365694E+02  0.17356384234E+02  0.90908878582E+02  0.00000000000E+00 0.  1.
          2    1    1    2  501    0 -0.21812228854E+03 -0.38613837160E+01  0.75334285942E+03  0.78429440064E+03  0.00000000000E+00 0.  1.
<scales pt_clust_3="113.40032" pt_clust_4="39.98342" pt_clust_5="39.98342" pt_clust_6="215.35125"></scales>
<clustering>
<clus scale="   39.983">  4  5 -1 -1</clus>
<clus scale="  113.400">  2  3  1 -1</clus>
<clus scale="  215.351">  1  6  2 -1</clus>
<clus scale="  113.400">  2  3  1 -1</clus>
</clustering>
</event>
<event>
 6    0  0.2781617E+002  0.1031501E+03  0.7546771E-02  0.1273808E+00
         21   -1    0    0  504  502  0.00000000000E+00  0.00000000000E+00  0.22735064031E+02  0.22735064031E+02  0.00000000000E+00 0. -1.
          2   -1    0    0  505    0 -0.00000000000E+00 -0.00000000000E+00 -0.28953338076E+04  0.28953338076E+04  0.00000000000E+00 0. -1.
         21    1    1    2  503  502 -0.22239077135E+01  0.46953034228E+02 -0.10093057008E+03  0.11133962981E+03  0.00000000000E+00 0. -1.
         21    1    1    2  504  501  0.29987639358E+02 -0.23380825373E+02 -0.24203525871E+02  0.45074739866E+02  0.00000000000E+00 0. -1.
         21    1    1    2  505  503 -0.55583931937E+02  0.61081222949E+02 -0.26454322489E+03  0.27713463717E+03  0.00000000000E+00 0. -1.
          2    1    1    2  501    0  0.27820200292E+02 -0.84653431805E+02 -0.24829214228E+04  0.24845198648E+04  0.00000000000E+00 0. -1.
<scales pt_clust_3="36.40106" pt_clust_4="38.02527" pt_clust_5="36.40106" pt_clust_6="91.16973"></scales>
<clustering>
<clus scale="   36.401">  3  5 -1 -1</clus>
<clus scale="   38.025">  1  4  2 -1</clus>
<clus scale="   91.170">  2  6  1 -1</clus>
<clus scale="   38.025">  1  3  2 -1</clus>
</clustering>
</event>
<event>
 6    0  0.2781617E+002  0.9719923E+02  0.7546771E-02  0.1286298E+00
         -1   -1    0    0    0  501 -0.00000000000E+00  0.00000000000E+00  0.13148573653E+04  0.13148573653E+04  0.00000000000E+00 0. -1.
         21   -1    0    0  505  502  0.00000000000E+00 -0.00000000000E+00 -0.12964989401E+03  0.12964989401E+03  0.00000000000E+00 0. -1.
         21    1    1    2  503  502 -0.69939958292E+02 -0.95160526771E+02  0.57648416135E+02  0.13141713550E+03  0.00000000000E+00 0. -1.
         21    1    1    2  504  501 -0.70272230429E+01  0.54060745207E+02 -0.35668346877E+02  0.65147348411E+02  0.00000000000E+00 0. -1.
         21    1    1    2  505  504  0.24375708142E+02  0.28755448093E+02 -0.33238586395E+02  0.50257880656E+02  0.00000000000E+00 0. -1.
         -1    1    1    2    0  503  0.52591473192E+02  0.12344333471E+02  0.11964659885E+04  0.11976848948E+04  0.00000000000E+00 0. -1.
<scales pt_clust_3="89.64921" pt_clust_4="31.23281" pt_clust_5="31.23281" pt_clust_6="54.02079"></scales>
<clustering>
<clus scale="   31.233">  4  5 -1 -1</clus>
<clus scale="   54.021">  1  6  2 -1</clus>
<clus scale="   89.649">  1  3  2 -1</clus>
<clus scale="   97.199">  2  3  1 -1</clus>
</clustering>
</event>
<event>
 6    0  0.2781617E+002  0.1028924E+03  0.7546771E-02  0.1274329E+00
         21   -1    0    0  503  502  0.00000000000E+00  0.00000000000E+00  0.15108662991E+04  0.15108662991E+04  0.00000000000E+00 0.  1.
          1   -1    0    0  505    0 -0.00000000000E+00 -0.00000000000E+00 -0.70493928187E+03  0.70493928187E+03  0.00000000000E+00 0.  1.
         21    1    1    2  503  501 -0.15827802791E+02 -0.27940037573E+02  0.20756887807E+03  0.21003810174E+03  0.00000000000E+00 0.  1.
         21    1    1    2  504  502 -0.18199429431E+01  0.54457280144E+02  0.11491143491E+04  0.11504054481E+04  0.00000000000E+00 0.  1.
         21    1    1    2  505  504 -0.99867802810E+01  0.73392814946E+02  0.13919058352E+03  0.15767136584E+03  0.00000000000E+00 0. -1.
          1    1    1    2  501    0  0.27634526015E+02 -0.99910057517E+02 -0.68994679349E+03  0.69769066532E+03  0.00000000000E+00 0.  1.
<scales pt_clust_3="32.11176" pt_clust_4="33.71491" pt_clust_5="14000.00000" pt_clust_6="102.89237"></scales>
<clustering>
<clus scale="   32.112">  1  3  2 -1</clus>
<clus scale="   33.715">  1  4  2 -1</clus>
<clus scale="  102.892">  2  6  1 -1</clus>
<clus scale="   32.112">  1  3  2 -1</clus>
</clustering>
</event>
<event>
 6    0  0.2781617E+002  0.9399328E+02  0.7546771E-02  0.1293460E+00
          1   -1    0    0  504    0 -0.00000000000E+00  0.00000000000E+00  0.67343396607E+03  0.67343396607E+03  0.00000000000E+00 0.  1.
         21   -1    0    0  505  502  0.00000000000E+00 -0.00000000000E+00 -0.52229624842E+03  0.52229624842E+03  0.00000000000E+00 0. -1.
         21    1    1    2  503  502 -0.32086178601E+02  0.37620682256E+02 -0.29170795081E+03  0.29586883438E+03  0.00000000000E+00 0. -1.
         21    1    1    2  504  503 -0.98697632652E+02  0.28920498535E+02 -0.14327483067E+03  0.17636693292E+03  0.00000000000E+00 0. -1.
         21    1    1    2  505  501  0.75539977754E+02 -0.27712382336E+02 -0.42678087753E+02  0.91080643103E+02  0.00000000000E+00 0. -1.
          1    1    1    2  501    0  0.55243833499E+02 -0.38828798455E+02  0.62879858688E+03  0.63241380408E+03  0.00000000000E+00 0.  1.
<scales pt_clust_3="49.44531" pt_clust_4="93.99328" pt_clust_5="14000.00000" pt_clust_6="67.14578"></scales>
<clustering>
<clus scale="   49.445">  2  3  1 -1</clus>
<clus scale="   67.146">  1  6  2 -1</clus>
<clus scale="   93.993">  1  4  2 -1</clus>
<clus scale="   49.445">  2  3  1 -1</clus>
</clustering>
</event>
<event>
 6    0  0.2781617E+002  0.1257435E+03  0.7546771E-02  0.1233912E+00
         21   -1    0    0  503  502  0.00000000000E+00  0.00000000000E+00  0.86353101006E+03  0.86353101006E+03  0.00000000000E+00 0. -1.
          2   -1    0    0  505    0 -0.00000000000E+00 -0.00000000000E+00 -0.58978128123E+03  0.58978128123E+03  0.00000000000E+00 0. -1.
         21    1    1    2  503  501  0.33203717063E+02  0.12538402329E+02  0.10893988847E+03  0.11457572892E+03  0.00000000000E+00 0. -1.
         21    1    1    2  504  502 -0.34542866781E+02  0.59059346925E+02  0.50050941339E+03  0.50516421983E+03  0.00000000000E+00 0. -1.
         21    1    1    2  505  504  0.74399833634E+01  0.46437978360E+02  0.24066325991E+03  0.24521550493E+03  0.00000000000E+00 0. -1.
          2    1    1    2  501    0 -0.61008336460E+01 -0.11803572761E+03 -0.57636283294E+03  0.58835683760E+03  0.00000000000E+00 0. -1.
<scales pt_clust_3="35.49223" pt_clust_4="38.24082" pt_clust_5="38.24082" pt_clust_6="118.08001"></scales>
<clustering>
<clus scale="   35.492">  1  3  2 -1</clus>
<clus scale="   38.241">  4  5 -1 -1</clus>
<clus scale="  118.080">  2  6  1 -1</clus>
<clus scale="   35.492">  1  3  2 -1</clus>
</clustering>
</event>
<event>
 6    0  0.2781617E+002  0.9697088E+02  0.7546771E-02  0.1286798E+00
          4   -1    0    0  503    0 -0.00000000000E+00  0.00000000000E+00  0.65449144935E+03  0.65449144935E+03  0.00000000000E+00 0.  1.
         21   -1    0    0  505  502  0.00000000000E+00 -0.00000000000E+00 -0.28612290815E+03  0.28612290815E+03  0.00000000000E+00 0.  1.
         21    1    1    2  503  502  0.60751978669E+02 -0.67482600042E+02 -0.47898841871E+02  0.10265964774E+03  0.00000000000E+00 0.  1.
         21    1    1    2  504  501 -0.97412518885E+02  0.63005230155E+01 -0.15738926032E+02  0.98876737499E+02  0.00000000000E+00 0.  1.
         21    1    1    2  505  504 -0.21852669759E+02  0.10435827373E+03 -0.13240701872E+03  0.16999943258E+03  0.00000000000E+00 0.  1.
          4    1    1    2  501    0  0.58513209975E+02 -0.43176196706E+02  0.56441332782E+03  0.56907853968E+03  0.00000000000E+00 0.  1.
<scales pt_clust_3="96.97088" pt_clust_4="71.11499" pt_clust_5="14000.00000" pt_clust_6="72.71850"></scales>
<clustering>
<clus scale="   72.718">  1  6  2 -1</clus>
<clus scale="   71.115">  1  4  2 -1</clus>
<clus scale="   96.971">  1  3  2 -1</clus>
<clus scale="   96.971">  2  3  1 -1</clus>
</clustering>
</event>
<event>
 6    0  0.2781617E+002  0.1158390E+03  0.7546771E-02  0.1250124E+00
         21   -1    0    0  501  502  0.00000000000E+00  0.00000000000E+00  0.75772460108E+03  0.75772460108E+03  0.00000000000E+00 0. -1.
          2   -1    0    0  504    0 -0.00000000000E+00 -0.00000000000E+00 -0.92569202946E+03  0.92569202946E+03  0.00000000000E+00 0.  1.
         21    1    1    2  503  505 -0.64018504254E+02 -0.28104013244E+02  0.60027723611E+02  0.92149509219E+02  0.00000000000E+00 0. -1.
         21    1    1    2  504  503 -0.44908692755E+02 -0.25741796479E+02  0.54245780669E+01  0.52046679223E+02  0.00000000000E+00 0. -1.
         21    1    1    2  505  502  0.21314331077E+01  0.39047182689E+02  0.64903084963E+03  0.65020786619E+03  0.00000000000E+00 0. -1.
          2    1    1    2  501    0  0.10679576390E+03  0.14798627033E+02 -0.88245057968E+03  0.88901257591E+03  0.00000000000E+00 0.  1.
<scales pt_clust_3="35.93358" pt_clust_4="35.93358" pt_clust_5="39.10531" pt_clust_6="108.04923"></scales>
<clustering>
<clus scale="   35.934">  3  4 -1 -1</clus>
<clus scale="   39.105">  1  5  2 -1</clus>
<clus scale="  108.049">  2  6  1 -1</clus>
<clus scale="   39.105">  1  3  2 -1</clus>
</clustering>
</event>
<event>
 6    0  0.2781617E+002  0.7810103E+02  0.7546771E-02  0.1334528E+00
         21   -1    0    0  503  502  0.00000000000E+00  0.00000000000E+00  0.12935740074E+02  0.12935740074E+02  0.00000000000E+00 0.  1.
          1   -1    0    0  505    0 -0.00000000000E+00 -0.00000000000E+00 -0.35718507172E+04  0.35718507172E+04  0.00000000000E+00 0. -1.
         21    1    1    2  503  504  0.75455561357E+01  0.78652600090E+02 -0.20797466112E+03  0.22247837330E+03  0.00000000000E+00 0.  1.
         21    1    1    2  504  501 -0.81211419447E+02 -0.26563372598E+02 -0.41764149691E+03  0.42629253729E+03  0.00000000000E+00 0. -1.
         21    1    1    2  505  502  0.40498778530E+02 -0.18032911476E+02 -0.43273741316E+03  0.43500230540E+03  0.00000000000E+00 0. -1.
          1    1    1    2  501    0  0.33167084781E+02 -0.34056316017E+02 -0.25005614060E+04  0.25010132413E+04  0.00000000000E+00 0. -1.
<scales pt_clust_3="78.10103" pt_clust_4="73.29318" pt_clust_5="44.33212" pt_clust_6="14000.00000"></scales>
<clustering>
<clus scale="   44.332">  2  5  1 -1</clus>
<clus scale="   78.101">  1  3  2 -1</clus>
<clus scale="   73.293">  1  4  2 -1</clus>
<clus scale="   78.101">  1  3  2 -1</clus>
</clustering>
</event>
<event>
 6    0  0.2781617E+002  0.6497755E+02  0.7546771E-02  0.1378056E+00
         21   -1    0    0  503  502  0.00000000000E+00  0.00000000000E+00  0.11939365681E+04  0.11939365681E+04  0.00000000000E+00 0.  1.
          1   -1    0    0  505    0 -0.00000000000E+00 -0.00000000000E+00 -0.29810231425E+03  0.29810231425E+03  0.00000000000E+00 0. -1.
         21    1    1    2  503  504  0.56810185159E+01 -0.53337276759E+02  0.60967836435E+02  0.81204779066E+02  0.00000000000E+00 0. -1.
         21    1    1    2  504  501  0.54077163975E+01  0.11612846550E+03  0.10803379043E+04  0.10865749175E+04  0.00000000000E+00 0.  1.
         21    1    1    2  505  502 -0.42026859624E+02 -0.69020956162E+01  0.22923223837E+02  0.48367034691E+02  0.00000000000E+00 0.  1.
          1    1    1    2  501    0  0.30938124710E+02 -0.55889093124E+02 -0.26839471072E+03  0.27589215109E+03  0.00000000000E+00 0. -1.
<scales pt_clust_3="53.74564" pt_clust_4="14000.00000" pt_clust_5="42.58986" pt_clust_6="64.97755"></scales>
<clustering>
<clus scale="   42.590">  2  5  1 -1</clus>
<clus scale="   53.746">  1  3  2 -1</clus>
<clus scale="   64.978">  2  6  1 -1</clus>
<clus scale="   53.746">  1  3  2 -1</clus>
</clustering>
</event>
<event>
 6    0  0.2781617E+002  0.8038156E+02  0.7546771E-02  0.1327972E+00
         21   -1    0    0  505  502  0.00000000000E+00  0.00000000000E+00  0.42459716663E+03  0.42459716663E+03  0.00000000000E+00 0.  1.
          2   -1    0    0  502    0 -0.00000000000E+00 -0.00000000000E+00 -0.11356235428E+04  0.11356235428E+04  0.00000000000E+00 0.  1.
         21    1    1    2  503  501 -0.86925557940E+02 -0.76624820162E+02  0.13303693310E+02  0.11663791812E+03  0.00000000000E+00 0.  1.
         21    1    1    2  504  503  0.94336199841E+01  0.63035034699E+02  0.28307610804E+03  0.29016287103E+03  0.00000000000E+00 0.  1.
         21    1    1    2  505  504  0.98401877715E+01 -0.28380829945E+02  0.68382629241E+02  0.74689254820E+02  0.00000000000E+00 0. -1.
          2    1    1    2  501    0  0.67651750184E+02  0.41970615408E+02 -0.10757888068E+04  0.10787306655E+04  0.00000000000E+00 0.  1.
<scales pt_clust_3="14000.00000" pt_clust_4="43.62495" pt_clust_5="30.03832" pt_clust_6="80.38156"></scales>
<clustering>
<clus scale="   30.038">  1  5  2 -1</clus>
<clus scale="   43.625">  1  4  2 -1</clus>
<clus scale="   80.382">  2  6  1 -1</clus>
<clus scale="   30.038">  1  3  2 -1</clus>
</clustering>
</event>
<event>
 6    0  0.2781617E+002  0.1807033E+03  0.7546771E-02  0.1167124E+00
         -4   -1    0    0    0  501 -0.00000000000E+00  0.00000000000E+00  0.10920605084E+03  0.10920605084E+03  0.00000000000E+00 0. -1.
         21   -1    0    0  503  502  0.00000000000E+00 -0.00000000000E+00 -0.65015361866E+03  0.65015361866E+03  0.00000000000E+00 0.  1.
         21    1    1    2  503  504 -0.66732603972E+01 -0.78742168790E+02 -0.25702547357E+03  0.26889952698E+03  0.00000000000E+00 0.  1.
         21    1    1    2  504  505 -0.26562426943E+01 -0.90800956454E+02 -0.17743533197E+03  0.19933681634E+03  0.00000000000E+00 0.  1.
         21    1    1    2  505  501 -0.44079465355E+02 -0.32744601363E+02 -0.50356937455E+02  0.74505230248E+02  0.00000000000E+00 0.  1.
         -4    1    1    2    0  502  0.53408968447E+02  0.20228772661E+03 -0.56129824831E+02  0.21661809592E+03  0.00000000000E+00 0. -1.
<scales pt_clust_3="37.96875" pt_clust_4="37.96875" pt_clust_5="54.91091" pt_clust_6="176.05827"></scales>
<clustering>
<clus scale="   37.969">  3  4 -1 -1</clus>
<clus scale="   54.911">  1  5  2 -1</clus>
<clus scale="  176.058">  1  6  2 -1</clus>
<clus scale="  180.703">  2  3  1 -1</clus>
</clustering>
</event>
<event>
 6    0  0.2781617E+002  0.1209266E+03  0.7546771E-02  0.1241576E+00
          2   -1    0    0  504    0 -0.00000000000E+00  0.00000000000E+00  0.19876857015E+04  0.19876857015E+04  0.00000000000E+00 0. -1.
         21   -1    0    0  501  502  0.00000000000E+00 -0.00000000000E+00 -0.35988797047E+03  0.35988797047E+03  0.00000000000E+00 0.  1.
         21    1    1    2  503  505  0.10241331806E+03  0.23126725572E+02 -0.21012387264E+03  0.23489439117E+03  0.00000000000E+00 0.  1.
         21    1    1    2  504  503 -0.14791532952E+03 -0.56858819364E+02  0.99874911961E+02  0.18731489019E+03  0.00000000000E+00 0.  1.
         21    1    1    2  505  502  0.25696552702E+01  0.33325755053E+02 -0.90416679393E+02  0.96397017540E+02  0.00000000000E+00 0.  1.
          2    1    1    2  501    0  0.42932356187E+02  0.40633873872E+00  0.18284633711E+04  0.18289673731E+04  0.00000000000E+00 0. -1.
<scales pt_clust_3="14000.00000" pt_clust_4="120.92659" pt_clust_5="33.42468" pt_clust_6="42.93702"></scales>
<clustering>
<clus scale="   33.425">  2  5  1 -1</clus>
<clus scale="   42.937">  1  6  2 -1</clus>
<clus scale="  120.927">  1  4  2 -1</clus>
<clus scale="   33.425">  2  3  1 -1</clus>
</clustering>
</event>
<event>
 6    0  0.2781617E+002  0.9175880E+02  0.7546771E-02  0.1298648E+00
          2   -1    0    0  503    0 -0.00000000000E+00  0.00000000000E+00  0.15544062761E+04  0.15544062761E+04  0.00000000000E+00 0. -1.
         21   -1    0    0  505  502  0.00000000000E+00 -0.00000000000E+00 -0.88110542002E+02  0.88110542002E+02  0.00000000000E+00 0. -1.
         21    1    1    2  503  502  0.38451029259E+02  0.20851339882E+02  0.59233984111E+02  0.73633721213E+02  0.00000000000E+00 0. -1.
         21    1    1    2  504  501 -0.11459822248E+03 -0.98565073894E+02  0.64437860873E+02  0.16431696291E+03  0.00000000000E+00 0. -1.
         21    1    1    2  505  504  0.19863353599E+02  0.52937666813E+02 -0.38651572536E+01  0.56673528428E+02  0.00000000000E+00 0.  1.
          2    1    1    2  501    0  0.56283839619E+02  0.24776067198E+02  0.13464890464E+04  0.13478926056E+04  0.00000000000E+00 0. -1.
<scales pt_clust_3="43.74083" pt_clust_4="91.75880" pt_clust_5="14000.00000" pt_clust_6="61.87384"></scales>
<clustering>
<clus scale="   43.741">  2  3  1 -1</clus>
<clus scale="   61.874">  1  6  2 -1</clus>
<clus scale="   91.759">  1  4  2 -1</clus>
<clus scale="   43.741">  2  3  1 -1</clus>
</clustering>
</event>
<event>
 6    0  0.2781617E+002  0.3744080E+03  0.7546771E-02  0.1053020E+00
          2   -1    0    0  504    0 -0.00000000000E+00  0.00000000000E+00  0.13016536001E+04  0.13016536001E+04  0.00000000000E+00 0. -1.
         21   -1    0    0  505  502  0.00000000000E+00 -0.00000000000E+00 -0.13274997536E+03  0.13274997536E+03  0.00000000000E+00 0. -1.
         21    1    1    2  503  502 -0.13340259062E+01  0.72726787626E+02  0.46330863702E+02  0.86241023851E+02  0.00000000000E+00 0.  1.
         21    1    1    2  504  503 -0.18407507361E+02  0.30789055195E+03  0.37353119502E+03  0.48441818913E+03  0.00000000000E+00 0. -1.
         21    1    1    2  505  501 -0.84644405010E+00 -0.35529466895E+03  0.50460971700E+03  0.61714340694E+03  0.00000000000E+00 0. -1.
          2    1    1    2  501    0  0.20587977318E+02 -0.25322670631E+02  0.24443184905E+03  0.24660095557E+03  0.00000000000E+00 0. -1.
<scales pt_clust_3="31.12719" pt_clust_4="31.12719" pt_clust_5="368.88057" pt_clust_6="32.63591"></scales>
<clustering>
<clus scale="   31.127">  3  4 -1 -1</clus>
<clus scale="   32.636">  1  6  2 -1</clus>
<clus scale="  368.881">  1  5  2 -1</clus>
<clus scale="  374.408">  2  3  1 -1</clus>
</clustering>
</event>
<event>
 6    0  0.2781617E+002  0.2683114E+03  0.7546771E-02  0.1102250E+00
          2   -1    0    0  503    0 -0.00000000000E+00  0.00000000000E+00  0.45839413850E+04  0.45839413850E+04  0.00000000000E+00 0. -1.
         21   -1    0    0  505  502  0.00000000000E+00 -0.00000000000E+00 -0.67985073423E+02  0.67985073423E+02  0.00000000000E+00 0.  1.
         21    1    1    2  503  504  0.28622092061E+02  0.12253329242E+03  0.21205255079E+03  0.24657639020E+03  0.00000000000E+00 0.  1.
         21    1    1    2  504  502 -0.31245824830E+01  0.13416362980E+03  0.10396756957E+03  0.16976129741E+03  0.00000000000E+00 0.  1.
         21    1    1    2  505  501  0.88204787385E+02 -0.25033629054E+03  0.10313224861E+04  0.10649292996E+04  0.00000000000E+00 0.  1.
          2    1    1    2  501    0 -0.11370229696E+03 -0.63606316793E+01  0.31686137051E+04  0.31706594711E+04  0.00000000000E+00 0. -1.
<scales pt_clust_3="80.57982" pt_clust_4="80.57982" pt_clust_5="255.08054" pt_clust_6="113.88007"></scales>
<clustering>
<clus scale="   80.580">  3  4 -1 -1</clus>
<clus scale="  113.880">  1  6  2 -1</clus>
<clus scale="  255.081">  1  5  2 -1</clus>
<clus scale="  268.311">  2  3  1 -1</clus>
</clustering>
</event>
<event>
 6    0  0.2781617E+002  0.9497210E+02  0.7546771E-02  0.1291239E+00
         21   -1    0    0  504  502  0.00000000000E+00  0.00000000000E+00  0.47522857269E+03  0.47522857269E+03  0.00000000000E+00 0. -1.
          2   -1    0    0  502    0 -0.00000000000E+00 -0.00000000000E+00 -0.19015071128E+03  0.19015071128E+03  0.00000000000E+00 0.  1.
         21    1    1    2  503  505 -0.31660896082E+02 -0.46550035290E+02  0.12021557239E+03  0.13274449884E+03  0.00000000000E+00 0. -1.
         21    1    1    2  504  503  0.33283912269E+02  0.39312583058E+02  0.25878314972E+03  0.26385984269E+03  0.00000000000E+00 0. -1.
         21    1    1    2  505  501 -0.20187520159E+02 -0.68734128524E+02  0.61740481209E+02  0.94571683997E+02  0.00000000000E+00 0.  1.
          2    1    1    2  501    0  0.18564503973E+02  0.75971580756E+02 -0.15566134191E+03  0.17420325845E+03  0.00000000000E+00 0.  1.
<scales pt_clust_3="45.07972" pt_clust_4="51.51017" pt_clust_5="45.07972" pt_clust_6="80.21069"></scales>
<clustering>
<clus scale="   45.080">  3  5 -1 -1</clus>
<clus scale="   51.510">  1  4  2 -1</clus>
<clus scale="   80.211">  2  6  1 -1</clus>
<clus scale="   51.510">  1  3  2 -1</clus>
</clustering>
</event>
<event>
 6    0  0.2781617E+002  0.1059762E+03  0.7546771E-02  0.1268208E+00
         21   -1    0    0  504  502  0.00000000000E+00  0.00000000000E+00  0.50110719237E+02  0.50110719237E+02  0.00000000000E+00 0.  1.
          2   -1    0    0  503    0 -0.00000000000E+00 -0.00000000000E+00 -0.19211891058E+04  0.19211891058E+04  0.00000000000E+00 0.  1.
         21    1    1    2  503  505 -0.34589270933E+02  0.30245833795E+02 -0.54211161785E+02  0.71063902142E+02  0.00000000000E+00 0.  1.
         21    1    1    2  504  501  0.22741770570E+02  0.66384014770E+02 -0.49320936906E+01  0.70344517156E+02  0.00000000000E+00 0.  1.
         21    1    1    2  505  502 -0.37562058826E+02 -0.46297822608E+01 -0.40687881341E+02  0.55568397809E+02  0.00000000000E+00 0.  1.
          2    1    1    2  501    0  0.49409559189E+02 -0.92000066304E+02 -0.17712472498E+04  0.17743230080E+04  0.00000000000E+00 0.  1.
<scales pt_clust_3="31.01584" pt_clust_4="70.17140" pt_clust_5="31.01584" pt_clust_6="100.31469"></scales>
<clustering>
<clus scale="   31.016">  3  5 -1 -1</clus>
<clus scale="   70.171">  1  4  2 -1</clus>
<clus scale="  100.315">  2  6  1 -1</clus>
<clus scale="   70.171">  1  3  2 -1</clus>
</clustering>
</event>
<event>
 6    0  0.2781617E+002  0.6812380E+02  0.7546771E-02  0.1366592E+00
          1   -1    0    0  503    0 -0.00000000000E+00  0.00000000000E+00  0.12433071186E+04  0.12433071186E+04  0.00000000000E+00 0.  1.
         21   -1    0    0  504  502  0.00000000000E+00 -0.00000000000E+00 -0.31044218021E+04  0.31044218021E+04  0.00000000000E+00 0.  1.
         21    1    1    2  503  505  0.11966541173E+03  0.19219743499E+02 -0.35325861349E+03  0.37347136076E+03  0.00000000000E+00 0.  1.
         21    1    1    2  504  501 -0.48811266051E+02  0.90631706142E+01 -0.21738496826E+04  0.21744165018E+04  0.00000000000E+00 0.  1.
         21    1    1    2  505  502 -0.14421783349E+02 -0.28806970366E+02 -0.56581949941E+03  0.56673586025E+03  0.00000000000E+00 0. -1.
          1    1    1    2  501    0 -0.56432362333E+02  0.52405625291E+00  0.12318131120E+04  0.12331051979E+04  0.00000000000E+00 0.  1.
<scales pt_clust_3="14000.00000" pt_clust_4="68.12380" pt_clust_5="32.21536" pt_clust_6="56.43840"></scales>
<clustering>
<clus scale="   32.215">  2  5  1 -1</clus>
<clus scale="   56.438">  1  6  2 -1</clus>
<clus scale="   68.124">  2  4  1 -1</clus>
<clus scale="   32.215">  2  3  1 -1</clus>
</clustering>
</event>
<event>
 6    0  0.2781617E+002  0.1002264E+03  0.7546771E-02  0.1279821E+00
          1   -1    0    0  503    0 -0.00000000000E+00  0.00000000000E+00  0.17932322770E+04  0.17932322770E+04  0.00000000000E+00 0.  1.
         21   -1    0    0  504  502  0.00000000000E+00 -0.00000000000E+00 -0.15835823885E+03  0.15835823885E+03  0.00000000000E+00 0.  1.
         21    1    1    2  503  502 -0.18307261969E+02 -0.26615766688E+02  0.93563102764E+01  0.33631762059E+02  0.00000000000E+00 0.  1.
         21    1    1    2  504  505 -0.64870387762E+02 -0.24334622272E+02 -0.10342608746E+03  0.12448813846E+03  0.00000000000E+00 0.  1.
         21    1    1    2  505  501  0.12601978360E+03  0.65032970980E+02  0.12542881278E+03  0.18932157893E+03  0.00000000000E+00 0.  1.
          1    1    1    2  501    0 -0.42842133867E+02 -0.14082582019E+02  0.16035150025E+04  0.16041490364E+04  0.00000000000E+00 0.  1.
<scales pt_clust_3="32.30410" pt_clust_4="14000.00000" pt_clust_5="100.22639" pt_clust_6="45.15306"></scales>
<clustering>
<clus scale="   32.304">  2  3  1 -1</clus>
<clus scale="   45.153">  1  6  2 -1</clus>
<clus scale="  100.226">  1  5  2 -1</clus>
<clus scale="   32.304">  2  3  1 -1</clus>
</clustering>
</event>
<event>
 6    0  0.2781617E+002  0.9034404E+02  0.7546771E-02  0.1302021E+00
         21   -1    0    0  503  502  0.00000000000E+00  0.00000000000E+00  0.44483348545E+03  0.44483348545E+03  0.00000000000E+00 0.  1.
          2   -1    0    0  504    0 -0.00000000000E+00 -0.00000000000E+00 -0.15182919471E+04  0.15182919471E+04  0.00000000000E+00 0. -1.
         21    1    1    2  503  505  0.11022564232E+02 -0.53540257762E+02  0.10417298088E+03  0.11764381016E+03  0.00000000000E+00 0.  1.
         21    1    1    2  504  502  0.73837956770E+02  0.16773315607E+02  0.31169806258E+03  0.32076326192E+03  0.00000000000E+00 0.  1.
         21    1    1    2  505  501 -0.97317640859E+02 -0.11785477425E+02 -0.12215474844E+03  0.15662504036E+03  0.00000000000E+00 0. -1.
          2    1    1    2  501    0  0.12457119857E+02  0.48552419581E+02 -0.13671747567E+04  0.13680933202E+04  0.00000000000E+00 0. -1.
<scales pt_clust_3="52.65856" pt_clust_4="14000.00000" pt_clust_5="90.34404" pt_clust_6="50.12502"></scales>
<clustering>
<clus scale="   50.125">  2  6  1 -1</clus>
<clus scale="   52.659">  1  3  2 -1</clus>
<clus scale="   90.344">  2  5  1 -1</clus>
<clus scale="   52.659">  1  3  2 -1</clus>
</clustering>
</event>
<event>
 6    0  0.2781617E+002  0.1533596E+03  0.7546771E-02  0.1196404E+00
          2   -1    0    0  503    0 -0.00000000000E+00  0.00000000000E+00  0.89617416816E+03  0.89617416816E+03  0.00000000000E+00 0. -1.
         21   -1    0    0  505  502  0.00000000000E+00 -0.00000000000E+00 -0.25077145144E+03  0.25077145144E+03  0.00000000000E+00 0. -1.
         21    1    1    2  503  504  0.54938906395E+02 -0.97234931868E+01 -0.46574568959E+01  0.55986798983E+02  0.00000000000E+00 0. -1.
         21    1    1    2  504  502  0.48468179749E+02  0.39556870690E+02 -0.45561472299E+02  0.77393528315E+02  0.00000000000E+00 0. -1.
         21    1    1    2  505  501  0.39858631904E+02 -0.34854465634E+02 -0.14834457700E+03  0.15751081816E+03  0.00000000000E+00 0. -1.
          2    1    1    2  501    0 -0.14326571805E+03  0.50210881311E+01  0.84396622291E+03  0.85605447415E+03  0.00000000000E+00 0. -1.
<scales pt_clust_3="58.56059" pt_clust_4="58.56059" pt_clust_5="52.94851" pt_clust_6="140.83273"></scales>
<clustering>
<clus scale="   52.949">  2  5  1 -1</clus>
<clus scale="   58.561">  3  4 -1 -1</clus>
<clus scale="  140.833">  1  6  2 -1</clus>
<clus scale="   52.949">  2  3  1 -1</clus>
</clustering>
</event>
<event>
 6    0  0.2781617E+002  0.9699624E+02  0.7546771E-02  0.1286742E+00
         21   -1    0    0  504  502  0.00000000000E+00  0.00000000000E+00  0.18724507356E+03  0.18724507356E+03  0.00000000000E+00 0. -1.
          2   -1    0    0  503    0 -0.00000000000E+00 -0.00000000000E+00 -0.32842926152E+04  0.32842926152E+04  0.00000000000E+00 0.  1.
         21    1    1    2  503  505 -0.67599922726E+02 -0.51701477606E+02 -0.21108252597E+03  0.22759311305E+03  0.00000000000E+00 0.  1.
         21    1    1    2  504  501 -0.44006288426E+02  0.27210925215E+02  0.60905692231E+02  0.79915525514E+02  0.00000000000E+00 0. -1.
         21    1    1    2  505  502  0.11878087678E+02  0.36358947726E+02  0.10435847869E+03  0.11114744316E+03  0.00000000000E+00 0. -1.
          2    1    1    2  501    0  0.99728123475E+02 -0.11868395335E+02 -0.30512291866E+04  0.30528816071E+04  0.00000000000E+00 0.  1.
<scales pt_clust_3="14000.00000" pt_clust_4="68.20212" pt_clust_5="38.24999" pt_clust_6="96.99624"></scales>
<clustering>
<clus scale="   38.250">  1  5  2 -1</clus>
<clus scale="   68.202">  1  4  2 -1</clus>
<clus scale="   96.996">  2  6  1 -1</clus>
<clus scale="   38.250">  1  3  2 -1</clus>
</clustering>
</event>
<event>
 6    0  0.2781617E+002  0.6159715E+03  0.7546771E-02  0.9872813E-01
         21   -1    0    0  505  502  0.00000000000E+00  0.00000000000E+00  0.61058607469E+03  0.61058607469E+03  0.00000000000E+00 0.  1.
          2   -1    0    0  503    0 -0.00000000000E+00 -0.00000000000E+00 -0.40695587600E+04  0.40695587600E+04  0.00000000000E+00 0. -1.
         21    1    1    2  503  502  0.60903464551E+03 -0.72055496266E+02  0.35112063258E+03  0.70668302131E+03  0.00000000000E+00 0.  1.
         21    1    1    2  504  501 -0.51990737283E+03  0.37018000740E+02 -0.91247171624E+03  0.10508466309E+04  0.00000000000E+00 0.  1.
         21    1    1    2  505  504 -0.48126510973E+02 -0.38437835068E+01 -0.35477028998E+02  0.59912897748E+02  0.00000000000E+00 0. -1.
          2    1    1    2  501    0 -0.41000761713E+02  0.38881279033E+02 -0.28621445727E+04  0.28627022848E+04  0.00000000000E+00 0. -1.
<scales pt_clust_3="606.63337" pt_clust_4="32.51954" pt_clust_5="32.51954" pt_clust_6="56.50501"></scales>
<clustering>
<clus scale="   32.520">  4  5 -1 -1</clus>
<clus scale="   56.505">  2  6  1 -1</clus>
<clus scale="  606.633">  1  3  2 -1</clus>
<clus scale="  606.633">  1  3  2 -1</clus>
</clustering>
</event>
<event>
 6    0  0.2781617E+002  0.1101564E+03  0.7546771E-02  0.1260281E+00
         21   -1    0    0  503  502  0.00000000000E+00  0.00000000000E+00  0.96681160179E+02  0.96681160179E+02  0.00000000000E+00 0.  1.
         -3   -1    0    0    0  501 -0.00000000000E+00 -0.00000000000E+00 -0.92161327126E+03  0.92161327126E+03  0.00000000000E+00 0.  1.
         21    1    1    2  503  505  0.49387856482E+02  0.16676072781E+02  0.16450879747E+02  0.54661533236E+02  0.00000000000E+00 0.  1.
         21    1    1    2  504  502 -0.12052701092E+03 -0.26016724138E+02 -0.45556618637E+02  0.13144974628E+03  0.00000000000E+00 0.  1.
         21    1    1    2  505  501  0.29951707900E+02  0.34670079000E+02 -0.12670307303E+02  0.47535837756E+02  0.00000000000E+00 0.  1.
         -3    1    1    2    0  504  0.41187446534E+02 -0.25329427644E+02 -0.78315606489E+03  0.78464731416E+03  0.00000000000E+00 0.  1.
<scales pt_clust_3="36.29535" pt_clust_4="103.12911" pt_clust_5="36.29535" pt_clust_6="48.35272"></scales>
<clustering>
<clus scale="   36.295">  3  5 -1 -1</clus>
<clus scale="   48.353">  2  6  1 -1</clus>
<clus scale="  103.129">  2  4  1 -1</clus>
<clus scale="  110.156">  1  3  2 -1</clus>
</clustering>
</event>
<event>
 6    0  0.2781617E+002  0.1017769E+03  0.7546771E-02  0.1276603E+00
         21   -1    0    0  505  502  0.00000000000E+00  0.00000000000E+00  0.17793091667E+03  0.17793091667E+03  0.00000000000E+00 0.  1.
         -2   -1    0    0    0  501 -0.00000000000E+00 -0.00000000000E+00 -0.76070546433E+03  0.76070546433E+03  0.00000000000E+00 0.  1.
         21    1    1    2  503  504 -0.68882495650E+02 -0.40981876353E+02 -0.83576659357E+01  0.80586369668E+02  0.00000000000E+00 0.  1.
         21    1    1    2  504  501 -0.24247197885E+02  0.26956409706E+02 -0.60056760805E+01  0.36751092157E+02  0.00000000000E+00 0.  1.
         21    1    1    2  505  503  0.12138088650E+03 -0.97003691293E+00  0.96838825472E+02  0.15528045176E+03  0.00000000000E+00 0.  1.
         -2    1    1    2    0  502 -0.28251192968E+02  0.14995503559E+02 -0.66525003112E+03  0.66601846741E+03  0.00000000000E+00 0.  1.
<scales pt_clust_3="101.77687" pt_clust_4="43.08329" pt_clust_5="14000.00000" pt_clust_6="31.98429"></scales>
<clustering>
<clus scale="   31.984">  2  6  1 -1</clus>
<clus scale="   43.083">  2  4  1 -1</clus>
<clus scale="  101.777">  2  3  1 -1</clus>
<clus scale="  101.777">  1  3  2 -1</clus>
</clustering>
</event>
<event>
 6    0  0.2781617E+002  0.1193309E+03  0.7546771E-02  0.1244205E+00
         -2   -1    0    0    0  501 -0.00000000000E+00  0.00000000000E+00  0.44449454598E+03  0.44449454598E+03  0.00000000000E+00 0. -1.
         21   -1    0    0  503  502  0.00000000000E+00 -0.00000000000E+00 -0.11611153369E+04  0.11611153369E+04  0.00000000000E+00 0.  1.
         21    1    1    2  503  504  0.31874962249E+02 -0.37533134588E+02 -0.23266095438E+03  0.23781477898E+03  0.00000000000E+00 0.  1.
         21    1    1    2  504  501  0.47999563051E+02 -0.73656026263E+02 -0.77024289551E+03  0.77524401729E+03  0.00000000000E+00 0.  1.
         21    1    1    2  505  502 -0.37264187532E+02  0.60263314893E+02 -0.14224194685E+03  0.15891210853E+03  0.00000000000E+00 0.  1.
         -2    1    1    2    0  505 -0.42610337768E+02  0.50925845959E+02  0.42852500583E+03  0.43363897806E+03  0.00000000000E+00 0. -1.
<scales pt_clust_3="31.11960" pt_clust_4="31.11960" pt_clust_5="111.85189" pt_clust_6="66.40092"></scales>
<clustering>
<clus scale="   31.120">  3  4 -1 -1</clus>
<clus scale="   66.401">  1  6  2 -1</clus>
<clus scale="  111.852">  1  5  2 -1</clus>
<clus scale="  119.331">  2  3  1 -1</clus>
</clustering>
</event>
<event>
 6    0  0.2781617E+002  0.1292369E+03  0.7546771E-02  0.1228592E+00
         21   -1    0    0  505  502  0.00000000000E+00  0.00000000000E+00  0.13040861383E+04  0.13040861383E+04  0.00000000000E+00 0. -1.
          1   -1    0    0  503    0 -0.00000000000E+00 -0.00000000000E+00 -0.56256395225E+02  0.56256395225E+02  0.00000000000E+00 0. -1.
         21    1    1    2  503  504 -0.29230461307E+02 -0.29411303901E+02  0.16755207647E+03  0.17260690309E+03  0.00000000000E+00 0.  1.
         21    1    1    2  504  502 -0.54412074152E+02 -0.75746121746E+02  0.80477338879E+03  0.81015946336E+03  0.00000000000E+00 0. -1.
         21    1    1    2  505  501  0.76813568330E+02  0.63072620057E+02  0.30821132598E+03  0.32384054894E+03  0.00000000000E+00 0. -1.
          1    1    1    2  501    0  0.68289671292E+01  0.42084805589E+02 -0.32707048174E+02  0.53735618112E+02  0.00000000000E+00 0. -1.
<scales pt_clust_3="32.38415" pt_clust_4="32.38415" pt_clust_5="119.76399" pt_clust_6="42.63526"></scales>
<clustering>
<clus scale="   32.384">  3  4 -1 -1</clus>
<clus scale="   42.635">  2  6  1 -1</clus>
<clus scale="  119.764">  2  5  1 -1</clus>
<clus scale="  129.237">  1  3  2 -1</clus>
</clustering>
</event>
<event>
 6    0  0.2781617E+002  0.1807269E+03  0.7546771E-02  0.1167101E+00
         21   -1    0    0  503  502  0.00000000000E+00  0.00000000000E+00  0.19376943079E+03  0.19376943079E+03  0.00000000000E+00 0. -1.
         -2   -1    0    0    0  501 -0.00000000000E+00 -0.00000000000E+00 -0.51170836533E+03  0.51170836533E+03  0.00000000000E+00 0. -1.
         21    1    1    2  503  504  0.80571783604E+02 -0.19507464440E+01  0.20201545233E+02  0.83088628311E+02  0.00000000000E+00 0. -1.
         21    1    1    2  504  505  0.62260275754E+02  0.70207305700E+02  0.56053017561E+02  0.10930392714E+03  0.00000000000E+00 0. -1.
         21    1    1    2  505  501  0.66849049816E+02 -0.95127985953E+02 -0.15693733955E+03  0.19531374175E+03  0.00000000000E+00 0. -1.
         -2    1    1    2    0  502 -0.20968110917E+03  0.26871426698E+02 -0.23725615778E+03  0.31777149892E+03  0.00000000000E+00 0. -1.
<scales pt_clust_3="72.62036" pt_clust_4="72.62036" pt_clust_5="116.26749" pt_clust_6="162.85582"></scales>
<clustering>
<clus scale="   72.620">  3  4 -1 -1</clus>
<clus scale="  116.267">  2  5  1 -1</clus>
<clus scale="  162.856">  2  6  1 -1</clus>
<clus scale="  180.727">  1  3  2 -1</clus>
</clustering>
</event>
<event>
 6    0  0.2781617E+002  0.8477779E+02  0.7546771E-02  0.1316015E+00
         21   -1    0    0  505  502  0.00000000000E+00  0.00000000000E+00  0.14287653011E+03  0.14287653011E+03  0.00000000000E+00 0. -1.
          2   -1    0    0  504    0 -0.00000000000E+00 -0.00000000000E+00 -0.10409310684E+04  0.10409310684E+04  0.00000000000E+00 0.  1.
         21    1    1    2  503  501  0.42005144473E+02  0.27985435066E+02 -0.28606630485E+02  0.58016860013E+02  0.00000000000E+00 0. -1.
         21    1    1    2  504  502 -0.32988153784E+02 -0.73931864607E+02  0.92328812558E+02  0.12279555579E+03  0.00000000000E+00 0. -1.
         21    1    1    2  505  503  0.78353999616E+01 -0.37471612599E+02 -0.83377628755E+00  0.38291127252E+02  0.00000000000E+00 0. -1.
          2    1    1    2  501    0 -0.16852390651E+02  0.83418042139E+02 -0.96094294404E+03  0.96470405541E+03  0.00000000000E+00 0.  1.
<scales pt_clust_3="48.96655" pt_clust_4="84.77779" pt_clust_5="38.28205" pt_clust_6="14000.00000"></scales>
<clustering>
<clus scale="   38.282">  1  5  2 -1</clus>
<clus scale="   48.967">  1  3  2 -1</clus>
<clus scale="   84.778">  1  4  2 -1</clus>
<clus scale="   38.282">  1  3  2 -1</clus>
</clustering>
</event>
<event>
 6    0  0.2781617E+002  0.3018618E+03  0.7546771E-02  0.1084314E+00
          3   -1    0    0  502    0 -0.00000000000E+00  0.00000000000E+00  0.20246101005E+03  0.20246101005E+03  0.00000000000E+00 0.  1.
         21   -1    0    0  505  502  0.00000000000E+00 -0.00000000000E+00 -0.17382512159E+04  0.17382512159E+04  0.00000000000E+00 0. -1.
         21    1    1    2  503  504  0.31112533668E+02 -0.56428780793E+02 -0.51093454594E+03  0.51498185142E+03  0.00000000000E+00 0. -1.
         21    1    1    2  504  501  0.12303561550E+03 -0.14183637918E+03 -0.79379373227E+03  0.81569835756E+03  0.00000000000E+00 0. -1.
         21    1    1    2  505  503 -0.14483301667E+02 -0.30792045814E+02 -0.32424905733E+03  0.32602970309E+03  0.00000000000E+00 0. -1.
          3    1    1    2  501    0 -0.13966484750E+03  0.22905720579E+03  0.93187129698E+02  0.28400231389E+03  0.00000000000E+00 0.  1.
<scales pt_clust_3="85.02928" pt_clust_4="85.02928" pt_clust_5="31.54860" pt_clust_6="268.27872"></scales>
<clustering>
<clus scale="   31.549">  3  5 -1 -1</clus>
<clus scale="   85.029">  3  4 -1 -1</clus>
<clus scale="  268.279">  1  6  2 -1</clus>
<clus scale="  301.862">  2  3  1 -1</clus>
</clustering>
</event>
<event>
 6    0  0.2781617E+002  0.1450797E+03  0.7546771E-02  0.1206653E+00
          2   -1    0    0  505    0 -0.00000000000E+00  0.00000000000E+00  0.49510437902E+03  0.49510437902E+03  0.00000000000E+00 0.  1.
         21   -1    0    0  503  502  0.00000000000E+00 -0.00000000000E+00 -0.10995948204E+04  0.10995948204E+04  0.00000000000E+00 0.  1.
         21    1    1    2  503  501  0.21212123152E+02  0.81684035808E+02  0.25322177533E+02  0.88110433829E+02  0.00000000000E+00 0. -1.
         21    1    1    2  504  502 -0.41414743961E+02 -0.14518243822E+03 -0.10293019385E+04  0.10403151455E+04  0.00000000000E+00 0.  1.
         21    1    1    2  505  504  0.63320515331E+02  0.14226625989E+02  0.35916191786E+01  0.64998340572E+02  0.00000000000E+00 0. -1.
          2    1    1    2  501    0 -0.43117894521E+02  0.49271776423E+02  0.39589770039E+03  0.40127527952E+03  0.00000000000E+00 0.  1.
<scales pt_clust_3="145.07965" pt_clust_4="14000.00000" pt_clust_5="64.89903" pt_clust_6="62.67021"></scales>
<clustering>
<clus scale="   64.899">  1  5  2 -1</clus>
<clus scale="   62.670">  1  6  2 -1</clus>
<clus scale="  145.080">  1  3  2 -1</clus>
<clus scale="  145.080">  2  3  1 -1</clus>
</clustering>
</event>
<event>
 6    0  0.2781617E+002  0.1158865E+03  0.7546771E-02  0.1250042E+00
         21   -1    0    0  504  502  0.00000000000E+00  0.00000000000E+00  0.16703424956E+03  0.16703424956E+03  0.00000000000E+00 0.  1.
          2   -1    0    0  505    0 -0.00000000000E+00 -0.00000000000E+00 -0.19535640237E+04  0.19535640237E+04  0.00000000000E+00 0. -1.
         21    1    1    2  503  501 -0.32568169718E+02  0.21169954428E+02  0.41806559542E+01  0.39068280400E+02  0.00000000000E+00 0.  1.
         21    1    1    2  504  503 -0.13250617736E+02 -0.30156142088E+02 -0.30967316805E+02  0.45210026389E+02  0.00000000000E+00 0. -1.
         21    1    1    2  505  502 -0.62840997193E+02  0.50722732221E+02  0.12454720882E+03  0.14843784463E+03  0.00000000000E+00 0.  1.
          2    1    1    2  501    0  0.10865978465E+03 -0.41736544561E+02 -0.18842903221E+04  0.18878821218E+04  0.00000000000E+00 0. -1.
<scales pt_clust_3="38.37640" pt_clust_4="32.93891" pt_clust_5="14000.00000" pt_clust_6="115.88652"></scales>
<clustering>
<clus scale="   32.939">  1  4  2 -1</clus>
<clus scale="   38.376">  1  3  2 -1</clus>
<clus scale="  115.887">  2  6  1 -1</clus>
<clus scale="   32.939">  1  3  2 -1</clus>
</clustering>
</event>
<event>
 6    0  0.2781617E+002  0.1154630E+03  0.7546771E-02  0.1250775E+00
         21   -1    0    0  504  502  0.00000000000E+00  0.00000000000E+00  0.11345920828E+03  0.11345920828E+03  0.00000000000E+00 0.  1.
          1   -1    0    0  503    0 -0.00000000000E+00 -0.00000000000E+00 -0.13302978933E+04  0.13302978933E+04  0.00000000000E+00 0.  1.
         21    1    1    2  503  505 -0.62739537772E+01  0.54153786354E+02 -0.16518072962E+03  0.17394444087E+03  0.00000000000E+00 0.  1.
         21    1    1    2  504  501  0.76677799782E+02  0.50204085492E+02  0.35950526057E+02  0.98449862891E+02  0.00000000000E+00 0.  1.
         21    1    1    2  505  502  0.34183745933E+02 -0.10942094448E+03 -0.44434414154E+02  0.12294669063E+03  0.00000000000E+00 0.  1.
          1    1    1    2  501    0 -0.10458759194E+03  0.50630726295E+01 -0.10431740673E+04  0.10484161072E+04  0.00000000000E+00 0.  1.
<scales pt_clust_3="54.51601" pt_clust_4="92.31780" pt_clust_5="115.46300" pt_clust_6="14000.00000"></scales>
<clustering>
<clus scale="   54.516">  2  3  1 -1</clus>
<clus scale="   92.318">  1  4  2 -1</clus>
<clus scale="  115.463">  1  5  2 -1</clus>
<clus scale="   92.318">  1  3  2 -1</clus>
</clustering>
</event>
<event>
 6    0  0.2781617E+002  0.1203875E+03  0.7546771E-02  0.1242459E+00
         -3   -1    0    0    0  501 -0.00000000000E+00  0.00000000000E+00  0.60436118523E+03  0.60436118523E+03  0.00000000000E+00 0. -1.
         21   -1    0    0  504  502  0.00000000000E+00 -0.00000000000E+00 -0.10867831542E+03  0.10867831542E+03  0.00000000000E+00 0. -1.
         21    1    1    2  503  505 -0.12543193268E+03 -0.59899664690E+02  0.15015191283E+03  0.20461362734E+03  0.00000000000E+00 0. -1.
         21    1    1    2  504  501  0.12921018810E+03 -0.18384996622E+01  0.12107958035E+03  0.17708449273E+03  0.00000000000E+00 0. -1.
         21    1    1    2  505  502 -0.56640743684E+02 -0.42212617751E+02 -0.81828404299E+01  0.71112852706E+02  0.00000000000E+00 0. -1.
         -3    1    1    2    0  503  0.52862488267E+02  0.10395078210E+03  0.23263421706E+03  0.26022852786E+03  0.00000000000E+00 0. -1.
<scales pt_clust_3="14000.00000" pt_clust_4="120.38750" pt_clust_5="70.64049" pt_clust_6="104.15653"></scales>
<clustering>
<clus scale="   70.640">  2  5  1 -1</clus>
<clus scale="  104.157">  1  6  2 -1</clus>
<clus scale="  120.387">  2  4  1 -1</clus>
<clus scale="   70.640">  2  3  1 -1</clus>
</clustering>
</event>
<event>
 6    0  0.2781617E+002  0.3104131E+03  0.7546771E-02  0.1080148E+00
         21   -1    0    0  505  502  0.00000000000E+00  0.00000000000E+00  0.29428933977E+04  0.29428933977E+04  0.00000000000E+00 0.  1.
          1   -1    0    0  504    0 -0.00000000000E+00 -0.00000000000E+00 -0.20065927780E+03  0.20065927780E+03  0.00000000000E+00 0.  1.
         21    1    1    2  503  502 -0.43551127937E+02  0.12464668994E+03  0.74516301662E+03  0.75677038750E+03  0.00000000000E+00 0.  1.
         21    1    1    2  504  503 -0.10898054770E+03  0.15620991133E+03  0.15967629572E+04  0.16080827832E+04  0.00000000000E+00 0.  1.
         21    1    1    2  505  501  0.61032589441E+02 -0.25268006136E+03  0.54579554426E+03  0.60453698523E+03  0.00000000000E+00 0.  1.
          1    1    1    2  501    0  0.91499086198E+02 -0.28176539906E+02 -0.14548739820E+03  0.17416251953E+03  0.00000000000E+00 0.  1.
<scales pt_clust_3="63.22750" pt_clust_4="63.22750" pt_clust_5="300.98067" pt_clust_6="95.73923"></scales>
<clustering>
<clus scale="   63.227">  3  4 -1 -1</clus>
<clus scale="   95.739">  2  6  1 -1</clus>
<clus scale="  300.981">  2  5  1 -1</clus>
<clus scale="  310.413">  1  3  2 -1</clus>
</clustering>
</event>
<event>
 6    0  0.2781617E+002  0.9631099E+02  0.7546771E-02  0.1288250E+00
         21   -1    0    0  504  502  0.00000000000E+00  0.00000000000E+00  0.48054123541E+03  0.48054123541E+03  0.00000000000E+00 0. -1.
          2   -1    0    0  503    0 -0.00000000000E+00 -0.00000000000E+00 -0.24667343632E+04  0.24667343632E+04  0.00000000000E+00 0.  1.
         21    1    1    2  503  502 -0.76719246013E+02 -0.78586047953E+01  0.68785678560E+02  0.10333958560E+03  0.00000000000E+00 0. -1.
         21    1    1    2  504  505  0.22211066381E+02 -0.39980411265E+02  0.36800506901E+03  0.37083621124E+03  0.00000000000E+00 0. -1.
         21    1    1    2  505  501  0.25764686419E+02 -0.44861832347E+02 -0.36958830240E+01  0.51865813588E+02  0.00000000000E+00 0.  1.
          2    1    1    2  501    0  0.28743493213E+02  0.92700848407E+02 -0.24192879923E+04  0.24212339882E+04  0.00000000000E+00 0.  1.
<scales pt_clust_3="96.31099" pt_clust_4="45.73581" pt_clust_5="61.64619" pt_clust_6="14000.00000"></scales>
<clustering>
<clus scale="   45.736">  1  4  2 -1</clus>
<clus scale="   61.646">  1  5  2 -1</clus>
<clus scale="   96.311">  1  3  2 -1</clus>
<clus scale="   45.736">  1  3  2 -1</clus>
</clustering>
</event>
<event>
 6    0  0.2781617E+002  0.1220329E+03  0.7546771E-02  0.1239781E+00
         21   -1    0    0  504  502  0.00000000000E+00  0.00000000000E+00  0.19970102868E+03  0.19970102868E+03  0.00000000000E+00 0. -1.
          2   -1    0    0  505    0 -0.00000000000E+00 -0.00000000000E+00 -0.14517250952E+04  0.14517250952E+04  0.00000000000E+00 0. -1.
         21    1    1    2  503  502 -0.39394518599E+02 -0.22263830384E+02  0.81365325303E+02  0.93101677755E+02  0.00000000000E+00 0. -1.
         21    1    1    2  504  501  0.94470757607E+02  0.20040567362E+02 -0.87152991631E+02  0.13008455840E+03  0.00000000000E+00 0.  1.
         21    1    1    2  505  503 -0.11387661801E+03  0.64773614466E+02  0.41668868516E+02  0.13747654296E+03  0.00000000000E+00 0. -1.
          2    1    1    2  501    0  0.58800379000E+02 -0.62550351443E+02 -0.12879052687E+04  0.12907633448E+04  0.00000000000E+00 0. -1.
<scales pt_clust_3="45.25048" pt_clust_4="122.03293" pt_clust_5="14000.00000" pt_clust_6="85.71398"></scales>
<clustering>
<clus scale="   45.250">  1  3  2 -1</clus>
<clus scale="   85.714">  2  6  1 -1</clus>
<clus scale="  122.033">  2  4  1 -1</clus>
<clus scale="   45.250">  1  3  2 -1</clus>
</clustering>
</event>
<event>
 6    0  0.2781617E+002  0.7337216E+02  0.7546771E-02  0.1348987E+00
         21   -1    0    0  505  502  0.00000000000E+00  0.00000000000E+00  0.14350454822E+03  0.14350454822E+03  0.00000000000E+00 0.  1.
          2   -1    0    0  503    0 -0.00000000000E+00 -0.00000000000E+00 -0.10400536268E+04  0.10400536268E+04  0.00000000000E+00 0.  1.
         21    1    1    2  503  502  0.64937101784E+02  0.41660978933E+02 -0.24002091938E+02  0.80799534474E+02  0.00000000000E+00 0.  1.
         21    1    1    2  504  501  0.20874115916E+02 -0.79369403837E+02  0.44643807143E+02  0.93425373946E+02  0.00000000000E+00 0.  1.
         21    1    1    2  505  504 -0.67733528712E+02  0.49323852009E+01  0.20465998614E+02  0.70929658358E+02  0.00000000000E+00 0.  1.
          2    1    1    2  501    0 -0.18077688989E+02  0.32776039703E+02 -0.93765679237E+03  0.93840360820E+03  0.00000000000E+00 0.  1.
<scales pt_clust_3="69.66412" pt_clust_4="14000.00000" pt_clust_5="73.37216" pt_clust_6="37.43089"></scales>
<clustering>
<clus scale="   37.431">  2  6  1 -1</clus>
<clus scale="   73.372">  1  5  2 -1</clus>
<clus scale="   69.664">  2  3  1 -1</clus>
<clus scale="   73.372">  1  3  2 -1</clus>
</clustering>
</event>
<event>
 6    0  0.2781617E+002  0.1040691E+03  0.7546771E-02  0.1271965E+00
          2   -1    0    0  503    0 -0.00000000000E+00  0.00000000000E+00  0.73059935250E+03  0.73059935250E+03  0.00000000000E+00 0. -1.
         21   -1    0    0  505  502  0.00000000000E+00 -0.00000000000E+00 -0.81980194930E+02  0.81980194930E+02  0.00000000000E+00 0. -1.
         21    1    1    2  503  502  0.52875530865E+02 -0.19519518438E+02  0.34613452727E+02  0.66143211851E+02  0.00000000000E+00 0. -1.
         21    1    1    2  504  501 -0.31126030523E+02 -0.76154580097E+02  0.26490131116E+02  0.86429606574E+02  0.00000000000E+00 0. -1.
         21    1    1    2  505  504  0.35420003858E+02 -0.17155798795E+01 -0.20924865771E+02  0.41174869704E+02  0.00000000000E+00 0. -1.
          2    1    1    2  501    0 -0.57169504199E+02  0.97389678415E+02  0.60844043949E+03  0.61883185930E+03  0.00000000000E+00 0. -1.
<scales pt_clust_3="66.91405" pt_clust_4="14000.00000" pt_clust_5="35.46153" pt_clust_6="104.06913"></scales>
<clustering>
<clus scale="   35.462">  2  5  1 -1</clus>
<clus scale="   66.914">  2  3  1 -1</clus>
<clus scale="  104.069">  1  6  2 -1</clus>
<clus scale="   35.462">  2  3  1 -1</clus>
</clustering>
</event>
<event>
 6    0  0.2781617E+002  0.9956481E+02  0.7546771E-02  0.1281214E+00
         21   -1    0    0  505  502  0.00000000000E+00  0.00000000000E+00  0.28045531687E+04  0.28045531687E+04  0.00000000000E+00 0. -1.
          2   -1    0    0  504    0 -0.00000000000E+00 -0.00000000000E+00 -0.12907954234E+04  0.12907954234E+04  0.00000000000E+00 0. -1.
         21    1    1    2  503  502 -0.60435827187E+02  0.18000208165E+02  0.11766100088E+04  0.11782986079E+04  0.00000000000E+00 0. -1.
         21    1    1    2  504  503 -0.84107675322E+02 -0.26162626205E+02  0.15805132347E+04  0.15829657827E+04  0.00000000000E+00 0. -1.
         21    1    1    2  505  501  0.55098942882E+02  0.11935565112E+02  0.25633828734E+02  0.61930964766E+02  0.00000000000E+00 0.  1.
          2    1    1    2  501    0  0.89444559627E+02 -0.37731470725E+01 -0.12689993269E+04  0.12721532367E+04  0.00000000000E+00 0. -1.
<scales pt_clust_3="36.81337" pt_clust_4="36.81337" pt_clust_5="56.37687" pt_clust_6="89.55527"></scales>
<clustering>
<clus scale="   36.813">  3  4 -1 -1</clus>
<clus scale="   56.377">  1  5  2 -1</clus>
<clus scale="   89.555">  2  6  1 -1</clus>
<clus scale="   56.377">  1  3  2 -1</clus>
</clustering>
</event>
<event>
 6    0  0.2781617E+002  0.1068446E+03  0.7546771E-02  0.1266527E+00
         21   -1    0    0  503  502  0.00000000000E+00  0.00000000000E+00  0.86511150125E+02  0.86511150125E+02  0.00000000000E+00 0. -1.
          2   -1    0    0  505    0 -0.00000000000E+00 -0.00000000000E+00 -0.15063875065E+04  0.15063875065E+04  0.00000000000E+00 0.  1.
         21    1    1    2  503  504 -0.23881546122E+02  0.87486336297E+02 -0.18940789773E+03  0.20999890239E+03  0.00000000000E+00 0. -1.
         21    1    1    2  504  501  0.15871767862E+02  0.36398751123E+02 -0.15240492706E+03  0.15749299632E+03  0.00000000000E+00 0. -1.
         21    1    1    2  505  502  0.16513589410E+02 -0.88888011912E+02  0.45536822088E+02  0.10122934092E+03  0.00000000000E+00 0. -1.
          2    1    1    2  501    0 -0.85038111503E+01 -0.34997075508E+02 -0.11236003537E+04  0.11241774170E+04  0.00000000000E+00 0.  1.
<scales pt_clust_3="35.03092" pt_clust_4="35.03092" pt_clust_5="92.80704" pt_clust_6="36.01541"></scales>
<clustering>
<clus scale="   35.031">  3  4 -1 -1</clus>
<clus scale="   36.015">  2  6  1 -1</clus>
<clus scale="   92.807">  1  5  2 -1</clus>
<clus scale="   92.807">  1  3  2 -1</clus>
</clustering>
</event>
<event>
 6    0  0.2781617E+002  0.1887083E+03  0.7546771E-02  0.1159632E+00
          1   -1    0    0  505    0 -0.00000000000E+00  0.00000000000E+00  0.15882228506E+04  0.15882228506E+04  0.00000000000E+00 0. -1.
         21   -1    0    0  504  502  0.00000000000E+00 -0.00000000000E+00 -0.55201787874E+03  0.55201787874E+03  0.00000000000E+00 0. -1.
         21    1    1    2  503  502 -0.17804506544E+03 -0.77851270871E+02 -0.38747841034E+03  0.43347477918E+03  0.00000000000E+00 0. -1.
         21    1    1    2  504  501  0.19076543725E+03 -0.23458441995E+02 -0.63162881849E+02  0.20231485411E+03  0.00000000000E+00 0. -1.
         21    1    1    2  505  503 -0.20073982117E+02  0.27130027635E+02  0.28421063563E+02  0.44122103435E+02  0.00000000000E+00 0.  1.
          1    1    1    2  501    0  0.73536103144E+01  0.74179685231E+02  0.14584252005E+04  0.14603289926E+04  0.00000000000E+00 0. -1.
<scales pt_clust_3="188.70826" pt_clust_4="14000.00000" pt_clust_5="33.74912" pt_clust_6="100.35514"></scales>
<clustering>
<clus scale="   33.749">  1  5  2 -1</clus>
<clus scale="  100.355">  1  6  2 -1</clus>
<clus scale="  188.708">  2  3  1 -1</clus>
<clus scale="  188.708">  2  3  1 -1</clus>
</clustering>
</event>
<event>
 6    0  0.2781617E+002  0.1666415E+03  0.7546771E-02  0.1181396E+00
         21   -1    0    0  504  502  0.00000000000E+00  0.00000000000E+00  0.14527646492E+04  0.14527646492E+04  0.00000000000E+00 0.  1.
          2   -1    0    0  502    0 -0.00000000000E+00 -0.00000000000E+00 -0.10805547347E+03  0.10805547347E+03  0.00000000000E+00 0.  1.
         21    1    1    2  503  505 -0.41255538231E+02 -0.10222073215E+03  0.24539713349E+03  0.26901830912E+03  0.00000000000E+00 0.  1.
         21    1    1    2  504  503 -0.26602005766E+01  0.16078036159E+03  0.92854382084E+03  0.94236459429E+03  0.00000000000E+00 0.  1.
         21    1    1    2  505  501 -0.34257393458E+02 -0.46301960728E+02  0.23845253113E+03  0.24531011022E+03  0.00000000000E+00 0.  1.
          2    1    1    2  501    0  0.78173132266E+02 -0.12257668711E+02 -0.67684309739E+02  0.10412710903E+03  0.00000000000E+00 0.  1.
<scales pt_clust_3="37.29525" pt_clust_4="158.45305" pt_clust_5="37.29525" pt_clust_6="79.12831"></scales>
<clustering>
<clus scale="   37.295">  3  5 -1 -1</clus>
<clus scale="   79.128">  2  6  1 -1</clus>
<clus scale="  158.453">  1  4  2 -1</clus>
<clus scale="  158.453">  1  3  2 -1</clus>
</clustering>
</event>
<event>
 6    0  0.2781617E+002  0.1521963E+03  0.7546771E-02  0.1197800E+00
          1   -1    0    0  504    0 -0.00000000000E+00  0.00000000000E+00  0.66080391911E+03  0.66080391911E+03  0.00000000000E+00 0.  1.
         21   -1    0    0  503  502  0.00000000000E+00 -0.00000000000E+00 -0.17236624188E+04  0.17236624188E+04  0.00000000000E+00 0. -1.
         21    1    1    2  503  501 -0.11876610337E+03 -0.10837107860E+02 -0.21447548416E+03  0.24540285965E+03  0.00000000000E+00 0. -1.
         21    1    1    2  504  505  0.61406837438E+02  0.14086871028E+02 -0.39697790509E+03  0.40194613663E+03  0.00000000000E+00 0. -1.
         21    1    1    2  505  502  0.55627710885E+02  0.67986604467E+02 -0.10905149826E+04  0.10940473244E+04  0.00000000000E+00 0. -1.
          1    1    1    2  501    0  0.17315550521E+01 -0.71236367635E+02  0.63910987220E+03  0.64307001726E+03  0.00000000000E+00 0.  1.
<scales pt_clust_3="135.03892" pt_clust_4="59.45171" pt_clust_5="59.45171" pt_clust_6="71.25741"></scales>
<clustering>
<clus scale="   59.452">  4  5 -1 -1</clus>
<clus scale="   71.257">  1  6  2 -1</clus>
<clus scale="  135.039">  1  3  2 -1</clus>
<clus scale="  152.196">  2  3  1 -1</clus>
</clustering>
</event>
<event>
 6    0  0.2781617E+002  0.1922106E+03  0.7546771E-02  0.1156482E+00
         21   -1    0    0  505  502  0.00000000000E+00  0.00000000000E+00  0.70091230175E+03  0.70091230175E+03  0.00000000000E+00 0.  1.
          2   -1    0    0  504    0 -0.00000000000E+00 -0.00000000000E+00 -0.12118064843E+04  0.12118064843E+04  0.00000000000E+00 0.  1.
         21    1    1    2  503  501 -0.17040376039E+03  0.68449056564E+02 -0.27815924953E+02  0.18573217433E+03  0.00000000000E+00 0.  1.
         21    1    1    2  504  502 -0.33906700708E+02 -0.26063753692E+01  0.36763703641E+02  0.50080210172E+02  0.00000000000E+00 0.  1.
         21    1    1    2  505  503  0.21913838377E+03 -0.38209349707E+02  0.55691310574E+03  0.59969474985E+03  0.00000000000E+00 0.  1.
          2    1    1    2  501    0 -0.14827922671E+02 -0.27633331487E+02 -0.10767550669E+04  0.10772116517E+04  0.00000000000E+00 0.  1.
<scales pt_clust_3="192.21062" pt_clust_4="34.86586" pt_clust_5="14000.00000" pt_clust_6="31.36030"></scales>
<clustering>
<clus scale="   31.360">  2  6  1 -1</clus>
<clus scale="   34.866">  1  4  2 -1</clus>
<clus scale="  192.211">  2  3  1 -1</clus>
<clus scale="   34.866">  1  3  2 -1</clus>
</clustering>
</event>
<event>
 6    0  0.2781617E+002  0.9223124E+02  0.7546771E-02  0.1297537E+00
         -2   -1    0    0    0  501 -0.00000000000E+00  0.00000000000E+00  0.40421882194E+03  0.40421882194E+03  0.00000000000E+00 0.  1.
         21   -1    0    0  501  502  0.00000000000E+00 -0.00000000000E+00 -0.16493946871E+03  0.16493946871E+03  0.00000000000E+00 0. -1.
         21    1    1    2  503  502  0.43725456354E+01  0.94750064850E+02 -0.66315047619E+02  0.11573408955E+03  0.00000000000E+00 0. -1.
         21    1    1    2  504  503  0.64283888932E+02 -0.81509526921E+02 -0.11788140087E+02  0.10447574648E+03  0.00000000000E+00 0. -1.
         21    1    1    2  505  504 -0.48199518759E+02 -0.43428949925E+02  0.58029376750E+02  0.87044102995E+02  0.00000000000E+00 0. -1.
         -2    1    1    2    0  505 -0.20456915809E+02  0.30188411996E+02  0.25935316419E+03  0.26190435162E+03  0.00000000000E+00 0.  1.
<scales pt_clust_3="92.23124" pt_clust_4="14000.00000" pt_clust_5="64.96332" pt_clust_6="36.46677"></scales>
<clustering>
<clus scale="   36.467">  1  6  2 -1</clus>
<clus scale="   64.963">  1  5  2 -1</clus>
<clus scale="   92.231">  2  3  1 -1</clus>
<clus scale="   92.231">  2  3  1 -1</clus>
</clustering>
</event>
<event>
 6    0  0.2781617E+002  0.1618319E+03  0.7546771E-02  0.1186644E+00
         -1   -1    0    0    0  501 -0.00000000000E+00  0.00000000000E+00  0.22324748051E+03  0.22324748051E+03  0.00000000000E+00 0. -1.
         21   -1    0    0  503  502  0.00000000000E+00 -0.00000000000E+00 -0.45110362391E+03  0.45110362391E+03  0.00000000000E+00 0.  1.
         21    1    1    2  503  501 -0.27521408473E+02  0.18463295226E+02 -0.38677821759E+02  0.50934223180E+02  0.00000000000E+00 0.  1.
         21    1    1    2  504  502  0.28641496452E+02 -0.56559466514E+02 -0.15711092580E+03  0.16942004479E+03  0.00000000000E+00 0. -1.
         21    1    1    2  505  504  0.96467637099E+02 -0.77182815612E+02 -0.19562324245E+03  0.23136906669E+03  0.00000000000E+00 0.  1.
         -1    1    1    2    0  505 -0.97587725079E+02  0.11527898690E+03  0.16355584662E+03  0.22262776976E+03  0.00000000000E+00 0. -1.
<scales pt_clust_3="33.14093" pt_clust_4="36.23169" pt_clust_5="36.23169" pt_clust_6="153.35694"></scales>
<clustering>
<clus scale="   33.141">  2  3  1 -1</clus>
<clus scale="   36.232">  4  5 -1 -1</clus>
<clus scale="  153.357">  1  6  2 -1</clus>
<clus scale="   33.141">  2  3  1 -1</clus>
</clustering>
</event>
<event>
 6    0  0.2781617E+002  0.9852339E+02  0.7546771E-02  0.1283432E+00
         21   -1    0    0  505  502  0.00000000000E+00  0.00000000000E+00  0.36321934884E+02  0.36321934884E+02  0.00000000000E+00 0. -1.
          1   -1    0    0  503    0 -0.00000000000E+00 -0.00000000000E+00 -0.17379037225E+04  0.17379037225E+04  0.00000000000E+00 0. -1.
         21    1    1    2  503  504 -0.64000445320E+02  0.25444051667E+02 -0.67380606488E+02  0.96351455085E+02  0.00000000000E+00 0. -1.
         21    1    1    2  504  502 -0.63330332884E+02 -0.25382981448E+02 -0.85026146049E+02  0.10901592692E+03  0.00000000000E+00 0. -1.
         21    1    1    2  505  501  0.53065590613E+02  0.34862268309E+02 -0.10750676658E+03  0.12485607522E+03  0.00000000000E+00 0. -1.
          1    1    1    2  501    0  0.74265187592E+02 -0.34923338529E+02 -0.14416682685E+04  0.14440022002E+04  0.00000000000E+00 0. -1.
<scales pt_clust_3="52.04998" pt_clust_4="52.04998" pt_clust_5="63.49279" pt_clust_6="83.49878"></scales>
<clustering>
<clus scale="   52.050">  3  4 -1 -1</clus>
<clus scale="   63.493">  1  5  2 -1</clus>
<clus scale="   83.499">  2  6  1 -1</clus>
<clus scale="   63.493">  1  3  2 -1</clus>
</clustering>
</event>
<event>
 6    0  0.2781617E+002  0.1480301E+03  0.7546771E-02  0.1202915E+00
          1   -1    0    0  503    0 -0.00000000000E+00  0.00000000000E+00  0.12216150028E+04  0.12216150028E+04  0.00000000000E+00 0.  1.
         21   -1    0    0  505  502  0.00000000000E+00 -0.00000000000E+00 -0.12991823342E+03  0.12991823342E+03  0.00000000000E+00 0. -1.
         21    1    1    2  503  502  0.15004178839E+03 -0.67326192580E+01  0.88678559884E+02  0.17441832877E+03  0.00000000000E+00 0. -1.
         21    1    1    2  504  501 -0.74211074670E+02 -0.33453250018E+02  0.23237826901E+01  0.81435885864E+02  0.00000000000E+00 0. -1.
         21    1    1    2  505  504 -0.58310852306E+02  0.70019534854E+01 -0.28862326464E+02  0.65438648658E+02  0.00000000000E+00 0. -1.
          1    1    1    2  501    0 -0.17519861418E+02  0.33183915790E+02  0.10295567533E+04  0.10302403729E+04  0.00000000000E+00 0.  1.
<scales pt_clust_3="138.94889" pt_clust_4="43.88628" pt_clust_5="43.88628" pt_clust_6="37.52490"></scales>
<clustering>
<clus scale="   37.525">  1  6  2 -1</clus>
<clus scale="   43.886">  4  5 -1 -1</clus>
<clus scale="  138.949">  1  3  2 -1</clus>
<clus scale="  148.030">  2  3  1 -1</clus>
</clustering>
</event>
<event>
 6    0  0.2781617E+002  0.1112417E+03  0.7546771E-02  0.1258288E+00
          1   -1    0    0  503    0 -0.00000000000E+00  0.00000000000E+00  0.31380145737E+04  0.31380145737E+04  0.00000000000E+00 0. -1.
         21   -1    0    0  501  502  0.00000000000E+00 -0.00000000000E+00 -0.93053931631E+02  0.93053931631E+02  0.00000000000E+00 0. -1.
         21    1    1    2  503  504  0.36128177873E+02  0.60303877498E+02  0.68951862235E+02  0.98469092528E+02  0.00000000000E+00 0. -1.
         21    1    1    2  504  505 -0.35847966629E+02  0.24618558189E+02  0.10835290810E+02  0.44816890184E+02  0.00000000000E+00 0. -1.
         21    1    1    2  505  502 -0.33161285674E+02  0.26301345235E+02 -0.52749931643E+02  0.67631256953E+02  0.00000000000E+00 0. -1.
          1    1    1    2  501    0  0.32881074431E+02 -0.11122378092E+03  0.30179234206E+04  0.30201512656E+04  0.00000000000E+00 0. -1.
<scales pt_clust_3="14000.00000" pt_clust_4="65.33571" pt_clust_5="42.32531" pt_clust_6="111.24168"></scales>
<clustering>
<clus scale="   42.325">  2  5  1 -1</clus>
<clus scale="   65.336">  2  4  1 -1</clus>
<clus scale="  111.242">  1  6  2 -1</clus>
<clus scale="   42.325">  2  3  1 -1</clus>
</clustering>
</event>
<event>
 6    0  0.2781617E+002  0.8134934E+02  0.7546771E-02  0.1325265E+00
         21   -1    0    0  505  502  0.00000000000E+00  0.00000000000E+00  0.39413969529E+02  0.39413969529E+02  0.00000000000E+00 0.  1.
          2   -1    0    0  503    0 -0.00000000000E+00 -0.00000000000E+00 -0.11290408462E+04  0.11290408462E+04  0.00000000000E+00 0.  1.
         21    1    1    2  503  502  0.51012366758E+02 -0.22491239903E+02 -0.25122385505E+02  0.61149420995E+02  0.00000000000E+00 0.  1.
         21    1    1    2  504  501 -0.26478046596E+01 -0.63393183728E+02 -0.61489669259E+02  0.88355452793E+02  0.00000000000E+00 0.  1.
         21    1    1    2  505  504 -0.54441611077E+02  0.21003003387E+01 -0.11814964641E+03  0.13010626129E+03  0.00000000000E+00 0.  1.
          2    1    1    2  501    0  0.60770489785E+01  0.83784123292E+02 -0.88486517546E+03  0.88884368062E+03  0.00000000000E+00 0.  1.
<scales pt_clust_3="30.43583" pt_clust_4="81.34934" pt_clust_5="54.48211" pt_clust_6="14000.00000"></scales>
<clustering>
<clus scale="   54.482">  1  5  2 -1</clus>
<clus scale="   30.436">  1  3  2 -1</clus>
<clus scale="   81.349">  1  4  2 -1</clus>
<clus scale="   54.482">  1  3  2 -1</clus>
</clustering>
</event>
<event>
 6    0  0.2781617E+002  0.1041246E+03  0.7546771E-02  0.1271854E+00
          2   -1    0    0  503    0 -0.00000000000E+00  0.00000000000E+00  0.29775890421E+04  0.29775890421E+04  0.00000000000E+00 0.  1.
         21   -1    0    0  504  502  0.00000000000E+00 -0.00000000000E+00 -0.47009835578E+03  0.47009835578E+03  0.00000000000E+00 0.  1.
         21    1    1    2  503  502 -0.10503933021E+03  0.10132467255E+03 -0.27577073712E+03  0.31200873323E+03  0.00000000000E+00 0.  1.
         21    1    1    2  504  505  0.28405111072E+02 -0.21023525027E+02 -0.17523116162E+02  0.39444879765E+02  0.00000000000E+00 0. -1.
         21    1    1    2  505  501 -0.46890777167E+01 -0.91765104563E+02 -0.13280602595E+03  0.16149384630E+03  0.00000000000E+00 0.  1.
          2    1    1    2  501    0  0.81323296853E+02  0.11463957036E+02  0.29335905656E+04  0.29347399386E+04  0.00000000000E+00 0.  1.
<scales pt_clust_3="104.12460" pt_clust_4="35.33892" pt_clust_5="14000.00000" pt_clust_6="82.16014"></scales>
<clustering>
<clus scale="   35.339">  2  4  1 -1</clus>
<clus scale="   82.160">  1  6  2 -1</clus>
<clus scale="  104.125">  2  3  1 -1</clus>
<clus scale="   35.339">  2  3  1 -1</clus>
</clustering>
</event>
<event>
 6    0  0.2781617E+002  0.1420972E+03  0.7546771E-02  0.1210535E+00
         21   -1    0    0  504  502  0.00000000000E+00  0.00000000000E+00  0.44438097805E+03  0.44438097805E+03  0.00000000000E+00 0. -1.
         -1   -1    0    0    0  501 -0.00000000000E+00 -0.00000000000E+00 -0.13321316298E+03  0.13321316298E+03  0.00000000000E+00 0.  1.
         21    1    1    2  503  501 -0.35514672130E+02  0.48072102138E+02  0.10059838078E+03  0.11701390155E+03  0.00000000000E+00 0.  1.
         21    1    1    2  504  505 -0.52427199021E+02 -0.14199923457E+02  0.10392838945E+03  0.11726618931E+03  0.00000000000E+00 0. -1.
         21    1    1    2  505  503 -0.33185408364E+02  0.40489719643E+02  0.17710037127E+03  0.18467601422E+03  0.00000000000E+00 0. -1.
         -1    1    1    2    0  502  0.12112727952E+03 -0.74361898324E+02 -0.70459326428E+02  0.15863803594E+03  0.00000000000E+00 0.  1.
<scales pt_clust_3="34.22525" pt_clust_4="54.31619" pt_clust_5="34.22525" pt_clust_6="137.31098"></scales>
<clustering>
<clus scale="   34.225">  3  5 -1 -1</clus>
<clus scale="   54.316">  1  4  2 -1</clus>
<clus scale="  137.311">  2  6  1 -1</clus>
<clus scale="   54.316">  1  3  2 -1</clus>
</clustering>
</event>
<event>
 6    0  0.2781617E+002  0.9339480E+02  0.7546771E-02  0.1294833E+00
          2   -1    0    0  505    0 -0.00000000000E+00  0.00000000000E+00  0.67083350628E+03  0.67083350628E+03  0.00000000000E+00 0.  1.
         21   -1    0    0  504  502  0.00000000000E+00 -0.00000000000E+00 -0.11072615436E+04  0.11072615436E+04  0.00000000000E+00 0. -1.
         21    1    1    2  503  502  0.39478095789E+02  0.10029319848E+03 -0.64005252105E+03  0.64906430760E+03  0.00000000000E+00 0. -1.
         21    1    1    2  504  501 -0.30201217215E+02 -0.62980831118E+02 -0.29119308812E+03  0.29945302333E+03  0.00000000000E+00 0. -1.
         21    1    1    2  505  503  0.36176603515E+02  0.25725953651E+02 -0.16210542752E+03  0.16807361769E+03  0.00000000000E+00 0.  1.
          2    1    1    2  501    0 -0.45453482089E+02 -0.63038321015E+02  0.65692299934E+03  0.66150410128E+03  0.00000000000E+00 0.  1.
<scales pt_clust_3="33.05251" pt_clust_4="69.84768" pt_clust_5="33.05251" pt_clust_6="77.91042"></scales>
<clustering>
<clus scale="   33.053">  3  5 -1 -1</clus>
<clus scale="   69.848">  2  4  1 -1</clus>
<clus scale="   77.910">  1  6  2 -1</clus>
<clus scale="   69.848">  2  3  1 -1</clus>
</clustering>
</event>
<event>
 6    0  0.2781617E+002  0.3439866E+03  0.7546771E-02  0.1065111E+00
         21   -1    0    0  504  502  0.00000000000E+00  0.00000000000E+00  0.52310018549E+03  0.52310018549E+03  0.00000000000E+00 0.  1.
          4   -1    0    0  503    0 -0.00000000000E+00 -0.00000000000E+00 -0.64847404440E+03  0.64847404440E+03  0.00000000000E+00 0. -1.
         21    1    1    2  503  502 -0.22160452801E+03 -0.22677701985E+03  0.32585999876E+03  0.45466594590E+03  0.00000000000E+00 0.  1.
         21    1    1    2  504  505  0.14719297249E+03  0.17359612391E+03 -0.12552189817E+03  0.25991754906E+03  0.00000000000E+00 0. -1.
         21    1    1    2  505  501  0.48677643020E+02  0.73481785984E+02  0.34967365828E+02  0.94825115209E+02  0.00000000000E+00 0.  1.
          4    1    1    2  501    0  0.25733912497E+02 -0.20300890048E+02 -0.36067932534E+03  0.36216561973E+03  0.00000000000E+00 0. -1.
<scales pt_clust_3="316.38162" pt_clust_4="83.58261" pt_clust_5="83.58261" pt_clust_6="32.77744"></scales>
<clustering>
<clus scale="   32.777">  2  6  1 -1</clus>
<clus scale="   83.583">  4  5 -1 -1</clus>
<clus scale="  316.382">  1  3  2 -1</clus>
<clus scale="  316.382">  1  3  2 -1</clus>
</clustering>
</event>
<event>
 6    0  0.2781617E+002  0.6754664E+02  0.7546771E-02  0.1368640E+00
          4   -1    0    0  504    0 -0.00000000000E+00  0.00000000000E+00  0.50267905310E+02  0.50267905310E+02  0.00000000000E+00 0.  1.
         21   -1    0    0  505  502  0.00000000000E+00 -0.00000000000E+00 -0.20036416473E+04  0.20036416473E+04  0.00000000000E+00 0.  1.
         21    1    1    2  503  502  0.46658420943E+02 -0.16816015235E+02 -0.51677714964E+03  0.51915162429E+03  0.00000000000E+00 0.  1.
         21    1    1    2  504  503 -0.60340370974E+02 -0.29025592738E+02 -0.36385355792E+03  0.36996331847E+03  0.00000000000E+00 0.  1.
         21    1    1    2  505  501 -0.44762011411E+02  0.79191481790E+02 -0.10912272503E+04  0.10950122557E+04  0.00000000000E+00 0.  1.
          4    1    1    2  501    0  0.58443961442E+02 -0.33349873817E+02  0.18484215837E+02  0.69782354128E+02  0.00000000000E+00 0.  1.
<scales pt_clust_3="49.59624" pt_clust_4="59.02506" pt_clust_5="67.54664" pt_clust_6="14000.00000"></scales>
<clustering>
<clus scale="   49.596">  2  3  1 -1</clus>
<clus scale="   59.025">  2  4  1 -1</clus>
<clus scale="   67.547">  2  5  1 -1</clus>
<clus scale="   49.596">  2  3  1 -1</clus>
</clustering>
</event>
<event>
 6    0  0.2781617E+002  0.8906363E+02  0.7546771E-02  0.1305135E+00
         21   -1    0    0  503  502  0.00000000000E+00  0.00000000000E+00  0.47534711570E+03  0.47534711570E+03  0.00000000000E+00 0. -1.
          1   -1    0    0  504    0 -0.00000000000E+00 -0.00000000000E+00 -0.53720798662E+03  0.53720798662E+03  0.00000000000E+00 0. -1.
         21    1    1    2  503  505  0.37962097873E+02 -0.41737498883E+02  0.63069731743E+02  0.84622282822E+02  0.00000000000E+00 0. -1.
         21    1    1    2  504  502 -0.31710553122E+02 -0.89773659332E+02  0.35523333256E+03  0.36777111041E+03  0.00000000000E+00 0. -1.
         21    1    1    2  505  501 -0.40465579607E+02  0.49353839959E+02  0.76653789664E+01  0.64280811183E+02  0.00000000000E+00 0.  1.
          1    1    1    2  501    0  0.34214034855E+02  0.82157318256E+02 -0.48782931419E+03  0.49588089790E+03  0.00000000000E+00 0. -1.
<scales pt_clust_3="56.41932" pt_clust_4="89.06363" pt_clust_5="58.77438" pt_clust_6="14000.00000"></scales>
<clustering>
<clus scale="   56.419">  1  3  2 -1</clus>
<clus scale="   58.774">  1  5  2 -1</clus>
<clus scale="   89.064">  1  4  2 -1</clus>
<clus scale="   56.419">  1  3  2 -1</clus>
</clustering>
</event>
<event>
 6    0  0.2781617E+002  0.2218966E+03  0.7546771E-02  0.1132477E+00
         21   -1    0    0  505  502  0.00000000000E+00  0.00000000000E+00  0.30270073935E+03  0.30270073935E+03  0.00000000000E+00 0. -1.
          1   -1    0    0  503    0 -0.00000000000E+00 -0.00000000000E+00 -0.10320371150E+04  0.10320371150E+04  0.00000000000E+00 0. -1.
         21    1    1    2  503  504  0.34645516629E+03 -0.19415872249E+02 -0.11308097593E+03  0.36495953948E+03  0.00000000000E+00 0. -1.
         21    1    1    2  504  502 -0.63805958380E+02  0.52102042493E+02  0.78746821410E+02  0.11396001509E+03  0.00000000000E+00 0. -1.
         21    1    1    2  505  501 -0.74983253806E+02 -0.33011976029E+02  0.40620281459E+02  0.91445536679E+02  0.00000000000E+00 0. -1.
          1    1    1    2  501    0 -0.20766595410E+03  0.32580578528E+00 -0.73562250263E+03  0.76437276314E+03  0.00000000000E+00 0. -1.
<scales pt_clust_3="14000.00000" pt_clust_4="101.94885" pt_clust_5="81.92850" pt_clust_6="221.89656"></scales>
<clustering>
<clus scale="   81.928">  1  5  2 -1</clus>
<clus scale="  101.949">  1  4  2 -1</clus>
<clus scale="  221.897">  2  6  1 -1</clus>
<clus scale="   81.928">  1  3  2 -1</clus>
</clustering>
</event>
<event>
 6    0  0.2781617E+002  0.9789880E+02  0.7546771E-02  0.1284778E+00
         21   -1    0    0  505  502  0.00000000000E+00  0.00000000000E+00  0.78474390444E+03  0.78474390444E+03  0.00000000000E+00 0.  1.
          2   -1    0    0  504    0 -0.00000000000E+00 -0.00000000000E+00 -0.21924937049E+03  0.21924937049E+03  0.00000000000E+00 0. -1.
         21    1    1    2  503  501  0.71342584588E+02  0.11186898728E+02  0.30427925934E+02  0.78363063720E+02  0.00000000000E+00 0.  1.
         21    1    1    2  504  502 -0.84009800702E+02 -0.33164595100E+02  0.36417906133E+03  0.37521184109E+03  0.00000000000E+00 0. -1.
         21    1    1    2  505  503 -0.34020077801E+02  0.44910050427E+02  0.35482372469E+03  0.35926891589E+03  0.00000000000E+00 0.  1.
          2    1    1    2  501    0  0.46687293915E+02 -0.22932354054E+02 -0.18393617800E+03  0.19114945423E+03  0.00000000000E+00 0. -1.
<scales pt_clust_3="97.89880" pt_clust_4="14000.00000" pt_clust_5="53.10845" pt_clust_6="52.01535"></scales>
<clustering>
<clus scale="   52.015">  2  6  1 -1</clus>
<clus scale="   53.108">  1  5  2 -1</clus>
<clus scale="   97.899">  2  3  1 -1</clus>
<clus scale="   53.108">  1  3  2 -1</clus>
</clustering>
</event>
<event>
 6    0  0.2781617E+002  0.8611180E+02  0.7546771E-02  0.1312550E+00
         21   -1    0    0  504  502  0.00000000000E+00  0.00000000000E+00  0.34408804833E+03  0.34408804833E+03  0.00000000000E+00 0.  1.
          2   -1    0    0  503    0 -0.00000000000E+00 -0.00000000000E+00 -0.38522518805E+03  0.38522518805E+03  0.00000000000E+00 0. -1.
         21    1    1    2  503  505 -0.10228932065E+03  0.42232983147E+02  0.56954053159E+02  0.12446081373E+03  0.00000000000E+00 0.  1.
         21    1    1    2  504  501 -0.30438229502E+02 -0.27438450063E+02  0.24589184057E+02  0.47791027711E+02  0.00000000000E+00 0.  1.
         21    1    1    2  505  502  0.70698145712E+02 -0.41620748834E+02  0.20587937195E+03  0.22162317193E+03  0.00000000000E+00 0.  1.
          2    1    1    2  501    0  0.62029404437E+02  0.26826215750E+02 -0.32855974889E+03  0.33543822301E+03  0.00000000000E+00 0. -1.
<scales pt_clust_3="14000.00000" pt_clust_4="40.97993" pt_clust_5="86.11180" pt_clust_6="67.14819"></scales>
<clustering>
<clus scale="   40.980">  1  4  2 -1</clus>
<clus scale="   67.148">  2  6  1 -1</clus>
<clus scale="   86.112">  1  5  2 -1</clus>
<clus scale="   40.980">  1  3  2 -1</clus>
</clustering>
</event>
<event>
 6    0  0.2781617E+002  0.1265013E+03  0.7546771E-02  0.1232741E+00
         21   -1    0    0  504  502  0.00000000000E+00  0.00000000000E+00  0.66853899009E+03  0.66853899009E+03  0.00000000000E+00 0.  1.
          1   -1    0    0  505    0 -0.00000000000E+00 -0.00000000000E+00 -0.10398868296E+04  0.10398868296E+04  0.00000000000E+00 0.  1.
         21    1    1    2  503  502  0.28941467691E+02 -0.12508169791E+03  0.55057679447E+03  0.56534754471E+03  0.00000000000E+00 0.  1.
         21    1    1    2  504  501 -0.36297704172E+02  0.12716832469E+01  0.65481785190E+02  0.74879935217E+02  0.00000000000E+00 0.  1.
         21    1    1    2  505  503  0.18669445420E+02  0.16007854473E+03 -0.12244193652E+03  0.20239989253E+03  0.00000000000E+00 0. -1.
          1    1    1    2  501    0 -0.11313208939E+02 -0.36268530072E+02 -0.86496448261E+03  0.86579844719E+03  0.00000000000E+00 0.  1.
<scales pt_clust_3="14000.00000" pt_clust_4="36.31997" pt_clust_5="126.50133" pt_clust_6="37.99873"></scales>
<clustering>
<clus scale="   36.320">  1  4  2 -1</clus>
<clus scale="   37.999">  2  6  1 -1</clus>
<clus scale="  126.501">  2  5  1 -1</clus>
<clus scale="   36.320">  1  3  2 -1</clus>
</clustering>
</event>
<event>
 6    0  0.2781617E+002  0.7061509E+02  0.7546771E-02  0.1358014E+00
          2   -1    0    0  503    0 -0.00000000000E+00  0.00000000000E+00  0.37861550979E+04  0.37861550979E+04  0.00000000000E+00 0.  1.
         21   -1    0    0  504  502  0.00000000000E+00 -0.00000000000E+00 -0.36100826401E+03  0.36100826401E+03  0.00000000000E+00 0.  1.
         21    1    1    2  503  505  0.80413820942E+02  0.18022251938E+02 -0.19398826561E+03  0.21076677005E+03  0.00000000000E+00 0.  1.
         21    1    1    2  504  501 -0.41806700196E+02  0.57455295302E+02 -0.13632686033E+03  0.15373328848E+03  0.00000000000E+00 0.  1.
         21    1    1    2  505  502  0.20369522698E+02 -0.36660795012E+02  0.19877554826E+02  0.46411728385E+02  0.00000000000E+00 0.  1.
          2    1    1    2  501    0 -0.58976643445E+02 -0.38816752228E+02  0.37355844050E+04  0.37362515750E+04  0.00000000000E+00 0.  1.
<scales pt_clust_3="14000.00000" pt_clust_4="53.73609" pt_clust_5="41.93962" pt_clust_6="70.61509"></scales>
<clustering>
<clus scale="   41.940">  2  5  1 -1</clus>
<clus scale="   53.736">  2  4  1 -1</clus>
<clus scale="   70.615">  1  6  2 -1</clus>
<clus scale="   41.940">  2  3  1 -1</clus>
</clustering>
</event>
<event>
 6    0  0.3399845E+002  0.1201979E+03  0.7546771E-02  0.1242771E+00
          2   -1    0    0  503    0 -0.00000000000E+00  0.00000000000E+00  0.21653758689E+04  0.21653758689E+04  0.00000000000E+00 0.  1.
         21   -1    0    0  505  502  0.00000000000E+00 -0.00000000000E+00 -0.10530172244E+03  0.10530172244E+03  0.00000000000E+00 0.  1.
         21    1    1    2  503  502  0.10174227440E+02  0.36605519910E+02  0.68065744367E+02  0.77951424285E+02  0.00000000000E+00 0.  1.
         21    1    1    2  504  501  0.39874248214E+02 -0.72578334794E+02  0.15835102479E+03  0.17869699887E+03  0.00000000000E+00 0.  1.
         21    1    1    2  505  504 -0.80902032478E+02  0.95759011057E+02 -0.45728694885E+02  0.13343927680E+03  0.00000000000E+00 0.  1.
          2    1    1    2  501    0  0.30853556824E+02 -0.59786196173E+02  0.18793860722E+04  0.18805898914E+04  0.00000000000E+00 0.  1.
<scales pt_clust_3="37.99314" pt_clust_4="120.19795" pt_clust_5="14000.00000" pt_clust_6="67.11108"></scales>
<clustering>
<clus scale="   37.993">  2  3  1 -1</clus>
<clus scale="   67.111">  1  6  2 -1</clus>
<clus scale="  120.198">  1  4  2 -1</clus>
<clus scale="   37.993">  2  3  1 -1</clus>
</clustering>
</event>
<event>
 6    0  0.2781617E+002  0.2686182E+03  0.7546771E-02  0.1102073E+00
         21   -1    0    0  501  502  0.00000000000E+00  0.00000000000E+00  0.74463402219E+03  0.74463402219E+03  0.00000000000E+00 0. -1.
          2   -1    0    0  505    0 -0.00000000000E+00 -0.00000000000E+00 -0.91699513157E+03  0.91699513157E+03  0.00000000000E+00 0.  1.
         21    1    1    2  503  502  0.19317376514E+03 -0.16928736837E+03  0.42849768300E+03  0.49958440825E+03  0.00000000000E+00 0. -1.
         21    1    1    2  504  503  0.30698085037E+02  0.21214162324E+03  0.17965988281E+03  0.27968574191E+03  0.00000000000E+00 0.  1.
         21    1    1    2  505  504 -0.27444602637E+02  0.64598548113E+02  0.18205615274E+00  0.70186977258E+02  0.00000000000E+00 0. -1.
          2    1    1    2  501    0 -0.19642724754E+03 -0.10745280298E+03 -0.78070073134E+03  0.81217202634E+03  0.00000000000E+00 0.  1.
<scales pt_clust_3="242.24710" pt_clust_4="66.41743" pt_clust_5="66.41743" pt_clust_6="223.89678"></scales>
<clustering>
<clus scale="   66.417">  4  5 -1 -1</clus>
<clus scale="  223.897">  2  6  1 -1</clus>
<clus scale="  242.247">  1  3  2 -1</clus>
<clus scale="  242.247">  1  3  2 -1</clus>
</clustering>
</event>
<event>
 6    0  0.2781617E+002  0.7830244E+02  0.7546771E-02  0.1333939E+00
          3   -1    0    0  504    0 -0.00000000000E+00  0.00000000000E+00  0.13256958515E+03  0.13256958515E+03  0.00000000000E+00 0.  1.
         21   -1    0    0  503  502  0.00000000000E+00 -0.00000000000E+00 -0.81744183485E+03  0.81744183485E+03  0.00000000000E+00 0. -1.
         21    1    1    2  503  501  0.72031386961E+02  0.63348529861E+02 -0.51730912038E+03  0.52612762993E+03  0.00000000000E+00 0. -1.
         21    1    1    2  504  505  0.88699917644E+01 -0.92492307369E+02 -0.12006344040E+03  0.15181809311E+03  0.00000000000E+00 0.  1.
         21    1    1    2  505  502 -0.23943736739E+02 -0.25445344042E+02 -0.14356579486E+03  0.14775623681E+03  0.00000000000E+00 0.  1.
          3    1    1    2  501    0 -0.56957641986E+02  0.54589121550E+02  0.96066105938E+02  0.12430946015E+03  0.00000000000E+00 0.  1.
<scales pt_clust_3="68.95846" pt_clust_4="14000.00000" pt_clust_5="34.93949" pt_clust_6="78.30244"></scales>
<clustering>
<clus scale="   34.939">  2  5  1 -1</clus>
<clus scale="   68.958">  2  3  1 -1</clus>
<clus scale="   78.302">  1  6  2 -1</clus>
<clus scale="   34.939">  2  3  1 -1</clus>
</clustering>
</event>
<event>
 6    0  0.2781617E+002  0.1218407E+03  0.7546771E-02  0.1240091E+00
          1   -1    0    0  505    0 -0.00000000000E+00  0.00000000000E+00  0.16409382307E+04  0.16409382307E+04  0.00000000000E+00 0. -1.
         21   -1    0    0  501  502  0.00000000000E+00 -0.00000000000E+00 -0.39914440616E+02  0.39914440616E+02  0.00000000000E+00 0.  1.
         21    1    1    2  503  502  0.34129858983E+02 -0.68106081283E+02  0.14558322301E+03  0.16430995224E+03  0.00000000000E+00 0. -1.
         21    1    1    2  504  503  0.39032790687E+02 -0.16656252761E+01  0.16998526729E+02  0.42606137673E+02  0.00000000000E+00 0.  1.
         21    1    1    2  505  504  0.41164753210E+02  0.48125637602E+02  0.50162199076E+02  0.80788985125E+02  0.00000000000E+00 0.  1.
          1    1    1    2  501    0 -0.11432740288E+03  0.21646068957E+02  0.13882798413E+04  0.13931475963E+04  0.00000000000E+00 0. -1.
<scales pt_clust_3="76.17930" pt_clust_4="36.21195" pt_clust_5="36.21195" pt_clust_6="112.78093"></scales>
<clustering>
<clus scale="   36.212">  4  5 -1 -1</clus>
<clus scale="   76.179">  2  3  1 -1</clus>
<clus scale="  112.781">  1  6  2 -1</clus>
<clus scale="   76.179">  2  3  1 -1</clus>
</clustering>
</event>
<event>
 6    0  0.2781617E+002  0.1050162E+03  0.7546771E-02  0.1270088E+00
         21   -1    0    0  503  502  0.00000000000E+00  0.00000000000E+00  0.22949263903E+03  0.22949263903E+03  0.00000000000E+00 0.  1.
         -3   -1    0    0    0  501 -0.00000000000E+00 -0.00000000000E+00 -0.21298483801E+03  0.21298483801E+03  0.00000000000E+00 0. -1.
         21    1    1    2  503  501 -0.21142207830E+02 -0.60778379442E+02  0.57159045745E+02  0.86070673693E+02  0.00000000000E+00 0.  1.
         21    1    1    2  504  502 -0.13786075674E+02 -0.26910354399E+02  0.11229342271E+03  0.11629288817E+03  0.00000000000E+00 0.  1.
         21    1    1    2  505  504  0.38516570620E+02 -0.29756898871E+02 -0.18484004098E+01  0.48707451451E+02  0.00000000000E+00 0.  1.
         -3    1    1    2    0  505 -0.35882871157E+01  0.11744563271E+03 -0.15109626702E+03  0.19140646372E+03  0.00000000000E+00 0. -1.
<scales pt_clust_3="105.01619" pt_clust_4="30.23612" pt_clust_5="50.16524" pt_clust_6="14000.00000"></scales>
<clustering>
<clus scale="   30.236">  1  4  2 -1</clus>
<clus scale="   50.165">  1  5  2 -1</clus>
<clus scale="  105.016">  1  3  2 -1</clus>
<clus scale="   30.236">  1  3  2 -1</clus>
</clustering>
</event>
<event>
 6    0  0.2781617E+002  0.1372735E+03  0.7546771E-02  0.1217046E+00
          2   -1    0    0  503    0 -0.00000000000E+00  0.00000000000E+00  0.16760426366E+04  0.16760426366E+04  0.00000000000E+00 0. -1.
         21   -1    0    0  505  502  0.00000000000E+00 -0.00000000000E+00 -0.19966770930E+03  0.19966770930E+03  0.00000000000E+00 0. -1.
         21    1    1    2  503  502  0.20602683840E+02  0.35955935880E+02 -0.21483977001E+02  0.46678273042E+02  0.00000000000E+00 0. -1.
         21    1    1    2  504  501 -0.11892191264E+03  0.89362135372E+01 -0.12516422823E+03  0.17288250706E+03  0.00000000000E+00 0. -1.
         21    1    1    2  505  504 -0.21114133711E+02  0.23954186380E+02  0.50666284809E+01  0.32330796644E+02  0.00000000000E+00 0. -1.
          2    1    1    2  501    0  0.11943336251E+03 -0.68846335797E+02  0.16179565041E+04  0.16238187692E+04  0.00000000000E+00 0. -1.
<scales pt_clust_3="43.67732" pt_clust_4="14000.00000" pt_clust_5="31.93133" pt_clust_6="137.27346"></scales>
<clustering>
<clus scale="   31.931">  2  5  1 -1</clus>
<clus scale="   43.677">  2  3  1 -1</clus>
<clus scale="  137.273">  1  6  2 -1</clus>
<clus scale="   31.931">  2  3  1 -1</clus>
</clustering>
</event>
<event>
 6    0  0.2781617E+002  0.1478418E+03  0.7546771E-02  0.1203150E+00
          1   -1    0    0  504    0 -0.00000000000E+00  0.00000000000E+00  0.26932917247E+04  0.26932917247E+04  0.00000000000E+00 0. -1.
         21   -1    0    0  501  502  0.00000000000E+00 -0.00000000000E+00 -0.14422944847E+03  0.14422944847E+03  0.00000000000E+00 0. -1.
         21    1    1    2  503  505 -0.37670175986E+00 -0.14893208532E+03 -0.15428252171E+02  0.14972955256E+03  0.00000000000E+00 0. -1.
         21    1    1    2  504  503 -0.12552041427E+02  0.14579158051E+03  0.41041731408E+02  0.15197750626E+03  0.00000000000E+00 0. -1.
         21    1    1    2  505  502 -0.47655927476E+02 -0.37026872843E+01  0.92675470489E+02  0.10427626838E+03  0.00000000000E+00 0. -1.
          1    1    1    2  501    0  0.60584670663E+02  0.68431920948E+01  0.24307733265E+04  0.24315378460E+04  0.00000000000E+00 0. -1.
<scales pt_clust_3="147.84185" pt_clust_4="14000.00000" pt_clust_5="47.79955" pt_clust_6="60.83801"></scales>
<clustering>
<clus scale="   47.800">  2  5  1 -1</clus>
<clus scale="   60.838">  1  6  2 -1</clus>
<clus scale="  147.842">  2  3  1 -1</clus>
<clus scale="   47.800">  2  3  1 -1</clus>
</clustering>
</event>
<event>
 6    0  0.2781617E+002  0.1237750E+03  0.7546771E-02  0.1236996E+00
         21   -1    0    0  503  502  0.00000000000E+00  0.00000000000E+00  0.96744498007E+03  0.96744498007E+03  0.00000000000E+00 0. -1.
          1   -1    0    0  504    0 -0.00000000000E+00 -0.00000000000E+00 -0.47387659084E+03  0.47387659084E+03  0.00000000000E+00 0. -1.
         21    1    1    2  503  505  0.20096227859E+01  0.33869413696E+02  0.19796292091E+03  0.20084943072E+03  0.00000000000E+00 0. -1.
         21    1    1    2  504  502 -0.88973572890E+02  0.49130254909E+00  0.65788476000E+03  0.66387415636E+03  0.00000000000E+00 0. -1.
         21    1    1    2  505  501 -0.10496604893E+02  0.43032021453E+02  0.93859700263E+02  0.10378620774E+03  0.00000000000E+00 0.  1.
          1    1    1    2  501    0  0.97460554997E+02 -0.77392737698E+02 -0.45613899194E+03  0.47281177607E+03  0.00000000000E+00 0. -1.
<scales pt_clust_3="33.92898" pt_clust_4="123.77495" pt_clust_5="48.48326" pt_clust_6="14000.00000"></scales>
<clustering>
<clus scale="   33.929">  1  3  2 -1</clus>
<clus scale="   48.483">  1  5  2 -1</clus>
<clus scale="  123.775">  1  4  2 -1</clus>
<clus scale="   33.929">  1  3  2 -1</clus>
</clustering>
</event>
<event>
 6    0  0.2781617E+002  0.1047097E+03  0.7546771E-02  0.1270693E+00
         21   -1    0    0  504  502  0.00000000000E+00  0.00000000000E+00  0.28267268690E+02  0.28267268690E+02  0.00000000000E+00 0. -1.
          2   -1    0    0  503    0 -0.00000000000E+00 -0.00000000000E+00 -0.32295895927E+04  0.32295895927E+04  0.00000000000E+00 0. -1.
         21    1    1    2  503  505  0.41543010861E+02 -0.39760256199E+02 -0.10761697029E+03  0.12201685138E+03  0.00000000000E+00 0. -1.
         21    1    1    2  504  501 -0.10402958207E+03 -0.34219217831E+01 -0.14861881624E+03  0.18144259708E+03  0.00000000000E+00 0. -1.
         21    1    1    2  505  502  0.45593487670E+02 -0.48801220597E+01 -0.11433025894E+03  0.12318274968E+03  0.00000000000E+00 0. -1.
          2    1    1    2  501    0  0.16893083540E+02  0.48062300042E+02 -0.28307562785E+04  0.28312146632E+04  0.00000000000E+00 0. -1.
<scales pt_clust_3="31.90734" pt_clust_4="98.42445" pt_clust_5="31.90734" pt_clust_6="50.94469"></scales>
<clustering>
<clus scale="   31.907">  3  5 -1 -1</clus>
<clus scale="   50.945">  2  6  1 -1</clus>
<clus scale="   98.424">  1  4  2 -1</clus>
<clus scale="   98.424">  1  3  2 -1</clus>
</clustering>
</event>
<event>
 6    0  0.2781617E+002  0.9633451E+02  0.7546771E-02  0.1288198E+00
         21   -1    0    0  504  502  0.00000000000E+00  0.00000000000E+00  0.93446297717E+02  0.93446297717E+02  0.00000000000E+00 0.  1.
          3   -1    0    0  503    0 -0.00000000000E+00 -0.00000000000E+00 -0.81989591017E+03  0.81989591017E+03  0.00000000000E+00 0.  1.
         21    1    1    2  503  502  0.27663237245E+01  0.44278733384E+02 -0.17593408769E+02  0.47726164828E+02  0.00000000000E+00 0. -1.
         21    1    1    2  504  505 -0.31204631010E+02  0.35239936452E+02  0.13584061321E+02  0.48990905683E+02  0.00000000000E+00 0.  1.
         21    1    1    2  505  501 -0.44263282782E+02 -0.13924918494E+03 -0.78538731183E+02  0.16588521937E+03  0.00000000000E+00 0.  1.
          3    1    1    2  501    0  0.72701590067E+02  0.59730515101E+02 -0.64390153383E+03  0.65073991802E+03  0.00000000000E+00 0.  1.
<scales pt_clust_3="44.36506" pt_clust_4="60.87717" pt_clust_5="96.33451" pt_clust_6="14000.00000"></scales>
<clustering>
<clus scale="   44.365">  1  3  2 -1</clus>
<clus scale="   60.877">  1  4  2 -1</clus>
<clus scale="   96.335">  1  5  2 -1</clus>
<clus scale="   44.365">  1  3  2 -1</clus>
</clustering>
</event>
<event>
 6    0  0.2781617E+002  0.1906833E+03  0.7546771E-02  0.1157846E+00
          2   -1    0    0  503    0 -0.00000000000E+00  0.00000000000E+00  0.16561977129E+04  0.16561977129E+04  0.00000000000E+00 0.  1.
         21   -1    0    0  504  502  0.00000000000E+00 -0.00000000000E+00 -0.66371781171E+02  0.66371781171E+02  0.00000000000E+00 0. -1.
         21    1    1    2  503  502  0.41423106851E+02  0.97857999669E+02  0.28362810611E+02  0.10998413934E+03  0.00000000000E+00 0. -1.
         21    1    1    2  504  505 -0.34457549510E+02  0.21298332470E+02  0.80516803005E+02  0.90132664725E+02  0.00000000000E+00 0. -1.
         21    1    1    2  505  501  0.57759025590E+02  0.78253361332E+02  0.17611991980E+03  0.20119125167E+03  0.00000000000E+00 0. -1.
          2    1    1    2  501    0 -0.64724582930E+02 -0.19740969347E+03  0.13048263983E+04  0.13212614383E+04  0.00000000000E+00 0.  1.
<scales pt_clust_3="14000.00000" pt_clust_4="40.50854" pt_clust_5="96.93275" pt_clust_6="190.68333"></scales>
<clustering>
<clus scale="   40.509">  2  4  1 -1</clus>
<clus scale="   96.933">  2  5  1 -1</clus>
<clus scale="  190.683">  1  6  2 -1</clus>
<clus scale="   40.509">  2  3  1 -1</clus>
</clustering>
</event>
<event>
 6    0  0.2781617E+002  0.1152395E+03  0.7546771E-02  0.1251164E+00
         -1   -1    0    0    0  501 -0.00000000000E+00  0.00000000000E+00  0.80020402848E+03  0.80020402848E+03  0.00000000000E+00 0.  1.
         21   -1    0    0  503  502  0.00000000000E+00 -0.00000000000E+00 -0.14543340144E+03  0.14543340144E+03  0.00000000000E+00 0. -1.
         21    1    1    2  503  501  0.81238681254E+02 -0.44309054589E+02  0.66992312344E+02  0.11424091020E+03  0.00000000000E+00 0. -1.
         21    1    1    2  504  502 -0.67666170465E+02  0.11594361843E+03 -0.37007502184E+02  0.13925224773E+03  0.00000000000E+00 0. -1.
         21    1    1    2  505  504 -0.46984613708E+02  0.25066596023E+02 -0.55663600551E+01  0.53543183747E+02  0.00000000000E+00 0. -1.
         -1    1    1    2    0  505  0.33412102919E+02 -0.96701159865E+02  0.63035217693E+03  0.63860108824E+03  0.00000000000E+00 0.  1.
<scales pt_clust_3="92.53656" pt_clust_4="30.39454" pt_clust_5="30.39454" pt_clust_6="104.64836"></scales>
<clustering>
<clus scale="   30.395">  4  5 -1 -1</clus>
<clus scale="   92.537">  2  3  1 -1</clus>
<clus scale="  104.648">  1  6  2 -1</clus>
<clus scale="   92.537">  2  3  1 -1</clus>
</clustering>
</event>
<event>
 6    0  0.2781617E+002  0.9189107E+02  0.7546771E-02  0.1298336E+00
          1   -1    0    0  505    0 -0.00000000000E+00  0.00000000000E+00  0.35513236576E+03  0.35513236576E+03  0.00000000000E+00 0. -1.
         21   -1    0    0  503  502  0.00000000000E+00 -0.00000000000E+00 -0.89160420183E+02  0.89160420183E+02  0.00000000000E+00 0. -1.
         21    1    1    2  503  504 -0.37550780315E+02 -0.24046100649E+02  0.84628164106E+01  0.45386069672E+02  0.00000000000E+00 0. -1.
         21    1    1    2  504  501 -0.71749984578E+02  0.38867774692E+02 -0.19149501473E+02  0.83818062511E+02  0.00000000000E+00 0. -1.
         21    1    1    2  505  502  0.14533339636E+02 -0.32047054256E+02  0.18946884953E+02  0.39965186061E+02  0.00000000000E+00 0. -1.
          1    1    1    2  501    0  0.94767425257E+02  0.17225380213E+02  0.25771174568E+03  0.27512346770E+03  0.00000000000E+00 0. -1.
<scales pt_clust_3="46.49801" pt_clust_4="91.89107" pt_clust_5="35.18852" pt_clust_6="14000.00000"></scales>
<clustering>
<clus scale="   35.189">  2  5  1 -1</clus>
<clus scale="   46.498">  2  3  1 -1</clus>
<clus scale="   91.891">  2  4  1 -1</clus>
<clus scale="   35.189">  2  3  1 -1</clus>
</clustering>
</event>
<event>
 6    0  0.2781617E+002  0.6110636E+02  0.7546771E-02  0.1393247E+00
         -1   -1    0    0    0  501 -0.00000000000E+00  0.00000000000E+00  0.83498773360E+03  0.83498773360E+03  0.00000000000E+00 0.  1.
         21   -1    0    0  505  502  0.00000000000E+00 -0.00000000000E+00 -0.15504825115E+03  0.15504825115E+03  0.00000000000E+00 0.  1.
         21    1    1    2  503  501  0.15069288299E+02 -0.40434159701E+02  0.11133597304E+03  0.11940562639E+03  0.00000000000E+00 0.  1.
         21    1    1    2  504  502 -0.51037239670E+02 -0.15878764432E+02  0.38392167669E+02  0.65809524625E+02  0.00000000000E+00 0. -1.
         21    1    1    2  505  503  0.53662102360E+02 -0.42282941225E+02 -0.12475605166E+03  0.14223762081E+03  0.00000000000E+00 0.  1.
         -1    1    1    2    0  504 -0.17694150989E+02  0.98595865358E+02  0.65496739339E+03  0.66258321293E+03  0.00000000000E+00 0.  1.
<scales pt_clust_3="43.15095" pt_clust_4="53.36945" pt_clust_5="61.10636" pt_clust_6="14000.00000"></scales>
<clustering>
<clus scale="   43.151">  1  3  2 -1</clus>
<clus scale="   53.369">  2  4  1 -1</clus>
<clus scale="   61.106">  2  5  1 -1</clus>
<clus scale="   53.369">  2  3  1 -1</clus>
</clustering>
</event>
<event>
 6    0  0.2781617E+002  0.9910802E+02  0.7546771E-02  0.1282183E+00
          1   -1    0    0  502    0 -0.00000000000E+00  0.00000000000E+00  0.85893808074E+02  0.85893808074E+02  0.00000000000E+00 0.  1.
         21   -1    0    0  503  502  0.00000000000E+00 -0.00000000000E+00 -0.51820770031E+03  0.51820770031E+03  0.00000000000E+00 0.  1.
         21    1    1    2  503  505  0.39117109985E+02 -0.46592259937E+02 -0.16658958924E+03  0.17735015710E+03  0.00000000000E+00 0.  1.
         21    1    1    2  504  501 -0.40137967263E+01  0.85250743428E+02 -0.78490668365E+02  0.11595078628E+03  0.00000000000E+00 0.  1.
         21    1    1    2  505  504  0.39783528235E+02 -0.19764248414E+02 -0.22178546995E+03  0.22619051553E+03  0.00000000000E+00 0.  1.
          1    1    1    2  501    0 -0.74886841494E+02 -0.18894235076E+02  0.34551835320E+02  0.84610049474E+02  0.00000000000E+00 0.  1.
<scales pt_clust_3="31.75998" pt_clust_4="91.87497" pt_clust_5="31.75998" pt_clust_6="77.23361"></scales>
<clustering>
<clus scale="   31.760">  3  5 -1 -1</clus>
<clus scale="   77.234">  1  6  2 -1</clus>
<clus scale="   91.875">  1  4  2 -1</clus>
<clus scale="   99.108">  2  3  1 -1</clus>
</clustering>
</event>
<event>
 6    0  0.2781617E+002  0.1341337E+03  0.7546771E-02  0.1221448E+00
         21   -1    0    0  504  502  0.00000000000E+00  0.00000000000E+00  0.10959515933E+03  0.10959515933E+03  0.00000000000E+00 0.  1.
          2   -1    0    0  505    0 -0.00000000000E+00 -0.00000000000E+00 -0.25599507998E+04  0.25599507998E+04  0.00000000000E+00 0. -1.
         21    1    1    2  503  501 -0.29520226165E+02 -0.30389315429E+02 -0.89357862084E+02  0.98892779116E+02  0.00000000000E+00 0. -1.
         21    1    1    2  504  503  0.29435533797E+02 -0.12856201202E+03  0.45779716297E+02  0.13960810868E+03  0.00000000000E+00 0.  1.
         21    1    1    2  505  502 -0.41693942734E+02  0.15443995050E+03 -0.52574689665E+03  0.54954515966E+03  0.00000000000E+00 0. -1.
          2    1    1    2  501    0  0.41778635102E+02  0.45113769532E+01 -0.18810305980E+04  0.18814999117E+04  0.00000000000E+00 0. -1.
<scales pt_clust_3="38.06310" pt_clust_4="134.13369" pt_clust_5="14000.00000" pt_clust_6="42.02150"></scales>
<clustering>
<clus scale="   42.022">  2  6  1 -1</clus>
<clus scale="   38.063">  2  3  1 -1</clus>
<clus scale="  134.134">  1  4  2 -1</clus>
<clus scale="  134.134">  1  3  2 -1</clus>
</clustering>
</event>
