<event>
 5    0  0.5568866E-005  0.3783155E+03  0.7546771E-02  0.1051558E+00
         21   -1    0    0  502  501  0.00000000000E+00  0.00000000000E+00  0.47373239925E+03  0.47373239925E+03  0.00000000000E+00 0.  1.
         21   -1    0    0  501  502 -0.00000000000E+00 -0.00000000000E+00 -0.30211703957E+03  0.30211703957E+03  0.00000000000E+00 0.  1.
         25    1    1    2    0    0 -0.26292579335E+03 -0.21910386530E+02  0.20987843977E+03  0.35956083954E+03  0.12500000000E+03 0.  0.
         25    1    1    2    0    0  0.19863749946E+03 -0.47645984740E+02  0.37014843033E+02  0.24232642171E+03  0.12500000000E+03 0.  0.
         25    1    1    2    0    0  0.64288293890E+02  0.69556371270E+02 -0.75277923128E+02  0.17396217757E+03  0.12500000000E+03 0.  0.
</event>
<event>
 5    0  0.5568866E-005  0.2997615E+03  0.7546771E-02  0.1085360E+00
         21   -1    0    0  502  501  0.00000000000E+00  0.00000000000E+00  0.25438243928E+03  0.25438243928E+03  0.00000000000E+00 0.  1.
         21   -1    0    0  501  502 -0.00000000000E+00 -0.00000000000E+00 -0.35323558732E+03  0.35323558732E+03  0.00000000000E+00 0.  1.
         25    1    1    2    0    0 -0.69539144866E+02  0.68212394603E+02  0.12695919870E+03  0.20305728645E+03  0.12500000000E+03 0.  0.
         25    1    1    2    0    0 -0.58534621620E+02 -0.73643677903E+02 -0.98589903609E+02  0.18491798808E+03  0.12500000000E+03 0.  0.
         25    1    1    2    0    0  0.12807376649E+03  0.54312832999E+01 -0.12722244313E+03  0.21964275207E+03  0.12500000000E+03 0.  0.
</event>
<event>
 5    0  0.5568866E-005  0.3608569E+03  0.7546771E-02  0.1058245E+00
         21   -1    0    0  502  501  0.00000000000E+00  0.00000000000E+00  0.14533796768E+04  0.14533796768E+04  0.00000000000E+00 0.  1.
         21   -1    0    0  501  502 -0.00000000000E+00 -0.00000000000E+00 -0.89596486395E+02  0.89596486395E+02  0.00000000000E+00 0.  1.
         25    1    1    2    0    0  0.97348449017E+02  0.72205533176E+02  0.57261871102E+03  0.59850442585E+03  0.12500000000E+03 0.  0.
         25    1    1    2    0    0  0.75310146547E+02 -0.19060992069E+03  0.55645158770E+03  0.60602568386E+03  0.12500000000E+03 0.  0.
         25    1    1    2    0    0 -0.17265859556E+03  0.11840438751E+03  0.23471289170E+03  0.33844605351E+03  0.12500000000E+03 0.  0.
</event>
<event>
 5    0  0.5568866E-005  0.3412546E+03  0.7546771E-02  0.1066263E+00
         21   -1    0    0  502  501  0.00000000000E+00  0.00000000000E+00  0.11545696175E+03  0.11545696175E+03  0.00000000000E+00 0.  1.
         21   -1    0    0  501  502 -0.00000000000E+00 -0.00000000000E+00 -0.10086419439E+04  0.10086419439E+04  0.00000000000E+00 0.  1.
         25    1    1    2    0    0  0.56659089269E+02  0.23585321906E+02  0.31261474673E+02  0.14271930355E+03  0.12500000000E+03 0.  0.
         25    1    1    2    0    0  0.56128639683E+02  0.13935153905E+01 -0.24275143327E+03  0.27875728588E+03  0.12500000000E+03 0.  0.
         25    1    1    2    0    0 -0.11278772895E+03 -0.24978837297E+02 -0.68169502361E+03  0.70262231627E+03  0.12500000000E+03 0.  0.
</event>
<event>
 5    0  0.5610844E-005  0.2883819E+03  0.7546771E-02  0.1091197E+00
         21   -1    0    0  502  501  0.00000000000E+00  0.00000000000E+00  0.57337984112E+03  0.57337984112E+03  0.00000000000E+00 0. -1.
         21   -1    0    0  501  502 -0.00000000000E+00 -0.00000000000E+00 -0.14504196819E+03  0.14504196819E+03  0.00000000000E+00 0. -1.
         25    1    1    2    0    0  0.79490060211E+02 -0.11876248883E+03  0.33308258531E+02  0.19276316689E+03  0.12500000000E+03 0.  0.
         25    1    1    2    0    0 -0.23649603914E+02  0.65069262994E+02  0.33971065342E+03  0.36853987681E+03  0.12500000000E+03 0.  0.
         25    1    1    2    0    0 -0.55840456298E+02  0.53693225831E+02  0.55318960979E+02  0.15711876560E+03  0.12500000000E+03 0.  0.
</event>
<event>
 5    0  0.5568866E-005  0.3248557E+03  0.7546771E-02  0.1073436E+00
         21   -1    0    0  502  501  0.00000000000E+00  0.00000000000E+00  0.92402469155E+02  0.92402469155E+02  0.00000000000E+00 0.  1.
         21   -1    0    0  501  502 -0.00000000000E+00 -0.00000000000E+00 -0.11420821437E+04  0.11420821437E+04  0.00000000000E+00 0.  1.
         25    1    1    2    0    0  0.92677682892E+02  0.10793427626E+03 -0.14751716868E+03  0.24005265246E+03  0.12500000000E+03 0.  0.
         25    1    1    2    0    0 -0.53697305655E+02 -0.20191260981E+03 -0.66059722883E+03  0.70403536941E+03  0.12500000000E+03 0.  0.
         25    1    1    2    0    0 -0.38980377238E+02  0.93978333543E+02 -0.24156527699E+03  0.29039659094E+03  0.12500000000E+03 0.  0.
</event>
<event>
 5    0  0.5568866E-005  0.7733715E+03  0.7546771E-02  0.9599381E-01
         21   -1    0    0  502  501  0.00000000000E+00  0.00000000000E+00  0.73740832419E+03  0.73740832419E+03  0.00000000000E+00 0.  1.
         21   -1    0    0  501  502 -0.00000000000E+00 -0.00000000000E+00 -0.81108850011E+03  0.81108850011E+03  0.00000000000E+00 0.  1.
         25    1    1    2    0    0 -0.12769985036E+03 -0.46878190595E+03  0.18734543447E+03  0.53552501244E+03  0.12500000000E+03 0.  0.
         25    1    1    2    0    0  0.15340182692E+03  0.60214683325E+03  0.66198829486E+02  0.63727561880E+03  0.12500000000E+03 0.  0.
         25    1    1    2    0    0 -0.25701976561E+02 -0.13336492730E+03 -0.32722443987E+03  0.37569619307E+03  0.12500000000E+03 0.  0.
</event>
<event>
 5    0  0.5568866E-005  0.2334667E+03  0.7546771E-02  0.1124223E+00
         21   -1    0    0  502  501  0.00000000000E+00  0.00000000000E+00  0.32348792016E+03  0.32348792016E+03  0.00000000000E+00 0. -1.
         21   -1    0    0  501  502 -0.00000000000E+00 -0.00000000000E+00 -0.16849680541E+03  0.16849680541E+03  0.00000000000E+00 0. -1.
         25    1    1    2    0    0  0.41963473141E+01  0.24709120508E+02  0.29965368170E+02  0.13096210619E+03  0.12500000000E+03 0.  0.
         25    1    1    2    0    0 -0.11103261376E+03  0.80382117451E+01  0.36094106170E+02  0.17123270326E+03  0.12500000000E+03 0.  0.
         25    1    1    2    0    0  0.10683626644E+03 -0.32747332253E+02  0.88931640411E+02  0.18978991613E+03  0.12500000000E+03 0.  0.
</event>
<event>
 5    0  0.5568866E-005  0.3518769E+03  0.7546771E-02  0.1061847E+00
         21   -1    0    0  502  501  0.00000000000E+00  0.00000000000E+00  0.49274022771E+02  0.49274022771E+02  0.00000000000E+00 0. -1.
         21   -1    0    0  501  502 -0.00000000000E+00 -0.00000000000E+00 -0.25128323732E+04  0.25128323732E+04  0.00000000000E+00 0. -1.
         25    1    1    2    0    0  0.61124284179E+02  0.59100703371E+02 -0.10484062787E+04  0.10592496384E+04  0.12500000000E+03 0.  0.
         25    1    1    2    0    0 -0.19098216640E+03  0.21089822725E+02 -0.34194080047E+03  0.41166428013E+03  0.12500000000E+03 0.  0.
         25    1    1    2    0    0  0.12985788222E+03 -0.80190526097E+02 -0.10732112712E+04  0.10911924774E+04  0.12500000000E+03 0.  0.
</event>
<event>
 5    0  0.5568866E-005  0.3082230E+03  0.7546771E-02  0.1081201E+00
         21   -1    0    0  502  501  0.00000000000E+00  0.00000000000E+00  0.33283982599E+03  0.33283982599E+03  0.00000000000E+00 0.  1.
         21   -1    0    0  501  502 -0.00000000000E+00 -0.00000000000E+00 -0.28542676133E+03  0.28542676133E+03  0.00000000000E+00 0.  1.
         25    1    1    2    0    0  0.55389050032E+02 -0.14546626486E+03  0.13730955376E+03  0.24229588240E+03  0.12500000000E+03 0.  0.
         25    1    1    2    0    0  0.62248438791E+02  0.10885884353E+03 -0.93894694240E+02  0.20041539251E+03  0.12500000000E+03 0.  0.
         25    1    1    2    0    0 -0.11763748882E+03  0.36607421323E+02  0.39982051364E+01  0.17555531241E+03  0.12500000000E+03 0.  0.
</event>
<event>
 5    0  0.5568866E-005  0.2868771E+03  0.7546771E-02  0.1091991E+00
         21   -1    0    0  502  501  0.00000000000E+00  0.00000000000E+00  0.14896154998E+03  0.14896154998E+03  0.00000000000E+00 0. -1.
         21   -1    0    0  501  502 -0.00000000000E+00 -0.00000000000E+00 -0.55248124805E+03  0.55248124805E+03  0.00000000000E+00 0. -1.
         25    1    1    2    0    0 -0.13018226079E+03 -0.26991444001E+02 -0.11986118431E+03  0.21832925269E+03  0.12500000000E+03 0.  0.
         25    1    1    2    0    0  0.56159490750E+02 -0.22303381460E+02 -0.29827968093E+03  0.32900926626E+03  0.12500000000E+03 0.  0.
         25    1    1    2    0    0  0.74022770044E+02  0.49294825461E+02  0.14621167179E+02  0.15410427908E+03  0.12500000000E+03 0.  0.
</event>
<event>
 5    0  0.5568866E-005  0.2536123E+03  0.7546771E-02  0.1111043E+00
         21   -1    0    0  502  501  0.00000000000E+00  0.00000000000E+00  0.13939935126E+04  0.13939935126E+04  0.00000000000E+00 0.  1.
         21   -1    0    0  501  502 -0.00000000000E+00 -0.00000000000E+00 -0.46140236497E+02  0.46140236497E+02  0.00000000000E+00 0.  1.
         25    1    1    2    0    0  0.90531516801E+02 -0.16502962272E+01  0.62405362208E+03  0.64285815095E+03  0.12500000000E+03 0.  0.
         25    1    1    2    0    0  0.51344576356E+02 -0.11832334766E+02  0.21399954483E+03  0.25337141681E+03  0.12500000000E+03 0.  0.
         25    1    1    2    0    0 -0.14187609316E+03  0.13482630993E+02  0.50980010921E+03  0.54390418136E+03  0.12500000000E+03 0.  0.
</event>
<event>
 5    0  0.5568866E-005  0.3650661E+03  0.7546771E-02  0.1056596E+00
         21   -1    0    0  502  501  0.00000000000E+00  0.00000000000E+00  0.94726628556E+03  0.94726628556E+03  0.00000000000E+00 0.  1.
         21   -1    0    0  501  502 -0.00000000000E+00 -0.00000000000E+00 -0.14069249670E+03  0.14069249670E+03  0.00000000000E+00 0.  1.
         25    1    1    2    0    0 -0.45528288137E+02 -0.16172919453E+03  0.13496171308E+03  0.24913615029E+03  0.12500000000E+03 0.  0.
         25    1    1    2    0    0  0.17263749461E+03 -0.38377120999E+01  0.14239645690E+03  0.25635948103E+03  0.12500000000E+03 0.  0.
         25    1    1    2    0    0 -0.12710920647E+03  0.16556690663E+03  0.52921561888E+03  0.58246315094E+03  0.12500000000E+03 0.  0.
</event>
<event>
 5    0  0.5568866E-005  0.3208899E+03  0.7546771E-02  0.1075240E+00
         21   -1    0    0  502  501  0.00000000000E+00  0.00000000000E+00  0.53758226522E+02  0.53758226522E+02  0.00000000000E+00 0.  1.
         21   -1    0    0  501  502 -0.00000000000E+00 -0.00000000000E+00 -0.19154343337E+04  0.19154343337E+04  0.00000000000E+00 0.  1.
         25    1    1    2    0    0 -0.51017768578E+02  0.70749482834E+02 -0.35092913261E+03  0.38260234989E+03  0.12500000000E+03 0.  0.
         25    1    1    2    0    0  0.16251065826E+03  0.18360814875E+02 -0.12340144866E+04  0.12510649811E+04  0.12500000000E+03 0.  0.
         25    1    1    2    0    0 -0.11149288968E+03 -0.89110297709E+02 -0.27673248793E+03  0.33552522928E+03  0.12500000000E+03 0.  0.
</event>
<event>
 5    0  0.5568866E-005  0.2475624E+03  0.7546771E-02  0.1114855E+00
         21   -1    0    0  502  501  0.00000000000E+00  0.00000000000E+00  0.79461083015E+03  0.79461083015E+03  0.00000000000E+00 0. -1.
         21   -1    0    0  501  502 -0.00000000000E+00 -0.00000000000E+00 -0.77128524300E+02  0.77128524300E+02  0.00000000000E+00 0. -1.
         25    1    1    2    0    0  0.46398408991E+02  0.85850816473E+02  0.11465978504E+03  0.19569118874E+03  0.12500000000E+03 0.  0.
         25    1    1    2    0    0 -0.72502045944E+02 -0.75634064699E+02  0.43741755610E+03  0.46683634905E+03  0.12500000000E+03 0.  0.
         25    1    1    2    0    0  0.26103636953E+02 -0.10216751774E+02  0.16540496471E+03  0.20921181666E+03  0.12500000000E+03 0.  0.
</event>
<event>
 5    0  0.5568866E-005  0.5596422E+03  0.7546771E-02  0.9992864E-01
         21   -1    0    0  502  501  0.00000000000E+00  0.00000000000E+00  0.40645472508E+03  0.40645472508E+03  0.00000000000E+00 0.  1.
         21   -1    0    0  501  502 -0.00000000000E+00 -0.00000000000E+00 -0.77056414767E+03  0.77056414767E+03  0.00000000000E+00 0.  1.
         25    1    1    2    0    0 -0.36702447991E+02 -0.96177075973E+02 -0.28209439854E+03  0.32526811913E+03  0.12500000000E+03 0.  0.
         25    1    1    2    0    0 -0.70948465208E+02  0.27170871630E+03  0.28074594329E+03  0.41629628380E+03  0.12500000000E+03 0.  0.
         25    1    1    2    0    0  0.10765091320E+03 -0.17553164033E+03 -0.36276096734E+03  0.43545446983E+03  0.12500000000E+03 0.  0.
</event>
<event>
 5    0  0.5568866E-005  0.2788300E+03  0.7546771E-02  0.1096330E+00
         21   -1    0    0  502  501  0.00000000000E+00  0.00000000000E+00  0.28196549738E+03  0.28196549738E+03  0.00000000000E+00 0.  1.
         21   -1    0    0  501  502 -0.00000000000E+00 -0.00000000000E+00 -0.27572938788E+03  0.27572938788E+03  0.00000000000E+00 0.  1.
         25    1    1    2    0    0  0.13055445489E+02  0.80715896116E+02 -0.15944880023E+03  0.21848208265E+03  0.12500000000E+03 0.  0.
         25    1    1    2    0    0 -0.52978782180E+02  0.75102285120E+01  0.57536552594E+02  0.14764352264E+03  0.12500000000E+03 0.  0.
         25    1    1    2    0    0  0.39923336691E+02 -0.88226124628E+02  0.10814835713E+03  0.19156927997E+03  0.12500000000E+03 0.  0.
</event>
<event>
 5    0  0.5568866E-005  0.2211582E+03  0.7546771E-02  0.1133023E+00
         21   -1    0    0  502  501  0.00000000000E+00  0.00000000000E+00  0.18077003730E+03  0.18077003730E+03  0.00000000000E+00 0.  1.
         21   -1    0    0  501  502 -0.00000000000E+00 -0.00000000000E+00 -0.27056996296E+03  0.27056996296E+03  0.00000000000E+00 0.  1.
         25    1    1    2    0    0 -0.47355247209E+02  0.21202014056E+02 -0.31004465032E+02  0.13884639603E+03  0.12500000000E+03 0.  0.
         25    1    1    2    0    0  0.11638527155E+02 -0.94857936242E+02 -0.34971662139E+02  0.16118778035E+03  0.12500000000E+03 0.  0.
         25    1    1    2    0    0  0.35716720054E+02  0.73655922186E+02 -0.23823798490E+02  0.15130582388E+03  0.12500000000E+03 0.  0.
</event>
<event>
 5    0  0.5568866E-005  0.3196927E+03  0.7546771E-02  0.1075791E+00
         21   -1    0    0  502  501  0.00000000000E+00  0.00000000000E+00  0.93109863494E+03  0.93109863494E+03  0.00000000000E+00 0.  1.
         21   -1    0    0  501  502 -0.00000000000E+00 -0.00000000000E+00 -0.10976648242E+03  0.10976648242E+03  0.00000000000E+00 0.  1.
         25    1    1    2    0    0 -0.33265291723E+02 -0.17294256096E+03  0.13234772899E+03  0.25329159164E+03  0.12500000000E+03 0.  0.
         25    1    1    2    0    0  0.64821495504E+02  0.51547001181E+01  0.43359832131E+03  0.45591764766E+03  0.12500000000E+03 0.  0.
         25    1    1    2    0    0 -0.31556203781E+02  0.16778786084E+03  0.25538610223E+03  0.33165587806E+03  0.12500000000E+03 0.  0.
</event>
<event>
 5    0  0.5568866E-005  0.2677144E+03  0.7546771E-02  0.1102595E+00
         21   -1    0    0  502  501  0.00000000000E+00  0.00000000000E+00  0.30905956266E+03  0.30905956266E+03  0.00000000000E+00 0.  1.
         21   -1    0    0  501  502 -0.00000000000E+00 -0.00000000000E+00 -0.23190035445E+03  0.23190035445E+03  0.00000000000E+00 0.  1.
         25    1    1    2    0    0  0.10115743476E+03 -0.11810432376E+03  0.19002196521E+01  0.19952460684E+03  0.12500000000E+03 0.  0.
         25    1    1    2    0    0 -0.14591630692E+01 -0.25146857325E+01 -0.62752552354E+01  0.12519118032E+03  0.12500000000E+03 0.  0.
         25    1    1    2    0    0 -0.99698271694E+02  0.12061900949E+03  0.81534243794E+02  0.21624412996E+03  0.12500000000E+03 0.  0.
</event>
<event>
 5    0  0.5568866E-005  0.2144630E+03  0.7546771E-02  0.1138080E+00
         21   -1    0    0  502  501  0.00000000000E+00  0.00000000000E+00  0.16400643871E+03  0.16400643871E+03  0.00000000000E+00 0.  1.
         21   -1    0    0  501  502 -0.00000000000E+00 -0.00000000000E+00 -0.28044254397E+03  0.28044254397E+03  0.00000000000E+00 0.  1.
         25    1    1    2    0    0 -0.17024483927E+02 -0.58233777123E+01  0.32358631347E+02  0.13036803981E+03  0.12500000000E+03 0.  0.
         25    1    1    2    0    0 -0.46677984780E+02  0.17704060686E+02 -0.58127365793E+02  0.14661534259E+03  0.12500000000E+03 0.  0.
         25    1    1    2    0    0  0.63702468708E+02 -0.11880682974E+02 -0.90667370817E+02  0.16746560028E+03  0.12500000000E+03 0.  0.
</event>
<event>
 5    0  0.5568866E-005  0.3350342E+03  0.7546771E-02  0.1068931E+00
         21   -1    0    0  502  501  0.00000000000E+00  0.00000000000E+00  0.14181557670E+03  0.14181557670E+03  0.00000000000E+00 0. -1.
         21   -1    0    0  501  502 -0.00000000000E+00 -0.00000000000E+00 -0.79150629506E+03  0.79150629506E+03  0.00000000000E+00 0. -1.
         25    1    1    2    0    0  0.59025209466E+02  0.22648723085E+02 -0.65092053615E+02  0.15446331426E+03  0.12500000000E+03 0.  0.
         25    1    1    2    0    0 -0.21615457452E+02 -0.20052386773E+03 -0.12302280593E+03  0.26727637439E+03  0.12500000000E+03 0.  0.
         25    1    1    2    0    0 -0.37409752013E+02  0.17787514465E+03 -0.46157585881E+03  0.51158218310E+03  0.12500000000E+03 0.  0.
</event>
<event>
 5    0  0.5568866E-005  0.2458287E+03  0.7546771E-02  0.1115970E+00
         21   -1    0    0  502  501  0.00000000000E+00  0.00000000000E+00  0.22063839265E+03  0.22063839265E+03  0.00000000000E+00 0. -1.
         21   -1    0    0  501  502 -0.00000000000E+00 -0.00000000000E+00 -0.27389494942E+03  0.27389494942E+03  0.00000000000E+00 0. -1.
         25    1    1    2    0    0  0.17447056295E+02  0.53711708172E+02 -0.25797392377E+02  0.13957024332E+03  0.12500000000E+03 0.  0.
         25    1    1    2    0    0 -0.12397788887E+03 -0.62809799639E+02 -0.35553538565E+02  0.19027517432E+03  0.12500000000E+03 0.  0.
         25    1    1    2    0    0  0.10653083257E+03  0.90980914674E+01  0.80943741801E+01  0.16468792442E+03  0.12500000000E+03 0.  0.
</event>
<event>
 5    0  0.5568866E-005  0.3529757E+03  0.7546771E-02  0.1061400E+00
         21   -1    0    0  502  501  0.00000000000E+00  0.00000000000E+00  0.21685570631E+04  0.21685570631E+04  0.00000000000E+00 0. -1.
         21   -1    0    0  501  502 -0.00000000000E+00 -0.00000000000E+00 -0.57453812232E+02  0.57453812232E+02  0.00000000000E+00 0. -1.
         25    1    1    2    0    0 -0.86744010468E+00 -0.16538034841E+03  0.37713167170E+03  0.43035416797E+03  0.12500000000E+03 0.  0.
         25    1    1    2    0    0  0.76213961744E+02  0.19000589421E+03  0.14981585126E+04  0.15172391824E+04  0.12500000000E+03 0.  0.
         25    1    1    2    0    0 -0.75346521639E+02 -0.24625545807E+02  0.23581306658E+03  0.27841752495E+03  0.12500000000E+03 0.  0.
</event>
<event>
 5    0  0.5568866E-005  0.3468750E+03  0.7546771E-02  0.1063905E+00
         21   -1    0    0  502  501  0.00000000000E+00  0.00000000000E+00  0.64753151715E+02  0.64753151715E+02  0.00000000000E+00 0. -1.
         21   -1    0    0  501  502 -0.00000000000E+00 -0.00000000000E+00 -0.18581683610E+04  0.18581683610E+04  0.00000000000E+00 0. -1.
         25    1    1    2    0    0 -0.18666854996E+03 -0.19459194743E+03 -0.76739345011E+03  0.82293917200E+03  0.12500000000E+03 0.  0.
         25    1    1    2    0    0  0.13593155750E+02  0.76298907767E+02 -0.47679587330E+03  0.49896452981E+03  0.12500000000E+03 0.  0.
         25    1    1    2    0    0  0.17307539421E+03  0.11829303966E+03 -0.54922588589E+03  0.60101781092E+03  0.12500000000E+03 0.  0.
</event>
<event>
 5    0  0.5568866E-005  0.2840164E+03  0.7546771E-02  0.1093515E+00
         21   -1    0    0  502  501  0.00000000000E+00  0.00000000000E+00  0.10500384109E+04  0.10500384109E+04  0.00000000000E+00 0. -1.
         21   -1    0    0  501  502 -0.00000000000E+00 -0.00000000000E+00 -0.76821275238E+02  0.76821275238E+02  0.00000000000E+00 0. -1.
         25    1    1    2    0    0  0.68828042417E+02  0.73794446436E+02  0.40703142251E+03  0.43758713265E+03  0.12500000000E+03 0.  0.
         25    1    1    2    0    0 -0.15735826524E+03 -0.11875226561E+03  0.34098808969E+03  0.41323310799E+03  0.12500000000E+03 0.  0.
         25    1    1    2    0    0  0.88530222819E+02  0.44957819173E+02  0.22519762342E+03  0.27603944546E+03  0.12500000000E+03 0.  0.
</event>
<event>
 5    0  0.5568866E-005  0.1887554E+04  0.7546771E-02  0.8661077E-01
         21   -1    0    0  502  501  0.00000000000E+00  0.00000000000E+00  0.19206370610E+04  0.19206370610E+04  0.00000000000E+00 0.  1.
         21   -1    0    0  501  502 -0.00000000000E+00 -0.00000000000E+00 -0.18550404817E+04  0.18550404817E+04  0.00000000000E+00 0.  1.
         25    1    1    2    0    0 -0.13804226093E+04 -0.13006413448E+02 -0.61304357297E+03  0.15156461228E+04  0.12500000000E+03 0.  0.
         25    1    1    2    0    0  0.16293223270E+04 -0.23797349479E+03  0.21734281819E+03  0.16655886437E+04  0.12500000000E+03 0.  0.
         25    1    1    2    0    0 -0.24889971764E+03  0.25097990823E+03  0.46129733405E+03  0.59444277620E+03  0.12500000000E+03 0.  0.
</event>
<event>
 5    0  0.5568866E-005  0.2442985E+03  0.7546771E-02  0.1116962E+00
         21   -1    0    0  502  501  0.00000000000E+00  0.00000000000E+00  0.95065462582E+03  0.95065462582E+03  0.00000000000E+00 0. -1.
         21   -1    0    0  501  502 -0.00000000000E+00 -0.00000000000E+00 -0.62779657159E+02  0.62779657159E+02  0.00000000000E+00 0. -1.
         25    1    1    2    0    0 -0.20078022323E+02  0.28907279806E+02  0.34485069803E+03  0.36849119629E+03  0.12500000000E+03 0.  0.
         25    1    1    2    0    0  0.10561198245E+03  0.70176504286E+01  0.40511958439E+03  0.43697827853E+03  0.12500000000E+03 0.  0.
         25    1    1    2    0    0 -0.85533960124E+02 -0.35924930234E+02  0.13790468624E+03  0.20796480816E+03  0.12500000000E+03 0.  0.
</event>
<event>
 5    0  0.5568866E-005  0.3056210E+03  0.7546771E-02  0.1082464E+00
         21   -1    0    0  502  501  0.00000000000E+00  0.00000000000E+00  0.39077282060E+03  0.39077282060E+03  0.00000000000E+00 0.  1.
         21   -1    0    0  501  502 -0.00000000000E+00 -0.00000000000E+00 -0.23902429511E+03  0.23902429511E+03  0.00000000000E+00 0.  1.
         25    1    1    2    0    0 -0.14905192363E+03  0.24742803918E+02  0.46236607082E+02  0.20147333848E+03  0.12500000000E+03 0.  0.
         25    1    1    2    0    0  0.11607637354E+03  0.10219641794E+03 -0.31286643515E+02  0.20129999105E+03  0.12500000000E+03 0.  0.
         25    1    1    2    0    0  0.32975550085E+02 -0.12693922185E+03  0.13679856192E+03  0.22702378618E+03  0.12500000000E+03 0.  0.
</event>
<event>
 5    0  0.5698621E-005  0.3299191E+03  0.7546771E-02  0.1071173E+00
         21   -1    0    0  502  501  0.00000000000E+00  0.00000000000E+00  0.61457500505E+03  0.61457500505E+03  0.00000000000E+00 0. -1.
         21   -1    0    0  501  502 -0.00000000000E+00 -0.00000000000E+00 -0.17710875277E+03  0.17710875277E+03  0.00000000000E+00 0. -1.
         25    1    1    2    0    0  0.87445293128E+02 -0.12183672461E+03  0.45753788302E+02  0.20052250721E+03  0.12500000000E+03 0.  0.
         25    1    1    2    0    0  0.69987746583E+02  0.17391382680E+03  0.14177285718E+03  0.26621203364E+03  0.12500000000E+03 0.  0.
         25    1    1    2    0    0 -0.15743303971E+03 -0.52077102189E+02  0.24993960679E+03  0.32494921697E+03  0.12500000000E+03 0.  0.
</event>
<event>
 5    0  0.5568866E-005  0.3194290E+03  0.7546771E-02  0.1075912E+00
         21   -1    0    0  502  501  0.00000000000E+00  0.00000000000E+00  0.25298879556E+03  0.25298879556E+03  0.00000000000E+00 0. -1.
         21   -1    0    0  501  502 -0.00000000000E+00 -0.00000000000E+00 -0.40331791241E+03  0.40331791241E+03  0.00000000000E+00 0. -1.
         25    1    1    2    0    0 -0.71793584145E+02  0.26513629399E+01  0.15218199283E+02  0.14497566016E+03  0.12500000000E+03 0.  0.
         25    1    1    2    0    0  0.15949963953E+03 -0.69968577756E+02 -0.24579995868E+03  0.32615695082E+03  0.12500000000E+03 0.  0.
         25    1    1    2    0    0 -0.87706055384E+02  0.67317214816E+02  0.80252642539E+02  0.18517409699E+03  0.12500000000E+03 0.  0.
</event>
<event>
 5    0  0.5568866E-005  0.2406609E+03  0.7546771E-02  0.1119353E+00
         21   -1    0    0  502  501  0.00000000000E+00  0.00000000000E+00  0.66953909529E+02  0.66953909529E+02  0.00000000000E+00 0.  1.
         21   -1    0    0  501  502 -0.00000000000E+00 -0.00000000000E+00 -0.86503776604E+03  0.86503776604E+03  0.00000000000E+00 0.  1.
         25    1    1    2    0    0 -0.70997910325E+02 -0.73240317123E+02 -0.31369882259E+03  0.35275600437E+03  0.12500000000E+03 0.  0.
         25    1    1    2    0    0  0.94282450617E+02  0.59965345735E+02 -0.37579730745E+03  0.41150168830E+03  0.12500000000E+03 0.  0.
         25    1    1    2    0    0 -0.23284540292E+02  0.13274971388E+02 -0.10858772647E+03  0.16773398291E+03  0.12500000000E+03 0.  0.
</event>
<event>
 5    0  0.5568866E-005  0.5196064E+03  0.7546771E-02  0.1008784E+00
         21   -1    0    0  502  501  0.00000000000E+00  0.00000000000E+00  0.30210646330E+03  0.30210646330E+03  0.00000000000E+00 0.  1.
         21   -1    0    0  501  502 -0.00000000000E+00 -0.00000000000E+00 -0.89369435791E+03  0.89369435791E+03  0.00000000000E+00 0.  1.
         25    1    1    2    0    0  0.11064881780E+03  0.38450203465E+03 -0.41562335360E+03  0.59029886294E+03  0.12500000000E+03 0.  0.
         25    1    1    2    0    0 -0.58608071854E+02 -0.18181220700E+03 -0.26154352790E+03  0.34716077211E+03  0.12500000000E+03 0.  0.
         25    1    1    2    0    0 -0.52040745942E+02 -0.20268982765E+03  0.85578986892E+02  0.25834118616E+03  0.12500000000E+03 0.  0.
</event>
<event>
 5    0  0.5568866E-005  0.4109342E+03  0.7546771E-02  0.1040058E+00
         21   -1    0    0  502  501  0.00000000000E+00  0.00000000000E+00  0.68086889530E+03  0.68086889530E+03  0.00000000000E+00 0. -1.
         21   -1    0    0  501  502 -0.00000000000E+00 -0.00000000000E+00 -0.24801681981E+03  0.24801681981E+03  0.00000000000E+00 0. -1.
         25    1    1    2    0    0 -0.12717594545E+03 -0.18766166594E+03 -0.15062649552E+01  0.25887813890E+03  0.12500000000E+03 0.  0.
         25    1    1    2    0    0  0.15312056814E+03 -0.58163105074E+02  0.81890697652E+02  0.22172041300E+03  0.12500000000E+03 0.  0.
         25    1    1    2    0    0 -0.25944622694E+02  0.24582477102E+03  0.35246764279E+03  0.44828716322E+03  0.12500000000E+03 0.  0.
</event>
<event>
 5    0  0.5568866E-005  0.2649358E+03  0.7546771E-02  0.1104213E+00
         21   -1    0    0  502  501  0.00000000000E+00  0.00000000000E+00  0.45844787425E+02  0.45844787425E+02  0.00000000000E+00 0. -1.
         21   -1    0    0  501  502 -0.00000000000E+00 -0.00000000000E+00 -0.15310565724E+04  0.15310565724E+04  0.00000000000E+00 0. -1.
         25    1    1    2    0    0  0.12016808585E+03  0.49488582515E+02 -0.33072108685E+03  0.37668411958E+03  0.12500000000E+03 0.  0.
         25    1    1    2    0    0 -0.96713690883E+01  0.40839929677E+02 -0.59498977570E+03  0.60942535919E+03  0.12500000000E+03 0.  0.
         25    1    1    2    0    0 -0.11049671676E+03 -0.90328512192E+02 -0.55950092243E+03  0.59079188106E+03  0.12500000000E+03 0.  0.
</event>
<event>
 5    0  0.5568866E-005  0.4711044E+03  0.7546771E-02  0.1021609E+00
         21   -1    0    0  502  501  0.00000000000E+00  0.00000000000E+00  0.28134299939E+03  0.28134299939E+03  0.00000000000E+00 0. -1.
         21   -1    0    0  501  502 -0.00000000000E+00 -0.00000000000E+00 -0.78885692886E+03  0.78885692886E+03  0.00000000000E+00 0. -1.
         25    1    1    2    0    0 -0.16016264825E+03  0.20926690055E+03 -0.41983028988E+03  0.51120170370E+03  0.12500000000E+03 0.  0.
         25    1    1    2    0    0 -0.11402941121E-01 -0.28576742221E+03  0.27703229113E+02  0.31313813027E+03  0.12500000000E+03 0.  0.
         25    1    1    2    0    0  0.16017405119E+03  0.76500521657E+02 -0.11538686870E+03  0.24586009428E+03  0.12500000000E+03 0.  0.
</event>
<event>
 5    0  0.5568866E-005  0.3910527E+03  0.7546771E-02  0.1046923E+00
         21   -1    0    0  502  501  0.00000000000E+00  0.00000000000E+00  0.19621652971E+03  0.19621652971E+03  0.00000000000E+00 0. -1.
         21   -1    0    0  501  502 -0.00000000000E+00 -0.00000000000E+00 -0.77935433692E+03  0.77935433692E+03  0.00000000000E+00 0. -1.
         25    1    1    2    0    0 -0.20576650560E+03  0.79887386568E+02 -0.58608796746E+03  0.63862818209E+03  0.12500000000E+03 0.  0.
         25    1    1    2    0    0  0.10165083487E+03 -0.25864867399E+02 -0.18359411429E+02  0.16420703878E+03  0.12500000000E+03 0.  0.
         25    1    1    2    0    0  0.10411567073E+03 -0.54022519169E+02  0.21309571679E+02  0.17273564575E+03  0.12500000000E+03 0.  0.
</event>
<event>
 5    0  0.5568866E-005  0.2535440E+03  0.7546771E-02  0.1111085E+00
         21   -1    0    0  502  501  0.00000000000E+00  0.00000000000E+00  0.17105241296E+03  0.17105241296E+03  0.00000000000E+00 0.  1.
         21   -1    0    0  501  502 -0.00000000000E+00 -0.00000000000E+00 -0.37581779058E+03  0.37581779058E+03  0.00000000000E+00 0.  1.
         25    1    1    2    0    0  0.87127923926E+02 -0.48638027374E+02 -0.26822317656E+02  0.16217696988E+03  0.12500000000E+03 0.  0.
         25    1    1    2    0    0 -0.83844909053E+02 -0.49579879856E+02 -0.15913142717E+03  0.22457948342E+03  0.12500000000E+03 0.  0.
         25    1    1    2    0    0 -0.32830148728E+01  0.98217907230E+02 -0.18811632802E+02  0.16011375024E+03  0.12500000000E+03 0.  0.
</event>
<event>
 5    0  0.5568866E-005  0.3799988E+03  0.7546771E-02  0.1050934E+00
         21   -1    0    0  502  501  0.00000000000E+00  0.00000000000E+00  0.22285135872E+03  0.22285135872E+03  0.00000000000E+00 0. -1.
         21   -1    0    0  501  502 -0.00000000000E+00 -0.00000000000E+00 -0.64796159475E+03  0.64796159475E+03  0.00000000000E+00 0. -1.
         25    1    1    2    0    0  0.16147237504E+03  0.16731713316E+03  0.27248472995E+01  0.26400904481E+03  0.12500000000E+03 0.  0.
         25    1    1    2    0    0  0.38575387676E+02  0.14547068588E+01 -0.19521151594E+03  0.23499513328E+03  0.12500000000E+03 0.  0.
         25    1    1    2    0    0 -0.20004776272E+03 -0.16877184002E+03 -0.23262356738E+03  0.37180877538E+03  0.12500000000E+03 0.  0.
</event>
<event>
 5    0  0.5568866E-005  0.3427399E+03  0.7546771E-02  0.1065635E+00
         21   -1    0    0  502  501  0.00000000000E+00  0.00000000000E+00  0.12870746860E+03  0.12870746860E+03  0.00000000000E+00 0.  1.
         21   -1    0    0  501  502 -0.00000000000E+00 -0.00000000000E+00 -0.91269485640E+03  0.91269485640E+03  0.00000000000E+00 0.  1.
         25    1    1    2    0    0  0.10934682665E+02 -0.77100325690E+02  0.31527849038E+02  0.15060887348E+03  0.12500000000E+03 0.  0.
         25    1    1    2    0    0  0.25951780111E+02  0.15436914116E+03 -0.54632725663E+03  0.58189500597E+03  0.12500000000E+03 0.  0.
         25    1    1    2    0    0 -0.36886462775E+02 -0.77268815471E+02 -0.26918798020E+03  0.30889844555E+03  0.12500000000E+03 0.  0.
</event>
<event>
 5    0  0.5568866E-005  0.2938523E+03  0.7546771E-02  0.1088355E+00
         21   -1    0    0  502  501  0.00000000000E+00  0.00000000000E+00  0.14696589417E+04  0.14696589417E+04  0.00000000000E+00 0.  1.
         21   -1    0    0  501  502 -0.00000000000E+00 -0.00000000000E+00 -0.58754581134E+02  0.58754581134E+02  0.00000000000E+00 0.  1.
         25    1    1    2    0    0  0.88275558312E+02 -0.94102094761E+02  0.54147325258E+03  0.57049632925E+03  0.12500000000E+03 0.  0.
         25    1    1    2    0    0 -0.75126525186E+02 -0.68649295114E+01  0.11334350575E+03  0.18483201113E+03  0.12500000000E+03 0.  0.
         25    1    1    2    0    0 -0.13149033126E+02  0.10096702427E+03  0.75608760224E+03  0.77308518245E+03  0.12500000000E+03 0.  0.
</event>
<event>
 5    0  0.5568866E-005  0.2607258E+03  0.7546771E-02  0.1106708E+00
         21   -1    0    0  502  501  0.00000000000E+00  0.00000000000E+00  0.99762774228E+03  0.99762774228E+03  0.00000000000E+00 0.  1.
         21   -1    0    0  501  502 -0.00000000000E+00 -0.00000000000E+00 -0.68139562841E+02  0.68139562841E+02  0.00000000000E+00 0.  1.
         25    1    1    2    0    0  0.20455312433E+02  0.15808818315E+02  0.29128137370E+03  0.31802229042E+03  0.12500000000E+03 0.  0.
         25    1    1    2    0    0  0.71663108208E+02  0.82098530961E+01  0.74230251860E+02  0.16229027407E+03  0.12500000000E+03 0.  0.
         25    1    1    2    0    0 -0.92118420641E+02 -0.24018671411E+02  0.56397655388E+03  0.58545474063E+03  0.12500000000E+03 0.  0.
</event>
<event>
 5    0  0.5568866E-005  0.2540286E+03  0.7546771E-02  0.1110785E+00
         21   -1    0    0  502  501  0.00000000000E+00  0.00000000000E+00  0.25567235040E+03  0.25567235040E+03  0.00000000000E+00 0.  1.
         21   -1    0    0  501  502 -0.00000000000E+00 -0.00000000000E+00 -0.25239534225E+03  0.25239534225E+03  0.00000000000E+00 0.  1.
         25    1    1    2    0    0  0.85248255178E+02 -0.72610385640E+02 -0.36712021315E+02  0.17179145969E+03  0.12500000000E+03 0.  0.
         25    1    1    2    0    0 -0.92873713466E+02  0.82782477930E+01  0.97803949073E+02  0.18407788703E+03  0.12500000000E+03 0.  0.
         25    1    1    2    0    0  0.76254582885E+01  0.64332137847E+02 -0.57814919610E+02  0.15219834593E+03  0.12500000000E+03 0.  0.
</event>
<event>
 5    0  0.5568866E-005  0.3362702E+03  0.7546771E-02  0.1068396E+00
         21   -1    0    0  502  501  0.00000000000E+00  0.00000000000E+00  0.21755417437E+03  0.21755417437E+03  0.00000000000E+00 0.  1.
         21   -1    0    0  501  502 -0.00000000000E+00 -0.00000000000E+00 -0.51976782074E+03  0.51976782074E+03  0.00000000000E+00 0.  1.
         25    1    1    2    0    0  0.11107700726E+03 -0.10657178046E+03 -0.17780160510E+03  0.26633448277E+03  0.12500000000E+03 0.  0.
         25    1    1    2    0    0 -0.20614398575E+02  0.20813663670E+03 -0.14749313168E+03  0.28482457208E+03  0.12500000000E+03 0.  0.
         25    1    1    2    0    0 -0.90462608688E+02 -0.10156485624E+03  0.23081090417E+02  0.18616294026E+03  0.12500000000E+03 0.  0.
</event>
<event>
 5    0  0.5568866E-005  0.2498014E+03  0.7546771E-02  0.1113430E+00
         21   -1    0    0  502  501  0.00000000000E+00  0.00000000000E+00  0.27251526270E+03  0.27251526270E+03  0.00000000000E+00 0.  1.
         21   -1    0    0  501  502 -0.00000000000E+00 -0.00000000000E+00 -0.22898074106E+03  0.22898074106E+03  0.00000000000E+00 0.  1.
         25    1    1    2    0    0  0.57255084418E+02  0.19545161151E+02  0.44132627644E+02  0.14571495064E+03  0.12500000000E+03 0.  0.
         25    1    1    2    0    0 -0.22752260811E+02 -0.11831168864E+03  0.57267119126E+02  0.18281095146E+03  0.12500000000E+03 0.  0.
         25    1    1    2    0    0 -0.34502823607E+02  0.98766527492E+02 -0.57865225126E+02  0.17297010166E+03  0.12500000000E+03 0.  0.
</event>
<event>
 5    0  0.5568866E-005  0.4025424E+03  0.7546771E-02  0.1042903E+00
         21   -1    0    0  502  501  0.00000000000E+00  0.00000000000E+00  0.84854920017E+03  0.84854920017E+03  0.00000000000E+00 0. -1.
         21   -1    0    0  501  502 -0.00000000000E+00 -0.00000000000E+00 -0.19096164705E+03  0.19096164705E+03  0.00000000000E+00 0. -1.
         25    1    1    2    0    0 -0.14250180119E+03 -0.48990019292E+02  0.74565363437E+02  0.20950364855E+03  0.12500000000E+03 0.  0.
         25    1    1    2    0    0 -0.18393009662E+03 -0.37174132600E+02  0.17181511837E+03  0.28347421660E+03  0.12500000000E+03 0.  0.
         25    1    1    2    0    0  0.32643189781E+03  0.86164151892E+02  0.41120707131E+03  0.54653298206E+03  0.12500000000E+03 0.  0.
</event>
<event>
 5    0  0.5568866E-005  0.3945223E+03  0.7546771E-02  0.1045693E+00
         21   -1    0    0  502  501  0.00000000000E+00  0.00000000000E+00  0.16004805223E+04  0.16004805223E+04  0.00000000000E+00 0.  1.
         21   -1    0    0  501  502 -0.00000000000E+00 -0.00000000000E+00 -0.97250714497E+02  0.97250714497E+02  0.00000000000E+00 0. -1.
         25    1    1    2    0    0 -0.13431737318E+03  0.14720934396E+03  0.64981551676E+03  0.69108389759E+03  0.12500000000E+03 0.  0.
         25    1    1    2    0    0  0.45117838085E+02  0.10148456119E+03  0.91534941274E+02  0.19062628609E+03  0.12500000000E+03 0.  0.
         25    1    1    2    0    0  0.89199535096E+02 -0.24869390516E+03  0.76187934976E+03  0.81602105311E+03  0.12500000000E+03 0.  0.
</event>
<event>
 5    0  0.5568866E-005  0.2247302E+03  0.7546771E-02  0.1130405E+00
         21   -1    0    0  502  501  0.00000000000E+00  0.00000000000E+00  0.23334751779E+04  0.23334751779E+04  0.00000000000E+00 0. -1.
         21   -1    0    0  501  502 -0.00000000000E+00 -0.00000000000E+00 -0.21643105462E+02  0.21643105462E+02  0.00000000000E+00 0. -1.
         25    1    1    2    0    0  0.44242426687E+02  0.30090266181E+02  0.53708880553E+03  0.55403267184E+03  0.12500000000E+03 0.  0.
         25    1    1    2    0    0  0.27626819084E+02 -0.76228260417E+02  0.69581850605E+03  0.71159144330E+03  0.12500000000E+03 0.  0.
         25    1    1    2    0    0 -0.71869245771E+02  0.46137994236E+02  0.10789247609E+04  0.10894941682E+04  0.12500000000E+03 0.  0.
</event>
<event>
 5    0  0.5568866E-005  0.2689904E+03  0.7546771E-02  0.1101859E+00
         21   -1    0    0  502  501  0.00000000000E+00  0.00000000000E+00  0.77424022548E+02  0.77424022548E+02  0.00000000000E+00 0. -1.
         21   -1    0    0  501  502 -0.00000000000E+00 -0.00000000000E+00 -0.93454004696E+03  0.93454004696E+03  0.00000000000E+00 0. -1.
         25    1    1    2    0    0 -0.57275130008E+02 -0.50520711513E+02 -0.14001267560E+03  0.20263595964E+03  0.12500000000E+03 0.  0.
         25    1    1    2    0    0  0.14476616798E+03  0.47505443890E+02 -0.54380707410E+03  0.57841606516E+03  0.12500000000E+03 0.  0.
         25    1    1    2    0    0 -0.87491037975E+02  0.30152676230E+01 -0.17329627471E+03  0.23091204471E+03  0.12500000000E+03 0.  0.
</event>
<event>
 5    0  0.5568866E-005  0.2329855E+03  0.7546771E-02  0.1124556E+00
         21   -1    0    0  502  501  0.00000000000E+00  0.00000000000E+00  0.15827908949E+04  0.15827908949E+04  0.00000000000E+00 0.  1.
         21   -1    0    0  501  502 -0.00000000000E+00 -0.00000000000E+00 -0.34295260454E+02  0.34295260454E+02  0.00000000000E+00 0.  1.
         25    1    1    2    0    0 -0.66055978516E+02  0.10603526253E+03  0.47740820352E+03  0.50906822921E+03  0.12500000000E+03 0.  0.
         25    1    1    2    0    0  0.53652559261E+02 -0.70085076707E+02  0.58054947222E+03  0.60037755187E+03  0.12500000000E+03 0.  0.
         25    1    1    2    0    0  0.12403419255E+02 -0.35950185824E+02  0.49053795874E+03  0.50764037431E+03  0.12500000000E+03 0.  0.
</event>
<event>
 5    0  0.5568866E-005  0.3765943E+03  0.7546771E-02  0.1052200E+00
         21   -1    0    0  502  501  0.00000000000E+00  0.00000000000E+00  0.79669417817E+03  0.79669417817E+03  0.00000000000E+00 0.  1.
         21   -1    0    0  501  502 -0.00000000000E+00 -0.00000000000E+00 -0.17801469325E+03  0.17801469325E+03  0.00000000000E+00 0.  1.
         25    1    1    2    0    0 -0.22935674140E+03  0.73281627595E+02  0.47102364368E+03  0.54356506940E+03  0.12500000000E+03 0.  0.
         25    1    1    2    0    0  0.16712393367E+03 -0.13824800789E+03  0.78810524081E+02  0.26244812744E+03  0.12500000000E+03 0.  0.
         25    1    1    2    0    0  0.62232807734E+02  0.64966380295E+02  0.68845317157E+02  0.16869567458E+03  0.12500000000E+03 0.  0.
</event>
<event>
 5    0  0.5568866E-005  0.5289131E+03  0.7546771E-02  0.1006496E+00
         21   -1    0    0  502  501  0.00000000000E+00  0.00000000000E+00  0.26741986758E+03  0.26741986758E+03  0.00000000000E+00 0.  1.
         21   -1    0    0  501  502 -0.00000000000E+00 -0.00000000000E+00 -0.10461043382E+04  0.10461043382E+04  0.00000000000E+00 0.  1.
         25    1    1    2    0    0 -0.37048383847E+03  0.26302135587E+01 -0.99157238960E+01  0.39113746199E+03  0.12500000000E+03 0.  0.
         25    1    1    2    0    0  0.19606912487E+03  0.11614426475E+03 -0.33409112989E+03  0.42329006016E+03  0.12500000000E+03 0.  0.
         25    1    1    2    0    0  0.17441471361E+03 -0.11877447831E+03 -0.43467761679E+03  0.49909668358E+03  0.12500000000E+03 0.  0.
</event>
<event>
 5    0  0.5568866E-005  0.3567566E+03  0.7546771E-02  0.1059876E+00
         21   -1    0    0  502  501  0.00000000000E+00  0.00000000000E+00  0.92406958408E+02  0.92406958408E+02  0.00000000000E+00 0. -1.
         21   -1    0    0  501  502 -0.00000000000E+00 -0.00000000000E+00 -0.13773343209E+04  0.13773343209E+04  0.00000000000E+00 0. -1.
         25    1    1    2    0    0  0.76864886414E+01 -0.13155152733E+03 -0.24904955721E+03  0.30824595439E+03  0.12500000000E+03 0.  0.
         25    1    1    2    0    0 -0.62070413011E+02  0.12041890025E+03 -0.10043646765E+04  0.10211399762E+04  0.12500000000E+03 0.  0.
         25    1    1    2    0    0  0.54383924370E+02  0.11132627081E+02 -0.31513128798E+02  0.14035534868E+03  0.12500000000E+03 0.  0.
</event>
<event>
 5    0  0.5568866E-005  0.1957311E+03  0.7546771E-02  0.1153391E+00
         21   -1    0    0  502  501  0.00000000000E+00  0.00000000000E+00  0.86848310481E+03  0.86848310481E+03  0.00000000000E+00 0. -1.
         21   -1    0    0  501  502 -0.00000000000E+00 -0.00000000000E+00 -0.44112179371E+02  0.44112179371E+02  0.00000000000E+00 0. -1.
         25    1    1    2    0    0 -0.17497213072E+02 -0.33381575982E+02  0.30320849275E+03  0.33012251083E+03  0.12500000000E+03 0.  0.
         25    1    1    2    0    0  0.35418652701E+02  0.17144176168E+01  0.25895283837E+03  0.28972226819E+03  0.12500000000E+03 0.  0.
         25    1    1    2    0    0 -0.17921439629E+02  0.31667158365E+02  0.26220959431E+03  0.29275050515E+03  0.12500000000E+03 0.  0.
</event>
<event>
 5    0  0.5568866E-005  0.4334754E+03  0.7546771E-02  0.1032768E+00
         21   -1    0    0  502  501  0.00000000000E+00  0.00000000000E+00  0.95728063628E+03  0.95728063628E+03  0.00000000000E+00 0.  1.
         21   -1    0    0  501  502 -0.00000000000E+00 -0.00000000000E+00 -0.19628617127E+03  0.19628617127E+03  0.00000000000E+00 0.  1.
         25    1    1    2    0    0 -0.51658754751E+02 -0.22477509875E+03  0.23857546303E+03  0.35459233427E+03  0.12500000000E+03 0.  0.
         25    1    1    2    0    0  0.86122077201E+02  0.37588813712E+03  0.34757891503E+03  0.53398970587E+03  0.12500000000E+03 0.  0.
         25    1    1    2    0    0 -0.34463322450E+02 -0.15111303836E+03  0.17484008695E+03  0.26498476741E+03  0.12500000000E+03 0.  0.
</event>
<event>
 5    0  0.5568866E-005  0.6143512E+03  0.7546771E-02  0.9876071E-01
         21   -1    0    0  502  501  0.00000000000E+00  0.00000000000E+00  0.75079512361E+03  0.75079512361E+03  0.00000000000E+00 0. -1.
         21   -1    0    0  501  502 -0.00000000000E+00 -0.00000000000E+00 -0.50270365835E+03  0.50270365835E+03  0.00000000000E+00 0. -1.
         25    1    1    2    0    0  0.88838955470E+02 -0.11794311158E+03  0.59633442700E+03  0.62693116561E+03  0.12500000000E+03 0.  0.
         25    1    1    2    0    0 -0.25856691257E+02 -0.12353160247E+03  0.33418847144E+01  0.17766483469E+03  0.12500000000E+03 0.  0.
         25    1    1    2    0    0 -0.62982264212E+02  0.24147471405E+03 -0.35158484646E+03  0.44890278167E+03  0.12500000000E+03 0.  0.
</event>
<event>
 5    0  0.5568866E-005  0.2910979E+03  0.7546771E-02  0.1089777E+00
         21   -1    0    0  502  501  0.00000000000E+00  0.00000000000E+00  0.16859957706E+04  0.16859957706E+04  0.00000000000E+00 0.  1.
         21   -1    0    0  501  502 -0.00000000000E+00 -0.00000000000E+00 -0.50259908147E+02  0.50259908147E+02  0.00000000000E+00 0.  1.
         25    1    1    2    0    0  0.11449687109E+03 -0.81132928971E+02  0.63778193516E+03  0.66489313613E+03  0.12500000000E+03 0.  0.
         25    1    1    2    0    0  0.24267063310E+02  0.72065451317E+02  0.17827999868E+03  0.23063190925E+03  0.12500000000E+03 0.  0.
         25    1    1    2    0    0 -0.13876393440E+03  0.90674776537E+01  0.81967392865E+03  0.84073063341E+03  0.12500000000E+03 0.  0.
</event>
<event>
 5    0  0.5568866E-005  0.3537519E+03  0.7546771E-02  0.1061086E+00
         21   -1    0    0  502  501  0.00000000000E+00  0.00000000000E+00  0.13744569030E+03  0.13744569030E+03  0.00000000000E+00 0. -1.
         21   -1    0    0  501  502 -0.00000000000E+00 -0.00000000000E+00 -0.91047141675E+03  0.91047141675E+03  0.00000000000E+00 0. -1.
         25    1    1    2    0    0  0.75044737016E+02  0.10957197991E+03 -0.29319701253E+03  0.34529294735E+03  0.12500000000E+03 0.  0.
         25    1    1    2    0    0 -0.89517506798E+02  0.14947929020E+03 -0.27732576045E+03  0.35055958072E+03  0.12500000000E+03 0.  0.
         25    1    1    2    0    0  0.14472769782E+02 -0.25905127011E+03 -0.20250295347E+03  0.35206457898E+03  0.12500000000E+03 0.  0.
</event>
<event>
 5    0  0.5568866E-005  0.3006473E+03  0.7546771E-02  0.1084918E+00
         21   -1    0    0  502  501  0.00000000000E+00  0.00000000000E+00  0.54122638850E+03  0.54122638850E+03  0.00000000000E+00 0. -1.
         21   -1    0    0  501  502 -0.00000000000E+00 -0.00000000000E+00 -0.16700732420E+03  0.16700732420E+03  0.00000000000E+00 0. -1.
         25    1    1    2    0    0 -0.78400339892E+02  0.55076655212E+02  0.50956700708E+02  0.16553439700E+03  0.12500000000E+03 0.  0.
         25    1    1    2    0    0  0.75884681963E+02 -0.21582516699E+02 -0.43242574722E+02  0.15401042254E+03  0.12500000000E+03 0.  0.
         25    1    1    2    0    0  0.25156579291E+01 -0.33494138513E+02  0.36650493832E+03  0.38868889315E+03  0.12500000000E+03 0.  0.
</event>
<event>
 5    0  0.5568866E-005  0.4341223E+03  0.7546771E-02  0.1032566E+00
         21   -1    0    0  502  501  0.00000000000E+00  0.00000000000E+00  0.13029655282E+04  0.13029655282E+04  0.00000000000E+00 0. -1.
         21   -1    0    0  501  502 -0.00000000000E+00 -0.00000000000E+00 -0.14464097572E+03  0.14464097572E+03  0.00000000000E+00 0. -1.
         25    1    1    2    0    0 -0.10642691809E+03 -0.32471176174E+03  0.59416396432E+03  0.69672105867E+03  0.12500000000E+03 0.  0.
         25    1    1    2    0    0  0.56032564763E+02  0.24299382669E+03  0.51515371976E+03  0.58582762235E+03  0.12500000000E+03 0.  0.
         25    1    1    2    0    0  0.50394353324E+02  0.81717935044E+02  0.49006868434E+02  0.16505782292E+03  0.12500000000E+03 0.  0.
</event>
<event>
 5    0  0.5568866E-005  0.3471367E+03  0.7546771E-02  0.1063796E+00
         21   -1    0    0  502  501  0.00000000000E+00  0.00000000000E+00  0.26181507475E+03  0.26181507475E+03  0.00000000000E+00 0. -1.
         21   -1    0    0  501  502 -0.00000000000E+00 -0.00000000000E+00 -0.46026332375E+03  0.46026332375E+03  0.00000000000E+00 0. -1.
         25    1    1    2    0    0 -0.13150258223E+03  0.16528930017E+03 -0.15389195940E+03  0.28969158955E+03  0.12500000000E+03 0.  0.
         25    1    1    2    0    0  0.77082887786E+02  0.17175570050E+02 -0.12212265194E+03  0.19176995050E+03  0.12500000000E+03 0.  0.
         25    1    1    2    0    0  0.54419694447E+02 -0.18246487022E+03  0.77566362335E+02  0.24061685846E+03  0.12500000000E+03 0.  0.
</event>
<event>
 5    0  0.5568866E-005  0.2107355E+03  0.7546771E-02  0.1140985E+00
         21   -1    0    0  502  501  0.00000000000E+00  0.00000000000E+00  0.13107145829E+03  0.13107145829E+03  0.00000000000E+00 0. -1.
         21   -1    0    0  501  502 -0.00000000000E+00 -0.00000000000E+00 -0.33881851802E+03  0.33881851802E+03  0.00000000000E+00 0. -1.
         25    1    1    2    0    0 -0.55933552837E+02  0.97937774683E+01 -0.10214737176E+03  0.17112441663E+03  0.12500000000E+03 0.  0.
         25    1    1    2    0    0 -0.24773291432E+02  0.40581849475E+01 -0.68769183021E+02  0.14485988184E+03  0.12500000000E+03 0.  0.
         25    1    1    2    0    0  0.80706844269E+02 -0.13851962416E+02 -0.36830504941E+02  0.15390567783E+03  0.12500000000E+03 0.  0.
</event>
<event>
 5    0  0.5568866E-005  0.2454912E+03  0.7546771E-02  0.1116188E+00
         21   -1    0    0  502  501  0.00000000000E+00  0.00000000000E+00  0.14646405909E+04  0.14646405909E+04  0.00000000000E+00 0. -1.
         21   -1    0    0  501  502 -0.00000000000E+00 -0.00000000000E+00 -0.41147238725E+02  0.41147238725E+02  0.00000000000E+00 0. -1.
         25    1    1    2    0    0  0.60061871665E+02  0.14307514670E+02  0.74108051109E+03  0.75408053769E+03  0.12500000000E+03 0.  0.
         25    1    1    2    0    0 -0.38498645444E+02  0.41404000441E+02  0.52210692129E+03  0.53983059770E+03  0.12500000000E+03 0.  0.
         25    1    1    2    0    0 -0.21563226221E+02 -0.55711515111E+02  0.16030591982E+03  0.21187669426E+03  0.12500000000E+03 0.  0.
</event>
<event>
 5    0  0.5681419E-005  0.3008920E+03  0.7546771E-02  0.1084796E+00
         21   -1    0    0  502  501  0.00000000000E+00  0.00000000000E+00  0.36874370964E+03  0.36874370964E+03  0.00000000000E+00 0. -1.
         21   -1    0    0  501  502 -0.00000000000E+00 -0.00000000000E+00 -0.24552549172E+03  0.24552549172E+03  0.00000000000E+00 0. -1.
         25    1    1    2    0    0  0.11838213249E+03  0.22573434060E+02  0.68014814736E+02  0.18648030524E+03  0.12500000000E+03 0.  0.
         25    1    1    2    0    0  0.95630433775E+01  0.12126502363E+03  0.88950511059E+02  0.19579032451E+03  0.12500000000E+03 0.  0.
         25    1    1    2    0    0 -0.12794517587E+03 -0.14383845769E+03 -0.33747107872E+02  0.23199857161E+03  0.12500000000E+03 0.  0.
</event>
<event>
 5    0  0.5568866E-005  0.2594769E+03  0.7546771E-02  0.1107458E+00
         21   -1    0    0  502  501  0.00000000000E+00  0.00000000000E+00  0.19447975438E+03  0.19447975438E+03  0.00000000000E+00 0. -1.
         21   -1    0    0  501  502 -0.00000000000E+00 -0.00000000000E+00 -0.34619678349E+03  0.34619678349E+03  0.00000000000E+00 0. -1.
         25    1    1    2    0    0  0.23156501083E+02 -0.11383315782E+03 -0.32123395486E+02  0.17364078985E+03  0.12500000000E+03 0.  0.
         25    1    1    2    0    0  0.54472140850E+02  0.19817324399E+02  0.25354617760E+02  0.14009924024E+03  0.12500000000E+03 0.  0.
         25    1    1    2    0    0 -0.77628641933E+02  0.94015833421E+02 -0.14494825139E+03  0.22693650778E+03  0.12500000000E+03 0.  0.
</event>
<event>
 5    0  0.5568866E-005  0.4337546E+03  0.7546771E-02  0.1032680E+00
         21   -1    0    0  502  501  0.00000000000E+00  0.00000000000E+00  0.91639161550E+02  0.91639161550E+02  0.00000000000E+00 0.  1.
         21   -1    0    0  501  502 -0.00000000000E+00 -0.00000000000E+00 -0.20530855712E+04  0.20530855712E+04  0.00000000000E+00 0.  1.
         25    1    1    2    0    0  0.83594253000E+02  0.45242289484E+02 -0.17543420139E+03  0.23545068042E+03  0.12500000000E+03 0.  0.
         25    1    1    2    0    0 -0.23153116888E+03  0.21179343736E+03 -0.11156352663E+04  0.11656458251E+04  0.12500000000E+03 0.  0.
         25    1    1    2    0    0  0.14793691588E+03 -0.25703572684E+03 -0.67037694198E+03  0.74362822721E+03  0.12500000000E+03 0.  0.
</event>
<event>
 5    0  0.6024639E-005  0.2858495E+03  0.7546771E-02  0.1092536E+00
         21   -1    0    0  502  501  0.00000000000E+00  0.00000000000E+00  0.60012764938E+03  0.60012764938E+03  0.00000000000E+00 0.  1.
         21   -1    0    0  501  502 -0.00000000000E+00 -0.00000000000E+00 -0.13615425389E+03  0.13615425389E+03  0.00000000000E+00 0.  1.
         25    1    1    2    0    0 -0.47133643921E+02 -0.46142284535E+02  0.26940253570E+02  0.14388004752E+03  0.12500000000E+03 0.  0.
         25    1    1    2    0    0 -0.49277008300E+02 -0.58841426861E+02  0.35822306720E+03  0.38709082001E+03  0.12500000000E+03 0.  0.
         25    1    1    2    0    0  0.96410652222E+02  0.10498371140E+03  0.78810074714E+02  0.20531103574E+03  0.12500000000E+03 0.  0.
</event>
<event>
 5    0  0.5568866E-005  0.2316775E+03  0.7546771E-02  0.1125465E+00
         21   -1    0    0  502  501  0.00000000000E+00  0.00000000000E+00  0.59837972421E+03  0.59837972421E+03  0.00000000000E+00 0.  1.
         21   -1    0    0  501  502 -0.00000000000E+00 -0.00000000000E+00 -0.89699645756E+02  0.89699645756E+02  0.00000000000E+00 0.  1.
         25    1    1    2    0    0 -0.40960880721E+02 -0.57761505114E+02  0.19110663725E+03  0.23908352520E+03  0.12500000000E+03 0.  0.
         25    1    1    2    0    0 -0.13032107557E+02  0.40935969936E+02  0.27537665903E+03  0.30545522388E+03  0.12500000000E+03 0.  0.
         25    1    1    2    0    0  0.53992988278E+02  0.16825535178E+02  0.42196782186E+02  0.14354062088E+03  0.12500000000E+03 0.  0.
</event>
<event>
 5    0  0.6244080E-005  0.3358667E+03  0.7546771E-02  0.1068570E+00
         21   -1    0    0  502  501  0.00000000000E+00  0.00000000000E+00  0.21702939168E+03  0.21702939168E+03  0.00000000000E+00 0.  1.
         21   -1    0    0  501  502 -0.00000000000E+00 -0.00000000000E+00 -0.51977505918E+03  0.51977505918E+03  0.00000000000E+00 0.  1.
         25    1    1    2    0    0 -0.67422447602E+02  0.78274512609E+02  0.42889534582E+02  0.16774146161E+03  0.12500000000E+03 0.  0.
         25    1    1    2    0    0  0.11068298915E+03  0.12541917764E+03 -0.14820257357E+03  0.25606580603E+03  0.12500000000E+03 0.  0.
         25    1    1    2    0    0 -0.43260541545E+02 -0.20369369025E+03 -0.19743262852E+03  0.31299718322E+03  0.12500000000E+03 0.  0.
</event>
<event>
 5    0  0.5568866E-005  0.3582961E+03  0.7546771E-02  0.1059261E+00
         21   -1    0    0  502  501  0.00000000000E+00  0.00000000000E+00  0.73755603089E+03  0.73755603089E+03  0.00000000000E+00 0. -1.
         21   -1    0    0  501  502 -0.00000000000E+00 -0.00000000000E+00 -0.17405606280E+03  0.17405606280E+03  0.00000000000E+00 0. -1.
         25    1    1    2    0    0  0.47537392805E+02 -0.41185649292E+02  0.60915400186E+03  0.62501972721E+03  0.12500000000E+03 0.  0.
         25    1    1    2    0    0  0.75764327519E+01  0.68886905461E+02 -0.13664489607E+02  0.14357759698E+03  0.12500000000E+03 0.  0.
         25    1    1    2    0    0 -0.55113825557E+02 -0.27701256169E+02 -0.31989544155E+02  0.14301476950E+03  0.12500000000E+03 0.  0.
</event>
<event>
 5    0  0.5568866E-005  0.3400968E+03  0.7546771E-02  0.1066755E+00
         21   -1    0    0  502  501  0.00000000000E+00  0.00000000000E+00  0.31977007219E+03  0.31977007219E+03  0.00000000000E+00 0. -1.
         21   -1    0    0  501  502 -0.00000000000E+00 -0.00000000000E+00 -0.36171571493E+03  0.36171571493E+03  0.00000000000E+00 0. -1.
         25    1    1    2    0    0  0.13890190001E+03  0.12047053773E+03  0.13573601342E+03  0.26049213736E+03  0.12500000000E+03 0.  0.
         25    1    1    2    0    0 -0.14343343690E+03  0.93568792412E+01 -0.41235364110E+02  0.19490012125E+03  0.12500000000E+03 0.  0.
         25    1    1    2    0    0  0.45315368918E+01 -0.12982741697E+03 -0.13644629204E+03  0.22609352851E+03  0.12500000000E+03 0.  0.
</event>
<event>
 5    0  0.5568866E-005  0.4582876E+03  0.7546771E-02  0.1025279E+00
         21   -1    0    0  502  501  0.00000000000E+00  0.00000000000E+00  0.57370156391E+03  0.57370156391E+03  0.00000000000E+00 0.  1.
         21   -1    0    0  501  502 -0.00000000000E+00 -0.00000000000E+00 -0.36609197401E+03  0.36609197401E+03  0.00000000000E+00 0.  1.
         25    1    1    2    0    0 -0.22901793730E+03  0.19872864100E+03  0.50713642034E+02  0.33187220711E+03  0.12500000000E+03 0.  0.
         25    1    1    2    0    0 -0.59644205238E+02 -0.29420173013E+02  0.20323507296E+03  0.24769431297E+03  0.12500000000E+03 0.  0.
         25    1    1    2    0    0  0.28866214254E+03 -0.16930846799E+03 -0.46339125084E+02  0.36022701784E+03  0.12500000000E+03 0.  0.
</event>
<event>
 5    0  0.5568866E-005  0.2983459E+03  0.7546771E-02  0.1086070E+00
         21   -1    0    0  502  501  0.00000000000E+00  0.00000000000E+00  0.21253558790E+03  0.21253558790E+03  0.00000000000E+00 0. -1.
         21   -1    0    0  501  502 -0.00000000000E+00 -0.00000000000E+00 -0.41880161272E+03  0.41880161272E+03  0.00000000000E+00 0. -1.
         25    1    1    2    0    0  0.15004112650E+03 -0.11758619098E+03 -0.11244141262E+03  0.25417891971E+03  0.12500000000E+03 0.  0.
         25    1    1    2    0    0 -0.15146040983E+03  0.26881468057E+02 -0.10116396051E+03  0.22253542634E+03  0.12500000000E+03 0.  0.
         25    1    1    2    0    0  0.14192833246E+01  0.90704722925E+02  0.73393483059E+01  0.15462285458E+03  0.12500000000E+03 0.  0.
</event>
<event>
 5    0  0.5568866E-005  0.2126667E+03  0.7546771E-02  0.1139471E+00
         21   -1    0    0  502  501  0.00000000000E+00  0.00000000000E+00  0.19969438002E+03  0.19969438002E+03  0.00000000000E+00 0.  1.
         21   -1    0    0  501  502 -0.00000000000E+00 -0.00000000000E+00 -0.22648176180E+03  0.22648176180E+03  0.00000000000E+00 0.  1.
         25    1    1    2    0    0  0.31264616939E+02  0.23714067899E+02  0.23341194059E+02  0.13307758875E+03  0.12500000000E+03 0.  0.
         25    1    1    2    0    0  0.10165715565E+02  0.26816113393E+02  0.28837106779E+02  0.13144970307E+03  0.12500000000E+03 0.  0.
         25    1    1    2    0    0 -0.41430332504E+02 -0.50530181292E+02 -0.78965682618E+02  0.16164884999E+03  0.12500000000E+03 0.  0.
</event>
<event>
 5    0  0.5568866E-005  0.4934981E+03  0.7546771E-02  0.1015490E+00
         21   -1    0    0  502  501  0.00000000000E+00  0.00000000000E+00  0.34603501319E+03  0.34603501319E+03  0.00000000000E+00 0.  1.
         21   -1    0    0  501  502 -0.00000000000E+00 -0.00000000000E+00 -0.70380282151E+03  0.70380282151E+03  0.00000000000E+00 0.  1.
         25    1    1    2    0    0  0.84025104500E+02  0.96369915862E+02 -0.17921957163E+03  0.25316404508E+03  0.12500000000E+03 0.  0.
         25    1    1    2    0    0  0.14758689160E+03 -0.11451220607E+03  0.22273719417E+03  0.31643608134E+03  0.12500000000E+03 0.  0.
         25    1    1    2    0    0 -0.23161199610E+03  0.18142290208E+02 -0.40128543085E+03  0.48023770827E+03  0.12500000000E+03 0.  0.
</event>
<event>
 5    0  0.5568866E-005  0.2972875E+03  0.7546771E-02  0.1086604E+00
         21   -1    0    0  502  501  0.00000000000E+00  0.00000000000E+00  0.74986204939E+03  0.74986204939E+03  0.00000000000E+00 0. -1.
         21   -1    0    0  501  502 -0.00000000000E+00 -0.00000000000E+00 -0.11786149431E+03  0.11786149431E+03  0.00000000000E+00 0. -1.
         25    1    1    2    0    0  0.93008762144E+02 -0.10742366122E+03  0.40679949688E+02  0.19357254747E+03  0.12500000000E+03 0.  0.
         25    1    1    2    0    0 -0.81365682023E+02  0.85906182044E+02  0.46027238973E+03  0.49140199335E+03  0.12500000000E+03 0.  0.
         25    1    1    2    0    0 -0.11643080121E+02  0.21517479178E+02  0.13104821567E+03  0.18274900288E+03  0.12500000000E+03 0.  0.
</event>
<event>
 5    0  0.5568866E-005  0.2408466E+03  0.7546771E-02  0.1119230E+00
         21   -1    0    0  502  501  0.00000000000E+00  0.00000000000E+00  0.35386886223E+02  0.35386886223E+02  0.00000000000E+00 0. -1.
         21   -1    0    0  501  502 -0.00000000000E+00 -0.00000000000E+00 -0.16392253058E+04  0.16392253058E+04  0.00000000000E+00 0. -1.
         25    1    1    2    0    0  0.84523777609E+02 -0.16347526599E+02 -0.36096378580E+03  0.39157549114E+03  0.12500000000E+03 0.  0.
         25    1    1    2    0    0 -0.12715731190E+03 -0.24942173016E+02 -0.68789107638E+03  0.71106274472E+03  0.12500000000E+03 0.  0.
         25    1    1    2    0    0  0.42633534287E+02  0.41289699615E+02 -0.55498355736E+03  0.57197395612E+03  0.12500000000E+03 0.  0.
</event>
<event>
 5    0  0.5568866E-005  0.2804322E+03  0.7546771E-02  0.1095453E+00
         21   -1    0    0  502  501  0.00000000000E+00  0.00000000000E+00  0.27689707390E+03  0.27689707390E+03  0.00000000000E+00 0.  1.
         21   -1    0    0  501  502 -0.00000000000E+00 -0.00000000000E+00 -0.28401254678E+03  0.28401254678E+03  0.00000000000E+00 0.  1.
         25    1    1    2    0    0  0.35014708396E+02 -0.30753290448E+02  0.80601353185E+02  0.15586331452E+03  0.12500000000E+03 0.  0.
         25    1    1    2    0    0  0.43220259692E+02  0.14048614051E+03 -0.10630656890E+03  0.22029623944E+03  0.12500000000E+03 0.  0.
         25    1    1    2    0    0 -0.78234968088E+02 -0.10973285006E+03  0.18589742839E+02  0.18475006672E+03  0.12500000000E+03 0.  0.
</event>
<event>
 5    0  0.5568866E-005  0.4110976E+03  0.7546771E-02  0.1040003E+00
         21   -1    0    0  502  501  0.00000000000E+00  0.00000000000E+00  0.43902876962E+03  0.43902876962E+03  0.00000000000E+00 0.  1.
         21   -1    0    0  501  502 -0.00000000000E+00 -0.00000000000E+00 -0.38494342389E+03  0.38494342389E+03  0.00000000000E+00 0.  1.
         25    1    1    2    0    0  0.14534402471E+03  0.33397455759E+02  0.13419193995E+03  0.23637417862E+03  0.12500000000E+03 0.  0.
         25    1    1    2    0    0 -0.21786232904E+03 -0.18843930556E+03  0.77556436964E+02  0.32343989737E+03  0.12500000000E+03 0.  0.
         25    1    1    2    0    0  0.72518304331E+02  0.15504184980E+03 -0.15766303119E+03  0.26415811753E+03  0.12500000000E+03 0.  0.
</event>
<event>
 5    0  0.5568866E-005  0.2268367E+03  0.7546771E-02  0.1128886E+00
         21   -1    0    0  502  501  0.00000000000E+00  0.00000000000E+00  0.42337116897E+03  0.42337116897E+03  0.00000000000E+00 0.  1.
         21   -1    0    0  501  502 -0.00000000000E+00 -0.00000000000E+00 -0.12153615408E+03  0.12153615408E+03  0.00000000000E+00 0.  1.
         25    1    1    2    0    0  0.73393514398E+01  0.64365029570E+02  0.91703844415E+02  0.16802177892E+03  0.12500000000E+03 0.  0.
         25    1    1    2    0    0  0.51784456965E+02 -0.18146346202E+02  0.21059034851E+02  0.13812821150E+03  0.12500000000E+03 0.  0.
         25    1    1    2    0    0 -0.59123808405E+02 -0.46218683368E+02  0.18907213562E+03  0.23875733262E+03  0.12500000000E+03 0.  0.
</event>
<event>
 5    0  0.5568866E-005  0.2503961E+03  0.7546771E-02  0.1113055E+00
         21   -1    0    0  502  501  0.00000000000E+00  0.00000000000E+00  0.15670202906E+03  0.15670202906E+03  0.00000000000E+00 0.  1.
         21   -1    0    0  501  502 -0.00000000000E+00 -0.00000000000E+00 -0.40011100588E+03  0.40011100588E+03  0.00000000000E+00 0.  1.
         25    1    1    2    0    0 -0.99411416875E+02 -0.10791956332E+02 -0.58641496079E+02  0.17047850653E+03  0.12500000000E+03 0.  0.
         25    1    1    2    0    0  0.10915139884E+03  0.64277024009E+02 -0.30644798122E+02  0.18058147008E+03  0.12500000000E+03 0.  0.
         25    1    1    2    0    0 -0.97399819678E+01 -0.53485067678E+02 -0.15412268262E+03  0.20575305833E+03  0.12500000000E+03 0.  0.
</event>
<event>
 5    0  0.5568866E-005  0.2793506E+03  0.7546771E-02  0.1096044E+00
         21   -1    0    0  502  501  0.00000000000E+00  0.00000000000E+00  0.71392599496E+03  0.71392599496E+03  0.00000000000E+00 0. -1.
         21   -1    0    0  501  502 -0.00000000000E+00 -0.00000000000E+00 -0.10930647629E+03  0.10930647629E+03  0.00000000000E+00 0. -1.
         25    1    1    2    0    0  0.55946786847E+02  0.16552289649E+02  0.94994203807E+02  0.16749005943E+03  0.12500000000E+03 0.  0.
         25    1    1    2    0    0 -0.10261465667E+03  0.21874582849E+02  0.42815602388E+02  0.16872000754E+03  0.12500000000E+03 0.  0.
         25    1    1    2    0    0  0.46667869819E+02 -0.38426872498E+02  0.46680971247E+03  0.48702240427E+03  0.12500000000E+03 0.  0.
</event>
<event>
 5    0  0.5568866E-005  0.2234335E+03  0.7546771E-02  0.1131349E+00
         21   -1    0    0  502  501  0.00000000000E+00  0.00000000000E+00  0.90143545993E+02  0.90143545993E+02  0.00000000000E+00 0. -1.
         21   -1    0    0  501  502 -0.00000000000E+00 -0.00000000000E+00 -0.55381156824E+03  0.55381156824E+03  0.00000000000E+00 0. -1.
         25    1    1    2    0    0 -0.21909417086E+01  0.77884300361E+02 -0.12231750516E+03  0.19146105749E+03  0.12500000000E+03 0.  0.
         25    1    1    2    0    0  0.69772221469E+02 -0.44895944529E+02 -0.19275609147E+03  0.24426158012E+03  0.12500000000E+03 0.  0.
         25    1    1    2    0    0 -0.67581279760E+02 -0.32988355831E+02 -0.14859442562E+03  0.20823247662E+03  0.12500000000E+03 0.  0.
</event>
<event>
 5    0  0.5568866E-005  0.3680745E+03  0.7546771E-02  0.1055432E+00
         21   -1    0    0  502  501  0.00000000000E+00  0.00000000000E+00  0.91390845823E+03  0.91390845823E+03  0.00000000000E+00 0. -1.
         21   -1    0    0  501  502 -0.00000000000E+00 -0.00000000000E+00 -0.14824115328E+03  0.14824115328E+03  0.00000000000E+00 0. -1.
         25    1    1    2    0    0 -0.20691890163E+03  0.53279572808E+02  0.24106242763E+03  0.34552892606E+03  0.12500000000E+03 0.  0.
         25    1    1    2    0    0  0.23602617262E+03  0.28461956282E+02  0.13975007255E+03  0.30277635293E+03  0.12500000000E+03 0.  0.
         25    1    1    2    0    0 -0.29107270995E+02 -0.81741529090E+02  0.38485480477E+03  0.41384433252E+03  0.12500000000E+03 0.  0.
</event>
<event>
 5    0  0.5568866E-005  0.3434010E+03  0.7546771E-02  0.1065357E+00
         21   -1    0    0  502  501  0.00000000000E+00  0.00000000000E+00  0.27314548879E+03  0.27314548879E+03  0.00000000000E+00 0.  1.
         21   -1    0    0  501  502 -0.00000000000E+00 -0.00000000000E+00 -0.43172691626E+03  0.43172691626E+03  0.00000000000E+00 0.  1.
         25    1    1    2    0    0  0.59500321372E+02 -0.13512627712E+03  0.35940978938E+02  0.19676420655E+03  0.12500000000E+03 0.  0.
         25    1    1    2    0    0 -0.17717276043E+03  0.12210499730E+03 -0.22234294375E+03  0.33370825887E+03  0.12500000000E+03 0.  0.
         25    1    1    2    0    0  0.11767243906E+03  0.13021279823E+02  0.27820537342E+02  0.17439993962E+03  0.12500000000E+03 0.  0.
</event>
<event>
 5    0  0.5568866E-005  0.2412136E+03  0.7546771E-02  0.1118987E+00
         21   -1    0    0  502  501  0.00000000000E+00  0.00000000000E+00  0.36619886659E+03  0.36619886659E+03  0.00000000000E+00 0. -1.
         21   -1    0    0  501  502 -0.00000000000E+00 -0.00000000000E+00 -0.15888638099E+03  0.15888638099E+03  0.00000000000E+00 0. -1.
         25    1    1    2    0    0  0.51777096259E+01  0.12052754900E+02 -0.49242120184E+02  0.13498838460E+03  0.12500000000E+03 0.  0.
         25    1    1    2    0    0  0.16566551889E+02  0.31411482048E+02  0.41065529103E+02  0.13628099474E+03  0.12500000000E+03 0.  0.
         25    1    1    2    0    0 -0.21744261515E+02 -0.43464236948E+02  0.21548907668E+03  0.25381586824E+03  0.12500000000E+03 0.  0.
</event>
<event>
 5    0  0.5568866E-005  0.3016020E+03  0.7546771E-02  0.1084442E+00
         21   -1    0    0  502  501  0.00000000000E+00  0.00000000000E+00  0.32353840522E+03  0.32353840522E+03  0.00000000000E+00 0. -1.
         21   -1    0    0  501  502 -0.00000000000E+00 -0.00000000000E+00 -0.28115300011E+03  0.28115300011E+03  0.00000000000E+00 0. -1.
         25    1    1    2    0    0 -0.21715768777E+03  0.80332504397E+01 -0.16727262859E+02  0.25125046426E+03  0.12500000000E+03 0.  0.
         25    1    1    2    0    0  0.12441238977E+03  0.40273788229E+02  0.59600883568E+02  0.19046702094E+03  0.12500000000E+03 0.  0.
         25    1    1    2    0    0  0.92745298002E+02 -0.48307038669E+02 -0.48821560411E+00  0.16297392012E+03  0.12500000000E+03 0.  0.
</event>
<event>
 5    0  0.5568866E-005  0.2259748E+03  0.7546771E-02  0.1129505E+00
         21   -1    0    0  502  501  0.00000000000E+00  0.00000000000E+00  0.87226858398E+02  0.87226858398E+02  0.00000000000E+00 0.  1.
         21   -1    0    0  501  502 -0.00000000000E+00 -0.00000000000E+00 -0.58542283230E+03  0.58542283230E+03  0.00000000000E+00 0.  1.
         25    1    1    2    0    0  0.45134174321E+02 -0.14195627471E+02 -0.94477151098E+02  0.16367510993E+03  0.12500000000E+03 0.  0.
         25    1    1    2    0    0  0.16360316944E+02  0.82653548039E+02 -0.15833331987E+03  0.21861772379E+03  0.12500000000E+03 0.  0.
         25    1    1    2    0    0 -0.61494491265E+02 -0.68457920569E+02 -0.24538550294E+03  0.29035685698E+03  0.12500000000E+03 0.  0.
</event>
<event>
 5    0  0.5568866E-005  0.4740558E+03  0.7546771E-02  0.1020782E+00
         21   -1    0    0  502  501  0.00000000000E+00  0.00000000000E+00  0.18029566810E+04  0.18029566810E+04  0.00000000000E+00 0. -1.
         21   -1    0    0  501  502 -0.00000000000E+00 -0.00000000000E+00 -0.12464465472E+03  0.12464465472E+03  0.00000000000E+00 0. -1.
         25    1    1    2    0    0  0.19882851901E+03  0.42413861571E+02  0.39161974562E+03  0.45860957337E+03  0.12500000000E+03 0.  0.
         25    1    1    2    0    0 -0.31426132382E+03 -0.16624417006E+03  0.36881830928E+03  0.52730375401E+03  0.12500000000E+03 0.  0.
         25    1    1    2    0    0  0.11543280481E+03  0.12383030849E+03  0.91787397140E+03  0.94168800837E+03  0.12500000000E+03 0.  0.
</event>
<event>
 5    0  0.5568866E-005  0.3997399E+03  0.7546771E-02  0.1043870E+00
         21   -1    0    0  502  501  0.00000000000E+00  0.00000000000E+00  0.55886551573E+03  0.55886551573E+03  0.00000000000E+00 0. -1.
         21   -1    0    0  501  502 -0.00000000000E+00 -0.00000000000E+00 -0.28592209908E+03  0.28592209908E+03  0.00000000000E+00 0. -1.
         25    1    1    2    0    0 -0.68291539103E+02  0.57623420060E+02 -0.49181588987E+02  0.16133202270E+03  0.12500000000E+03 0.  0.
         25    1    1    2    0    0 -0.36195789826E+02  0.10393252135E+03 -0.10621793484E+03  0.19753317159E+03  0.12500000000E+03 0.  0.
         25    1    1    2    0    0  0.10448732893E+03 -0.16155594141E+03  0.42834294048E+03  0.48592242053E+03  0.12500000000E+03 0.  0.
</event>
<event>
 5    0  0.5568866E-005  0.2532284E+03  0.7546771E-02  0.1111281E+00
         21   -1    0    0  502  501  0.00000000000E+00  0.00000000000E+00  0.71316515200E+03  0.71316515200E+03  0.00000000000E+00 0.  1.
         21   -1    0    0  501  502 -0.00000000000E+00 -0.00000000000E+00 -0.89915507445E+02  0.89915507445E+02  0.00000000000E+00 0.  1.
         25    1    1    2    0    0 -0.32624029324E+02  0.43682078693E+02  0.24944787501E+03  0.28429156448E+03  0.12500000000E+03 0.  0.
         25    1    1    2    0    0  0.13861289850E+03 -0.54706647722E+02  0.18347922668E+03  0.26738732124E+03  0.12500000000E+03 0.  0.
         25    1    1    2    0    0 -0.10598886917E+03  0.11024569029E+02  0.19032254286E+03  0.25140177372E+03  0.12500000000E+03 0.  0.
</event>
<event>
 5    0  0.5568866E-005  0.3086387E+03  0.7546771E-02  0.1081000E+00
         21   -1    0    0  502  501  0.00000000000E+00  0.00000000000E+00  0.37370483633E+03  0.37370483633E+03  0.00000000000E+00 0. -1.
         21   -1    0    0  501  502 -0.00000000000E+00 -0.00000000000E+00 -0.25490130940E+03  0.25490130940E+03  0.00000000000E+00 0. -1.
         25    1    1    2    0    0  0.63770188279E+02  0.46892723431E+02  0.13578422695E+03  0.20081812844E+03  0.12500000000E+03 0.  0.
         25    1    1    2    0    0  0.11715049223E+03  0.34748267851E+02 -0.68294505697E+02  0.18767210623E+03  0.12500000000E+03 0.  0.
         25    1    1    2    0    0 -0.18092068050E+03 -0.81640991281E+02  0.51313805672E+02  0.24011591106E+03  0.12500000000E+03 0.  0.
</event>
<event>
 5    0  0.5568866E-005  0.2675940E+03  0.7546771E-02  0.1102665E+00
         21   -1    0    0  502  501  0.00000000000E+00  0.00000000000E+00  0.16009775872E+03  0.16009775872E+03  0.00000000000E+00 0. -1.
         21   -1    0    0  501  502 -0.00000000000E+00 -0.00000000000E+00 -0.44726762742E+03  0.44726762742E+03  0.00000000000E+00 0. -1.
         25    1    1    2    0    0  0.25673652056E+01  0.64055494176E+02 -0.92466598882E+01  0.14078422645E+03  0.12500000000E+03 0.  0.
         25    1    1    2    0    0  0.84373722281E+02 -0.84149054704E+02 -0.30507133905E+02  0.17537295583E+03  0.12500000000E+03 0.  0.
         25    1    1    2    0    0 -0.86941087487E+02  0.20093560528E+02 -0.24741607491E+03  0.29120820385E+03  0.12500000000E+03 0.  0.
</event>
<event>
 5    0  0.5568866E-005  0.2901653E+03  0.7546771E-02  0.1090263E+00
         21   -1    0    0  502  501  0.00000000000E+00  0.00000000000E+00  0.33488613938E+03  0.33488613938E+03  0.00000000000E+00 0.  1.
         21   -1    0    0  501  502 -0.00000000000E+00 -0.00000000000E+00 -0.25141654373E+03  0.25141654373E+03  0.00000000000E+00 0.  1.
         25    1    1    2    0    0 -0.14826862364E+03 -0.96821345119E+02  0.62421815096E+02  0.22556471494E+03  0.12500000000E+03 0.  0.
         25    1    1    2    0    0  0.34022763329E+02  0.23456481993E+02  0.94549446010E+02  0.16208748475E+03  0.12500000000E+03 0.  0.
         25    1    1    2    0    0  0.11424586031E+03  0.73364863126E+02 -0.73501665452E+02  0.19865048342E+03  0.12500000000E+03 0.  0.
</event>
<event>
 5    0  0.5568866E-005  0.2419030E+03  0.7546771E-02  0.1118532E+00
         21   -1    0    0  502  501  0.00000000000E+00  0.00000000000E+00  0.14983393555E+03  0.14983393555E+03  0.00000000000E+00 0.  1.
         21   -1    0    0  501  502 -0.00000000000E+00 -0.00000000000E+00 -0.39054600247E+03  0.39054600247E+03  0.00000000000E+00 0.  1.
         25    1    1    2    0    0 -0.11670556258E+03  0.47521760837E+02 -0.31254138365E+02  0.18022299314E+03  0.12500000000E+03 0.  0.
         25    1    1    2    0    0  0.32101890143E+02 -0.57928617248E+02 -0.94144893872E+02  0.16992503373E+03  0.12500000000E+03 0.  0.
         25    1    1    2    0    0  0.84603672442E+02  0.10406856411E+02 -0.11531303468E+03  0.19023191115E+03  0.12500000000E+03 0.  0.
</event>
<event>
 5    0  0.5568866E-005  0.3134428E+03  0.7546771E-02  0.1078707E+00
         21   -1    0    0  502  501  0.00000000000E+00  0.00000000000E+00  0.13586988544E+03  0.13586988544E+03  0.00000000000E+00 0. -1.
         21   -1    0    0  501  502 -0.00000000000E+00 -0.00000000000E+00 -0.72309151056E+03  0.72309151056E+03  0.00000000000E+00 0. -1.
         25    1    1    2    0    0 -0.63112733211E+02  0.16151229642E+03 -0.86807594479E+02  0.23071627044E+03  0.12500000000E+03 0.  0.
         25    1    1    2    0    0  0.11714400339E+03 -0.14673308010E+03 -0.21476692298E+03  0.31145327986E+03  0.12500000000E+03 0.  0.
         25    1    1    2    0    0 -0.54031270179E+02 -0.14779216318E+02 -0.28564710766E+03  0.31679184571E+03  0.12500000000E+03 0.  0.
</event>
<event>
 5    0  0.5568866E-005  0.3114150E+03  0.7546771E-02  0.1079670E+00
         21   -1    0    0  502  501  0.00000000000E+00  0.00000000000E+00  0.92321138735E+03  0.92321138735E+03  0.00000000000E+00 0.  1.
         21   -1    0    0  501  502 -0.00000000000E+00 -0.00000000000E+00 -0.10504564217E+03  0.10504564217E+03  0.00000000000E+00 0.  1.
         25    1    1    2    0    0  0.37722869137E+02  0.15239474173E+03  0.20061434984E+03  0.28375744840E+03  0.12500000000E+03 0.  0.
         25    1    1    2    0    0  0.64002890354E+02 -0.20305647442E+03  0.36648866731E+03  0.44189053514E+03  0.12500000000E+03 0.  0.
         25    1    1    2    0    0 -0.10172575949E+03  0.50661732698E+02  0.25106272803E+03  0.30260904598E+03  0.12500000000E+03 0.  0.
</event>
<event>
 5    0  0.5568866E-005  0.2676040E+03  0.7546771E-02  0.1102659E+00
         21   -1    0    0  502  501  0.00000000000E+00  0.00000000000E+00  0.15938988587E+03  0.15938988587E+03  0.00000000000E+00 0. -1.
         21   -1    0    0  501  502 -0.00000000000E+00 -0.00000000000E+00 -0.44928749101E+03  0.44928749101E+03  0.00000000000E+00 0. -1.
         25    1    1    2    0    0  0.11714564911E+03  0.74185834683E+00 -0.57226970959E+02  0.18061998689E+03  0.12500000000E+03 0.  0.
         25    1    1    2    0    0  0.28313514446E+01 -0.85814305927E+02 -0.43428581277E+02  0.15774394861E+03  0.12500000000E+03 0.  0.
         25    1    1    2    0    0 -0.11997700056E+03  0.85072447580E+02 -0.18924205290E+03  0.27031344137E+03  0.12500000000E+03 0.  0.
</event>
<event>
 5    0  0.5568866E-005  0.3295208E+03  0.7546771E-02  0.1071349E+00
         21   -1    0    0  502  501  0.00000000000E+00  0.00000000000E+00  0.33375496307E+03  0.33375496307E+03  0.00000000000E+00 0.  1.
         21   -1    0    0  501  502 -0.00000000000E+00 -0.00000000000E+00 -0.32534028498E+03  0.32534028498E+03  0.00000000000E+00 0.  1.
         25    1    1    2    0    0 -0.65646681113E+02 -0.26686657116E+02  0.36891576202E+02  0.14834976510E+03  0.12500000000E+03 0.  0.
         25    1    1    2    0    0  0.65959632236E+02 -0.13647013680E+03  0.14305824073E+03  0.24303380745E+03  0.12500000000E+03 0.  0.
         25    1    1    2    0    0 -0.31295112273E+00  0.16315679391E+03 -0.17153513885E+03  0.26771167550E+03  0.12500000000E+03 0.  0.
</event>
<event>
 5    0  0.5568866E-005  0.2836609E+03  0.7546771E-02  0.1093706E+00
         21   -1    0    0  502  501  0.00000000000E+00  0.00000000000E+00  0.13486543834E+04  0.13486543834E+04  0.00000000000E+00 0.  1.
         21   -1    0    0  501  502 -0.00000000000E+00 -0.00000000000E+00 -0.59662078755E+02  0.59662078755E+02  0.00000000000E+00 0.  1.
         25    1    1    2    0    0 -0.60353545720E+02 -0.50358687199E+02  0.55370512761E+03  0.57305577059E+03  0.12500000000E+03 0.  0.
         25    1    1    2    0    0  0.15400712768E+03  0.75919065033E+02  0.56088830784E+03  0.59975211020E+03  0.12500000000E+03 0.  0.
         25    1    1    2    0    0 -0.93653581960E+02 -0.25560377833E+02  0.17439886922E+03  0.23550858141E+03  0.12500000000E+03 0.  0.
</event>
<event>
 5    0  0.5568866E-005  0.5981944E+03  0.7546771E-02  0.9909159E-01
         21   -1    0    0  502  501  0.00000000000E+00  0.00000000000E+00  0.50105578380E+03  0.50105578380E+03  0.00000000000E+00 0.  1.
         21   -1    0    0  501  502 -0.00000000000E+00 -0.00000000000E+00 -0.71416512970E+03  0.71416512970E+03  0.00000000000E+00 0.  1.
         25    1    1    2    0    0  0.38160846998E+02 -0.79676650286E+02 -0.28736079828E+03  0.32558539161E+03  0.12500000000E+03 0.  0.
         25    1    1    2    0    0 -0.42468580271E+03  0.79424389177E+02  0.15447309772E+03  0.47555567764E+03  0.12500000000E+03 0.  0.
         25    1    1    2    0    0  0.38652495571E+03  0.25226110936E+00 -0.80221645342E+02  0.41407984424E+03  0.12500000000E+03 0.  0.
</event>
<event>
 5    0  0.5568866E-005  0.2363178E+03  0.7546771E-02  0.1122270E+00
         21   -1    0    0  502  501  0.00000000000E+00  0.00000000000E+00  0.12457406178E+03  0.12457406178E+03  0.00000000000E+00 0.  1.
         21   -1    0    0  501  502 -0.00000000000E+00 -0.00000000000E+00 -0.44829643051E+03  0.44829643051E+03  0.00000000000E+00 0.  1.
         25    1    1    2    0    0  0.15003121131E+02 -0.20553213549E+02 -0.56513739188E+02  0.13952179381E+03  0.12500000000E+03 0.  0.
         25    1    1    2    0    0 -0.81232391465E+02 -0.21192906791E+01 -0.24721628515E+03  0.28869375549E+03  0.12500000000E+03 0.  0.
         25    1    1    2    0    0  0.66229270333E+02  0.22672504228E+02 -0.19992344392E+02  0.14465494299E+03  0.12500000000E+03 0.  0.
</event>
<event>
 5    0  0.9661810E-005  0.3470771E+03  0.7546771E-02  0.1063821E+00
         21   -1    0    0  502  501  0.00000000000E+00  0.00000000000E+00  0.46688497825E+03  0.46688497825E+03  0.00000000000E+00 0.  1.
         21   -1    0    0  501  502 -0.00000000000E+00 -0.00000000000E+00 -0.25801326179E+03  0.25801326179E+03  0.00000000000E+00 0.  1.
         25    1    1    2    0    0 -0.19672518265E+03  0.10425547504E+03  0.10481172783E+03  0.27600815179E+03  0.12500000000E+03 0.  0.
         25    1    1    2    0    0  0.88155670381E+02 -0.59301235806E+02  0.19490855518E+03  0.25475950163E+03  0.12500000000E+03 0.  0.
         25    1    1    2    0    0  0.10856951227E+03 -0.44954239235E+02 -0.90848566546E+02  0.19413058662E+03  0.12500000000E+03 0.  0.
</event>
<event>
 5    0  0.5568866E-005  0.7857508E+03  0.7546771E-02  0.9580874E-01
         21   -1    0    0  502  501  0.00000000000E+00  0.00000000000E+00  0.88293234650E+03  0.88293234650E+03  0.00000000000E+00 0. -1.
         21   -1    0    0  501  502 -0.00000000000E+00 -0.00000000000E+00 -0.69926563788E+03  0.69926563788E+03  0.00000000000E+00 0. -1.
         25    1    1    2    0    0  0.28558717966E+02  0.26565477637E+02 -0.29976678905E+02  0.13433140456E+03  0.12500000000E+03 0.  0.
         25    1    1    2    0    0  0.14425473348E+03  0.66286711316E+03  0.22663876640E+03  0.72608013902E+03  0.12500000000E+03 0.  0.
         25    1    1    2    0    0 -0.17281345145E+03 -0.68943259080E+03 -0.12995378881E+02  0.72178644080E+03  0.12500000000E+03 0.  0.
</event>
<event>
 5    0  0.5568866E-005  0.3276668E+03  0.7546771E-02  0.1072174E+00
         21   -1    0    0  502  501  0.00000000000E+00  0.00000000000E+00  0.16580317678E+03  0.16580317678E+03  0.00000000000E+00 0.  1.
         21   -1    0    0  501  502 -0.00000000000E+00 -0.00000000000E+00 -0.64754827208E+03  0.64754827208E+03  0.00000000000E+00 0.  1.
         25    1    1    2    0    0 -0.13753470616E+03  0.24684677071E+02 -0.75783606585E+01  0.18763677739E+03  0.12500000000E+03 0.  0.
         25    1    1    2    0    0 -0.62168666367E+01 -0.12604228599E+03 -0.13245186120E+03  0.22157121389E+03  0.12500000000E+03 0.  0.
         25    1    1    2    0    0  0.14375157279E+03  0.10135760892E+03 -0.34171487344E+03  0.40414345757E+03  0.12500000000E+03 0.  0.
</event>
<event>
 5    0  0.5568866E-005  0.2307453E+03  0.7546771E-02  0.1126116E+00
         21   -1    0    0  502  501  0.00000000000E+00  0.00000000000E+00  0.38214852124E+03  0.38214852124E+03  0.00000000000E+00 0. -1.
         21   -1    0    0  501  502 -0.00000000000E+00 -0.00000000000E+00 -0.13932646972E+03  0.13932646972E+03  0.00000000000E+00 0. -1.
         25    1    1    2    0    0 -0.72973178669E+02 -0.31459757740E+02 -0.29951947246E+01  0.14815118074E+03  0.12500000000E+03 0.  0.
         25    1    1    2    0    0  0.34092793910E+01 -0.15048482614E+02  0.14588362900E+03  0.19273067536E+03  0.12500000000E+03 0.  0.
         25    1    1    2    0    0  0.69563899278E+02  0.46508240354E+02  0.99933617243E+02  0.18059313486E+03  0.12500000000E+03 0.  0.
</event>
<event>
 5    0  0.5568866E-005  0.3449096E+03  0.7546771E-02  0.1064724E+00
         21   -1    0    0  502  501  0.00000000000E+00  0.00000000000E+00  0.93655057689E+02  0.93655057689E+02  0.00000000000E+00 0.  1.
         21   -1    0    0  501  502 -0.00000000000E+00 -0.00000000000E+00 -0.12702212196E+04  0.12702212196E+04  0.00000000000E+00 0.  1.
         25    1    1    2    0    0 -0.51986020960E+02  0.96103554445E+01 -0.83338637724E+02  0.15926466603E+03  0.12500000000E+03 0.  0.
         25    1    1    2    0    0  0.14579292034E+03 -0.33605366818E+02 -0.10046165022E+04  0.10233592784E+04  0.12500000000E+03 0.  0.
         25    1    1    2    0    0 -0.93806899382E+02  0.23995011373E+02 -0.88611022046E+02  0.18125233287E+03  0.12500000000E+03 0.  0.
</event>
<event>
 5    0  0.5568866E-005  0.3021450E+03  0.7546771E-02  0.1084173E+00
         21   -1    0    0  502  501  0.00000000000E+00  0.00000000000E+00  0.10298145859E+03  0.10298145859E+03  0.00000000000E+00 0. -1.
         21   -1    0    0  501  502 -0.00000000000E+00 -0.00000000000E+00 -0.88648599864E+03  0.88648599864E+03  0.00000000000E+00 0. -1.
         25    1    1    2    0    0  0.42682224361E+02  0.16976453823E+02 -0.36662305741E+03  0.39006081383E+03  0.12500000000E+03 0.  0.
         25    1    1    2    0    0 -0.18979179180E+03  0.24521182356E+02 -0.26721121488E+03  0.35163766291E+03  0.12500000000E+03 0.  0.
         25    1    1    2    0    0  0.14710956744E+03 -0.41497636178E+02 -0.14967026777E+03  0.24776898049E+03  0.12500000000E+03 0.  0.
</event>
<event>
 5    0  0.5568866E-005  0.2524095E+03  0.7546771E-02  0.1111791E+00
         21   -1    0    0  502  501  0.00000000000E+00  0.00000000000E+00  0.30476429950E+03  0.30476429950E+03  0.00000000000E+00 0. -1.
         21   -1    0    0  501  502 -0.00000000000E+00 -0.00000000000E+00 -0.20904860204E+03  0.20904860204E+03  0.00000000000E+00 0. -1.
         25    1    1    2    0    0  0.22414352768E+02  0.80822282747E+02  0.15683594695E+03  0.21738711749E+03  0.12500000000E+03 0.  0.
         25    1    1    2    0    0  0.42246418748E+02 -0.65978497399E+02 -0.43601039450E+02  0.15383098731E+03  0.12500000000E+03 0.  0.
         25    1    1    2    0    0 -0.64660771516E+02 -0.14843785347E+02 -0.17519210035E+02  0.14259479674E+03  0.12500000000E+03 0.  0.
</event>
<event>
 5    0  0.5568866E-005  0.2277612E+03  0.7546771E-02  0.1128226E+00
         21   -1    0    0  502  501  0.00000000000E+00  0.00000000000E+00  0.75145967561E+03  0.75145967561E+03  0.00000000000E+00 0. -1.
         21   -1    0    0  501  502 -0.00000000000E+00 -0.00000000000E+00 -0.69032542150E+02  0.69032542150E+02  0.00000000000E+00 0. -1.
         25    1    1    2    0    0  0.54737214745E+02  0.20730109070E+02  0.42968315421E+03  0.45130755934E+03  0.12500000000E+03 0.  0.
         25    1    1    2    0    0 -0.65915707198E+02 -0.16472146955E+02  0.15200565761E+03  0.20819926039E+03  0.12500000000E+03 0.  0.
         25    1    1    2    0    0  0.11178492453E+02 -0.42579621152E+01  0.10073832164E+03  0.16098539804E+03  0.12500000000E+03 0.  0.
</event>
<event>
 5    0  0.5568866E-005  0.2677711E+03  0.7546771E-02  0.1102562E+00
         21   -1    0    0  502  501  0.00000000000E+00  0.00000000000E+00  0.17531015815E+04  0.17531015815E+04  0.00000000000E+00 0. -1.
         21   -1    0    0  501  502 -0.00000000000E+00 -0.00000000000E+00 -0.40899732670E+02  0.40899732670E+02  0.00000000000E+00 0. -1.
         25    1    1    2    0    0 -0.15297387033E+02 -0.84826514199E+02  0.84719298151E+03  0.86069187023E+03  0.12500000000E+03 0.  0.
         25    1    1    2    0    0  0.88320190562E+01 -0.74665946072E+02  0.40997820046E+03  0.43515529747E+03  0.12500000000E+03 0.  0.
         25    1    1    2    0    0  0.64653679766E+01  0.15949246027E+03  0.45503066691E+03  0.49815414652E+03  0.12500000000E+03 0.  0.
</event>
<event>
 5    0  0.5568866E-005  0.2884776E+03  0.7546771E-02  0.1091147E+00
         21   -1    0    0  502  501  0.00000000000E+00  0.00000000000E+00  0.29268986887E+03  0.29268986887E+03  0.00000000000E+00 0. -1.
         21   -1    0    0  501  502 -0.00000000000E+00 -0.00000000000E+00 -0.28432587910E+03  0.28432587910E+03  0.00000000000E+00 0. -1.
         25    1    1    2    0    0  0.54487991388E+01  0.89865090511E+02 -0.61112138386E+02  0.16572603104E+03  0.12500000000E+03 0.  0.
         25    1    1    2    0    0 -0.13225185829E+03 -0.12842523344E+03  0.48012892713E+02  0.22784607188E+03  0.12500000000E+03 0.  0.
         25    1    1    2    0    0  0.12680305915E+03  0.38560142928E+02  0.21463235442E+02  0.18344364505E+03  0.12500000000E+03 0.  0.
</event>
<event>
 5    0  0.5568866E-005  0.2914366E+03  0.7546771E-02  0.1089601E+00
         21   -1    0    0  502  501  0.00000000000E+00  0.00000000000E+00  0.56239512019E+02  0.56239512019E+02  0.00000000000E+00 0.  1.
         21   -1    0    0  501  502 -0.00000000000E+00 -0.00000000000E+00 -0.15102418493E+04  0.15102418493E+04  0.00000000000E+00 0.  1.
         25    1    1    2    0    0  0.23928119827E+02  0.53861847747E+02 -0.79705660219E+03  0.80894862671E+03  0.12500000000E+03 0.  0.
         25    1    1    2    0    0  0.74243144226E+02 -0.15163464252E+02 -0.53192361074E+03  0.55164273110E+03  0.12500000000E+03 0.  0.
         25    1    1    2    0    0 -0.98171264053E+02 -0.38698383495E+02 -0.12502212437E+03  0.20589000353E+03  0.12500000000E+03 0.  0.
</event>
<event>
 5    0  0.5568866E-005  0.2429164E+03  0.7546771E-02  0.1117865E+00
         21   -1    0    0  502  501  0.00000000000E+00  0.00000000000E+00  0.48455561671E+03  0.48455561671E+03  0.00000000000E+00 0.  1.
         21   -1    0    0  501  502 -0.00000000000E+00 -0.00000000000E+00 -0.12177835224E+03  0.12177835224E+03  0.00000000000E+00 0.  1.
         25    1    1    2    0    0  0.18871410670E+02 -0.12730616054E+03  0.13433005579E+03  0.22412619780E+03  0.12500000000E+03 0.  0.
         25    1    1    2    0    0  0.50397409341E+01 -0.11535986898E+01  0.82886937392E+02  0.15007322935E+03  0.12500000000E+03 0.  0.
         25    1    1    2    0    0 -0.23911151604E+02  0.12845975923E+03  0.14556027129E+03  0.23213454179E+03  0.12500000000E+03 0.  0.
</event>
<event>
 5    0  0.5568866E-005  0.3407641E+03  0.7546771E-02  0.1066471E+00
         21   -1    0    0  502  501  0.00000000000E+00  0.00000000000E+00  0.42077768814E+03  0.42077768814E+03  0.00000000000E+00 0.  1.
         21   -1    0    0  501  502 -0.00000000000E+00 -0.00000000000E+00 -0.27596554866E+03  0.27596554866E+03  0.00000000000E+00 0.  1.
         25    1    1    2    0    0  0.17473319289E+03  0.15032480336E+03  0.17901217823E+03  0.31748951976E+03  0.12500000000E+03 0.  0.
         25    1    1    2    0    0 -0.17438902291E+03 -0.10083831179E+03 -0.54581927176E+02  0.24327779021E+03  0.12500000000E+03 0.  0.
         25    1    1    2    0    0 -0.34416997686E+00 -0.49486491567E+02  0.20381888424E+02  0.13597592683E+03  0.12500000000E+03 0.  0.
</event>
<event>
 5    0  0.5568866E-005  0.3017772E+03  0.7546771E-02  0.1084356E+00
         21   -1    0    0  502  501  0.00000000000E+00  0.00000000000E+00  0.67673724052E+03  0.67673724052E+03  0.00000000000E+00 0.  1.
         21   -1    0    0  501  502 -0.00000000000E+00 -0.00000000000E+00 -0.13457136002E+03  0.13457136002E+03  0.00000000000E+00 0.  1.
         25    1    1    2    0    0  0.15118947260E+03  0.61747784037E+02  0.22456546589E+03  0.30450893899E+03  0.12500000000E+03 0.  0.
         25    1    1    2    0    0  0.36442602224E+02 -0.57628448769E+02  0.37560097095E+02  0.14725780882E+03  0.12500000000E+03 0.  0.
         25    1    1    2    0    0 -0.18763207482E+03 -0.41193352681E+01  0.28004031752E+03  0.35954185273E+03  0.12500000000E+03 0.  0.
</event>
<event>
 5    0  0.5568866E-005  0.3476651E+03  0.7546771E-02  0.1063577E+00
         21   -1    0    0  502  501  0.00000000000E+00  0.00000000000E+00  0.12902720313E+04  0.12902720313E+04  0.00000000000E+00 0. -1.
         21   -1    0    0  501  502 -0.00000000000E+00 -0.00000000000E+00 -0.93678713849E+02  0.93678713849E+02  0.00000000000E+00 0. -1.
         25    1    1    2    0    0  0.10468636997E+03  0.12877582807E+02  0.39137706157E+03  0.42417693540E+03  0.12500000000E+03 0.  0.
         25    1    1    2    0    0 -0.11096630720E+03 -0.21847928919E+03  0.50415378738E+03  0.57431939064E+03  0.12500000000E+03 0.  0.
         25    1    1    2    0    0  0.62799372265E+01  0.20560170639E+03  0.30106246854E+03  0.38545441915E+03  0.12500000000E+03 0.  0.
</event>
<event>
 5    0  0.5568866E-005  0.2569178E+03  0.7546771E-02  0.1109009E+00
         21   -1    0    0  502  501  0.00000000000E+00  0.00000000000E+00  0.81241901912E+03  0.81241901912E+03  0.00000000000E+00 0.  1.
         21   -1    0    0  501  502 -0.00000000000E+00 -0.00000000000E+00 -0.81247204171E+02  0.81247204171E+02  0.00000000000E+00 0.  1.
         25    1    1    2    0    0 -0.13623978833E+03  0.25703889043E+02  0.31210248209E+03  0.36366870798E+03  0.12500000000E+03 0.  0.
         25    1    1    2    0    0  0.11521873855E+02  0.34379153631E+02  0.23086447657E+03  0.26502469003E+03  0.12500000000E+03 0.  0.
         25    1    1    2    0    0  0.12471791448E+03 -0.60083042674E+02  0.18820485628E+03  0.26497282528E+03  0.12500000000E+03 0.  0.
</event>
<event>
 5    0  0.5568866E-005  0.3256844E+03  0.7546771E-02  0.1073063E+00
         21   -1    0    0  502  501  0.00000000000E+00  0.00000000000E+00  0.13571461164E+03  0.13571461164E+03  0.00000000000E+00 0. -1.
         21   -1    0    0  501  502 -0.00000000000E+00 -0.00000000000E+00 -0.78156897361E+03  0.78156897361E+03  0.00000000000E+00 0. -1.
         25    1    1    2    0    0 -0.33394855316E+02 -0.65840810016E+02 -0.52672967641E+03  0.54636927131E+03  0.12500000000E+03 0.  0.
         25    1    1    2    0    0 -0.19456619901E+02  0.82394891288E+02 -0.16786357179E+03  0.22576681975E+03  0.12500000000E+03 0.  0.
         25    1    1    2    0    0  0.52851475217E+02 -0.16554081272E+02  0.48738886222E+02  0.14514749419E+03  0.12500000000E+03 0.  0.
</event>
<event>
 5    0  0.5568866E-005  0.4111356E+03  0.7546771E-02  0.1039991E+00
         21   -1    0    0  502  501  0.00000000000E+00  0.00000000000E+00  0.10117304034E+03  0.10117304034E+03  0.00000000000E+00 0. -1.
         21   -1    0    0  501  502 -0.00000000000E+00 -0.00000000000E+00 -0.16707266777E+04  0.16707266777E+04  0.00000000000E+00 0. -1.
         25    1    1    2    0    0 -0.43769002636E+02 -0.16500755936E+03 -0.90980301596E+02  0.23031638135E+03  0.12500000000E+03 0.  0.
         25    1    1    2    0    0  0.63563787760E+02  0.23753324187E+03 -0.76390693062E+03  0.81218298108E+03  0.12500000000E+03 0.  0.
         25    1    1    2    0    0 -0.19794785124E+02 -0.72525682513E+02 -0.71466640519E+03  0.72940035566E+03  0.12500000000E+03 0.  0.
</event>
<event>
 5    0  0.5568866E-005  0.3252253E+03  0.7546771E-02  0.1073269E+00
         21   -1    0    0  502  501  0.00000000000E+00  0.00000000000E+00  0.51612100542E+02  0.51612100542E+02  0.00000000000E+00 0.  1.
         21   -1    0    0  501  502 -0.00000000000E+00 -0.00000000000E+00 -0.20493548529E+04  0.20493548529E+04  0.00000000000E+00 0.  1.
         25    1    1    2    0    0  0.22210058671E+02  0.28480754783E+02 -0.19829626439E+03  0.23717261344E+03  0.12500000000E+03 0.  0.
         25    1    1    2    0    0  0.90042403127E+02 -0.11597265652E+03 -0.33013876730E+03  0.38232695053E+03  0.12500000000E+03 0.  0.
         25    1    1    2    0    0 -0.11225246180E+03  0.87491901737E+02 -0.14693077207E+04  0.14814673895E+04  0.12500000000E+03 0.  0.
</event>
<event>
 5    0  0.5568866E-005  0.2770791E+03  0.7546771E-02  0.1097295E+00
         21   -1    0    0  502  501  0.00000000000E+00  0.00000000000E+00  0.27739769337E+03  0.27739769337E+03  0.00000000000E+00 0.  1.
         21   -1    0    0  501  502 -0.00000000000E+00 -0.00000000000E+00 -0.27676081630E+03  0.27676081630E+03  0.00000000000E+00 0.  1.
         25    1    1    2    0    0  0.43917641142E+01  0.17119666884E+02 -0.35112791542E+02  0.13103541016E+03  0.12500000000E+03 0.  0.
         25    1    1    2    0    0  0.16097526288E+02 -0.17664803286E+03  0.32322350803E+02  0.21939323651E+03  0.12500000000E+03 0.  0.
         25    1    1    2    0    0 -0.20489290402E+02  0.15952836597E+03  0.34273178105E+01  0.20372986300E+03  0.12500000000E+03 0.  0.
</event>
<event>
 5    0  0.5568866E-005  0.4389407E+03  0.7546771E-02  0.1031072E+00
         21   -1    0    0  502  501  0.00000000000E+00  0.00000000000E+00  0.56794884282E+03  0.56794884282E+03  0.00000000000E+00 0. -1.
         21   -1    0    0  501  502 -0.00000000000E+00 -0.00000000000E+00 -0.33923647187E+03  0.33923647187E+03  0.00000000000E+00 0. -1.
         25    1    1    2    0    0 -0.45589746806E+02  0.10297156764E+02  0.16058208106E+03  0.20879669827E+03  0.12500000000E+03 0.  0.
         25    1    1    2    0    0 -0.16546645561E+03 -0.42161872525E+02  0.29479539120E+03  0.36288578657E+03  0.12500000000E+03 0.  0.
         25    1    1    2    0    0  0.21105620241E+03  0.31864715761E+02 -0.22666510131E+03  0.33550282985E+03  0.12500000000E+03 0.  0.
</event>
<event>
 5    0  0.6629045E-005  0.2857939E+03  0.7546771E-02  0.1092566E+00
         21   -1    0    0  502  501  0.00000000000E+00  0.00000000000E+00  0.12042666012E+03  0.12042666012E+03  0.00000000000E+00 0. -1.
         21   -1    0    0  501  502 -0.00000000000E+00 -0.00000000000E+00 -0.67823990497E+03  0.67823990497E+03  0.00000000000E+00 0. -1.
         25    1    1    2    0    0 -0.15405906570E+03 -0.58988813141E+02 -0.86186766157E+02  0.22420310983E+03  0.12500000000E+03 0.  0.
         25    1    1    2    0    0  0.11328827833E+03 -0.16062044767E+02 -0.30801284287E+03  0.35155246360E+03  0.12500000000E+03 0.  0.
         25    1    1    2    0    0  0.40770787365E+02  0.75050857908E+02 -0.16361363583E+03  0.22291099166E+03  0.12500000000E+03 0.  0.
</event>
<event>
 5    0  0.5568866E-005  0.3147465E+03  0.7546771E-02  0.1078093E+00
         21   -1    0    0  502  501  0.00000000000E+00  0.00000000000E+00  0.83106496596E+02  0.83106496596E+02  0.00000000000E+00 0.  1.
         21   -1    0    0  501  502 -0.00000000000E+00 -0.00000000000E+00 -0.11920287270E+04  0.11920287270E+04  0.00000000000E+00 0.  1.
         25    1    1    2    0    0  0.75513316412E+02 -0.30611202685E+02 -0.26014000350E+03  0.29989519520E+03  0.12500000000E+03 0.  0.
         25    1    1    2    0    0 -0.67231656572E+02  0.14588798502E+03 -0.75274503760E+03  0.77977784750E+03  0.12500000000E+03 0.  0.
         25    1    1    2    0    0 -0.82816598405E+01 -0.11527678234E+03 -0.96037189334E+02  0.19546218092E+03  0.12500000000E+03 0.  0.
</event>
<event>
 5    0  0.5568866E-005  0.3597154E+03  0.7546771E-02  0.1058697E+00
         21   -1    0    0  502  501  0.00000000000E+00  0.00000000000E+00  0.25156085368E+04  0.25156085368E+04  0.00000000000E+00 0. -1.
         21   -1    0    0  501  502 -0.00000000000E+00 -0.00000000000E+00 -0.51436915235E+02  0.51436915235E+02  0.00000000000E+00 0. -1.
         25    1    1    2    0    0  0.67835238465E+02 -0.62839700004E+02  0.20341341067E+03  0.25603215250E+03  0.12500000000E+03 0.  0.
         25    1    1    2    0    0  0.61174512238E+01 -0.16507822283E+03  0.10843652357E+04  0.11039751841E+04  0.12500000000E+03 0.  0.
         25    1    1    2    0    0 -0.73952689689E+02  0.22791792283E+03  0.11763929752E+04  0.12070381154E+04  0.12500000000E+03 0.  0.
</event>
<event>
 5    0  0.5568866E-005  0.3483278E+03  0.7546771E-02  0.1063303E+00
         21   -1    0    0  502  501  0.00000000000E+00  0.00000000000E+00  0.44963493809E+03  0.44963493809E+03  0.00000000000E+00 0. -1.
         21   -1    0    0  501  502 -0.00000000000E+00 -0.00000000000E+00 -0.26984617168E+03  0.26984617168E+03  0.00000000000E+00 0. -1.
         25    1    1    2    0    0 -0.13586400251E+03  0.48567370392E+02  0.64311273658E+02  0.20144169520E+03  0.12500000000E+03 0.  0.
         25    1    1    2    0    0 -0.68385058926E+02 -0.18141988794E+03  0.41628208933E+02  0.23440904378E+03  0.12500000000E+03 0.  0.
         25    1    1    2    0    0  0.20424906144E+03  0.13285251755E+03  0.73849283827E+02  0.28363037080E+03  0.12500000000E+03 0.  0.
</event>
<event>
 5    0  0.5694099E-005  0.3391173E+03  0.7546771E-02  0.1067172E+00
         21   -1    0    0  502  501  0.00000000000E+00  0.00000000000E+00  0.34087546693E+03  0.34087546693E+03  0.00000000000E+00 0.  1.
         21   -1    0    0  501  502 -0.00000000000E+00 -0.00000000000E+00 -0.33736822274E+03  0.33736822274E+03  0.00000000000E+00 0.  1.
         25    1    1    2    0    0 -0.48715080361E+02  0.11075779244E+03 -0.21682663354E+03  0.27799143269E+03  0.12500000000E+03 0.  0.
         25    1    1    2    0    0 -0.44304095329E+02  0.98464222106E+01  0.12009003814E+03  0.17918265026E+03  0.12500000000E+03 0.  0.
         25    1    1    2    0    0  0.93019175690E+02 -0.12060421465E+03  0.10024383959E+03  0.22106960671E+03  0.12500000000E+03 0.  0.
</event>
<event>
 5    0  0.5568866E-005  0.3062658E+03  0.7546771E-02  0.1082150E+00
         21   -1    0    0  502  501  0.00000000000E+00  0.00000000000E+00  0.72059147431E+02  0.72059147431E+02  0.00000000000E+00 0.  1.
         21   -1    0    0  501  502 -0.00000000000E+00 -0.00000000000E+00 -0.13016909248E+04  0.13016909248E+04  0.00000000000E+00 0.  1.
         25    1    1    2    0    0  0.14536852966E+03 -0.12004193347E+03 -0.56173967226E+03  0.60557289784E+03  0.12500000000E+03 0.  0.
         25    1    1    2    0    0 -0.27068508109E+02  0.13790244868E+03 -0.22854565613E+03  0.29598632809E+03  0.12500000000E+03 0.  0.
         25    1    1    2    0    0 -0.11830002155E+03 -0.17860515203E+02 -0.43934644903E+03  0.47219084635E+03  0.12500000000E+03 0.  0.
</event>
<event>
 5    0  0.5568866E-005  0.3136583E+03  0.7546771E-02  0.1078606E+00
         21   -1    0    0  502  501  0.00000000000E+00  0.00000000000E+00  0.35043775918E+03  0.35043775918E+03  0.00000000000E+00 0. -1.
         21   -1    0    0  501  502 -0.00000000000E+00 -0.00000000000E+00 -0.28073894224E+03  0.28073894224E+03  0.00000000000E+00 0. -1.
         25    1    1    2    0    0 -0.54855854280E+02 -0.82258945342E+02 -0.12676680954E+03  0.20364312617E+03  0.12500000000E+03 0.  0.
         25    1    1    2    0    0 -0.55767896420E+02  0.30540518044E+02  0.20971122649E+03  0.25228273827E+03  0.12500000000E+03 0.  0.
         25    1    1    2    0    0  0.11062375070E+03  0.51718427298E+02 -0.13245600017E+02  0.17525083698E+03  0.12500000000E+03 0.  0.
</event>
<event>
 5    0  0.5568866E-005  0.2364636E+03  0.7546771E-02  0.1122171E+00
         21   -1    0    0  502  501  0.00000000000E+00  0.00000000000E+00  0.66916827076E+02  0.66916827076E+02  0.00000000000E+00 0.  1.
         21   -1    0    0  501  502 -0.00000000000E+00 -0.00000000000E+00 -0.83558971534E+03  0.83558971534E+03  0.00000000000E+00 0.  1.
         25    1    1    2    0    0  0.29843731385E+02  0.47626008888E+02 -0.39123694751E+03  0.41454822895E+03  0.12500000000E+03 0.  0.
         25    1    1    2    0    0  0.50489951379E+02 -0.10637716646E+02 -0.26658314034E+03  0.29892133902E+03  0.12500000000E+03 0.  0.
         25    1    1    2    0    0 -0.80333682764E+02 -0.36988292242E+02 -0.11085280040E+03  0.18903697444E+03  0.12500000000E+03 0.  0.
</event>
<event>
 5    0  0.5568866E-005  0.1070033E+04  0.7546771E-02  0.9234902E-01
         21   -1    0    0  502  501  0.00000000000E+00  0.00000000000E+00  0.10766760227E+04  0.10766760227E+04  0.00000000000E+00 0. -1.
         21   -1    0    0  501  502 -0.00000000000E+00 -0.00000000000E+00 -0.10634317854E+04  0.10634317854E+04  0.00000000000E+00 0. -1.
         25    1    1    2    0    0 -0.25262617993E+03 -0.14504841338E+03 -0.32639616764E+03  0.45499284308E+03  0.12500000000E+03 0.  0.
         25    1    1    2    0    0  0.69755216111E+03 -0.46078165152E+03  0.36955415697E+03  0.92254757209E+03  0.12500000000E+03 0.  0.
         25    1    1    2    0    0 -0.44492598118E+03  0.60583006490E+03 -0.29913752031E+02  0.76256739297E+03  0.12500000000E+03 0.  0.
</event>
<event>
 5    0  0.5568866E-005  0.3541774E+03  0.7546771E-02  0.1060913E+00
         21   -1    0    0  502  501  0.00000000000E+00  0.00000000000E+00  0.84396481677E+02  0.84396481677E+02  0.00000000000E+00 0. -1.
         21   -1    0    0  501  502 -0.00000000000E+00 -0.00000000000E+00 -0.14863369959E+04  0.14863369959E+04  0.00000000000E+00 0. -1.
         25    1    1    2    0    0 -0.17762067333E+03 -0.13318709755E+02 -0.10465819669E+04  0.10689645949E+04  0.12500000000E+03 0.  0.
         25    1    1    2    0    0  0.95754113675E+01 -0.42244465786E+02 -0.94094880385E+02  0.16234263121E+03  0.12500000000E+03 0.  0.
         25    1    1    2    0    0  0.16804526196E+03  0.55563175541E+02 -0.26126366688E+03  0.33942625146E+03  0.12500000000E+03 0.  0.
</event>
<event>
 5    0  0.5568866E-005  0.3784169E+03  0.7546771E-02  0.1051520E+00
         21   -1    0    0  502  501  0.00000000000E+00  0.00000000000E+00  0.22479536438E+03  0.22479536438E+03  0.00000000000E+00 0.  1.
         21   -1    0    0  501  502 -0.00000000000E+00 -0.00000000000E+00 -0.63702107553E+03  0.63702107553E+03  0.00000000000E+00 0.  1.
         25    1    1    2    0    0 -0.22045810831E+03 -0.10185380158E+03 -0.53982528410E+02  0.27841531529E+03  0.12500000000E+03 0.  0.
         25    1    1    2    0    0  0.26675209568E+03  0.12372706788E+03 -0.20745144193E+03  0.38095428681E+03  0.12500000000E+03 0.  0.
         25    1    1    2    0    0 -0.46293987378E+02 -0.21873266299E+02 -0.15079174080E+03  0.20244683781E+03  0.12500000000E+03 0.  0.
</event>
<event>
 5    0  0.5568866E-005  0.3360048E+03  0.7546771E-02  0.1068510E+00
         21   -1    0    0  502  501  0.00000000000E+00  0.00000000000E+00  0.74020519625E+03  0.74020519625E+03  0.00000000000E+00 0.  1.
         21   -1    0    0  501  502 -0.00000000000E+00 -0.00000000000E+00 -0.15252424020E+03  0.15252424020E+03  0.00000000000E+00 0.  1.
         25    1    1    2    0    0  0.10581901312E+03 -0.11538588372E+03  0.36339022014E+03  0.41495664568E+03  0.12500000000E+03 0.  0.
         25    1    1    2    0    0 -0.20704764929E+03  0.90920355084E+02  0.15163217723E+03  0.29958731151E+03  0.12500000000E+03 0.  0.
         25    1    1    2    0    0  0.10122863617E+03  0.24465528632E+02  0.72658558675E+02  0.17818547926E+03  0.12500000000E+03 0.  0.
</event>
<event>
 5    0  0.5568866E-005  0.2757678E+03  0.7546771E-02  0.1098023E+00
         21   -1    0    0  502  501  0.00000000000E+00  0.00000000000E+00  0.77495516913E+02  0.77495516913E+02  0.00000000000E+00 0.  1.
         21   -1    0    0  501  502 -0.00000000000E+00 -0.00000000000E+00 -0.98132002699E+03  0.98132002699E+03  0.00000000000E+00 0.  1.
         25    1    1    2    0    0  0.10776757914E+03  0.16033525037E+03 -0.33485461263E+03  0.40629281956E+03  0.12500000000E+03 0.  0.
         25    1    1    2    0    0 -0.64985160416E+02 -0.10012094801E+03 -0.33979213203E+03  0.38122299025E+03  0.12500000000E+03 0.  0.
         25    1    1    2    0    0 -0.42782418723E+02 -0.60214302360E+02 -0.22917776542E+03  0.27129973410E+03  0.12500000000E+03 0.  0.
</event>
<event>
 5    0  0.5568866E-005  0.2821879E+03  0.7546771E-02  0.1094500E+00
         21   -1    0    0  502  501  0.00000000000E+00  0.00000000000E+00  0.87576741190E+02  0.87576741190E+02  0.00000000000E+00 0. -1.
         21   -1    0    0  501  502 -0.00000000000E+00 -0.00000000000E+00 -0.90925999809E+03  0.90925999809E+03  0.00000000000E+00 0. -1.
         25    1    1    2    0    0 -0.33757349648E+01  0.13231789814E+02 -0.87605298039E+02  0.15325196277E+03  0.12500000000E+03 0.  0.
         25    1    1    2    0    0 -0.10625409993E+03 -0.13220802315E+03 -0.35180656194E+03  0.41007530060E+03  0.12500000000E+03 0.  0.
         25    1    1    2    0    0  0.10962983490E+03  0.11897623334E+03 -0.38227139692E+03  0.43350947591E+03  0.12500000000E+03 0.  0.
</event>
<event>
 5    0  0.5568866E-005  0.2533127E+03  0.7546771E-02  0.1111229E+00
         21   -1    0    0  502  501  0.00000000000E+00  0.00000000000E+00  0.13218728693E+04  0.13218728693E+04  0.00000000000E+00 0. -1.
         21   -1    0    0  501  502 -0.00000000000E+00 -0.00000000000E+00 -0.48542740337E+02  0.48542740337E+02  0.00000000000E+00 0. -1.
         25    1    1    2    0    0  0.69004219256E+02  0.69699716398E+01  0.78818387440E+03  0.80104243498E+03  0.12500000000E+03 0.  0.
         25    1    1    2    0    0 -0.67947477835E+02 -0.45282245851E+02  0.35395494273E+03  0.38415679483E+03  0.12500000000E+03 0.  0.
         25    1    1    2    0    0 -0.10567414216E+01  0.38312274212E+02  0.13119131187E+03  0.18521637986E+03  0.12500000000E+03 0.  0.
</event>
<event>
 5    0  0.5568866E-005  0.2873433E+03  0.7546771E-02  0.1091744E+00
         21   -1    0    0  502  501  0.00000000000E+00  0.00000000000E+00  0.60036814778E+03  0.60036814778E+03  0.00000000000E+00 0. -1.
         21   -1    0    0  501  502 -0.00000000000E+00 -0.00000000000E+00 -0.13752587004E+03  0.13752587004E+03  0.00000000000E+00 0. -1.
         25    1    1    2    0    0  0.48295734075E+02  0.37187226231E+02  0.17209783734E+03  0.22126462289E+03  0.12500000000E+03 0.  0.
         25    1    1    2    0    0 -0.36109092466E+02 -0.10949978542E+03  0.32581384466E+03  0.36752378282E+03  0.12500000000E+03 0.  0.
         25    1    1    2    0    0 -0.12186641608E+02  0.72312559188E+02 -0.35069404254E+02  0.14910561212E+03  0.12500000000E+03 0.  0.
</event>
<event>
 5    0  0.5568866E-005  0.3127940E+03  0.7546771E-02  0.1079014E+00
         21   -1    0    0  502  501  0.00000000000E+00  0.00000000000E+00  0.84698750986E+02  0.84698750986E+02  0.00000000000E+00 0.  1.
         21   -1    0    0  501  502 -0.00000000000E+00 -0.00000000000E+00 -0.11551537534E+04  0.11551537534E+04  0.00000000000E+00 0.  1.
         25    1    1    2    0    0 -0.15453706444E+03  0.44344429691E+02 -0.32296444181E+03  0.38181037624E+03  0.12500000000E+03 0.  0.
         25    1    1    2    0    0  0.58646053200E+02 -0.12341265501E+03 -0.16019038383E+03  0.24485914736E+03  0.12500000000E+03 0.  0.
         25    1    1    2    0    0  0.95891011239E+02  0.79068225318E+02 -0.58730017674E+03  0.61318298076E+03  0.12500000000E+03 0.  0.
</event>
<event>
 5    0  0.5568866E-005  0.3108309E+03  0.7546771E-02  0.1079948E+00
         21   -1    0    0  502  501  0.00000000000E+00  0.00000000000E+00  0.28308277923E+03  0.28308277923E+03  0.00000000000E+00 0.  1.
         21   -1    0    0  501  502 -0.00000000000E+00 -0.00000000000E+00 -0.34129891838E+03  0.34129891838E+03  0.00000000000E+00 0.  1.
         25    1    1    2    0    0  0.30113435915E+02 -0.12021225666E+03  0.12034018489E+03  0.21322421479E+03  0.12500000000E+03 0.  0.
         25    1    1    2    0    0  0.80024080998E+02  0.12708433732E+03 -0.53073572672E+02  0.20247490325E+03  0.12500000000E+03 0.  0.
         25    1    1    2    0    0 -0.11013751691E+03 -0.68720806566E+01 -0.12548275137E+03  0.20868257957E+03  0.12500000000E+03 0.  0.
</event>
<event>
 5    0  0.5568866E-005  0.3066408E+03  0.7546771E-02  0.1081967E+00
         21   -1    0    0  502  501  0.00000000000E+00  0.00000000000E+00  0.17285052489E+03  0.17285052489E+03  0.00000000000E+00 0.  1.
         21   -1    0    0  501  502 -0.00000000000E+00 -0.00000000000E+00 -0.54398766289E+03  0.54398766289E+03  0.00000000000E+00 0.  1.
         25    1    1    2    0    0 -0.40162272812E+02  0.63458845109E+01 -0.18190008738E+03  0.22442352861E+03  0.12500000000E+03 0.  0.
         25    1    1    2    0    0  0.21405158658E+02 -0.97565702547E+02 -0.27226658232E+03  0.31580268995E+03  0.12500000000E+03 0.  0.
         25    1    1    2    0    0  0.18757114154E+02  0.91219818036E+02  0.83029531703E+02  0.17661196921E+03  0.12500000000E+03 0.  0.
</event>
<event>
 5    0  0.5568866E-005  0.2815539E+03  0.7546771E-02  0.1094843E+00
         21   -1    0    0  502  501  0.00000000000E+00  0.00000000000E+00  0.17116538920E+03  0.17116538920E+03  0.00000000000E+00 0.  1.
         21   -1    0    0  501  502 -0.00000000000E+00 -0.00000000000E+00 -0.46313461816E+03  0.46313461816E+03  0.00000000000E+00 0.  1.
         25    1    1    2    0    0  0.80709674574E+02  0.47107375116E+02 -0.26793861784E+02  0.15835424652E+03  0.12500000000E+03 0.  0.
         25    1    1    2    0    0 -0.17926633841E+03 -0.70502818609E+02 -0.19142447375E+03  0.29895718200E+03  0.12500000000E+03 0.  0.
         25    1    1    2    0    0  0.98556663836E+02  0.23395443493E+02 -0.73750893423E+02  0.17698857885E+03  0.12500000000E+03 0.  0.
</event>
<event>
 5    0  0.5568866E-005  0.2424018E+03  0.7546771E-02  0.1118203E+00
         21   -1    0    0  502  501  0.00000000000E+00  0.00000000000E+00  0.39962520238E+03  0.39962520238E+03  0.00000000000E+00 0. -1.
         21   -1    0    0  501  502 -0.00000000000E+00 -0.00000000000E+00 -0.14703430757E+03  0.14703430757E+03  0.00000000000E+00 0. -1.
         25    1    1    2    0    0 -0.35281529090E+02  0.26828531700E+02  0.57345186715E+02  0.14449230723E+03  0.12500000000E+03 0.  0.
         25    1    1    2    0    0  0.11907388379E+03  0.52727187264E+02  0.11453844768E+03  0.21378213694E+03  0.12500000000E+03 0.  0.
         25    1    1    2    0    0 -0.83792354698E+02 -0.79555718964E+02  0.80707260414E+02  0.18838506578E+03  0.12500000000E+03 0.  0.
</event>
<event>
 5    0  0.5611045E-005  0.2540646E+03  0.7546771E-02  0.1110763E+00
         21   -1    0    0  502  501  0.00000000000E+00  0.00000000000E+00  0.22254297947E+03  0.22254297947E+03  0.00000000000E+00 0. -1.
         21   -1    0    0  501  502 -0.00000000000E+00 -0.00000000000E+00 -0.29005098208E+03  0.29005098208E+03  0.00000000000E+00 0. -1.
         25    1    1    2    0    0 -0.39210539703E+02  0.25205584559E+02  0.38030940864E+01  0.13346254696E+03  0.12500000000E+03 0.  0.
         25    1    1    2    0    0 -0.10660031341E+03  0.32544400480E+02 -0.37862994244E+01  0.16751746442E+03  0.12500000000E+03 0.  0.
         25    1    1    2    0    0  0.14581085312E+03 -0.57749985038E+02 -0.67524797275E+02  0.21161395017E+03  0.12500000000E+03 0.  0.
</event>
<event>
 5    0  0.5568866E-005  0.3078972E+03  0.7546771E-02  0.1081358E+00
         21   -1    0    0  502  501  0.00000000000E+00  0.00000000000E+00  0.96692952500E+02  0.96692952500E+02  0.00000000000E+00 0. -1.
         21   -1    0    0  501  502 -0.00000000000E+00 -0.00000000000E+00 -0.98043024439E+03  0.98043024439E+03  0.00000000000E+00 0. -1.
         25    1    1    2    0    0  0.70215267228E+02 -0.18226416848E+02 -0.27723559032E+03  0.31264510002E+03  0.12500000000E+03 0.  0.
         25    1    1    2    0    0  0.12392877896E+03  0.14991895827E+02 -0.45551569491E+03  0.48857204945E+03  0.12500000000E+03 0.  0.
         25    1    1    2    0    0 -0.19414404619E+03  0.32345210213E+01 -0.15098600665E+03  0.27590604742E+03  0.12500000000E+03 0.  0.
</event>
<event>
 5    0  0.5568866E-005  0.2346700E+03  0.7546771E-02  0.1123395E+00
         21   -1    0    0  502  501  0.00000000000E+00  0.00000000000E+00  0.81292334061E+03  0.81292334061E+03  0.00000000000E+00 0. -1.
         21   -1    0    0  501  502 -0.00000000000E+00 -0.00000000000E+00 -0.67743197262E+02  0.67743197262E+02  0.00000000000E+00 0. -1.
         25    1    1    2    0    0  0.47594455801E+01 -0.37546865361E+02  0.71280314343E+02  0.14878945740E+03  0.12500000000E+03 0.  0.
         25    1    1    2    0    0  0.40952462854E+02 -0.31537165053E+02  0.30388616254E+03  0.33263117229E+03  0.12500000000E+03 0.  0.
         25    1    1    2    0    0 -0.45711908434E+02  0.69084030414E+02  0.37001366647E+03  0.39924590819E+03  0.12500000000E+03 0.  0.
</event>
<event>
 5    0  0.5568866E-005  0.3447661E+03  0.7546771E-02  0.1064784E+00
         21   -1    0    0  502  501  0.00000000000E+00  0.00000000000E+00  0.59962019280E+03  0.59962019280E+03  0.00000000000E+00 0.  1.
         21   -1    0    0  501  502 -0.00000000000E+00 -0.00000000000E+00 -0.19823159146E+03  0.19823159146E+03  0.00000000000E+00 0.  1.
         25    1    1    2    0    0  0.13660638667E+03  0.96569558971E+02  0.25391449833E+03  0.32876215880E+03  0.12500000000E+03 0.  0.
         25    1    1    2    0    0  0.36872609788E+02 -0.65588946402E+02  0.19921326018E+03  0.24692594492E+03  0.12500000000E+03 0.  0.
         25    1    1    2    0    0 -0.17347899646E+03 -0.30980612569E+02 -0.51739157175E+02  0.22216368054E+03  0.12500000000E+03 0.  0.
</event>
<event>
 5    0  0.5568866E-005  0.3683753E+03  0.7546771E-02  0.1055316E+00
         21   -1    0    0  502  501  0.00000000000E+00  0.00000000000E+00  0.17800558873E+04  0.17800558873E+04  0.00000000000E+00 0.  1.
         21   -1    0    0  501  502 -0.00000000000E+00 -0.00000000000E+00 -0.76233748195E+02  0.76233748195E+02  0.00000000000E+00 0.  1.
         25    1    1    2    0    0  0.41192231851E+00 -0.78520476294E+02  0.79714149152E+02  0.16776465794E+03  0.12500000000E+03 0.  0.
         25    1    1    2    0    0 -0.14762057157E+03  0.71769195061E+02  0.40841790605E+03  0.45757276634E+03  0.12500000000E+03 0.  0.
         25    1    1    2    0    0  0.14720864925E+03  0.67512812322E+01  0.12156900839E+04  0.12309522112E+04  0.12500000000E+03 0.  0.
</event>
<event>
 5    0  0.5568866E-005  0.5272255E+03  0.7546771E-02  0.1006907E+00
         21   -1    0    0  502  501  0.00000000000E+00  0.00000000000E+00  0.58503874060E+03  0.58503874060E+03  0.00000000000E+00 0. -1.
         21   -1    0    0  501  502 -0.00000000000E+00 -0.00000000000E+00 -0.47512536873E+03  0.47512536873E+03  0.00000000000E+00 0. -1.
         25    1    1    2    0    0 -0.21260189385E+03  0.41793659427E+03 -0.22867187023E+02  0.48581732199E+03  0.12500000000E+03 0.  0.
         25    1    1    2    0    0  0.77637566770E+02 -0.23489875492E+03  0.14833068134E+03  0.31437558408E+03  0.12500000000E+03 0.  0.
         25    1    1    2    0    0  0.13496432708E+03 -0.18303783935E+03 -0.15550122443E+02  0.25997120326E+03  0.12500000000E+03 0.  0.
</event>
<event>
 5    0  0.5568866E-005  0.7223178E+03  0.7546771E-02  0.9679809E-01
         21   -1    0    0  502  501  0.00000000000E+00  0.00000000000E+00  0.38761043251E+03  0.38761043251E+03  0.00000000000E+00 0.  1.
         21   -1    0    0  501  502 -0.00000000000E+00 -0.00000000000E+00 -0.13460500206E+04  0.13460500206E+04  0.00000000000E+00 0.  1.
         25    1    1    2    0    0 -0.61731637915E+02  0.90118129528E+02 -0.27837413976E+03  0.32411299585E+03  0.12500000000E+03 0.  0.
         25    1    1    2    0    0 -0.39907787810E+03  0.11838929230E+03 -0.76676232164E+03  0.88137882616E+03  0.12500000000E+03 0.  0.
         25    1    1    2    0    0  0.46080951601E+03 -0.20850742183E+03  0.86696873337E+02  0.52816863108E+03  0.12500000000E+03 0.  0.
</event>
<event>
 5    0  0.5568866E-005  0.2680068E+03  0.7546771E-02  0.1102426E+00
         21   -1    0    0  502  501  0.00000000000E+00  0.00000000000E+00  0.26925352984E+03  0.26925352984E+03  0.00000000000E+00 0. -1.
         21   -1    0    0  501  502 -0.00000000000E+00 -0.00000000000E+00 -0.26676586234E+03  0.26676586234E+03  0.00000000000E+00 0. -1.
         25    1    1    2    0    0 -0.84062409840E+02 -0.28256779566E+02 -0.66601400462E+01  0.15340890393E+03  0.12500000000E+03 0.  0.
         25    1    1    2    0    0  0.13458071633E+02 -0.70635138899E+02  0.10985767878E+03  0.18128472667E+03  0.12500000000E+03 0.  0.
         25    1    1    2    0    0  0.70604338207E+02  0.98891918465E+02 -0.10070987123E+03  0.20132576158E+03  0.12500000000E+03 0.  0.
</event>
<event>
 5    0  0.5568866E-005  0.2527047E+03  0.7546771E-02  0.1111607E+00
         21   -1    0    0  502  501  0.00000000000E+00  0.00000000000E+00  0.51168584387E+03  0.51168584387E+03  0.00000000000E+00 0. -1.
         21   -1    0    0  501  502 -0.00000000000E+00 -0.00000000000E+00 -0.12480250566E+03  0.12480250566E+03  0.00000000000E+00 0.  1.
         25    1    1    2    0    0 -0.81669240724E+02  0.74880352795E+02  0.18886071863E+03  0.25213151956E+03  0.12500000000E+03 0.  0.
         25    1    1    2    0    0 -0.21858164064E+02  0.97582256289E+01  0.14677501837E+03  0.19427019411E+03  0.12500000000E+03 0.  0.
         25    1    1    2    0    0  0.10352740479E+03 -0.84638578424E+02  0.51247601219E+02  0.19008663585E+03  0.12500000000E+03 0.  0.
</event>
<event>
 5    0  0.5568866E-005  0.4485679E+03  0.7546771E-02  0.1028150E+00
         21   -1    0    0  502  501  0.00000000000E+00  0.00000000000E+00  0.89408057596E+03  0.89408057596E+03  0.00000000000E+00 0.  1.
         21   -1    0    0  501  502 -0.00000000000E+00 -0.00000000000E+00 -0.22505038437E+03  0.22505038437E+03  0.00000000000E+00 0.  1.
         25    1    1    2    0    0 -0.15211552752E+03 -0.15356925826E+03  0.23340585219E+03  0.34179810215E+03  0.12500000000E+03 0.  0.
         25    1    1    2    0    0  0.28202874859E+03  0.27351706364E+03  0.20309644187E+03  0.45959217121E+03  0.12500000000E+03 0.  0.
         25    1    1    2    0    0 -0.12991322107E+03 -0.11994780538E+03  0.23252789754E+03  0.31774068697E+03  0.12500000000E+03 0.  0.
</event>
<event>
 5    0  0.5568866E-005  0.2696357E+03  0.7546771E-02  0.1101488E+00
         21   -1    0    0  502  501  0.00000000000E+00  0.00000000000E+00  0.40537072908E+03  0.40537072908E+03  0.00000000000E+00 0.  1.
         21   -1    0    0  501  502 -0.00000000000E+00 -0.00000000000E+00 -0.17935040090E+03  0.17935040090E+03  0.00000000000E+00 0.  1.
         25    1    1    2    0    0  0.51055876255E+01  0.22734956946E+02 -0.63707734108E+02  0.14222032442E+03  0.12500000000E+03 0.  0.
         25    1    1    2    0    0  0.79237668082E+02 -0.35717335910E+02  0.52387628316E+02  0.16100869457E+03  0.12500000000E+03 0.  0.
         25    1    1    2    0    0 -0.84343255707E+02  0.12982378963E+02  0.23734043397E+03  0.28149211098E+03  0.12500000000E+03 0.  0.
</event>
<event>
 5    0  0.5568866E-005  0.4558678E+03  0.7546771E-02  0.1025987E+00
         21   -1    0    0  502  501  0.00000000000E+00  0.00000000000E+00  0.15874928246E+03  0.15874928246E+03  0.00000000000E+00 0.  1.
         21   -1    0    0  501  502 -0.00000000000E+00 -0.00000000000E+00 -0.13090796328E+04  0.13090796328E+04  0.00000000000E+00 0.  1.
         25    1    1    2    0    0  0.24708363469E+03  0.10782029579E+03 -0.10119097976E+04  0.10546383158E+04  0.12500000000E+03 0.  0.
         25    1    1    2    0    0 -0.76689853337E+02 -0.10058021938E+03 -0.60416761083E+02  0.18781080681E+03  0.12500000000E+03 0.  0.
         25    1    1    2    0    0 -0.17039378135E+03 -0.72400764035E+01 -0.78003791721E+02  0.22537979269E+03  0.12500000000E+03 0.  0.
</event>
<event>
 5    0  0.5568866E-005  0.2136647E+03  0.7546771E-02  0.1138696E+00
         21   -1    0    0  502  501  0.00000000000E+00  0.00000000000E+00  0.17621726337E+03  0.17621726337E+03  0.00000000000E+00 0.  1.
         21   -1    0    0  501  502 -0.00000000000E+00 -0.00000000000E+00 -0.25907004012E+03  0.25907004012E+03  0.00000000000E+00 0.  1.
         25    1    1    2    0    0 -0.56559468074E+02 -0.20699742962E+02  0.22565007260E+02  0.14057607314E+03  0.12500000000E+03 0.  0.
         25    1    1    2    0    0 -0.61550054060E+01  0.25524352742E+02 -0.84682509122E+02  0.15324980922E+03  0.12500000000E+03 0.  0.
         25    1    1    2    0    0  0.62714473480E+02 -0.48246097798E+01 -0.20735274891E+02  0.14146142113E+03  0.12500000000E+03 0.  0.
</event>
<event>
 5    0  0.5568866E-005  0.3092342E+03  0.7546771E-02  0.1080714E+00
         21   -1    0    0  502  501  0.00000000000E+00  0.00000000000E+00  0.14593107734E+04  0.14593107734E+04  0.00000000000E+00 0.  1.
         21   -1    0    0  501  502 -0.00000000000E+00 -0.00000000000E+00 -0.65528062813E+02  0.65528062813E+02  0.00000000000E+00 0.  1.
         25    1    1    2    0    0 -0.70816249822E+02  0.10089688837E+03  0.10207269824E+04  0.10357140996E+04  0.12500000000E+03 0.  0.
         25    1    1    2    0    0  0.55465815907E+02  0.23604991010E+02  0.15066593707E+03  0.20483866072E+03  0.12500000000E+03 0.  0.
         25    1    1    2    0    0  0.15350433914E+02 -0.12450187938E+03  0.22238979104E+03  0.28428607590E+03  0.12500000000E+03 0.  0.
</event>
<event>
 5    0  0.5568866E-005  0.2796438E+03  0.7546771E-02  0.1095884E+00
         21   -1    0    0  502  501  0.00000000000E+00  0.00000000000E+00  0.30817321388E+03  0.30817321388E+03  0.00000000000E+00 0. -1.
         21   -1    0    0  501  502 -0.00000000000E+00 -0.00000000000E+00 -0.25375546685E+03  0.25375546685E+03  0.00000000000E+00 0. -1.
         25    1    1    2    0    0  0.14054233818E+03 -0.44047186938E+02 -0.48463183055E+02  0.19916320847E+03  0.12500000000E+03 0.  0.
         25    1    1    2    0    0 -0.11684355095E+03  0.30545490921E+02 -0.32137532492E+02  0.17675764031E+03  0.12500000000E+03 0.  0.
         25    1    1    2    0    0 -0.23698787223E+02  0.13501696017E+02  0.13501846258E+03  0.18600783195E+03  0.12500000000E+03 0.  0.
</event>
<event>
 5    0  0.5568866E-005  0.2542601E+03  0.7546771E-02  0.1110642E+00
         21   -1    0    0  502  501  0.00000000000E+00  0.00000000000E+00  0.12892764333E+03  0.12892764333E+03  0.00000000000E+00 0. -1.
         21   -1    0    0  501  502 -0.00000000000E+00 -0.00000000000E+00 -0.50142999598E+03  0.50142999598E+03  0.00000000000E+00 0. -1.
         25    1    1    2    0    0  0.59812195894E+01 -0.10655706861E+03 -0.25604757601E+02  0.16634538608E+03  0.12500000000E+03 0.  0.
         25    1    1    2    0    0 -0.61099285072E+02  0.99987719662E+02 -0.19765872091E+03  0.26158103270E+03  0.12500000000E+03 0.  0.
         25    1    1    2    0    0  0.55118065482E+02  0.65693489438E+01 -0.14923887414E+03  0.20243122053E+03  0.12500000000E+03 0.  0.
</event>
<event>
 5    0  0.5568866E-005  0.3474737E+03  0.7546771E-02  0.1063657E+00
         21   -1    0    0  502  501  0.00000000000E+00  0.00000000000E+00  0.90846294978E+03  0.90846294978E+03  0.00000000000E+00 0.  1.
         21   -1    0    0  501  502 -0.00000000000E+00 -0.00000000000E+00 -0.13290357381E+03  0.13290357381E+03  0.00000000000E+00 0.  1.
         25    1    1    2    0    0 -0.92654558366E+01 -0.66722017445E+02  0.22057383386E+03  0.26232707155E+03  0.12500000000E+03 0.  0.
         25    1    1    2    0    0  0.12220171042E+03  0.89884139186E+02 -0.21037022713E+01  0.19657528346E+03  0.12500000000E+03 0.  0.
         25    1    1    2    0    0 -0.11293625458E+03 -0.23162121741E+02  0.55708924438E+03  0.58246416858E+03  0.12500000000E+03 0.  0.
</event>
<event>
 5    0  0.5568866E-005  0.2656098E+03  0.7546771E-02  0.1103819E+00
         21   -1    0    0  502  501  0.00000000000E+00  0.00000000000E+00  0.17196183668E+03  0.17196183668E+03  0.00000000000E+00 0. -1.
         21   -1    0    0  501  502 -0.00000000000E+00 -0.00000000000E+00 -0.41025704573E+03  0.41025704573E+03  0.00000000000E+00 0. -1.
         25    1    1    2    0    0 -0.12954611016E+03 -0.98093594284E+02 -0.63048740681E+02  0.21448704296E+03  0.12500000000E+03 0.  0.
         25    1    1    2    0    0  0.69203640503E+02  0.19792861554E+02 -0.20670268723E+02  0.14571602944E+03  0.12500000000E+03 0.  0.
         25    1    1    2    0    0  0.60342469660E+02  0.78300732730E+02 -0.15457619965E+03  0.22201581000E+03  0.12500000000E+03 0.  0.
</event>
<event>
 5    0  0.5568866E-005  0.2622778E+03  0.7546771E-02  0.1105782E+00
         21   -1    0    0  502  501  0.00000000000E+00  0.00000000000E+00  0.12760430744E+04  0.12760430744E+04  0.00000000000E+00 0.  1.
         21   -1    0    0  501  502 -0.00000000000E+00 -0.00000000000E+00 -0.53908559140E+02  0.53908559140E+02  0.00000000000E+00 0.  1.
         25    1    1    2    0    0  0.94536338002E+02  0.11526780566E+03  0.46240369184E+03  0.50166319424E+03  0.12500000000E+03 0.  0.
         25    1    1    2    0    0 -0.43331155552E+02 -0.74323009834E+02  0.20009385763E+03  0.25112556758E+03  0.12500000000E+03 0.  0.
         25    1    1    2    0    0 -0.51205182450E+02 -0.40944795830E+02  0.55963696580E+03  0.57716287173E+03  0.12500000000E+03 0.  0.
</event>
<event>
 5    0  0.6176223E-005  0.5615911E+03  0.7546771E-02  0.9988461E-01
         21   -1    0    0  502  501  0.00000000000E+00  0.00000000000E+00  0.77835967406E+03  0.77835967406E+03  0.00000000000E+00 0. -1.
         21   -1    0    0  501  502 -0.00000000000E+00 -0.00000000000E+00 -0.40519127781E+03  0.40519127781E+03  0.00000000000E+00 0. -1.
         25    1    1    2    0    0  0.25303594302E+02  0.11985150910E+03  0.37171302662E+03  0.41085305193E+03  0.12500000000E+03 0.  0.
         25    1    1    2    0    0 -0.30889865106E+03 -0.16513905000E+03  0.17891700311E+03  0.41270519316E+03  0.12500000000E+03 0.  0.
         25    1    1    2    0    0  0.28359505676E+03  0.45287540902E+02 -0.17746163349E+03  0.35999270678E+03  0.12500000000E+03 0.  0.
</event>
<event>
 5    0  0.5568866E-005  0.2415633E+03  0.7546771E-02  0.1118756E+00
         21   -1    0    0  502  501  0.00000000000E+00  0.00000000000E+00  0.92972266580E+03  0.92972266580E+03  0.00000000000E+00 0. -1.
         21   -1    0    0  501  502 -0.00000000000E+00 -0.00000000000E+00 -0.62763676074E+02  0.62763676074E+02  0.00000000000E+00 0. -1.
         25    1    1    2    0    0 -0.51964825477E+02  0.28763854428E+02  0.45959310513E+03  0.47997762937E+03  0.12500000000E+03 0.  0.
         25    1    1    2    0    0  0.15739968524E+02 -0.97290201437E+02  0.16697769218E+03  0.23069390887E+03  0.12500000000E+03 0.  0.
         25    1    1    2    0    0  0.36224856952E+02  0.68526347008E+02  0.24038819241E+03  0.28181480363E+03  0.12500000000E+03 0.  0.
</event>
<event>
 5    0  0.5568866E-005  0.3465581E+03  0.7546771E-02  0.1064037E+00
         21   -1    0    0  502  501  0.00000000000E+00  0.00000000000E+00  0.94789914854E+02  0.94789914854E+02  0.00000000000E+00 0.  1.
         21   -1    0    0  501  502 -0.00000000000E+00 -0.00000000000E+00 -0.12670388696E+04  0.12670388696E+04  0.00000000000E+00 0.  1.
         25    1    1    2    0    0  0.47236720223E+02 -0.28100449117E+02 -0.52194251085E+02  0.14618543985E+03  0.12500000000E+03 0.  0.
         25    1    1    2    0    0  0.13186204247E+03  0.51483524785E+02 -0.22363449350E+03  0.29270384051E+03  0.12500000000E+03 0.  0.
         25    1    1    2    0    0 -0.17909876269E+03 -0.23383075668E+02 -0.89642021021E+03  0.92293950414E+03  0.12500000000E+03 0.  0.
</event>
<event>
 5    0  0.5568866E-005  0.2885127E+03  0.7546771E-02  0.1091128E+00
         21   -1    0    0  502  501  0.00000000000E+00  0.00000000000E+00  0.34953588991E+02  0.34953588991E+02  0.00000000000E+00 0.  1.
         21   -1    0    0  501  502 -0.00000000000E+00 -0.00000000000E+00 -0.23814318871E+04  0.23814318871E+04  0.00000000000E+00 0.  1.
         25    1    1    2    0    0 -0.15008104811E+03 -0.63088430953E+02 -0.10194635889E+04  0.10399209009E+04  0.12500000000E+03 0.  0.
         25    1    1    2    0    0  0.53925534782E+02  0.13176439702E+03 -0.59136943614E+03  0.62097715708E+03  0.12500000000E+03 0.  0.
         25    1    1    2    0    0  0.96155513327E+02 -0.68675966071E+02 -0.73564527304E+03  0.75548741804E+03  0.12500000000E+03 0.  0.
</event>
<event>
 5    0  0.6237993E-005  0.3405089E+03  0.7546771E-02  0.1066579E+00
         21   -1    0    0  502  501  0.00000000000E+00  0.00000000000E+00  0.46242715239E+03  0.46242715239E+03  0.00000000000E+00 0. -1.
         21   -1    0    0  501  502 -0.00000000000E+00 -0.00000000000E+00 -0.25073418252E+03  0.25073418252E+03  0.00000000000E+00 0. -1.
         25    1    1    2    0    0 -0.43931831321E+02 -0.10915473520E+03 -0.83513941817E+02  0.19090400859E+03  0.12500000000E+03 0.  0.
         25    1    1    2    0    0 -0.28560901744E+02 -0.48129755459E+02  0.27562497256E+03  0.30777641880E+03  0.12500000000E+03 0.  0.
         25    1    1    2    0    0  0.72492733065E+02  0.15728449066E+03  0.19581939134E+02  0.21448090752E+03  0.12500000000E+03 0.  0.
</event>
<event>
 5    0  0.5571472E-005  0.3513720E+03  0.7546771E-02  0.1062053E+00
         21   -1    0    0  502  501  0.00000000000E+00  0.00000000000E+00  0.29697737775E+03  0.29697737775E+03  0.00000000000E+00 0. -1.
         21   -1    0    0  501  502 -0.00000000000E+00 -0.00000000000E+00 -0.41572967190E+03  0.41572967190E+03  0.00000000000E+00 0. -1.
         25    1    1    2    0    0 -0.93899245630E+01 -0.93329515576E+02 -0.30054907756E+03  0.33875258993E+03  0.12500000000E+03 0.  0.
         25    1    1    2    0    0 -0.69080142176E+02  0.77173094589E+02  0.36856937408E+02  0.16646677268E+03  0.12500000000E+03 0.  0.
         25    1    1    2    0    0  0.78470066739E+02  0.16156420987E+02  0.14493984601E+03  0.20748768704E+03  0.12500000000E+03 0.  0.
</event>
<event>
 5    0  0.5568866E-005  0.3242635E+03  0.7546771E-02  0.1073704E+00
         21   -1    0    0  502  501  0.00000000000E+00  0.00000000000E+00  0.10624182207E+04  0.10624182207E+04  0.00000000000E+00 0.  1.
         21   -1    0    0  501  502 -0.00000000000E+00 -0.00000000000E+00 -0.98969320090E+02  0.98969320090E+02  0.00000000000E+00 0.  1.
         25    1    1    2    0    0  0.49020337679E+02 -0.16687157293E+03  0.62230145577E+03  0.65812857194E+03  0.12500000000E+03 0.  0.
         25    1    1    2    0    0  0.10265167109E+02  0.48327995554E+02  0.22606505473E+02  0.13629755280E+03  0.12500000000E+03 0.  0.
         25    1    1    2    0    0 -0.59285504788E+02  0.11854357737E+03  0.31854093939E+03  0.36696141606E+03  0.12500000000E+03 0.  0.
</event>
<event>
 5    0  0.7443720E-005  0.4749499E+03  0.7546771E-02  0.1020532E+00
         21   -1    0    0  502  501  0.00000000000E+00  0.00000000000E+00  0.46087256870E+03  0.46087256870E+03  0.00000000000E+00 0. -1.
         21   -1    0    0  501  502 -0.00000000000E+00 -0.00000000000E+00 -0.48945729986E+03  0.48945729986E+03  0.00000000000E+00 0. -1.
         25    1    1    2    0    0  0.26460898576E+02  0.10979368567E+03  0.19862849434E+03  0.26044790522E+03  0.12500000000E+03 0.  0.
         25    1    1    2    0    0  0.43639420204E+02  0.20461347453E+03 -0.24277783887E+03  0.34400167441E+03  0.12500000000E+03 0.  0.
         25    1    1    2    0    0 -0.70100318780E+02 -0.31440716020E+03  0.15564613364E+02  0.34588028892E+03  0.12500000000E+03 0.  0.
</event>
<event>
 5    0  0.5568866E-005  0.5124459E+03  0.7546771E-02  0.1010580E+00
         21   -1    0    0  502  501  0.00000000000E+00  0.00000000000E+00  0.40493052115E+03  0.40493052115E+03  0.00000000000E+00 0. -1.
         21   -1    0    0  501  502 -0.00000000000E+00 -0.00000000000E+00 -0.64850820119E+03  0.64850820119E+03  0.00000000000E+00 0. -1.
         25    1    1    2    0    0  0.35754981294E+02 -0.22005618186E+01 -0.29141876718E+03  0.31911308187E+03  0.12500000000E+03 0.  0.
         25    1    1    2    0    0  0.13163228874E+01  0.40052779048E+01  0.36797792325E+03  0.38865219278E+03  0.12500000000E+03 0.  0.
         25    1    1    2    0    0 -0.37071304181E+02 -0.18047160862E+01 -0.32013683611E+03  0.34567344768E+03  0.12500000000E+03 0.  0.
</event>
<event>
 5    0  0.5677409E-005  0.2827244E+03  0.7546771E-02  0.1094210E+00
         21   -1    0    0  502  501  0.00000000000E+00  0.00000000000E+00  0.13847527937E+03  0.13847527937E+03  0.00000000000E+00 0.  1.
         21   -1    0    0  501  502 -0.00000000000E+00 -0.00000000000E+00 -0.57723722483E+03  0.57723722483E+03  0.00000000000E+00 0.  1.
         25    1    1    2    0    0  0.10513375891E+03  0.59310718717E+02 -0.15398190611E+03  0.23217729438E+03  0.12500000000E+03 0.  0.
         25    1    1    2    0    0  0.88795841499E+02 -0.37356977986E+02 -0.96961917332E+02  0.18522110756E+03  0.12500000000E+03 0.  0.
         25    1    1    2    0    0 -0.19392960041E+03 -0.21953740730E+02 -0.18781812202E+03  0.29831410226E+03  0.12500000000E+03 0.  0.
</event>
<event>
 5    0  0.5568866E-005  0.4311333E+03  0.7546771E-02  0.1033503E+00
         21   -1    0    0  502  501  0.00000000000E+00  0.00000000000E+00  0.52699739690E+03  0.52699739690E+03  0.00000000000E+00 0.  1.
         21   -1    0    0  501  502 -0.00000000000E+00 -0.00000000000E+00 -0.35270741730E+03  0.35270741730E+03  0.00000000000E+00 0.  1.
         25    1    1    2    0    0  0.28684734219E+03 -0.21120247422E+02  0.19347298083E+03  0.36848915436E+03  0.12500000000E+03 0.  0.
         25    1    1    2    0    0 -0.17180439899E+03 -0.15739773601E+03 -0.11361351009E+02  0.26465993106E+03  0.12500000000E+03 0.  0.
         25    1    1    2    0    0 -0.11504294319E+03  0.17851798343E+03 -0.78216502154E+01  0.24655572879E+03  0.12500000000E+03 0.  0.
</event>
<event>
 5    0  0.5568866E-005  0.3164868E+03  0.7546771E-02  0.1077278E+00
         21   -1    0    0  502  501  0.00000000000E+00  0.00000000000E+00  0.12866559774E+04  0.12866559774E+04  0.00000000000E+00 0. -1.
         21   -1    0    0  501  502 -0.00000000000E+00 -0.00000000000E+00 -0.77848211721E+02  0.77848211721E+02  0.00000000000E+00 0. -1.
         25    1    1    2    0    0 -0.86025784870E+02  0.10298602912E+03  0.16008390784E+03  0.24343051453E+03  0.12500000000E+03 0.  0.
         25    1    1    2    0    0 -0.80126129013E+02  0.25108821683E+02  0.44689677618E+03  0.47158496375E+03  0.12500000000E+03 0.  0.
         25    1    1    2    0    0  0.16615191388E+03 -0.12809485080E+03  0.60182708168E+03  0.64948871086E+03  0.12500000000E+03 0.  0.
</event>
<event>
 5    0  0.5568866E-005  0.3164404E+03  0.7546771E-02  0.1077299E+00
         21   -1    0    0  502  501  0.00000000000E+00  0.00000000000E+00  0.15588705477E+03  0.15588705477E+03  0.00000000000E+00 0. -1.
         21   -1    0    0  501  502 -0.00000000000E+00 -0.00000000000E+00 -0.64235313149E+03  0.64235313149E+03  0.00000000000E+00 0. -1.
         25    1    1    2    0    0 -0.13845233091E+03  0.85705483413E+02 -0.25820033546E+03  0.32985889567E+03  0.12500000000E+03 0.  0.
         25    1    1    2    0    0  0.16040986519E+03 -0.10890515944E+03 -0.31127247248E+02  0.23277792877E+03  0.12500000000E+03 0.  0.
         25    1    1    2    0    0 -0.21957534283E+02  0.23199676030E+02 -0.19713849400E+03  0.23560336181E+03  0.12500000000E+03 0.  0.
</event>
<event>
 5    0  0.6321387E-005  0.2870984E+03  0.7546771E-02  0.1091874E+00
         21   -1    0    0  502  501  0.00000000000E+00  0.00000000000E+00  0.13180642871E+03  0.13180642871E+03  0.00000000000E+00 0.  1.
         21   -1    0    0  501  502 -0.00000000000E+00 -0.00000000000E+00 -0.62535267585E+03  0.62535267585E+03  0.00000000000E+00 0.  1.
         25    1    1    2    0    0 -0.13530532013E+02 -0.12095601161E+03 -0.34220959753E+03  0.38411696224E+03  0.12500000000E+03 0.  0.
         25    1    1    2    0    0 -0.23736021339E+02  0.11411501276E+03 -0.17004465365E+03  0.24109296771E+03  0.12500000000E+03 0.  0.
         25    1    1    2    0    0  0.37266553352E+02  0.68409988581E+01  0.18708004045E+02  0.13194917461E+03  0.12500000000E+03 0.  0.
</event>
<event>
 5    0  0.5568866E-005  0.3274137E+03  0.7546771E-02  0.1072287E+00
         21   -1    0    0  502  501  0.00000000000E+00  0.00000000000E+00  0.66651252736E+03  0.66651252736E+03  0.00000000000E+00 0.  1.
         21   -1    0    0  501  502 -0.00000000000E+00 -0.00000000000E+00 -0.16083675260E+03  0.16083675260E+03  0.00000000000E+00 0.  1.
         25    1    1    2    0    0 -0.16396663627E+03 -0.47345636145E+02  0.22240971935E+03  0.30694910056E+03  0.12500000000E+03 0.  0.
         25    1    1    2    0    0  0.18476422086E+03  0.15368145875E+03  0.16748188276E+03  0.31848232153E+03  0.12500000000E+03 0.  0.
         25    1    1    2    0    0 -0.20797584585E+02 -0.10633582261E+03  0.11578417265E+03  0.20191785788E+03  0.12500000000E+03 0.  0.
</event>
<event>
 5    0  0.5568866E-005  0.4204770E+03  0.7546771E-02  0.1036911E+00
         21   -1    0    0  502  501  0.00000000000E+00  0.00000000000E+00  0.13119914509E+04  0.13119914509E+04  0.00000000000E+00 0. -1.
         21   -1    0    0  501  502 -0.00000000000E+00 -0.00000000000E+00 -0.13475765242E+03  0.13475765242E+03  0.00000000000E+00 0. -1.
         25    1    1    2    0    0  0.12984747667E+03  0.40404481994E+02  0.17150974201E+03  0.25205848719E+03  0.12500000000E+03 0.  0.
         25    1    1    2    0    0  0.20974892048E+03 -0.12255459802E+03  0.40224477480E+03  0.48625106477E+03  0.12500000000E+03 0.  0.
         25    1    1    2    0    0 -0.33959639714E+03  0.82150116030E+02  0.60347928170E+03  0.70843955138E+03  0.12500000000E+03 0.  0.
</event>
<event>
 5    0  0.5568866E-005  0.2453253E+03  0.7546771E-02  0.1116295E+00
         21   -1    0    0  502  501  0.00000000000E+00  0.00000000000E+00  0.50539311766E+03  0.50539311766E+03  0.00000000000E+00 0. -1.
         21   -1    0    0  501  502 -0.00000000000E+00 -0.00000000000E+00 -0.11908451216E+03  0.11908451216E+03  0.00000000000E+00 0. -1.
         25    1    1    2    0    0  0.23969387785E+02 -0.42412857117E+02 -0.68648244270E+01  0.13433356920E+03  0.12500000000E+03 0.  0.
         25    1    1    2    0    0  0.49572550380E+02  0.39611922571E+02  0.24826091840E+03  0.28510528891E+03  0.12500000000E+03 0.  0.
         25    1    1    2    0    0 -0.73541938165E+02  0.28009345466E+01  0.14491251153E+03  0.20503877170E+03  0.12500000000E+03 0.  0.
</event>
<event>
 5    0  0.5568866E-005  0.5905687E+03  0.7546771E-02  0.9925169E-01
         21   -1    0    0  502  501  0.00000000000E+00  0.00000000000E+00  0.20698809215E+04  0.20698809215E+04  0.00000000000E+00 0. -1.
         21   -1    0    0  501  502 -0.00000000000E+00 -0.00000000000E+00 -0.16849827894E+03  0.16849827894E+03  0.00000000000E+00 0. -1.
         25    1    1    2    0    0 -0.11804381176E+03 -0.43113505805E+03  0.11055279557E+04  0.11990116099E+04  0.12500000000E+03 0.  0.
         25    1    1    2    0    0  0.54771390038E+02  0.49315789132E+03  0.56472020320E+03  0.76206201772E+03  0.12500000000E+03 0.  0.
         25    1    1    2    0    0  0.63272421722E+02 -0.62022833277E+02  0.23113448368E+03  0.27730557287E+03  0.12500000000E+03 0.  0.
</event>
<event>
 5    0  0.5568866E-005  0.4972561E+03  0.7546771E-02  0.1014498E+00
         21   -1    0    0  502  501  0.00000000000E+00  0.00000000000E+00  0.21220122203E+04  0.21220122203E+04  0.00000000000E+00 0. -1.
         21   -1    0    0  501  502 -0.00000000000E+00 -0.00000000000E+00 -0.11652320752E+03  0.11652320752E+03  0.00000000000E+00 0. -1.
         25    1    1    2    0    0 -0.33826037595E+03 -0.21105736093E+03  0.49026787649E+03  0.64416836484E+03  0.12500000000E+03 0.  0.
         25    1    1    2    0    0  0.26580046076E+03  0.88884246914E+02  0.93476356042E+03  0.98384867138E+03  0.12500000000E+03 0.  0.
         25    1    1    2    0    0  0.72459915195E+02  0.12217311402E+03  0.58045757583E+03  0.61051839157E+03  0.12500000000E+03 0.  0.
</event>
<event>
 5    0  0.5568866E-005  0.2851855E+03  0.7546771E-02  0.1092890E+00
         21   -1    0    0  502  501  0.00000000000E+00  0.00000000000E+00  0.55290680135E+03  0.55290680135E+03  0.00000000000E+00 0.  1.
         21   -1    0    0  501  502 -0.00000000000E+00 -0.00000000000E+00 -0.14709668268E+03  0.14709668268E+03  0.00000000000E+00 0.  1.
         25    1    1    2    0    0 -0.10580007989E+03  0.84850707420E+02  0.30936159986E+03  0.36017065250E+03  0.12500000000E+03 0.  0.
         25    1    1    2    0    0  0.79040476480E+02 -0.55144665978E+02  0.12987588666E+03  0.20440420016E+03  0.12500000000E+03 0.  0.
         25    1    1    2    0    0  0.26759603407E+02 -0.29706041443E+02 -0.33427367847E+02  0.13542863137E+03  0.12500000000E+03 0.  0.
</event>
<event>
 5    0  0.5568866E-005  0.2778065E+03  0.7546771E-02  0.1096893E+00
         21   -1    0    0  502  501  0.00000000000E+00  0.00000000000E+00  0.74177312517E+03  0.74177312517E+03  0.00000000000E+00 0.  1.
         21   -1    0    0  501  502 -0.00000000000E+00 -0.00000000000E+00 -0.10404321089E+03  0.10404321089E+03  0.00000000000E+00 0.  1.
         25    1    1    2    0    0  0.94935611311E+01 -0.15210571027E+03  0.40083737016E+03  0.44667871241E+03  0.12500000000E+03 0.  0.
         25    1    1    2    0    0 -0.49693710955E+02  0.12265120706E+03  0.16908795541E+03  0.24845224927E+03  0.12500000000E+03 0.  0.
         25    1    1    2    0    0  0.40200149824E+02  0.29454503214E+02  0.67804588712E+02  0.15068537439E+03  0.12500000000E+03 0.  0.
</event>
<event>
 5    0  0.5568866E-005  0.3243866E+03  0.7546771E-02  0.1073648E+00
         21   -1    0    0  502  501  0.00000000000E+00  0.00000000000E+00  0.79293270642E+03  0.79293270642E+03  0.00000000000E+00 0.  1.
         21   -1    0    0  501  502 -0.00000000000E+00 -0.00000000000E+00 -0.13270570142E+03  0.13270570142E+03  0.00000000000E+00 0. -1.
         25    1    1    2    0    0 -0.15074108963E+03 -0.92323826049E+01  0.45802755376E+03  0.49821918168E+03  0.12500000000E+03 0.  0.
         25    1    1    2    0    0  0.15850103115E+03 -0.72499830929E+02  0.17180697858E+03  0.27481164504E+03  0.12500000000E+03 0.  0.
         25    1    1    2    0    0 -0.77599415266E+01  0.81732213534E+02  0.30392472661E+02  0.15260758112E+03  0.12500000000E+03 0.  0.
</event>
<event>
 5    0  0.5568866E-005  0.2648417E+03  0.7546771E-02  0.1104269E+00
         21   -1    0    0  502  501  0.00000000000E+00  0.00000000000E+00  0.19077860646E+03  0.19077860646E+03  0.00000000000E+00 0.  1.
         21   -1    0    0  501  502 -0.00000000000E+00 -0.00000000000E+00 -0.36765717687E+03  0.36765717687E+03  0.00000000000E+00 0.  1.
         25    1    1    2    0    0 -0.18496511010E+01  0.23735213347E+02  0.70430102949E+02  0.14543789384E+03  0.12500000000E+03 0.  0.
         25    1    1    2    0    0  0.96100956970E+02 -0.25594287373E+02 -0.64387511000E+02  0.17222431027E+03  0.12500000000E+03 0.  0.
         25    1    1    2    0    0 -0.94251305869E+02  0.18590740254E+01 -0.18292116236E+03  0.24077357922E+03  0.12500000000E+03 0.  0.
</event>
<event>
 5    0  0.5568866E-005  0.4187811E+03  0.7546771E-02  0.1037464E+00
         21   -1    0    0  502  501  0.00000000000E+00  0.00000000000E+00  0.34667565291E+03  0.34667565291E+03  0.00000000000E+00 0.  1.
         21   -1    0    0  501  502 -0.00000000000E+00 -0.00000000000E+00 -0.50588384552E+03  0.50588384552E+03  0.00000000000E+00 0.  1.
         25    1    1    2    0    0  0.97818417007E+02 -0.18308430657E+03  0.12168578512E+03  0.27114707507E+03  0.12500000000E+03 0.  0.
         25    1    1    2    0    0 -0.11010982215E+03 -0.23364906709E+02  0.46473622959E+02  0.17451329299E+03  0.12500000000E+03 0.  0.
         25    1    1    2    0    0  0.12291405144E+02  0.20644921328E+03 -0.32736760070E+03  0.40689913037E+03  0.12500000000E+03 0.  0.
</event>
<event>
 5    0  0.5568866E-005  0.2391863E+03  0.7546771E-02  0.1120336E+00
         21   -1    0    0  502  501  0.00000000000E+00  0.00000000000E+00  0.61767667833E+03  0.61767667833E+03  0.00000000000E+00 0.  1.
         21   -1    0    0  501  502 -0.00000000000E+00 -0.00000000000E+00 -0.92621411668E+02  0.92621411668E+02  0.00000000000E+00 0.  1.
         25    1    1    2    0    0  0.23350676162E+02  0.40224580237E+01  0.83488254400E+02  0.15217333166E+03  0.12500000000E+03 0.  0.
         25    1    1    2    0    0 -0.62286798054E+02  0.33920870795E+02  0.65168751490E+02  0.15780442598E+03  0.12500000000E+03 0.  0.
         25    1    1    2    0    0  0.38936121892E+02 -0.37943328818E+02  0.37639826077E+03  0.40032033236E+03  0.12500000000E+03 0.  0.
</event>
<event>
 5    0  0.5568866E-005  0.2442971E+03  0.7546771E-02  0.1116963E+00
         21   -1    0    0  502  501  0.00000000000E+00  0.00000000000E+00  0.65277848002E+03  0.65277848002E+03  0.00000000000E+00 0. -1.
         21   -1    0    0  501  502 -0.00000000000E+00 -0.00000000000E+00 -0.91426208981E+02  0.91426208981E+02  0.00000000000E+00 0. -1.
         25    1    1    2    0    0 -0.35160590718E+02  0.64966365169E+02  0.15914899318E+03  0.21543049406E+03  0.12500000000E+03 0.  0.
         25    1    1    2    0    0  0.70285039287E+02 -0.13179034077E+03  0.26083018936E+03  0.32552429764E+03  0.12500000000E+03 0.  0.
         25    1    1    2    0    0 -0.35124448570E+02  0.66823975600E+02  0.14137308850E+03  0.20324989730E+03  0.12500000000E+03 0.  0.
</event>
<event>
 5    0  0.5568866E-005  0.3065141E+03  0.7546771E-02  0.1082029E+00
         21   -1    0    0  502  501  0.00000000000E+00  0.00000000000E+00  0.72595975864E+02  0.72595975864E+02  0.00000000000E+00 0.  1.
         21   -1    0    0  501  502 -0.00000000000E+00 -0.00000000000E+00 -0.12941608756E+04  0.12941608756E+04  0.00000000000E+00 0.  1.
         25    1    1    2    0    0  0.17326327126E+03  0.32831730300E+02 -0.40714841724E+03  0.46096954058E+03  0.12500000000E+03 0.  0.
         25    1    1    2    0    0 -0.20891731728E+03  0.40502859841E+02 -0.52717292232E+03  0.58208523185E+03  0.12500000000E+03 0.  0.
         25    1    1    2    0    0  0.35654046026E+02 -0.73334590141E+02 -0.28724356022E+03  0.32370207907E+03  0.12500000000E+03 0.  0.
</event>
<event>
 5    0  0.5568866E-005  0.3040764E+03  0.7546771E-02  0.1083220E+00
         21   -1    0    0  502  501  0.00000000000E+00  0.00000000000E+00  0.43844224214E+03  0.43844224214E+03  0.00000000000E+00 0.  1.
         21   -1    0    0  501  502 -0.00000000000E+00 -0.00000000000E+00 -0.21088861865E+03  0.21088861865E+03  0.00000000000E+00 0.  1.
         25    1    1    2    0    0  0.10429016337E+03  0.13844608997E+03  0.15547811376E+03  0.26427675241E+03  0.12500000000E+03 0.  0.
         25    1    1    2    0    0  0.28727263566E+02 -0.10672788728E+03  0.10462778851E+03  0.19694687538E+03  0.12500000000E+03 0.  0.
         25    1    1    2    0    0 -0.13301742694E+03 -0.31718202700E+02 -0.32552278775E+02  0.18810723299E+03  0.12500000000E+03 0.  0.
</event>
<event>
 5    0  0.5568866E-005  0.3366060E+03  0.7546771E-02  0.1068251E+00
         21   -1    0    0  502  501  0.00000000000E+00  0.00000000000E+00  0.35955168954E+02  0.35955168954E+02  0.00000000000E+00 0. -1.
         21   -1    0    0  501  502 -0.00000000000E+00 -0.00000000000E+00 -0.31512471168E+04  0.31512471168E+04  0.00000000000E+00 0. -1.
         25    1    1    2    0    0 -0.23095491166E+03  0.12769648915E+03 -0.12109499091E+04  0.12456609679E+04  0.12500000000E+03 0.  0.
         25    1    1    2    0    0  0.12518425043E+03 -0.12088872925E+03 -0.10585673037E+04  0.10800346836E+04  0.12500000000E+03 0.  0.
         25    1    1    2    0    0  0.10577066122E+03 -0.68077599017E+01 -0.84577473513E+03  0.86150663431E+03  0.12500000000E+03 0.  0.
</event>
<event>
 5    0  0.5568866E-005  0.4903962E+03  0.7546771E-02  0.1016316E+00
         21   -1    0    0  502  501  0.00000000000E+00  0.00000000000E+00  0.25079779060E+03  0.25079779060E+03  0.00000000000E+00 0. -1.
         21   -1    0    0  501  502 -0.00000000000E+00 -0.00000000000E+00 -0.95889375485E+03  0.95889375485E+03  0.00000000000E+00 0. -1.
         25    1    1    2    0    0 -0.10912360585E+03  0.27452925738E+03 -0.52539760009E+03  0.61558257991E+03  0.12500000000E+03 0.  0.
         25    1    1    2    0    0  0.24968356278E+03 -0.80419096403E+02 -0.57438390049E+02  0.29619804395E+03  0.12500000000E+03 0.  0.
         25    1    1    2    0    0 -0.14055995693E+03 -0.19411016097E+03 -0.12525997411E+03  0.29791092158E+03  0.12500000000E+03 0.  0.
</event>
<event>
 5    0  0.5568866E-005  0.2559887E+03  0.7546771E-02  0.1109578E+00
         21   -1    0    0  502  501  0.00000000000E+00  0.00000000000E+00  0.10102535785E+03  0.10102535785E+03  0.00000000000E+00 0. -1.
         21   -1    0    0  501  502 -0.00000000000E+00 -0.00000000000E+00 -0.64865108118E+03  0.64865108118E+03  0.00000000000E+00 0. -1.
         25    1    1    2    0    0 -0.44586469529E+02 -0.30861218637E+01 -0.69855165532E+02  0.15000740503E+03  0.12500000000E+03 0.  0.
         25    1    1    2    0    0  0.14780704930E+03 -0.30502712616E+02 -0.27978967692E+03  0.34159128006E+03  0.12500000000E+03 0.  0.
         25    1    1    2    0    0 -0.10322057977E+03  0.33588834480E+02 -0.19798088087E+03  0.25807775395E+03  0.12500000000E+03 0.  0.
</event>
<event>
 5    0  0.5568866E-005  0.3669862E+03  0.7546771E-02  0.1055851E+00
         21   -1    0    0  502  501  0.00000000000E+00  0.00000000000E+00  0.28579260552E+03  0.28579260552E+03  0.00000000000E+00 0. -1.
         21   -1    0    0  501  502 -0.00000000000E+00 -0.00000000000E+00 -0.47124678964E+03  0.47124678964E+03  0.00000000000E+00 0. -1.
         25    1    1    2    0    0  0.97268336134E+02 -0.80657374936E+02  0.16876514693E+03  0.24509878858E+03  0.12500000000E+03 0.  0.
         25    1    1    2    0    0 -0.28272023947E+02  0.80366663899E+02 -0.25304797663E+02  0.15337353354E+03  0.12500000000E+03 0.  0.
         25    1    1    2    0    0 -0.68996312188E+02  0.29071103761E+00 -0.32891453338E+03  0.35856707305E+03  0.12500000000E+03 0.  0.
</event>
<event>
 5    0  0.5568866E-005  0.4868883E+03  0.7546771E-02  0.1017259E+00
         21   -1    0    0  502  501  0.00000000000E+00  0.00000000000E+00  0.62726301692E+03  0.62726301692E+03  0.00000000000E+00 0. -1.
         21   -1    0    0  501  502 -0.00000000000E+00 -0.00000000000E+00 -0.37792793759E+03  0.37792793759E+03  0.00000000000E+00 0. -1.
         25    1    1    2    0    0 -0.23889987735E+03  0.60730924502E+02 -0.17920010072E+03  0.32939197423E+03  0.12500000000E+03 0.  0.
         25    1    1    2    0    0 -0.75263512423E+02  0.60822610206E+01  0.24525511640E+03  0.28544117138E+03  0.12500000000E+03 0.  0.
         25    1    1    2    0    0  0.31416338977E+03 -0.66813185523E+02  0.18328006366E+03  0.39035780890E+03  0.12500000000E+03 0.  0.
</event>
<event>
 5    0  0.5568866E-005  0.2657528E+03  0.7546771E-02  0.1103735E+00
         21   -1    0    0  502  501  0.00000000000E+00  0.00000000000E+00  0.23697591069E+04  0.23697591069E+04  0.00000000000E+00 0.  1.
         21   -1    0    0  501  502 -0.00000000000E+00 -0.00000000000E+00 -0.29802416501E+02  0.29802416501E+02  0.00000000000E+00 0.  1.
         25    1    1    2    0    0 -0.37080896338E+02 -0.10172804308E+03  0.74897028441E+03  0.76701047878E+03  0.12500000000E+03 0.  0.
         25    1    1    2    0    0  0.77328854372E+02  0.16407327826E+03  0.99493284586E+03  0.10190270655E+04  0.12500000000E+03 0.  0.
         25    1    1    2    0    0 -0.40247958034E+02 -0.62345235179E+02  0.59605356010E+03  0.61352397914E+03  0.12500000000E+03 0.  0.
</event>
<event>
 5    0  0.5568866E-005  0.2202575E+03  0.7546771E-02  0.1133691E+00
         21   -1    0    0  502  501  0.00000000000E+00  0.00000000000E+00  0.30254522839E+03  0.30254522839E+03  0.00000000000E+00 0.  1.
         21   -1    0    0  501  502 -0.00000000000E+00 -0.00000000000E+00 -0.16035073888E+03  0.16035073888E+03  0.00000000000E+00 0.  1.
         25    1    1    2    0    0 -0.29178703440E+02 -0.93236402357E+01 -0.23735197045E+02  0.13086896722E+03  0.12500000000E+03 0.  0.
         25    1    1    2    0    0 -0.49733443049E+02  0.30210746429E+02  0.88622480841E+02  0.16390560902E+03  0.12500000000E+03 0.  0.
         25    1    1    2    0    0  0.78912146489E+02 -0.20887106193E+02  0.77307205717E+02  0.16812139104E+03  0.12500000000E+03 0.  0.
</event>
<event>
 5    0  0.5568866E-005  0.2565067E+03  0.7546771E-02  0.1109260E+00
         21   -1    0    0  502  501  0.00000000000E+00  0.00000000000E+00  0.39708602896E+03  0.39708602896E+03  0.00000000000E+00 0.  1.
         21   -1    0    0  501  502 -0.00000000000E+00 -0.00000000000E+00 -0.16569626516E+03  0.16569626516E+03  0.00000000000E+00 0.  1.
         25    1    1    2    0    0 -0.93121497032E+02 -0.24077607753E+02  0.73542351937E+00  0.15772407949E+03  0.12500000000E+03 0.  0.
         25    1    1    2    0    0 -0.56206841411E+02  0.85126358291E+01  0.10358011372E+03  0.17200440095E+03  0.12500000000E+03 0.  0.
         25    1    1    2    0    0  0.14932833844E+03  0.15564971924E+02  0.12707422656E+03  0.23305381368E+03  0.12500000000E+03 0.  0.
</event>
<event>
 5    0  0.5568866E-005  0.3417213E+03  0.7546771E-02  0.1066065E+00
         21   -1    0    0  502  501  0.00000000000E+00  0.00000000000E+00  0.11600893707E+04  0.11600893707E+04  0.00000000000E+00 0.  1.
         21   -1    0    0  501  502 -0.00000000000E+00 -0.00000000000E+00 -0.10065899373E+03  0.10065899373E+03  0.00000000000E+00 0.  1.
         25    1    1    2    0    0 -0.13279184841E+02  0.14068468898E+03  0.47898892440E+03  0.51480472818E+03  0.12500000000E+03 0.  0.
         25    1    1    2    0    0  0.99849914514E+02  0.59870002700E+02  0.86256922506E+02  0.19136269054E+03  0.12500000000E+03 0.  0.
         25    1    1    2    0    0 -0.86570729673E+02 -0.20055469168E+03  0.49418453007E+03  0.55458094571E+03  0.12500000000E+03 0.  0.
</event>
<event>
 5    0  0.5568866E-005  0.4684604E+03  0.7546771E-02  0.1022356E+00
         21   -1    0    0  502  501  0.00000000000E+00  0.00000000000E+00  0.58022025295E+03  0.58022025295E+03  0.00000000000E+00 0.  1.
         21   -1    0    0  501  502 -0.00000000000E+00 -0.00000000000E+00 -0.37822738959E+03  0.37822738959E+03  0.00000000000E+00 0.  1.
         25    1    1    2    0    0  0.90297449489E+02  0.15859089378E+03  0.25409275440E+03  0.33688696741E+03  0.12500000000E+03 0.  0.
         25    1    1    2    0    0 -0.22943545246E+03 -0.21137915848E+03 -0.18736388477E+03  0.38477526012E+03  0.12500000000E+03 0.  0.
         25    1    1    2    0    0  0.13913800297E+03  0.52788264705E+02  0.13526399373E+03  0.23678541500E+03  0.12500000000E+03 0.  0.
</event>
<event>
 5    0  0.5568866E-005  0.2714069E+03  0.7546771E-02  0.1100477E+00
         21   -1    0    0  502  501  0.00000000000E+00  0.00000000000E+00  0.65231071584E+03  0.65231071584E+03  0.00000000000E+00 0. -1.
         21   -1    0    0  501  502 -0.00000000000E+00 -0.00000000000E+00 -0.11292429802E+03  0.11292429802E+03  0.00000000000E+00 0. -1.
         25    1    1    2    0    0  0.59306249646E+02 -0.14555921613E+03  0.11852376560E+03  0.23319005052E+03  0.12500000000E+03 0.  0.
         25    1    1    2    0    0 -0.34543502622E+02 -0.30584797825E+01  0.16904773235E+03  0.21308388884E+03  0.12500000000E+03 0.  0.
         25    1    1    2    0    0 -0.24762747025E+02  0.14861769592E+03  0.25181491986E+03  0.31896107450E+03  0.12500000000E+03 0.  0.
</event>
<event>
 5    0  0.5568866E-005  0.5021092E+03  0.7546771E-02  0.1013230E+00
         21   -1    0    0  502  501  0.00000000000E+00  0.00000000000E+00  0.12000904351E+04  0.12000904351E+04  0.00000000000E+00 0.  1.
         21   -1    0    0  501  502 -0.00000000000E+00 -0.00000000000E+00 -0.21007887968E+03  0.21007887968E+03  0.00000000000E+00 0.  1.
         25    1    1    2    0    0  0.84177479203E+02  0.12667873430E+03  0.39709905438E+03  0.44322230169E+03  0.12500000000E+03 0.  0.
         25    1    1    2    0    0  0.18156275569E+02  0.30965405676E+02 -0.14529743414E+03  0.19499961810E+03  0.12500000000E+03 0.  0.
         25    1    1    2    0    0 -0.10233375477E+03 -0.15764413997E+03  0.73820993516E+03  0.77194739497E+03  0.12500000000E+03 0.  0.
</event>
<event>
 5    0  0.5568866E-005  0.3074533E+03  0.7546771E-02  0.1081573E+00
         21   -1    0    0  502  501  0.00000000000E+00  0.00000000000E+00  0.46425612354E+03  0.46425612354E+03  0.00000000000E+00 0. -1.
         21   -1    0    0  501  502 -0.00000000000E+00 -0.00000000000E+00 -0.20361068769E+03  0.20361068769E+03  0.00000000000E+00 0. -1.
         25    1    1    2    0    0 -0.87100538643E+02  0.26125774569E+02 -0.54131686961E+02  0.16378125492E+03  0.12500000000E+03 0.  0.
         25    1    1    2    0    0 -0.45627694282E+02 -0.12812217517E+03  0.15300485009E+03  0.23985967232E+03  0.12500000000E+03 0.  0.
         25    1    1    2    0    0  0.13272823293E+03  0.10199640060E+03  0.16177227271E+03  0.26422588399E+03  0.12500000000E+03 0.  0.
</event>
<event>
 5    0  0.5568866E-005  0.4678370E+03  0.7546771E-02  0.1022532E+00
         21   -1    0    0  502  501  0.00000000000E+00  0.00000000000E+00  0.18501077679E+04  0.18501077679E+04  0.00000000000E+00 0. -1.
         21   -1    0    0  501  502 -0.00000000000E+00 -0.00000000000E+00 -0.11830199752E+03  0.11830199752E+03  0.00000000000E+00 0. -1.
         25    1    1    2    0    0  0.35068561977E+02  0.65300691462E+02 -0.16368039497E+02  0.14624259660E+03  0.12500000000E+03 0.  0.
         25    1    1    2    0    0  0.19694136777E+03  0.26830517417E+02  0.80297823346E+03  0.83660314511E+03  0.12500000000E+03 0.  0.
         25    1    1    2    0    0 -0.23200992975E+03 -0.92131208879E+02  0.94519557639E+03  0.98556402368E+03  0.12500000000E+03 0.  0.
</event>
<event>
 5    0  0.5568866E-005  0.1393313E+04  0.7546771E-02  0.8958673E-01
         21   -1    0    0  502  501  0.00000000000E+00  0.00000000000E+00  0.11662342916E+04  0.11662342916E+04  0.00000000000E+00 0.  1.
         21   -1    0    0  501  502 -0.00000000000E+00 -0.00000000000E+00 -0.16646074493E+04  0.16646074493E+04  0.00000000000E+00 0.  1.
         25    1    1    2    0    0  0.57568246109E+03 -0.54520628093E+03  0.26122316549E+03  0.84411061299E+03  0.12500000000E+03 0.  0.
         25    1    1    2    0    0 -0.30234086544E+03  0.94526441665E+03 -0.10148937229E+04  0.14249803806E+04  0.12500000000E+03 0.  0.
         25    1    1    2    0    0 -0.27334159564E+03 -0.40005813571E+03  0.25529739963E+03  0.56175074732E+03  0.12500000000E+03 0.  0.
</event>
<event>
 5    0  0.5568866E-005  0.3827612E+03  0.7546771E-02  0.1049918E+00
         21   -1    0    0  502  501  0.00000000000E+00  0.00000000000E+00  0.16528219459E+03  0.16528219459E+03  0.00000000000E+00 0. -1.
         21   -1    0    0  501  502 -0.00000000000E+00 -0.00000000000E+00 -0.88640008418E+03  0.88640008418E+03  0.00000000000E+00 0. -1.
         25    1    1    2    0    0  0.77947322528E+02  0.13513682203E+03 -0.48140331975E+02  0.20562158768E+03  0.12500000000E+03 0.  0.
         25    1    1    2    0    0 -0.44714077221E+02 -0.12337829833E+03 -0.69151352172E+03  0.71486887183E+03  0.12500000000E+03 0.  0.
         25    1    1    2    0    0 -0.33233245308E+02 -0.11758523709E+02  0.18535964106E+02  0.13119181925E+03  0.12500000000E+03 0.  0.
</event>
<event>
 5    0  0.5568866E-005  0.2475782E+03  0.7546771E-02  0.1114845E+00
         21   -1    0    0  502  501  0.00000000000E+00  0.00000000000E+00  0.28913396303E+03  0.28913396303E+03  0.00000000000E+00 0.  1.
         21   -1    0    0  501  502 -0.00000000000E+00 -0.00000000000E+00 -0.21199510843E+03  0.21199510843E+03  0.00000000000E+00 0.  1.
         25    1    1    2    0    0 -0.47262447450E+02  0.28225553125E+02  0.15734153168E+03  0.20835493366E+03  0.12500000000E+03 0.  0.
         25    1    1    2    0    0 -0.16408501814E+02  0.28609100453E+02 -0.48876329452E+02  0.13820859286E+03  0.12500000000E+03 0.  0.
         25    1    1    2    0    0  0.63670949263E+02 -0.56834653578E+02 -0.31326347628E+02  0.15456554494E+03  0.12500000000E+03 0.  0.
</event>
<event>
 5    0  0.5568866E-005  0.2098288E+03  0.7546771E-02  0.1141702E+00
         21   -1    0    0  502  501  0.00000000000E+00  0.00000000000E+00  0.59046219017E+03  0.59046219017E+03  0.00000000000E+00 0.  1.
         21   -1    0    0  501  502 -0.00000000000E+00 -0.00000000000E+00 -0.74565494141E+02  0.74565494141E+02  0.00000000000E+00 0.  1.
         25    1    1    2    0    0  0.10002209905E+02  0.28417392750E+02  0.10940361901E+03  0.16882459615E+03  0.12500000000E+03 0.  0.
         25    1    1    2    0    0  0.16168001595E+02 -0.30688479932E+02  0.31023144967E+03  0.33626141533E+03  0.12500000000E+03 0.  0.
         25    1    1    2    0    0 -0.26170211500E+02  0.22710871819E+01  0.96261627351E+02  0.15994167283E+03  0.12500000000E+03 0.  0.
</event>
<event>
 5    0  0.5568866E-005  0.4039445E+03  0.7546771E-02  0.1042422E+00
         21   -1    0    0  502  501  0.00000000000E+00  0.00000000000E+00  0.36351246363E+03  0.36351246363E+03  0.00000000000E+00 0. -1.
         21   -1    0    0  501  502 -0.00000000000E+00 -0.00000000000E+00 -0.44887365174E+03  0.44887365174E+03  0.00000000000E+00 0. -1.
         25    1    1    2    0    0  0.15940245133E+03  0.18098524768E+03  0.17506432346E+03  0.32316763253E+03  0.12500000000E+03 0.  0.
         25    1    1    2    0    0  0.81733635369E+01 -0.10497268395E+03 -0.20081939347E+03  0.25891986606E+03  0.12500000000E+03 0.  0.
         25    1    1    2    0    0 -0.16757581487E+03 -0.76012563730E+02 -0.59606118104E+02  0.23029861678E+03  0.12500000000E+03 0.  0.
</event>
<event>
 5    0  0.5568866E-005  0.3197682E+03  0.7546771E-02  0.1075756E+00
         21   -1    0    0  502  501  0.00000000000E+00  0.00000000000E+00  0.99860990482E+02  0.99860990482E+02  0.00000000000E+00 0. -1.
         21   -1    0    0  501  502 -0.00000000000E+00 -0.00000000000E+00 -0.10239403669E+04  0.10239403669E+04  0.00000000000E+00 0. -1.
         25    1    1    2    0    0  0.33583239809E+02 -0.35878670892E+02 -0.12406945098E+03  0.18284786487E+03  0.12500000000E+03 0.  0.
         25    1    1    2    0    0 -0.10800799912E+03  0.13336861061E+03 -0.71582089258E+03  0.74664413506E+03  0.12500000000E+03 0.  0.
         25    1    1    2    0    0  0.74424759306E+02 -0.97489939718E+02 -0.84189032882E+02  0.19430935747E+03  0.12500000000E+03 0.  0.
</event>
<event>
 5    0  0.5568866E-005  0.2884743E+03  0.7546771E-02  0.1091148E+00
         21   -1    0    0  502  501  0.00000000000E+00  0.00000000000E+00  0.86139775208E+03  0.86139775208E+03  0.00000000000E+00 0. -1.
         21   -1    0    0  501  502 -0.00000000000E+00 -0.00000000000E+00 -0.96607402018E+02  0.96607402018E+02  0.00000000000E+00 0. -1.
         25    1    1    2    0    0  0.45925733590E+01  0.50069474899E+01  0.54827216501E+03  0.56238201267E+03  0.12500000000E+03 0.  0.
         25    1    1    2    0    0 -0.33188590636E+02  0.31904963357E+02 -0.90794590961E+01  0.13351721167E+03  0.12500000000E+03 0.  0.
         25    1    1    2    0    0  0.28596017277E+02 -0.36911910847E+02  0.22559764415E+03  0.26210592976E+03  0.12500000000E+03 0.  0.
</event>
<event>
 5    0  0.5568866E-005  0.4004187E+03  0.7546771E-02  0.1043635E+00
         21   -1    0    0  502  501  0.00000000000E+00  0.00000000000E+00  0.76146670487E+03  0.76146670487E+03  0.00000000000E+00 0. -1.
         21   -1    0    0  501  502 -0.00000000000E+00 -0.00000000000E+00 -0.21056087871E+03  0.21056087871E+03  0.00000000000E+00 0. -1.
         25    1    1    2    0    0  0.55970471493E+01  0.41280152017E+02  0.59103624858E+02  0.14440781267E+03  0.12500000000E+03 0.  0.
         25    1    1    2    0    0  0.15116918271E+03 -0.28430989074E+03  0.20559149073E+03  0.40196653696E+03  0.12500000000E+03 0.  0.
         25    1    1    2    0    0 -0.15676622986E+03  0.24302973872E+03  0.28621071058E+03  0.42565323395E+03  0.12500000000E+03 0.  0.
</event>
<event>
 5    0  0.5568866E-005  0.3515471E+03  0.7546771E-02  0.1061982E+00
         21   -1    0    0  502  501  0.00000000000E+00  0.00000000000E+00  0.86718842963E+02  0.86718842963E+02  0.00000000000E+00 0.  1.
         21   -1    0    0  501  502 -0.00000000000E+00 -0.00000000000E+00 -0.14251271358E+04  0.14251271358E+04  0.00000000000E+00 0.  1.
         25    1    1    2    0    0 -0.14350511802E+03 -0.12386381255E+03 -0.63798317368E+03  0.67718793024E+03  0.12500000000E+03 0.  0.
         25    1    1    2    0    0 -0.87148106629E+02  0.57840141446E+02 -0.39121954873E+03  0.42381364980E+03  0.12500000000E+03 0.  0.
         25    1    1    2    0    0  0.23065322465E+03  0.66023671106E+02 -0.30920557047E+03  0.41084439876E+03  0.12500000000E+03 0.  0.
</event>
<event>
 5    0  0.5568866E-005  0.2508309E+03  0.7546771E-02  0.1112781E+00
         21   -1    0    0  502  501  0.00000000000E+00  0.00000000000E+00  0.37425446800E+04  0.37425446800E+04  0.00000000000E+00 0. -1.
         21   -1    0    0  501  502 -0.00000000000E+00 -0.00000000000E+00 -0.16811053844E+02  0.16811053844E+02  0.00000000000E+00 0. -1.
         25    1    1    2    0    0 -0.13487800143E+03  0.33186531255E+02  0.12000406871E+04  0.12145023968E+04  0.12500000000E+03 0.  0.
         25    1    1    2    0    0  0.71779504153E+02  0.45367526953E+02  0.12416443450E+04  0.12508062156E+04  0.12500000000E+03 0.  0.
         25    1    1    2    0    0  0.63098497276E+02 -0.78554058208E+02  0.12840485941E+04  0.12940471214E+04  0.12500000000E+03 0.  0.
</event>
<event>
 5    0  0.5568866E-005  0.5921674E+03  0.7546771E-02  0.9921791E-01
         21   -1    0    0  502  501  0.00000000000E+00  0.00000000000E+00  0.11896395202E+03  0.11896395202E+03  0.00000000000E+00 0.  1.
         21   -1    0    0  501  502 -0.00000000000E+00 -0.00000000000E+00 -0.29476347535E+04  0.29476347535E+04  0.00000000000E+00 0.  1.
         25    1    1    2    0    0  0.77656208993E+02  0.14891465928E+03 -0.58919508392E+02  0.21749154239E+03  0.12500000000E+03 0.  0.
         25    1    1    2    0    0 -0.24121545727E+03 -0.27747505311E+03 -0.21249417596E+04  0.21601342050E+04  0.12500000000E+03 0.  0.
         25    1    1    2    0    0  0.16355924828E+03  0.12856039383E+03 -0.64480953352E+03  0.68897295816E+03  0.12500000000E+03 0.  0.
</event>
<event>
 5    0  0.5568866E-005  0.2273340E+03  0.7546771E-02  0.1128530E+00
         21   -1    0    0  502  501  0.00000000000E+00  0.00000000000E+00  0.38514500793E+03  0.38514500793E+03  0.00000000000E+00 0.  1.
         21   -1    0    0  501  502 -0.00000000000E+00 -0.00000000000E+00 -0.13418513088E+03  0.13418513088E+03  0.00000000000E+00 0.  1.
         25    1    1    2    0    0  0.61009291886E+02  0.57473790709E+02  0.23899130211E+02  0.15238615009E+03  0.12500000000E+03 0.  0.
         25    1    1    2    0    0  0.14378240667E+02 -0.58742665924E+02  0.13891099572E+03  0.19641461080E+03  0.12500000000E+03 0.  0.
         25    1    1    2    0    0 -0.75387532553E+02  0.12688752149E+01  0.88149751120E+02  0.17052937791E+03  0.12500000000E+03 0.  0.
</event>
<event>
 5    0  0.5568866E-005  0.2757839E+03  0.7546771E-02  0.1098014E+00
         21   -1    0    0  502  501  0.00000000000E+00  0.00000000000E+00  0.14375938901E+03  0.14375938901E+03  0.00000000000E+00 0. -1.
         21   -1    0    0  501  502 -0.00000000000E+00 -0.00000000000E+00 -0.52905598491E+03  0.52905598491E+03  0.00000000000E+00 0. -1.
         25    1    1    2    0    0  0.14478236710E+03 -0.10415033487E+03 -0.68769980470E+02  0.22839338057E+03  0.12500000000E+03 0.  0.
         25    1    1    2    0    0 -0.76371473503E+02  0.25624076603E+02 -0.16442043535E+03  0.22169410193E+03  0.12500000000E+03 0.  0.
         25    1    1    2    0    0 -0.68410893594E+02  0.78526258269E+02 -0.15210618008E+03  0.22272789142E+03  0.12500000000E+03 0.  0.
</event>
<event>
 5    0  0.5833749E-005  0.3039363E+03  0.7546771E-02  0.1083289E+00
         21   -1    0    0  502  501  0.00000000000E+00  0.00000000000E+00  0.23001702705E+03  0.23001702705E+03  0.00000000000E+00 0.  1.
         21   -1    0    0  501  502 -0.00000000000E+00 -0.00000000000E+00 -0.40161055931E+03  0.40161055931E+03  0.00000000000E+00 0.  1.
         25    1    1    2    0    0  0.14377858535E+03 -0.50803504814E+02 -0.61024553904E+02  0.20640318284E+03  0.12500000000E+03 0.  0.
         25    1    1    2    0    0  0.17626587884E+02  0.11528290535E+03 -0.12326223123E+03  0.21075915761E+03  0.12500000000E+03 0.  0.
         25    1    1    2    0    0 -0.16140517323E+03 -0.64479400537E+02  0.12693252876E+02  0.21446524592E+03  0.12500000000E+03 0.  0.
</event>
<event>
 5    0  0.5568866E-005  0.2556846E+03  0.7546771E-02  0.1109764E+00
         21   -1    0    0  502  501  0.00000000000E+00  0.00000000000E+00  0.15824461474E+03  0.15824461474E+03  0.00000000000E+00 0.  1.
         21   -1    0    0  501  502 -0.00000000000E+00 -0.00000000000E+00 -0.41312391365E+03  0.41312391365E+03  0.00000000000E+00 0.  1.
         25    1    1    2    0    0  0.69469317931E+02  0.11639657922E+03 -0.53560751248E+02  0.19201016604E+03  0.12500000000E+03 0.  0.
         25    1    1    2    0    0 -0.77905081216E+02  0.35724451347E+01 -0.10531162574E+03  0.18110080773E+03  0.12500000000E+03 0.  0.
         25    1    1    2    0    0  0.84357632854E+01 -0.11996902435E+03 -0.96006921918E+02  0.19825755462E+03  0.12500000000E+03 0.  0.
</event>
<event>
 5    0  0.5568866E-005  0.2631276E+03  0.7546771E-02  0.1105279E+00
         21   -1    0    0  502  501  0.00000000000E+00  0.00000000000E+00  0.45329699241E+02  0.45329699241E+02  0.00000000000E+00 0.  1.
         21   -1    0    0  501  502 -0.00000000000E+00 -0.00000000000E+00 -0.15273896059E+04  0.15273896059E+04  0.00000000000E+00 0.  1.
         25    1    1    2    0    0 -0.77368021554E+02  0.56835005128E+02 -0.34290630812E+03  0.37739338191E+03  0.12500000000E+03 0.  0.
         25    1    1    2    0    0 -0.29095643383E+02  0.74550854581E+02 -0.39255563864E+03  0.41967763321E+03  0.12500000000E+03 0.  0.
         25    1    1    2    0    0  0.10646366494E+03 -0.13138585971E+03 -0.74659795989E+03  0.77564829001E+03  0.12500000000E+03 0.  0.
</event>
<event>
 5    0  0.5858614E-005  0.2770757E+03  0.7546771E-02  0.1097297E+00
         21   -1    0    0  502  501  0.00000000000E+00  0.00000000000E+00  0.14963607061E+03  0.14963607061E+03  0.00000000000E+00 0.  1.
         21   -1    0    0  501  502 -0.00000000000E+00 -0.00000000000E+00 -0.51305091663E+03  0.51305091663E+03  0.00000000000E+00 0.  1.
         25    1    1    2    0    0  0.39427292153E+02 -0.54661232315E+02 -0.33779520120E+03  0.36643274914E+03  0.12500000000E+03 0.  0.
         25    1    1    2    0    0 -0.61129479448E+01  0.77623766223E+02 -0.62210684033E+02  0.15986865366E+03  0.12500000000E+03 0.  0.
         25    1    1    2    0    0 -0.33314344208E+02 -0.22962533908E+02  0.36591039207E+02  0.13638558444E+03  0.12500000000E+03 0.  0.
</event>
<event>
 5    0  0.5568866E-005  0.3809075E+03  0.7546771E-02  0.1050599E+00
         21   -1    0    0  502  501  0.00000000000E+00  0.00000000000E+00  0.13422913797E+04  0.13422913797E+04  0.00000000000E+00 0.  1.
         21   -1    0    0  501  502 -0.00000000000E+00 -0.00000000000E+00 -0.10809167209E+03  0.10809167209E+03  0.00000000000E+00 0.  1.
         25    1    1    2    0    0  0.21025017537E+02  0.31405411712E+01  0.73383630813E+02  0.14649939124E+03  0.12500000000E+03 0.  0.
         25    1    1    2    0    0 -0.35988507406E+02  0.18145093063E+03  0.15072240747E+03  0.26937308144E+03  0.12500000000E+03 0.  0.
         25    1    1    2    0    0  0.14963489869E+02 -0.18459147180E+03  0.10100936693E+04  0.10345105791E+04  0.12500000000E+03 0.  0.
</event>
<event>
 5    0  0.5568866E-005  0.3716475E+03  0.7546771E-02  0.1054065E+00
         21   -1    0    0  502  501  0.00000000000E+00  0.00000000000E+00  0.56455039448E+02  0.56455039448E+02  0.00000000000E+00 0. -1.
         21   -1    0    0  501  502 -0.00000000000E+00 -0.00000000000E+00 -0.24465823053E+04  0.24465823053E+04  0.00000000000E+00 0. -1.
         25    1    1    2    0    0 -0.58711365939E+01  0.19661701174E+03 -0.48462757956E+03  0.53775608822E+03  0.12500000000E+03 0.  0.
         25    1    1    2    0    0 -0.11362792874E+02 -0.21138798627E+03 -0.53358007350E+03  0.58749186261E+03  0.12500000000E+03 0.  0.
         25    1    1    2    0    0  0.17233929468E+02  0.14770974529E+02 -0.13719196128E+04  0.13777893940E+04  0.12500000000E+03 0.  0.
</event>
<event>
 5    0  0.5568866E-005  0.4341419E+03  0.7546771E-02  0.1032559E+00
         21   -1    0    0  502  501  0.00000000000E+00  0.00000000000E+00  0.90955164864E+02  0.90955164864E+02  0.00000000000E+00 0.  1.
         21   -1    0    0  501  502 -0.00000000000E+00 -0.00000000000E+00 -0.20722211445E+04  0.20722211445E+04  0.00000000000E+00 0.  1.
         25    1    1    2    0    0  0.18449355002E+03  0.13104075356E+03 -0.23481770750E+03  0.34924762683E+03  0.12500000000E+03 0.  0.
         25    1    1    2    0    0  0.17499617269E+02 -0.12876282031E+03 -0.12571321000E+04  0.12699969360E+04  0.12500000000E+03 0.  0.
         25    1    1    2    0    0 -0.20199316729E+03 -0.22779332556E+01 -0.48931617215E+03  0.54393174658E+03  0.12500000000E+03 0.  0.
</event>
<event>
 5    0  0.5568866E-005  0.2442651E+03  0.7546771E-02  0.1116984E+00
         21   -1    0    0  502  501  0.00000000000E+00  0.00000000000E+00  0.32290528175E+02  0.32290528175E+02  0.00000000000E+00 0.  1.
         21   -1    0    0  501  502 -0.00000000000E+00 -0.00000000000E+00 -0.18477698119E+04  0.18477698119E+04  0.00000000000E+00 0.  1.
         25    1    1    2    0    0  0.48422240288E+02  0.35964613317E+01 -0.41927119093E+03  0.44019425193E+03  0.12500000000E+03 0.  0.
         25    1    1    2    0    0  0.79807872673E+02  0.18656206174E+01 -0.90357111083E+03  0.91566289070E+03  0.12500000000E+03 0.  0.
         25    1    1    2    0    0 -0.12823011296E+03 -0.54620819491E+01 -0.49263698194E+03  0.52420319742E+03  0.12500000000E+03 0.  0.
</event>
<event>
 5    0  0.5568866E-005  0.2552757E+03  0.7546771E-02  0.1110015E+00
         21   -1    0    0  502  501  0.00000000000E+00  0.00000000000E+00  0.12482469905E+03  0.12482469905E+03  0.00000000000E+00 0. -1.
         21   -1    0    0  501  502 -0.00000000000E+00 -0.00000000000E+00 -0.52205771126E+03  0.52205771126E+03  0.00000000000E+00 0. -1.
         25    1    1    2    0    0 -0.10452534951E+03  0.24421593413E+02 -0.98095770451E+02  0.19175438221E+03  0.12500000000E+03 0.  0.
         25    1    1    2    0    0 -0.31549208637E+02 -0.77808377331E+02 -0.12587039993E+03  0.19625965894E+03  0.12500000000E+03 0.  0.
         25    1    1    2    0    0  0.13607455815E+03  0.53386783917E+02 -0.17326684183E+03  0.25886836916E+03  0.12500000000E+03 0.  0.
</event>
<event>
 5    0  0.5568866E-005  0.2698629E+03  0.7546771E-02  0.1101358E+00
         21   -1    0    0  502  501  0.00000000000E+00  0.00000000000E+00  0.56076117551E+03  0.56076117551E+03  0.00000000000E+00 0. -1.
         21   -1    0    0  501  502 -0.00000000000E+00 -0.00000000000E+00 -0.12986989195E+03  0.12986989195E+03  0.00000000000E+00 0. -1.
         25    1    1    2    0    0  0.70806760253E+02  0.12229115274E+03  0.14619558818E+03  0.23867734148E+03  0.12500000000E+03 0.  0.
         25    1    1    2    0    0 -0.77610058259E+02 -0.57397139721E+02  0.29892200926E+02  0.16073673030E+03  0.12500000000E+03 0.  0.
         25    1    1    2    0    0  0.68032980056E+01 -0.64894013016E+02  0.25480349445E+03  0.29121699568E+03  0.12500000000E+03 0.  0.
</event>
<event>
 5    0  0.5568866E-005  0.2658830E+03  0.7546771E-02  0.1103659E+00
         21   -1    0    0  502  501  0.00000000000E+00  0.00000000000E+00  0.79028429490E+03  0.79028429490E+03  0.00000000000E+00 0. -1.
         21   -1    0    0  501  502 -0.00000000000E+00 -0.00000000000E+00 -0.89453583761E+02  0.89453583761E+02  0.00000000000E+00 0. -1.
         25    1    1    2    0    0 -0.89036875128E+02  0.22641331349E+01  0.15370343975E+03  0.21721519013E+03  0.12500000000E+03 0.  0.
         25    1    1    2    0    0  0.11204522390E+03 -0.94833119779E+02  0.18267563242E+03  0.26559902011E+03  0.12500000000E+03 0.  0.
         25    1    1    2    0    0 -0.23008348774E+02  0.92568986644E+02  0.36445163897E+03  0.39692366842E+03  0.12500000000E+03 0.  0.
</event>
<event>
 5    0  0.5568866E-005  0.3575195E+03  0.7546771E-02  0.1059570E+00
         21   -1    0    0  502  501  0.00000000000E+00  0.00000000000E+00  0.19312196516E+04  0.19312196516E+04  0.00000000000E+00 0.  1.
         21   -1    0    0  501  502 -0.00000000000E+00 -0.00000000000E+00 -0.66186268301E+02  0.66186268301E+02  0.00000000000E+00 0.  1.
         25    1    1    2    0    0 -0.67927815651E+02 -0.40299497818E+02  0.13911195311E+03  0.20301569683E+03  0.12500000000E+03 0.  0.
         25    1    1    2    0    0 -0.88815591839E+02  0.22523836097E+02  0.14185083689E+04  0.14269500780E+04  0.12500000000E+03 0.  0.
         25    1    1    2    0    0  0.15674340749E+03  0.17775661721E+02  0.30741306135E+03  0.36744014510E+03  0.12500000000E+03 0.  0.
</event>
<event>
 5    0  0.5568866E-005  0.4127452E+03  0.7546771E-02  0.1039454E+00
         21   -1    0    0  502  501  0.00000000000E+00  0.00000000000E+00  0.30184610935E+03  0.30184610935E+03  0.00000000000E+00 0. -1.
         21   -1    0    0  501  502 -0.00000000000E+00 -0.00000000000E+00 -0.56438884714E+03  0.56438884714E+03  0.00000000000E+00 0. -1.
         25    1    1    2    0    0 -0.13356560173E+03  0.15666494403E+03 -0.34175049773E+03  0.41809338353E+03  0.12500000000E+03 0.  0.
         25    1    1    2    0    0  0.21210523622E+03 -0.12028189625E+03  0.10592029731E+03  0.29376942520E+03  0.12500000000E+03 0.  0.
         25    1    1    2    0    0 -0.78539634493E+02 -0.36383047776E+02 -0.26712537374E+02  0.15437214776E+03  0.12500000000E+03 0.  0.
</event>
<event>
 5    0  0.5568866E-005  0.2435593E+03  0.7546771E-02  0.1117444E+00
         21   -1    0    0  502  501  0.00000000000E+00  0.00000000000E+00  0.75125026386E+03  0.75125026386E+03  0.00000000000E+00 0. -1.
         21   -1    0    0  501  502 -0.00000000000E+00 -0.00000000000E+00 -0.78963221614E+02  0.78963221614E+02  0.00000000000E+00 0. -1.
         25    1    1    2    0    0  0.12733570080E+03 -0.20333310344E+01  0.23499579959E+03  0.29507040001E+03  0.12500000000E+03 0.  0.
         25    1    1    2    0    0 -0.61616071234E+02  0.28585855904E+02  0.31804027116E+03  0.34840824542E+03  0.12500000000E+03 0.  0.
         25    1    1    2    0    0 -0.65719629567E+02 -0.26552524870E+02  0.11925097149E+03  0.18673484005E+03  0.12500000000E+03 0.  0.
</event>
<event>
 5    0  0.6634563E-005  0.2823493E+03  0.7546771E-02  0.1094413E+00
         21   -1    0    0  502  501  0.00000000000E+00  0.00000000000E+00  0.28666133204E+03  0.28666133204E+03  0.00000000000E+00 0. -1.
         21   -1    0    0  501  502 -0.00000000000E+00 -0.00000000000E+00 -0.27810213398E+03  0.27810213398E+03  0.00000000000E+00 0. -1.
         25    1    1    2    0    0 -0.36851057431E+02 -0.10914227596E+03  0.21946866008E+02  0.17139632949E+03  0.12500000000E+03 0.  0.
         25    1    1    2    0    0  0.75160473965E+02  0.14782537667E+03  0.85870045382E+02  0.22472228089E+03  0.12500000000E+03 0.  0.
         25    1    1    2    0    0 -0.38309416533E+02 -0.38683100714E+02 -0.99257713338E+02  0.16864485564E+03  0.12500000000E+03 0.  0.
</event>
<event>
 5    0  0.5568866E-005  0.2834951E+03  0.7546771E-02  0.1093795E+00
         21   -1    0    0  502  501  0.00000000000E+00  0.00000000000E+00  0.59258752827E+03  0.59258752827E+03  0.00000000000E+00 0. -1.
         21   -1    0    0  501  502 -0.00000000000E+00 -0.00000000000E+00 -0.13562465723E+03  0.13562465723E+03  0.00000000000E+00 0. -1.
         25    1    1    2    0    0  0.45527204498E+01  0.10122824115E+03  0.31440244632E+03  0.35318802687E+03  0.12500000000E+03 0.  0.
         25    1    1    2    0    0  0.12068458330E+01  0.31844906488E+02 -0.19950571308E+02  0.13053191120E+03  0.12500000000E+03 0.  0.
         25    1    1    2    0    0 -0.57595662827E+01 -0.13307314764E+03  0.16251099603E+03  0.24449224744E+03  0.12500000000E+03 0.  0.
</event>
<event>
 5    0  0.5568866E-005  0.4289165E+03  0.7546771E-02  0.1034203E+00
         21   -1    0    0  502  501  0.00000000000E+00  0.00000000000E+00  0.12887214595E+04  0.12887214595E+04  0.00000000000E+00 0. -1.
         21   -1    0    0  501  502 -0.00000000000E+00 -0.00000000000E+00 -0.14275338249E+03  0.14275338249E+03  0.00000000000E+00 0. -1.
         25    1    1    2    0    0  0.18232663893E+02  0.13157321320E+03  0.28573313373E+03  0.33898726255E+03  0.12500000000E+03 0.  0.
         25    1    1    2    0    0  0.22060368674E+03 -0.19209528905E+03  0.19739732899E+03  0.37437587018E+03  0.12500000000E+03 0.  0.
         25    1    1    2    0    0 -0.23883635064E+03  0.60522075848E+02  0.66283761434E+03  0.71811170930E+03  0.12500000000E+03 0.  0.
</event>
<event>
 5    0  0.5568866E-005  0.3397121E+03  0.7546771E-02  0.1066919E+00
         21   -1    0    0  502  501  0.00000000000E+00  0.00000000000E+00  0.30136982230E+03  0.30136982230E+03  0.00000000000E+00 0.  1.
         21   -1    0    0  501  502 -0.00000000000E+00 -0.00000000000E+00 -0.38293248865E+03  0.38293248865E+03  0.00000000000E+00 0.  1.
         25    1    1    2    0    0 -0.11337843168E+03 -0.15587472939E+03 -0.77044288442E+02  0.24230646383E+03  0.12500000000E+03 0.  0.
         25    1    1    2    0    0 -0.91229914488E+02 -0.20246760420E+01  0.32572973377E+01  0.15479860011E+03  0.12500000000E+03 0.  0.
         25    1    1    2    0    0  0.20460834617E+03  0.15789940543E+03 -0.77756752486E+01  0.28719724700E+03  0.12500000000E+03 0.  0.
</event>
<event>
 5    0  0.5568866E-005  0.2235352E+03  0.7546771E-02  0.1131275E+00
         21   -1    0    0  502  501  0.00000000000E+00  0.00000000000E+00  0.16766311272E+03  0.16766311272E+03  0.00000000000E+00 0.  1.
         21   -1    0    0  501  502 -0.00000000000E+00 -0.00000000000E+00 -0.29802614954E+03  0.29802614954E+03  0.00000000000E+00 0.  1.
         25    1    1    2    0    0  0.22820343550E+02  0.96483489932E+02 -0.86843188826E+02  0.18164958397E+03  0.12500000000E+03 0.  0.
         25    1    1    2    0    0 -0.24823138615E+02 -0.20443682817E+02 -0.47839255168E+02  0.13765074178E+03  0.12500000000E+03 0.  0.
         25    1    1    2    0    0  0.20027950650E+01 -0.76039807115E+02  0.43194071800E+01  0.14638893651E+03  0.12500000000E+03 0.  0.
</event>
<event>
 5    0  0.5568866E-005  0.2839121E+03  0.7546771E-02  0.1093571E+00
         21   -1    0    0  502  501  0.00000000000E+00  0.00000000000E+00  0.11632640399E+03  0.11632640399E+03  0.00000000000E+00 0. -1.
         21   -1    0    0  501  502 -0.00000000000E+00 -0.00000000000E+00 -0.69293025294E+03  0.69293025294E+03  0.00000000000E+00 0. -1.
         25    1    1    2    0    0  0.62417768625E+02 -0.10208619674E+03 -0.24623681913E+03  0.30095704096E+03  0.12500000000E+03 0.  0.
         25    1    1    2    0    0  0.47127528558E+01  0.37548904099E+01  0.11141038611E+02  0.12564008908E+03  0.12500000000E+03 0.  0.
         25    1    1    2    0    0 -0.67130521481E+02  0.98331306332E+02 -0.34150806843E+03  0.38265952689E+03  0.12500000000E+03 0.  0.
</event>
<event>
 5    0  0.5568866E-005  0.2411128E+03  0.7546771E-02  0.1119054E+00
         21   -1    0    0  502  501  0.00000000000E+00  0.00000000000E+00  0.36603637806E+02  0.36603637806E+02  0.00000000000E+00 0. -1.
         21   -1    0    0  501  502 -0.00000000000E+00 -0.00000000000E+00 -0.15882410725E+04  0.15882410725E+04  0.00000000000E+00 0. -1.
         25    1    1    2    0    0  0.41616616819E+02 -0.78491746155E+02 -0.32490041293E+03  0.35927451250E+03  0.12500000000E+03 0.  0.
         25    1    1    2    0    0  0.36516753274E+02  0.49171965012E+02 -0.36145614914E+03  0.38733306490E+03  0.12500000000E+03 0.  0.
         25    1    1    2    0    0 -0.78133370093E+02  0.29319781142E+02 -0.86528087264E+03  0.87823713292E+03  0.12500000000E+03 0.  0.
</event>
<event>
 5    0  0.5568866E-005  0.3741952E+03  0.7546771E-02  0.1053100E+00
         21   -1    0    0  502  501  0.00000000000E+00  0.00000000000E+00  0.99707291990E+03  0.99707291990E+03  0.00000000000E+00 0.  1.
         21   -1    0    0  501  502 -0.00000000000E+00 -0.00000000000E+00 -0.14043311827E+03  0.14043311827E+03  0.00000000000E+00 0.  1.
         25    1    1    2    0    0 -0.10093926074E+02 -0.25569624830E+03  0.38002790515E+03  0.47489858648E+03  0.12500000000E+03 0.  0.
         25    1    1    2    0    0  0.79645022638E+01  0.51486176771E+02  0.71507369287E+01  0.13561118218E+03  0.12500000000E+03 0.  0.
         25    1    1    2    0    0  0.21294238098E+01  0.20421007153E+03  0.46946115954E+03  0.52699626951E+03  0.12500000000E+03 0.  0.
</event>
<event>
 5    0  0.5568866E-005  0.3258408E+03  0.7546771E-02  0.1072992E+00
         21   -1    0    0  502  501  0.00000000000E+00  0.00000000000E+00  0.15950533543E+03  0.15950533543E+03  0.00000000000E+00 0. -1.
         21   -1    0    0  501  502 -0.00000000000E+00 -0.00000000000E+00 -0.66563450534E+03  0.66563450534E+03  0.00000000000E+00 0. -1.
         25    1    1    2    0    0 -0.64741081973E+02 -0.12166188676E+03 -0.15111381282E+03  0.23969440296E+03  0.12500000000E+03 0.  0.
         25    1    1    2    0    0  0.20540368595E+03  0.13007832480E+03 -0.17307567320E+03  0.32356024700E+03  0.12500000000E+03 0.  0.
         25    1    1    2    0    0 -0.14066260398E+03 -0.84164380369E+01 -0.18193968389E+03  0.26188519081E+03  0.12500000000E+03 0.  0.
</event>
<event>
 5    0  0.6122439E-005  0.2897660E+03  0.7546771E-02  0.1090471E+00
         21   -1    0    0  502  501  0.00000000000E+00  0.00000000000E+00  0.52489369308E+03  0.52489369308E+03  0.00000000000E+00 0.  1.
         21   -1    0    0  501  502 -0.00000000000E+00 -0.00000000000E+00 -0.15996449863E+03  0.15996449863E+03  0.00000000000E+00 0.  1.
         25    1    1    2    0    0 -0.13573741247E+01 -0.13067372139E+03  0.60026313747E+02  0.19054034289E+03  0.12500000000E+03 0.  0.
         25    1    1    2    0    0 -0.50804102576E+02  0.18780915169E+03  0.24106137084E+03  0.33404927602E+03  0.12500000000E+03 0.  0.
         25    1    1    2    0    0  0.52161476701E+02 -0.57135430293E+02  0.63841509863E+02  0.16026857280E+03  0.12500000000E+03 0.  0.
</event>
<event>
 5    0  0.5568866E-005  0.2509456E+03  0.7546771E-02  0.1112709E+00
         21   -1    0    0  502  501  0.00000000000E+00  0.00000000000E+00  0.46406420706E+03  0.46406420706E+03  0.00000000000E+00 0.  1.
         21   -1    0    0  501  502 -0.00000000000E+00 -0.00000000000E+00 -0.13570041509E+03  0.13570041509E+03  0.00000000000E+00 0.  1.
         25    1    1    2    0    0  0.71215276680E+02  0.66645654933E+02  0.30952802430E+02  0.16154360072E+03  0.12500000000E+03 0.  0.
         25    1    1    2    0    0 -0.16544943676E+02 -0.22540547774E+02  0.25183676687E+02  0.13054129242E+03  0.12500000000E+03 0.  0.
         25    1    1    2    0    0 -0.54670333005E+02 -0.44105107160E+02  0.27222731285E+03  0.30767972902E+03  0.12500000000E+03 0.  0.
</event>
<event>
 5    0  0.5568866E-005  0.2447993E+03  0.7546771E-02  0.1116636E+00
         21   -1    0    0  502  501  0.00000000000E+00  0.00000000000E+00  0.22343855905E+03  0.22343855905E+03  0.00000000000E+00 0.  1.
         21   -1    0    0  501  502 -0.00000000000E+00 -0.00000000000E+00 -0.26820212194E+03  0.26820212194E+03  0.00000000000E+00 0.  1.
         25    1    1    2    0    0  0.48648067153E+02 -0.69904129471E+02 -0.11341530891E+03  0.18905357455E+03  0.12500000000E+03 0.  0.
         25    1    1    2    0    0 -0.81284168719E+02  0.42851841057E+02  0.70905980759E+02  0.17057565616E+03  0.12500000000E+03 0.  0.
         25    1    1    2    0    0  0.32636101566E+02  0.27052288414E+02 -0.22542347421E+01  0.13201145029E+03  0.12500000000E+03 0.  0.
</event>
<event>
 5    0  0.5568866E-005  0.2879394E+03  0.7546771E-02  0.1091430E+00
         21   -1    0    0  502  501  0.00000000000E+00  0.00000000000E+00  0.94290677524E+03  0.94290677524E+03  0.00000000000E+00 0.  1.
         21   -1    0    0  501  502 -0.00000000000E+00 -0.00000000000E+00 -0.87929271897E+02  0.87929271897E+02  0.00000000000E+00 0.  1.
         25    1    1    2    0    0 -0.45027752294E+02  0.19806074400E+02  0.40000372262E+03  0.42195705607E+03  0.12500000000E+03 0.  0.
         25    1    1    2    0    0  0.78623019393E+02  0.15808164216E+02  0.15456066707E+02  0.14931633277E+03  0.12500000000E+03 0.  0.
         25    1    1    2    0    0 -0.33595267099E+02 -0.35614238617E+02  0.43951771402E+03  0.45956265829E+03  0.12500000000E+03 0.  0.
</event>
<event>
 5    0  0.5568866E-005  0.2732249E+03  0.7546771E-02  0.1099448E+00
         21   -1    0    0  502  501  0.00000000000E+00  0.00000000000E+00  0.59273448612E+02  0.59273448612E+02  0.00000000000E+00 0.  1.
         21   -1    0    0  501  502 -0.00000000000E+00 -0.00000000000E+00 -0.12594481620E+04  0.12594481620E+04  0.00000000000E+00 0.  1.
         25    1    1    2    0    0  0.13360815286E+03  0.11505333484E+03 -0.66073597121E+03  0.69518733592E+03  0.12500000000E+03 0.  0.
         25    1    1    2    0    0 -0.75661539639E+02 -0.80616094453E+02 -0.33942358365E+03  0.37822875671E+03  0.12500000000E+03 0.  0.
         25    1    1    2    0    0 -0.57946613219E+02 -0.34437240387E+02 -0.20001515849E+03  0.24530551795E+03  0.12500000000E+03 0.  0.
</event>
<event>
 5    0  0.5568866E-005  0.2961364E+03  0.7546771E-02  0.1087188E+00
         21   -1    0    0  502  501  0.00000000000E+00  0.00000000000E+00  0.16380693620E+04  0.16380693620E+04  0.00000000000E+00 0. -1.
         21   -1    0    0  501  502 -0.00000000000E+00 -0.00000000000E+00 -0.53536655813E+02  0.53536655813E+02  0.00000000000E+00 0. -1.
         25    1    1    2    0    0 -0.65080894130E+02 -0.43131008475E+02  0.11840252814E+04  0.11931624674E+04  0.12500000000E+03 0.  0.
         25    1    1    2    0    0  0.26154969815E+01 -0.38507802528E+02  0.22043370326E+03  0.25633124900E+03  0.12500000000E+03 0.  0.
         25    1    1    2    0    0  0.62465397148E+02  0.81638811003E+02  0.18007372154E+03  0.24211230141E+03  0.12500000000E+03 0.  0.
</event>
<event>
 5    0  0.5568866E-005  0.2979378E+03  0.7546771E-02  0.1086276E+00
         21   -1    0    0  502  501  0.00000000000E+00  0.00000000000E+00  0.29651611425E+03  0.29651611425E+03  0.00000000000E+00 0. -1.
         21   -1    0    0  501  502 -0.00000000000E+00 -0.00000000000E+00 -0.29936620882E+03  0.29936620882E+03  0.00000000000E+00 0. -1.
         25    1    1    2    0    0  0.14267358703E+03  0.14289541717E+03  0.41808956660E+01  0.23752333059E+03  0.12500000000E+03 0.  0.
         25    1    1    2    0    0 -0.44032583687E+02 -0.25954547954E+01  0.44758738331E+02  0.13990693145E+03  0.12500000000E+03 0.  0.
         25    1    1    2    0    0 -0.98641003339E+02 -0.14029996238E+03 -0.51789728561E+02  0.21845206103E+03  0.12500000000E+03 0.  0.
</event>
<event>
 5    0  0.5568866E-005  0.2794609E+03  0.7546771E-02  0.1095984E+00
         21   -1    0    0  502  501  0.00000000000E+00  0.00000000000E+00  0.28210514325E+03  0.28210514325E+03  0.00000000000E+00 0. -1.
         21   -1    0    0  501  502 -0.00000000000E+00 -0.00000000000E+00 -0.27684152398E+03  0.27684152398E+03  0.00000000000E+00 0. -1.
         25    1    1    2    0    0 -0.65099570886E+02  0.17112559848E+03  0.76431310075E+02  0.23449663056E+03  0.12500000000E+03 0.  0.
         25    1    1    2    0    0  0.12650815053E+02 -0.62367401783E+02 -0.11658278784E+02  0.14075031578E+03  0.12500000000E+03 0.  0.
         25    1    1    2    0    0  0.52448755833E+02 -0.10875819670E+03 -0.59509412021E+02  0.18369972090E+03  0.12500000000E+03 0.  0.
</event>
<event>
 5    0  0.5568866E-005  0.2523992E+03  0.7546771E-02  0.1111798E+00
         21   -1    0    0  502  501  0.00000000000E+00  0.00000000000E+00  0.22074244824E+03  0.22074244824E+03  0.00000000000E+00 0. -1.
         21   -1    0    0  501  502 -0.00000000000E+00 -0.00000000000E+00 -0.28859585513E+03  0.28859585513E+03  0.00000000000E+00 0. -1.
         25    1    1    2    0    0 -0.18669112614E+02  0.11580711122E+03 -0.11327623504E+03  0.20546612421E+03  0.12500000000E+03 0.  0.
         25    1    1    2    0    0  0.23152172672E+02 -0.10590789715E+03  0.63254048136E+02  0.17714000221E+03  0.12500000000E+03 0.  0.
         25    1    1    2    0    0 -0.44830600582E+01 -0.98992140742E+01 -0.17831219992E+02  0.12673217694E+03  0.12500000000E+03 0.  0.
</event>
<event>
 5    0  0.5568866E-005  0.4549565E+03  0.7546771E-02  0.1026254E+00
         21   -1    0    0  502  501  0.00000000000E+00  0.00000000000E+00  0.88958106755E+03  0.88958106755E+03  0.00000000000E+00 0. -1.
         21   -1    0    0  501  502 -0.00000000000E+00 -0.00000000000E+00 -0.23267739143E+03  0.23267739143E+03  0.00000000000E+00 0. -1.
         25    1    1    2    0    0 -0.10301732904E+03  0.97749621110E+02  0.51364495817E+03  0.54737893781E+03  0.12500000000E+03 0.  0.
         25    1    1    2    0    0  0.15673264656E+03  0.13992605307E+03 -0.36650636384E+02  0.24720981366E+03  0.12500000000E+03 0.  0.
         25    1    1    2    0    0 -0.53715317518E+02 -0.23767567418E+03  0.17990935434E+03  0.32766970750E+03  0.12500000000E+03 0.  0.
</event>
<event>
 5    0  0.5568866E-005  0.3208941E+03  0.7546771E-02  0.1075239E+00
         21   -1    0    0  502  501  0.00000000000E+00  0.00000000000E+00  0.58210444591E+03  0.58210444591E+03  0.00000000000E+00 0.  1.
         21   -1    0    0  501  502 -0.00000000000E+00 -0.00000000000E+00 -0.17689788391E+03  0.17689788391E+03  0.00000000000E+00 0.  1.
         25    1    1    2    0    0 -0.86060704945E+02  0.84392727017E+01 -0.53181175054E+02  0.16103075371E+03  0.12500000000E+03 0.  0.
         25    1    1    2    0    0  0.12143140924E+03 -0.11661974510E+03  0.30210127698E+03  0.36774438629E+03  0.12500000000E+03 0.  0.
         25    1    1    2    0    0 -0.35370704291E+02  0.10818047239E+03  0.15628646008E+03  0.23022718983E+03  0.12500000000E+03 0.  0.
</event>
<event>
 5    0  0.5568866E-005  0.2505856E+03  0.7546771E-02  0.1112935E+00
         21   -1    0    0  502  501  0.00000000000E+00  0.00000000000E+00  0.89959665561E+02  0.89959665561E+02  0.00000000000E+00 0.  1.
         21   -1    0    0  501  502 -0.00000000000E+00 -0.00000000000E+00 -0.69801452483E+03  0.69801452483E+03  0.00000000000E+00 0.  1.
         25    1    1    2    0    0 -0.36111337550E+02  0.40853686455E+02 -0.36082806899E+03  0.38573948173E+03  0.12500000000E+03 0.  0.
         25    1    1    2    0    0 -0.76227220020E+02 -0.17818890636E+02 -0.12146169844E+03  0.19106555452E+03  0.12500000000E+03 0.  0.
         25    1    1    2    0    0  0.11233855757E+03 -0.23034795819E+02 -0.12576509184E+03  0.21116915414E+03  0.12500000000E+03 0.  0.
</event>
<event>
 5    0  0.5568866E-005  0.2674367E+03  0.7546771E-02  0.1102756E+00
         21   -1    0    0  502  501  0.00000000000E+00  0.00000000000E+00  0.12854184323E+03  0.12854184323E+03  0.00000000000E+00 0.  1.
         21   -1    0    0  501  502 -0.00000000000E+00 -0.00000000000E+00 -0.55641313886E+03  0.55641313886E+03  0.00000000000E+00 0.  1.
         25    1    1    2    0    0  0.99906583529E+02 -0.10125866328E+02 -0.80552109318E+02  0.17943662089E+03  0.12500000000E+03 0.  0.
         25    1    1    2    0    0 -0.37282861095E+02  0.40623102946E+02 -0.33512404590E+03  0.36190243763E+03  0.12500000000E+03 0.  0.
         25    1    1    2    0    0 -0.62623722434E+02 -0.30497236618E+02 -0.12195140423E+02  0.14361592357E+03  0.12500000000E+03 0.  0.
</event>
<event>
 5    0  0.5568866E-005  0.2612383E+03  0.7546771E-02  0.1106401E+00
         21   -1    0    0  502  501  0.00000000000E+00  0.00000000000E+00  0.25090397589E+03  0.25090397589E+03  0.00000000000E+00 0.  1.
         21   -1    0    0  501  502 -0.00000000000E+00 -0.00000000000E+00 -0.27199836340E+03  0.27199836340E+03  0.00000000000E+00 0.  1.
         25    1    1    2    0    0 -0.64240901041E+02  0.51756213355E+02 -0.13809545049E+03  0.20371782552E+03  0.12500000000E+03 0.  0.
         25    1    1    2    0    0  0.96072387037E+02 -0.53474875775E+02  0.81684118971E+02  0.18543667701E+03  0.12500000000E+03 0.  0.
         25    1    1    2    0    0 -0.31831485996E+02  0.17186624205E+01  0.35316944019E+02  0.13374783675E+03  0.12500000000E+03 0.  0.
</event>
<event>
 5    0  0.5568866E-005  0.2489497E+03  0.7546771E-02  0.1113970E+00
         21   -1    0    0  502  501  0.00000000000E+00  0.00000000000E+00  0.10796031054E+03  0.10796031054E+03  0.00000000000E+00 0. -1.
         21   -1    0    0  501  502 -0.00000000000E+00 -0.00000000000E+00 -0.57406243026E+03  0.57406243026E+03  0.00000000000E+00 0. -1.
         25    1    1    2    0    0 -0.78731770219E+02  0.35557800557E+02 -0.65976462161E+02  0.16565307839E+03  0.12500000000E+03 0.  0.
         25    1    1    2    0    0 -0.20657269674E+02 -0.22455098750E+02 -0.63352742882E+02  0.14342079445E+03  0.12500000000E+03 0.  0.
         25    1    1    2    0    0  0.99389039893E+02 -0.13102701808E+02 -0.33677291468E+03  0.37294886795E+03  0.12500000000E+03 0.  0.
</event>
<event>
 5    0  0.5568866E-005  0.2937031E+03  0.7546771E-02  0.1088431E+00
         21   -1    0    0  502  501  0.00000000000E+00  0.00000000000E+00  0.16108565211E+04  0.16108565211E+04  0.00000000000E+00 0.  1.
         21   -1    0    0  501  502 -0.00000000000E+00 -0.00000000000E+00 -0.53550077432E+02  0.53550077432E+02  0.00000000000E+00 0.  1.
         25    1    1    2    0    0 -0.67623690264E+01  0.41329905124E+02  0.87577773478E+03  0.88564413363E+03  0.12500000000E+03 0.  0.
         25    1    1    2    0    0  0.38390494973E+02  0.72638761547E+01  0.60924393408E+03  0.62316110695E+03  0.12500000000E+03 0.  0.
         25    1    1    2    0    0 -0.31628125947E+02 -0.48593781278E+02  0.72284774816E+02  0.15560135796E+03  0.12500000000E+03 0.  0.
</event>
<event>
 5    0  0.5568866E-005  0.5792065E+03  0.7546771E-02  0.9949510E-01
         21   -1    0    0  502  501  0.00000000000E+00  0.00000000000E+00  0.18902891118E+03  0.18902891118E+03  0.00000000000E+00 0.  1.
         21   -1    0    0  501  502 -0.00000000000E+00 -0.00000000000E+00 -0.17747557726E+04  0.17747557726E+04  0.00000000000E+00 0.  1.
         25    1    1    2    0    0  0.74692882706E+02 -0.36548220613E+01 -0.20127437966E+02  0.14704590511E+03  0.12500000000E+03 0.  0.
         25    1    1    2    0    0 -0.36560722639E+03  0.27714213664E+03 -0.60901855285E+03  0.77266099009E+03  0.12500000000E+03 0.  0.
         25    1    1    2    0    0  0.29091434369E+03 -0.27348731458E+03 -0.95658087062E+03  0.10440777886E+04  0.12500000000E+03 0.  0.
</event>
<event>
 5    0  0.5568866E-005  0.3673123E+03  0.7546771E-02  0.1055725E+00
         21   -1    0    0  502  501  0.00000000000E+00  0.00000000000E+00  0.37916624689E+03  0.37916624689E+03  0.00000000000E+00 0.  1.
         21   -1    0    0  501  502 -0.00000000000E+00 -0.00000000000E+00 -0.35582887641E+03  0.35582887641E+03  0.00000000000E+00 0.  1.
         25    1    1    2    0    0  0.26293162750E+03 -0.10305777583E+03 -0.34681777239E+02  0.31077607948E+03  0.12500000000E+03 0.  0.
         25    1    1    2    0    0 -0.11275947068E+03 -0.33114975437E+02  0.71059342804E+02  0.18570333876E+03  0.12500000000E+03 0.  0.
         25    1    1    2    0    0 -0.15017215682E+03  0.13617275127E+03 -0.13040195082E+02  0.23851570506E+03  0.12500000000E+03 0.  0.
</event>
<event>
 5    0  0.5568866E-005  0.3901556E+03  0.7546771E-02  0.1047243E+00
         21   -1    0    0  502  501  0.00000000000E+00  0.00000000000E+00  0.12172400271E+03  0.12172400271E+03  0.00000000000E+00 0.  1.
         21   -1    0    0  501  502 -0.00000000000E+00 -0.00000000000E+00 -0.12505456977E+04  0.12505456977E+04  0.00000000000E+00 0.  1.
         25    1    1    2    0    0 -0.28345659708E+03 -0.11646820893E+03 -0.30870185192E+03  0.45258625642E+03  0.12500000000E+03 0.  0.
         25    1    1    2    0    0  0.14410045913E+03  0.69949963852E+02 -0.27850242410E+03  0.34474126529E+03  0.12500000000E+03 0.  0.
         25    1    1    2    0    0  0.13935613796E+03  0.46518245081E+02 -0.54161741901E+03  0.57494217874E+03  0.12500000000E+03 0.  0.
</event>
<event>
 5    0  0.5568866E-005  0.5930535E+03  0.7546771E-02  0.9919923E-01
         21   -1    0    0  502  501  0.00000000000E+00  0.00000000000E+00  0.16643933628E+04  0.16643933628E+04  0.00000000000E+00 0.  1.
         21   -1    0    0  501  502 -0.00000000000E+00 -0.00000000000E+00 -0.21131573660E+03  0.21131573660E+03  0.00000000000E+00 0.  1.
         25    1    1    2    0    0  0.83593207417E+02  0.14921802874E+01  0.68242489023E+03  0.69879809798E+03  0.12500000000E+03 0.  0.
         25    1    1    2    0    0 -0.31514157443E+03  0.23243286401E+03  0.10558257458E+03  0.42439595694E+03  0.12500000000E+03 0.  0.
         25    1    1    2    0    0  0.23154836702E+03 -0.23392504430E+03  0.66507016141E+03  0.75251504451E+03  0.12500000000E+03 0.  0.
</event>
<event>
 5    0  0.5568866E-005  0.2124925E+03  0.7546771E-02  0.1139607E+00
         21   -1    0    0  502  501  0.00000000000E+00  0.00000000000E+00  0.30747772458E+03  0.30747772458E+03  0.00000000000E+00 0. -1.
         21   -1    0    0  501  502 -0.00000000000E+00 -0.00000000000E+00 -0.14684980430E+03  0.14684980430E+03  0.00000000000E+00 0.  1.
         25    1    1    2    0    0  0.48140910207E+01 -0.67067212724E+02  0.49901539807E+02  0.15045381408E+03  0.12500000000E+03 0.  0.
         25    1    1    2    0    0 -0.39696036570E+01  0.91815384518E+02  0.52688760773E+02  0.16385032224E+03  0.12500000000E+03 0.  0.
         25    1    1    2    0    0 -0.84448736374E+00 -0.24748171794E+02  0.58037619702E+02  0.14002339257E+03  0.12500000000E+03 0.  0.
</event>
<event>
 5    0  0.5626827E-005  0.3390724E+03  0.7546771E-02  0.1067192E+00
         21   -1    0    0  502  501  0.00000000000E+00  0.00000000000E+00  0.54764033222E+03  0.54764033222E+03  0.00000000000E+00 0. -1.
         21   -1    0    0  501  502 -0.00000000000E+00 -0.00000000000E+00 -0.20993725233E+03  0.20993725233E+03  0.00000000000E+00 0. -1.
         25    1    1    2    0    0  0.75163308715E+02  0.76458913208E+02 -0.12754709732E+02  0.16517618172E+03  0.12500000000E+03 0.  0.
         25    1    1    2    0    0 -0.16454932680E+03  0.10855667621E+03  0.20936329619E+03  0.31355864315E+03  0.12500000000E+03 0.  0.
         25    1    1    2    0    0  0.89386018085E+02 -0.18501558942E+03  0.14109449343E+03  0.27884275969E+03  0.12500000000E+03 0.  0.
</event>
<event>
 5    0  0.5568866E-005  0.3503461E+03  0.7546771E-02  0.1062473E+00
         21   -1    0    0  502  501  0.00000000000E+00  0.00000000000E+00  0.91224194985E+03  0.91224194985E+03  0.00000000000E+00 0.  1.
         21   -1    0    0  501  502 -0.00000000000E+00 -0.00000000000E+00 -0.13455028029E+03  0.13455028029E+03  0.00000000000E+00 0.  1.
         25    1    1    2    0    0 -0.12694629643E+03  0.56917518811E+02  0.22314250987E+03  0.29115725276E+03  0.12500000000E+03 0.  0.
         25    1    1    2    0    0 -0.75132512556E+02  0.42631279587E+02  0.88772186880E+01  0.15220422285E+03  0.12500000000E+03 0.  0.
         25    1    1    2    0    0  0.20207880899E+03 -0.99548798398E+02  0.54567194101E+03  0.60343075453E+03  0.12500000000E+03 0.  0.
</event>
<event>
 5    0  0.5568866E-005  0.2379777E+03  0.7546771E-02  0.1121147E+00
         21   -1    0    0  502  501  0.00000000000E+00  0.00000000000E+00  0.17866717084E+04  0.17866717084E+04  0.00000000000E+00 0.  1.
         21   -1    0    0  501  502 -0.00000000000E+00 -0.00000000000E+00 -0.31697697168E+02  0.31697697168E+02  0.00000000000E+00 0.  1.
         25    1    1    2    0    0 -0.74388608918E+02 -0.36692517158E+02  0.46194628140E+03  0.48569473217E+03  0.12500000000E+03 0.  0.
         25    1    1    2    0    0  0.11046667653E+03  0.20309205334E+02  0.46726450258E+03  0.49656466428E+03  0.12500000000E+03 0.  0.
         25    1    1    2    0    0 -0.36078067613E+02  0.16383311825E+02  0.82576322721E+03  0.83611000908E+03  0.12500000000E+03 0.  0.
</event>
<event>
 5    0  0.5568866E-005  0.2451059E+03  0.7546771E-02  0.1116437E+00
         21   -1    0    0  502  501  0.00000000000E+00  0.00000000000E+00  0.25925436662E+02  0.25925436662E+02  0.00000000000E+00 0. -1.
         21   -1    0    0  501  502 -0.00000000000E+00 -0.00000000000E+00 -0.23172947998E+04  0.23172947998E+04  0.00000000000E+00 0. -1.
         25    1    1    2    0    0 -0.19359515102E+01 -0.11280768809E+03 -0.99026408369E+03  0.10044786099E+04  0.12500000000E+03 0.  0.
         25    1    1    2    0    0  0.11624271341E+01  0.11967054512E+03 -0.52991609600E+03  0.55745713683E+03  0.12500000000E+03 0.  0.
         25    1    1    2    0    0  0.77352437607E+00 -0.68628570330E+01 -0.77118918349E+03  0.78128448972E+03  0.12500000000E+03 0.  0.
</event>
<event>
 5    0  0.5568866E-005  0.3275094E+03  0.7546771E-02  0.1072244E+00
         21   -1    0    0  502  501  0.00000000000E+00  0.00000000000E+00  0.76110200784E+02  0.76110200784E+02  0.00000000000E+00 0.  1.
         21   -1    0    0  501  502 -0.00000000000E+00 -0.00000000000E+00 -0.14093039161E+04  0.14093039161E+04  0.00000000000E+00 0.  1.
         25    1    1    2    0    0  0.10683043952E+03  0.70668944778E+02 -0.45195859710E+03  0.48610535489E+03  0.12500000000E+03 0.  0.
         25    1    1    2    0    0  0.11576082737E+03 -0.11982297138E+03 -0.44808036326E+03  0.49412460530E+03  0.12500000000E+03 0.  0.
         25    1    1    2    0    0 -0.22259126688E+03  0.49154026603E+02 -0.43315475491E+03  0.50518415665E+03  0.12500000000E+03 0.  0.
</event>
<event>
 5    0  0.5568866E-005  0.2312560E+03  0.7546771E-02  0.1125759E+00
         21   -1    0    0  502  501  0.00000000000E+00  0.00000000000E+00  0.33513140551E+03  0.33513140551E+03  0.00000000000E+00 0.  1.
         21   -1    0    0  501  502 -0.00000000000E+00 -0.00000000000E+00 -0.15957715657E+03  0.15957715657E+03  0.00000000000E+00 0.  1.
         25    1    1    2    0    0 -0.70092007479E+02 -0.86210410562E+02  0.63528144905E+02  0.17890206706E+03  0.12500000000E+03 0.  0.
         25    1    1    2    0    0 -0.19518989479E+02  0.53841759007E+02  0.42227728620E+02  0.14383360882E+03  0.12500000000E+03 0.  0.
         25    1    1    2    0    0  0.89610996958E+02  0.32368651555E+02  0.69798375414E+02  0.17197288621E+03  0.12500000000E+03 0.  0.
</event>
<event>
 5    0  0.5568866E-005  0.4139878E+03  0.7546771E-02  0.1039041E+00
         21   -1    0    0  502  501  0.00000000000E+00  0.00000000000E+00  0.70335109009E+03  0.70335109009E+03  0.00000000000E+00 0. -1.
         21   -1    0    0  501  502 -0.00000000000E+00 -0.00000000000E+00 -0.24367049577E+03  0.24367049577E+03  0.00000000000E+00 0.  1.
         25    1    1    2    0    0  0.26728614958E+01  0.93671073625E+02  0.13310082445E+03  0.20523704269E+03  0.12500000000E+03 0.  0.
         25    1    1    2    0    0  0.24868996680E+03 -0.21454230903E+03  0.23483871624E+03  0.42266928513E+03  0.12500000000E+03 0.  0.
         25    1    1    2    0    0 -0.25136282829E+03  0.12087123540E+03  0.91741053634E+02  0.31911525804E+03  0.12500000000E+03 0.  0.
</event>
<event>
 5    0  0.5568866E-005  0.4396143E+03  0.7546771E-02  0.1030865E+00
         21   -1    0    0  502  501  0.00000000000E+00  0.00000000000E+00  0.33367682406E+03  0.33367682406E+03  0.00000000000E+00 0.  1.
         21   -1    0    0  501  502 -0.00000000000E+00 -0.00000000000E+00 -0.57918524717E+03  0.57918524717E+03  0.00000000000E+00 0.  1.
         25    1    1    2    0    0 -0.10276505431E+03 -0.34927493416E+03 -0.21567603706E+03  0.44124232456E+03  0.12500000000E+03 0.  0.
         25    1    1    2    0    0  0.39435405593E+01  0.94072116490E+02 -0.63483902409E+02  0.16887960350E+03  0.12500000000E+03 0.  0.
         25    1    1    2    0    0  0.98821513755E+02  0.25520281767E+03  0.33651516365E+02  0.30274014316E+03  0.12500000000E+03 0.  0.
</event>
<event>
 5    0  0.5568866E-005  0.2681373E+03  0.7546771E-02  0.1102350E+00
         21   -1    0    0  502  501  0.00000000000E+00  0.00000000000E+00  0.68665957256E+03  0.68665957256E+03  0.00000000000E+00 0.  1.
         21   -1    0    0  501  502 -0.00000000000E+00 -0.00000000000E+00 -0.10470630599E+03  0.10470630599E+03  0.00000000000E+00 0.  1.
         25    1    1    2    0    0  0.29244103022E+02  0.14502544079E+03  0.10520103557E+03  0.22040837988E+03  0.12500000000E+03 0.  0.
         25    1    1    2    0    0  0.29340059427E+02 -0.57674145762E+02  0.29320438662E+03  0.32523984767E+03  0.12500000000E+03 0.  0.
         25    1    1    2    0    0 -0.58584162449E+02 -0.87351295029E+02  0.18354784438E+03  0.24571765099E+03  0.12500000000E+03 0.  0.
</event>
<event>
 5    0  0.5568866E-005  0.3655230E+03  0.7546771E-02  0.1056418E+00
         21   -1    0    0  502  501  0.00000000000E+00  0.00000000000E+00  0.22684300967E+04  0.22684300967E+04  0.00000000000E+00 0.  1.
         21   -1    0    0  501  502 -0.00000000000E+00 -0.00000000000E+00 -0.58898476158E+02  0.58898476158E+02  0.00000000000E+00 0.  1.
         25    1    1    2    0    0 -0.29854711770E+02  0.62418569577E+02  0.94620248784E+03  0.95692817371E+03  0.12500000000E+03 0.  0.
         25    1    1    2    0    0  0.16145414814E+03 -0.16203330726E+03  0.10106810001E+04  0.10437544341E+04  0.12500000000E+03 0.  0.
         25    1    1    2    0    0 -0.13159943637E+03  0.99614737684E+02  0.25264813261E+03  0.32664596512E+03  0.12500000000E+03 0.  0.
</event>
<event>
 5    0  0.5568866E-005  0.8212994E+03  0.7546771E-02  0.9529689E-01
         21   -1    0    0  502  501  0.00000000000E+00  0.00000000000E+00  0.79531076445E+03  0.79531076445E+03  0.00000000000E+00 0. -1.
         21   -1    0    0  501  502 -0.00000000000E+00 -0.00000000000E+00 -0.84813720242E+03  0.84813720242E+03  0.00000000000E+00 0. -1.
         25    1    1    2    0    0 -0.99976009947E+02  0.74388051945E+02 -0.25008367021E+03  0.30609741414E+03  0.12500000000E+03 0.  0.
         25    1    1    2    0    0  0.59653406360E+03 -0.34980022629E+03  0.26703230686E+03  0.75176082650E+03  0.12500000000E+03 0.  0.
         25    1    1    2    0    0 -0.49655805366E+03  0.27541217434E+03 -0.69775074614E+02  0.58558972623E+03  0.12500000000E+03 0.  0.
</event>
<event>
 5    0  0.5568866E-005  0.4180957E+03  0.7546771E-02  0.1037688E+00
         21   -1    0    0  502  501  0.00000000000E+00  0.00000000000E+00  0.68401611704E+03  0.68401611704E+03  0.00000000000E+00 0. -1.
         21   -1    0    0  501  502 -0.00000000000E+00 -0.00000000000E+00 -0.25555541168E+03  0.25555541168E+03  0.00000000000E+00 0. -1.
         25    1    1    2    0    0  0.22844433895E+02  0.30200635344E+03  0.75572024656E+02  0.33625263804E+03  0.12500000000E+03 0.  0.
         25    1    1    2    0    0 -0.95033758723E+02 -0.28226851057E+03  0.31850198935E+03  0.45362478391E+03  0.12500000000E+03 0.  0.
         25    1    1    2    0    0  0.72189324828E+02 -0.19737842867E+02  0.34386691356E+02  0.14969410677E+03  0.12500000000E+03 0.  0.
</event>
<event>
 5    0  0.6685585E-005  0.3018519E+03  0.7546771E-02  0.1084319E+00
         21   -1    0    0  502  501  0.00000000000E+00  0.00000000000E+00  0.15171076425E+03  0.15171076425E+03  0.00000000000E+00 0.  1.
         21   -1    0    0  501  502 -0.00000000000E+00 -0.00000000000E+00 -0.60058082921E+03  0.60058082921E+03  0.00000000000E+00 0.  1.
         25    1    1    2    0    0 -0.70075684805E+02  0.15622644140E+03 -0.45883849320E+02  0.21690465699E+03  0.12500000000E+03 0.  0.
         25    1    1    2    0    0  0.69720657069E+01 -0.12936457616E+03 -0.11383930775E+03  0.21299810153E+03  0.12500000000E+03 0.  0.
         25    1    1    2    0    0  0.63103619098E+02 -0.26861865241E+02 -0.28914690790E+03  0.32238883494E+03  0.12500000000E+03 0.  0.
</event>
<event>
 5    0  0.5568866E-005  0.3202684E+03  0.7546771E-02  0.1075526E+00
         21   -1    0    0  502  501  0.00000000000E+00  0.00000000000E+00  0.20679864255E+03  0.20679864255E+03  0.00000000000E+00 0.  1.
         21   -1    0    0  501  502 -0.00000000000E+00 -0.00000000000E+00 -0.49599858552E+03  0.49599858552E+03  0.00000000000E+00 0.  1.
         25    1    1    2    0    0  0.58199287129E+02 -0.18182014758E+03 -0.25560963323E+03  0.34264705994E+03  0.12500000000E+03 0.  0.
         25    1    1    2    0    0 -0.10725155892E+03  0.55131482671E+02 -0.23420016055E+02  0.17525944889E+03  0.12500000000E+03 0.  0.
         25    1    1    2    0    0  0.49052271793E+02  0.12668866491E+03 -0.10170293689E+02  0.18489071923E+03  0.12500000000E+03 0.  0.
</event>
<event>
 5    0  0.7012790E-005  0.3614729E+03  0.7546771E-02  0.1058002E+00
         21   -1    0    0  502  501  0.00000000000E+00  0.00000000000E+00  0.55683747863E+03  0.55683747863E+03  0.00000000000E+00 0. -1.
         21   -1    0    0  501  502 -0.00000000000E+00 -0.00000000000E+00 -0.23465128724E+03  0.23465128724E+03  0.00000000000E+00 0. -1.
         25    1    1    2    0    0 -0.96446970262E+02 -0.59219534137E+02  0.34708372192E+03  0.38587702875E+03  0.12500000000E+03 0.  0.
         25    1    1    2    0    0 -0.10155849638E+03  0.15235862697E+02 -0.40752020431E+02  0.16682921467E+03  0.12500000000E+03 0.  0.
         25    1    1    2    0    0  0.19800546665E+03  0.43983671440E+02  0.15854489904E+02  0.23878252245E+03  0.12500000000E+03 0.  0.
</event>
<event>
 5    0  0.5568866E-005  0.3903251E+03  0.7546771E-02  0.1047182E+00
         21   -1    0    0  502  501  0.00000000000E+00  0.00000000000E+00  0.80324488556E+03  0.80324488556E+03  0.00000000000E+00 0.  1.
         21   -1    0    0  501  502 -0.00000000000E+00 -0.00000000000E+00 -0.18967279987E+03  0.18967279987E+03  0.00000000000E+00 0.  1.
         25    1    1    2    0    0  0.26295297094E+03  0.73192172060E+02  0.72890897336E+02  0.30893274655E+03  0.12500000000E+03 0.  0.
         25    1    1    2    0    0 -0.74603004477E+01 -0.11861449129E+02  0.13231709459E+03  0.18256276613E+03  0.12500000000E+03 0.  0.
         25    1    1    2    0    0 -0.25549267049E+03 -0.61330722931E+02  0.40836409376E+03  0.50142217275E+03  0.12500000000E+03 0.  0.
</event>
<event>
 5    0  0.5568866E-005  0.2862828E+03  0.7546771E-02  0.1092306E+00
         21   -1    0    0  502  501  0.00000000000E+00  0.00000000000E+00  0.23035821631E+03  0.23035821631E+03  0.00000000000E+00 0. -1.
         21   -1    0    0  501  502 -0.00000000000E+00 -0.00000000000E+00 -0.35578430002E+03  0.35578430002E+03  0.00000000000E+00 0. -1.
         25    1    1    2    0    0  0.11029565733E+03  0.66093667951E+02 -0.68268873477E+02  0.19188315209E+03  0.12500000000E+03 0.  0.
         25    1    1    2    0    0 -0.69894203772E+02 -0.51107701564E+02  0.10517909767E+03  0.18489142616E+03  0.12500000000E+03 0.  0.
         25    1    1    2    0    0 -0.40401453554E+02 -0.14985966386E+02 -0.16233630790E+03  0.20936793809E+03  0.12500000000E+03 0.  0.
</event>
<event>
 5    0  0.5568866E-005  0.3982791E+03  0.7546771E-02  0.1044377E+00
         21   -1    0    0  502  501  0.00000000000E+00  0.00000000000E+00  0.11533557506E+04  0.11533557506E+04  0.00000000000E+00 0.  1.
         21   -1    0    0  501  502 -0.00000000000E+00 -0.00000000000E+00 -0.13753449734E+03  0.13753449734E+03  0.00000000000E+00 0.  1.
         25    1    1    2    0    0  0.25069044924E+03  0.13949104831E+03  0.39757509769E+03  0.50595890367E+03  0.12500000000E+03 0.  0.
         25    1    1    2    0    0 -0.17179786686E+03 -0.18449366791E+03  0.54625793068E+03  0.61447143741E+03  0.12500000000E+03 0.  0.
         25    1    1    2    0    0 -0.78892582388E+02  0.45002619605E+02  0.71988224904E+02  0.17045990688E+03  0.12500000000E+03 0.  0.
</event>
<event>
 5    0  0.5568866E-005  0.4376270E+03  0.7546771E-02  0.1031477E+00
         21   -1    0    0  502  501  0.00000000000E+00  0.00000000000E+00  0.95946391253E+03  0.95946391253E+03  0.00000000000E+00 0.  1.
         21   -1    0    0  501  502 -0.00000000000E+00 -0.00000000000E+00 -0.19960879224E+03  0.19960879224E+03  0.00000000000E+00 0.  1.
         25    1    1    2    0    0 -0.22814239070E+03  0.23654618923E+03  0.30363896378E+03  0.46456933863E+03  0.12500000000E+03 0.  0.
         25    1    1    2    0    0  0.11768349568E+03 -0.17118655212E+03  0.45474615428E+03  0.51533804984E+03  0.12500000000E+03 0.  0.
         25    1    1    2    0    0  0.11045889502E+03 -0.65359637112E+02  0.14700022265E+01  0.17916531628E+03  0.12500000000E+03 0.  0.
</event>
<event>
 5    0  0.5568866E-005  0.4692972E+03  0.7546771E-02  0.1022119E+00
         21   -1    0    0  502  501  0.00000000000E+00  0.00000000000E+00  0.82502076698E+03  0.82502076698E+03  0.00000000000E+00 0.  1.
         21   -1    0    0  501  502 -0.00000000000E+00 -0.00000000000E+00 -0.26695065833E+03  0.26695065833E+03  0.00000000000E+00 0.  1.
         25    1    1    2    0    0 -0.12018049048E+03  0.15251456084E+03  0.43783286584E+03  0.49500167673E+03  0.12500000000E+03 0.  0.
         25    1    1    2    0    0 -0.85939038667E+01 -0.18169819763E+03  0.27889152231E+03  0.35565934744E+03  0.12500000000E+03 0.  0.
         25    1    1    2    0    0  0.12877439435E+03  0.29183636789E+02 -0.15865427949E+03  0.24131040114E+03  0.12500000000E+03 0.  0.
</event>
<event>
 5    0  0.5568866E-005  0.2848062E+03  0.7546771E-02  0.1093092E+00
         21   -1    0    0  502  501  0.00000000000E+00  0.00000000000E+00  0.14804089929E+03  0.14804089929E+03  0.00000000000E+00 0. -1.
         21   -1    0    0  501  502 -0.00000000000E+00 -0.00000000000E+00 -0.54791990545E+03  0.54791990545E+03  0.00000000000E+00 0. -1.
         25    1    1    2    0    0 -0.32386882097E+02  0.86791382860E+02 -0.34085511654E+03  0.37468502070E+03  0.12500000000E+03 0.  0.
         25    1    1    2    0    0 -0.15616888454E+02 -0.80438577690E+02  0.39874367472E+02  0.15469071455E+03  0.12500000000E+03 0.  0.
         25    1    1    2    0    0  0.48003770551E+02 -0.63528051705E+01 -0.98898257089E+02  0.16658506949E+03  0.12500000000E+03 0.  0.
</event>
<event>
 5    0  0.5568866E-005  0.4595244E+03  0.7546771E-02  0.1024919E+00
         21   -1    0    0  502  501  0.00000000000E+00  0.00000000000E+00  0.10062468835E+04  0.10062468835E+04  0.00000000000E+00 0.  1.
         21   -1    0    0  501  502 -0.00000000000E+00 -0.00000000000E+00 -0.20985179492E+03  0.20985179492E+03  0.00000000000E+00 0. -1.
         25    1    1    2    0    0  0.33555411259E+03  0.50030032066E+02  0.45482578783E+03  0.58102587194E+03  0.12500000000E+03 0.  0.
         25    1    1    2    0    0 -0.40923751789E+02  0.10603194337E+03  0.53957950080E+02  0.17735271876E+03  0.12500000000E+03 0.  0.
         25    1    1    2    0    0 -0.29463036080E+03 -0.15606197543E+03  0.28761135072E+03  0.45772008777E+03  0.12500000000E+03 0.  0.
</event>
<event>
 5    0  0.5568866E-005  0.4670752E+03  0.7546771E-02  0.1022749E+00
         21   -1    0    0  502  501  0.00000000000E+00  0.00000000000E+00  0.84179357263E+03  0.84179357263E+03  0.00000000000E+00 0. -1.
         21   -1    0    0  501  502 -0.00000000000E+00 -0.00000000000E+00 -0.25916003646E+03  0.25916003646E+03  0.00000000000E+00 0. -1.
         25    1    1    2    0    0  0.25154374118E+03 -0.17309916851E+03  0.46765641926E+03  0.57233303447E+03  0.12500000000E+03 0.  0.
         25    1    1    2    0    0 -0.21370878065E+03  0.84969501972E+00 -0.55016872949E+02  0.25362180746E+03  0.12500000000E+03 0.  0.
         25    1    1    2    0    0 -0.37834960526E+02  0.17224947349E+03  0.16999398986E+03  0.27499876717E+03  0.12500000000E+03 0.  0.
</event>
<event>
 5    0  0.5568866E-005  0.4167728E+03  0.7546771E-02  0.1038122E+00
         21   -1    0    0  502  501  0.00000000000E+00  0.00000000000E+00  0.13759013408E+03  0.13759013408E+03  0.00000000000E+00 0. -1.
         21   -1    0    0  501  502 -0.00000000000E+00 -0.00000000000E+00 -0.12624418375E+04  0.12624418375E+04  0.00000000000E+00 0. -1.
         25    1    1    2    0    0  0.12941759222E+03 -0.10962375632E+02 -0.36986497604E+03  0.41145374874E+03  0.12500000000E+03 0.  0.
         25    1    1    2    0    0  0.20528782039E+03 -0.10359035332E+03 -0.27991433346E+03  0.38321154024E+03  0.12500000000E+03 0.  0.
         25    1    1    2    0    0 -0.33470541261E+03  0.11455272895E+03 -0.47507239394E+03  0.60536668262E+03  0.12500000000E+03 0.  0.
</event>
<event>
 5    0  0.5568866E-005  0.2704465E+03  0.7546771E-02  0.1101024E+00
         21   -1    0    0  502  501  0.00000000000E+00  0.00000000000E+00  0.96044854453E+02  0.96044854453E+02  0.00000000000E+00 0.  1.
         21   -1    0    0  501  502 -0.00000000000E+00 -0.00000000000E+00 -0.76153297673E+03  0.76153297673E+03  0.00000000000E+00 0.  1.
         25    1    1    2    0    0 -0.77737648208E+02  0.34020519711E+02 -0.35156126733E+02  0.15511766810E+03  0.12500000000E+03 0.  0.
         25    1    1    2    0    0  0.11336892400E+03  0.18686917402E+02 -0.34269813116E+03  0.38245094184E+03  0.12500000000E+03 0.  0.
         25    1    1    2    0    0 -0.35631275794E+02 -0.52707437112E+02 -0.28763386438E+03  0.32000922124E+03  0.12500000000E+03 0.  0.
</event>
<event>
 5    0  0.5568866E-005  0.2361831E+03  0.7546771E-02  0.1122362E+00
         21   -1    0    0  502  501  0.00000000000E+00  0.00000000000E+00  0.70153840704E+02  0.70153840704E+02  0.00000000000E+00 0.  1.
         21   -1    0    0  501  502 -0.00000000000E+00 -0.00000000000E+00 -0.79514456582E+03  0.79514456582E+03  0.00000000000E+00 0.  1.
         25    1    1    2    0    0 -0.84379553259E+02  0.64899761745E+02 -0.17114570844E+03  0.23716606334E+03  0.12500000000E+03 0.  0.
         25    1    1    2    0    0 -0.10861476390E+02 -0.41181749270E+01 -0.19854702502E+03  0.23490604969E+03  0.12500000000E+03 0.  0.
         25    1    1    2    0    0  0.95241029649E+02 -0.60781586818E+02 -0.35529799165E+03  0.39322629349E+03  0.12500000000E+03 0.  0.
</event>
<event>
 5    0  0.5568866E-005  0.2712969E+03  0.7546771E-02  0.1100540E+00
         21   -1    0    0  502  501  0.00000000000E+00  0.00000000000E+00  0.62822939361E+03  0.62822939361E+03  0.00000000000E+00 0.  1.
         21   -1    0    0  501  502 -0.00000000000E+00 -0.00000000000E+00 -0.11715781403E+03  0.11715781403E+03  0.00000000000E+00 0.  1.
         25    1    1    2    0    0 -0.26524264619E+02  0.47574718765E+02  0.11819021007E+03  0.18044615883E+03  0.12500000000E+03 0.  0.
         25    1    1    2    0    0  0.82095560167E+01 -0.84372713903E+02  0.40553751068E+03  0.43274914700E+03  0.12500000000E+03 0.  0.
         25    1    1    2    0    0  0.18314708603E+02  0.36797995138E+02 -0.12656141167E+02  0.13219190182E+03  0.12500000000E+03 0.  0.
</event>
<event>
 5    0  0.5568866E-005  0.2610671E+03  0.7546771E-02  0.1106504E+00
         21   -1    0    0  502  501  0.00000000000E+00  0.00000000000E+00  0.74098388181E+02  0.74098388181E+02  0.00000000000E+00 0. -1.
         21   -1    0    0  501  502 -0.00000000000E+00 -0.00000000000E+00 -0.91980474906E+03  0.91980474906E+03  0.00000000000E+00 0. -1.
         25    1    1    2    0    0 -0.13321844042E+03  0.57535670481E+02 -0.31540714839E+03  0.36900430282E+03  0.12500000000E+03 0.  0.
         25    1    1    2    0    0  0.82196170132E+02  0.14915064237E+02 -0.38672042702E+03  0.41491729079E+03  0.12500000000E+03 0.  0.
         25    1    1    2    0    0  0.51022270290E+02 -0.72450734718E+02 -0.14357878548E+03  0.20998154363E+03  0.12500000000E+03 0.  0.
</event>
<event>
 5    0  0.5568866E-005  0.2563718E+03  0.7546771E-02  0.1109343E+00
         21   -1    0    0  502  501  0.00000000000E+00  0.00000000000E+00  0.13556833059E+03  0.13556833059E+03  0.00000000000E+00 0. -1.
         21   -1    0    0  501  502 -0.00000000000E+00 -0.00000000000E+00 -0.48482179500E+03  0.48482179500E+03  0.00000000000E+00 0. -1.
         25    1    1    2    0    0 -0.43969976877E+02 -0.11874873205E+03 -0.26457222263E+03  0.31883864448E+03  0.12500000000E+03 0.  0.
         25    1    1    2    0    0  0.16726074445E+02  0.92642512179E+02 -0.65246805209E+02  0.16954215470E+03  0.12500000000E+03 0.  0.
         25    1    1    2    0    0  0.27243902431E+02  0.26106219875E+02 -0.19434436573E+02  0.13200932642E+03  0.12500000000E+03 0.  0.
</event>
<event>
 5    0  0.5568866E-005  0.2736470E+03  0.7546771E-02  0.1099210E+00
         21   -1    0    0  502  501  0.00000000000E+00  0.00000000000E+00  0.43043483455E+03  0.43043483455E+03  0.00000000000E+00 0.  1.
         21   -1    0    0  501  502 -0.00000000000E+00 -0.00000000000E+00 -0.17396981774E+03  0.17396981774E+03  0.00000000000E+00 0.  1.
         25    1    1    2    0    0 -0.10829938533E+01  0.56096072773E+02 -0.49420784559E+02  0.14565492166E+03  0.12500000000E+03 0.  0.
         25    1    1    2    0    0 -0.11253047848E+03 -0.23222480909E+02  0.15384793243E+03  0.22912131835E+03  0.12500000000E+03 0.  0.
         25    1    1    2    0    0  0.11361347234E+03 -0.32873591864E+02  0.15203786893E+03  0.22962841228E+03  0.12500000000E+03 0.  0.
</event>
<event>
 5    0  0.5568866E-005  0.4392075E+03  0.7546771E-02  0.1030990E+00
         21   -1    0    0  502  501  0.00000000000E+00  0.00000000000E+00  0.15068545003E+03  0.15068545003E+03  0.00000000000E+00 0.  1.
         21   -1    0    0  501  502 -0.00000000000E+00 -0.00000000000E+00 -0.12801717093E+04  0.12801717093E+04  0.00000000000E+00 0.  1.
         25    1    1    2    0    0 -0.16539970816E+02  0.24574207555E+03 -0.13973171057E+03  0.30953624872E+03  0.12500000000E+03 0.  0.
         25    1    1    2    0    0  0.40054354603E+02 -0.30642232662E+03 -0.88507614288E+03  0.94577152223E+03  0.12500000000E+03 0.  0.
         25    1    1    2    0    0 -0.23514383787E+02  0.60680251068E+02 -0.10467840581E+03  0.17554938837E+03  0.12500000000E+03 0.  0.
</event>
<event>
 5    0  0.5568866E-005  0.3175505E+03  0.7546771E-02  0.1076782E+00
         21   -1    0    0  502  501  0.00000000000E+00  0.00000000000E+00  0.30216906268E+03  0.30216906268E+03  0.00000000000E+00 0. -1.
         21   -1    0    0  501  502 -0.00000000000E+00 -0.00000000000E+00 -0.33371480863E+03  0.33371480863E+03  0.00000000000E+00 0. -1.
         25    1    1    2    0    0 -0.70601059434E+02 -0.14508046900E+03  0.12563436378E+03  0.23967028485E+03  0.12500000000E+03 0.  0.
         25    1    1    2    0    0  0.86880112150E+02  0.15455630290E+03 -0.33765006388E+02  0.21954698884E+03  0.12500000000E+03 0.  0.
         25    1    1    2    0    0 -0.16279052716E+02 -0.94758338987E+01 -0.12341510334E+03  0.17666659763E+03  0.12500000000E+03 0.  0.
</event>
<event>
 5    0  0.5568866E-005  0.4541951E+03  0.7546771E-02  0.1026478E+00
         21   -1    0    0  502  501  0.00000000000E+00  0.00000000000E+00  0.47929953859E+03  0.47929953859E+03  0.00000000000E+00 0.  1.
         21   -1    0    0  501  502 -0.00000000000E+00 -0.00000000000E+00 -0.43040565334E+03  0.43040565334E+03  0.00000000000E+00 0.  1.
         25    1    1    2    0    0 -0.13255453345E+03  0.50828035398E+02  0.29759755014E+02  0.19148064273E+03  0.12500000000E+03 0.  0.
         25    1    1    2    0    0  0.30942569932E+03 -0.13238821921E+03  0.21202020314E+03  0.41695140068E+03  0.12500000000E+03 0.  0.
         25    1    1    2    0    0 -0.17687116587E+03  0.81560183813E+02 -0.19288607291E+03  0.30127314853E+03  0.12500000000E+03 0.  0.
</event>
<event>
 5    0  0.5568866E-005  0.3512205E+03  0.7546771E-02  0.1062115E+00
         21   -1    0    0  502  501  0.00000000000E+00  0.00000000000E+00  0.27672360004E+03  0.27672360004E+03  0.00000000000E+00 0. -1.
         21   -1    0    0  501  502 -0.00000000000E+00 -0.00000000000E+00 -0.44577268349E+03  0.44577268349E+03  0.00000000000E+00 0. -1.
         25    1    1    2    0    0 -0.22540328081E+03  0.82661416500E+02 -0.13489981150E+03  0.30242769040E+03  0.12500000000E+03 0.  0.
         25    1    1    2    0    0  0.23763463742E+03 -0.92222139887E+02  0.16327353195E+02  0.28437075526E+03  0.12500000000E+03 0.  0.
         25    1    1    2    0    0 -0.12231356606E+02  0.95607233879E+01 -0.50476625139E+02  0.13569783787E+03  0.12500000000E+03 0.  0.
</event>
<event>
 5    0  0.5568866E-005  0.2552316E+03  0.7546771E-02  0.1110042E+00
         21   -1    0    0  502  501  0.00000000000E+00  0.00000000000E+00  0.16404813395E+03  0.16404813395E+03  0.00000000000E+00 0. -1.
         21   -1    0    0  501  502 -0.00000000000E+00 -0.00000000000E+00 -0.39709801395E+03  0.39709801395E+03  0.00000000000E+00 0. -1.
         25    1    1    2    0    0 -0.21945772192E+02 -0.17240780547E+02 -0.14290162381E+02  0.12887230180E+03  0.12500000000E+03 0.  0.
         25    1    1    2    0    0  0.60174860029E+01 -0.66251948065E+02  0.26610830140E+02  0.14407868351E+03  0.12500000000E+03 0.  0.
         25    1    1    2    0    0  0.15928286189E+02  0.83492728612E+02 -0.24537054776E+03  0.28819516259E+03  0.12500000000E+03 0.  0.
</event>
<event>
 5    0  0.5568866E-005  0.2967869E+03  0.7546771E-02  0.1086858E+00
         21   -1    0    0  502  501  0.00000000000E+00  0.00000000000E+00  0.48889709491E+03  0.48889709491E+03  0.00000000000E+00 0. -1.
         21   -1    0    0  501  502 -0.00000000000E+00 -0.00000000000E+00 -0.18016559237E+03  0.18016559237E+03  0.00000000000E+00 0. -1.
         25    1    1    2    0    0 -0.20959209426E+02  0.57098046670E+02  0.32524445690E+03  0.35370670355E+03  0.12500000000E+03 0.  0.
         25    1    1    2    0    0  0.90922342671E+02 -0.16038981201E+02 -0.48801033217E+02  0.16288235680E+03  0.12500000000E+03 0.  0.
         25    1    1    2    0    0 -0.69963133245E+02 -0.41059065469E+02  0.32288078861E+02  0.15247362692E+03  0.12500000000E+03 0.  0.
</event>
<event>
 5    0  0.5568866E-005  0.3042650E+03  0.7546771E-02  0.1083128E+00
         21   -1    0    0  502  501  0.00000000000E+00  0.00000000000E+00  0.14971745648E+03  0.14971745648E+03  0.00000000000E+00 0.  1.
         21   -1    0    0  501  502 -0.00000000000E+00 -0.00000000000E+00 -0.61834597394E+03  0.61834597394E+03  0.00000000000E+00 0.  1.
         25    1    1    2    0    0 -0.17527933138E+03 -0.94205698853E+02 -0.12013564946E+03  0.26392258709E+03  0.12500000000E+03 0.  0.
         25    1    1    2    0    0  0.12126573263E+03  0.66109992116E+02 -0.81945230744E+02  0.20350904110E+03  0.12500000000E+03 0.  0.
         25    1    1    2    0    0  0.54013598749E+02  0.28095706738E+02 -0.26654763726E+03  0.30063180223E+03  0.12500000000E+03 0.  0.
</event>
<event>
 5    0  0.5568866E-005  0.4165801E+03  0.7546771E-02  0.1038185E+00
         21   -1    0    0  502  501  0.00000000000E+00  0.00000000000E+00  0.15579741216E+04  0.15579741216E+04  0.00000000000E+00 0.  1.
         21   -1    0    0  501  502 -0.00000000000E+00 -0.00000000000E+00 -0.11138757592E+03  0.11138757592E+03  0.00000000000E+00 0.  1.
         25    1    1    2    0    0  0.22472286232E+03  0.88351456602E+02  0.99315077107E+03  0.10296988874E+04  0.12500000000E+03 0.  0.
         25    1    1    2    0    0  0.27238559636E+02 -0.11487053891E+02  0.41519086170E+02  0.13499157772E+03  0.12500000000E+03 0.  0.
         25    1    1    2    0    0 -0.25196142195E+03 -0.76864402711E+02  0.41191668842E+03  0.50467123235E+03  0.12500000000E+03 0.  0.
</event>
<event>
 5    0  0.5568866E-005  0.2237747E+03  0.7546771E-02  0.1131100E+00
         21   -1    0    0  502  501  0.00000000000E+00  0.00000000000E+00  0.29591383622E+03  0.29591383622E+03  0.00000000000E+00 0.  1.
         21   -1    0    0  501  502 -0.00000000000E+00 -0.00000000000E+00 -0.16922200154E+03  0.16922200154E+03  0.00000000000E+00 0.  1.
         25    1    1    2    0    0  0.21283417835E+01 -0.45620543835E+02  0.14512613555E+03  0.19690698078E+03  0.12500000000E+03 0.  0.
         25    1    1    2    0    0  0.34771771328E+02  0.26712062662E+01 -0.34104797919E-01  0.12977369759E+03  0.12500000000E+03 0.  0.
         25    1    1    2    0    0 -0.36900113111E+02  0.42949337569E+02 -0.18400196069E+02  0.13845515939E+03  0.12500000000E+03 0.  0.
</event>
<event>
 5    0  0.5568866E-005  0.2511593E+03  0.7546771E-02  0.1112574E+00
         21   -1    0    0  502  501  0.00000000000E+00  0.00000000000E+00  0.30464903709E+03  0.30464903709E+03  0.00000000000E+00 0.  1.
         21   -1    0    0  501  502 -0.00000000000E+00 -0.00000000000E+00 -0.20706120500E+03  0.20706120500E+03  0.00000000000E+00 0.  1.
         25    1    1    2    0    0  0.61494210398E+01  0.71800965411E+02  0.29082358638E+02  0.14718687984E+03  0.12500000000E+03 0.  0.
         25    1    1    2    0    0 -0.87697117157E+02 -0.10070305173E+03 -0.27143425779E+02  0.18491526316E+03  0.12500000000E+03 0.  0.
         25    1    1    2    0    0  0.81547696117E+02  0.28902086318E+02  0.95648899230E+02  0.17960809909E+03  0.12500000000E+03 0.  0.
</event>
<event>
 5    0  0.5568866E-005  0.2975720E+03  0.7546771E-02  0.1086461E+00
         21   -1    0    0  502  501  0.00000000000E+00  0.00000000000E+00  0.42468959134E+03  0.42468959134E+03  0.00000000000E+00 0.  1.
         21   -1    0    0  501  502 -0.00000000000E+00 -0.00000000000E+00 -0.20850308321E+03  0.20850308321E+03  0.00000000000E+00 0.  1.
         25    1    1    2    0    0  0.81227634726E+01 -0.34614593740E+02 -0.71840285166E+02  0.14849301653E+03  0.12500000000E+03 0.  0.
         25    1    1    2    0    0  0.79562068085E+02  0.12742056333E+03  0.81857680226E+02  0.21187685681E+03  0.12500000000E+03 0.  0.
         25    1    1    2    0    0 -0.87684831558E+02 -0.92805969595E+02  0.20616911307E+03  0.27282280121E+03  0.12500000000E+03 0.  0.
</event>
<event>
 5    0  0.5568866E-005  0.2587753E+03  0.7546771E-02  0.1107881E+00
         21   -1    0    0  502  501  0.00000000000E+00  0.00000000000E+00  0.10222467947E+03  0.10222467947E+03  0.00000000000E+00 0.  1.
         21   -1    0    0  501  502 -0.00000000000E+00 -0.00000000000E+00 -0.65507328264E+03  0.65507328264E+03  0.00000000000E+00 0.  1.
         25    1    1    2    0    0 -0.70068866664E+01  0.17903475200E+02 -0.86721512912E+02  0.15334683462E+03  0.12500000000E+03 0.  0.
         25    1    1    2    0    0  0.36054794772E+02  0.11100338269E+03 -0.10795883689E+03  0.20224195820E+03  0.12500000000E+03 0.  0.
         25    1    1    2    0    0 -0.29047908105E+02 -0.12890685789E+03 -0.35816825337E+03  0.40170916930E+03  0.12500000000E+03 0.  0.
</event>
<event>
 5    0  0.5568866E-005  0.2730512E+03  0.7546771E-02  0.1099546E+00
         21   -1    0    0  502  501  0.00000000000E+00  0.00000000000E+00  0.32813298629E+03  0.32813298629E+03  0.00000000000E+00 0.  1.
         21   -1    0    0  501  502 -0.00000000000E+00 -0.00000000000E+00 -0.22721563965E+03  0.22721563965E+03  0.00000000000E+00 0.  1.
         25    1    1    2    0    0  0.61091056582E+02 -0.56003056055E+02  0.58067138972E+02  0.16082677672E+03  0.12500000000E+03 0.  0.
         25    1    1    2    0    0 -0.13286071443E+03 -0.67623000772E+02  0.60680078404E+02  0.20379379674E+03  0.12500000000E+03 0.  0.
         25    1    1    2    0    0  0.71769657852E+02  0.12362605683E+03 -0.17829870741E+02  0.19072805249E+03  0.12500000000E+03 0.  0.
</event>
<event>
 5    0  0.6309325E-005  0.2934117E+03  0.7546771E-02  0.1088581E+00
         21   -1    0    0  502  501  0.00000000000E+00  0.00000000000E+00  0.60608453699E+02  0.60608453699E+02  0.00000000000E+00 0.  1.
         21   -1    0    0  501  502 -0.00000000000E+00 -0.00000000000E+00 -0.14204354586E+04  0.14204354586E+04  0.00000000000E+00 0.  1.
         25    1    1    2    0    0 -0.72269961215E+02 -0.34078675686E+00 -0.16139439518E+03  0.21655533756E+03  0.12500000000E+03 0.  0.
         25    1    1    2    0    0 -0.20155244213E+02  0.14112902417E+03 -0.48075001226E+03  0.51678739306E+03  0.12500000000E+03 0.  0.
         25    1    1    2    0    0  0.92425205427E+02 -0.14078823741E+03 -0.71768259744E+03  0.74770118166E+03  0.12500000000E+03 0.  0.
</event>
<event>
 5    0  0.5568866E-005  0.5680502E+03  0.7546771E-02  0.9974003E-01
         21   -1    0    0  502  501  0.00000000000E+00  0.00000000000E+00  0.58921152834E+03  0.58921152834E+03  0.00000000000E+00 0. -1.
         21   -1    0    0  501  502 -0.00000000000E+00 -0.00000000000E+00 -0.54764889085E+03  0.54764889085E+03  0.00000000000E+00 0. -1.
         25    1    1    2    0    0 -0.20349041265E+03 -0.14354921815E+03  0.62999992851E+02  0.28567240884E+03  0.12500000000E+03 0.  0.
         25    1    1    2    0    0  0.47903105731E+03  0.20740142302E+03 -0.57629901938E+02  0.53984470891E+03  0.12500000000E+03 0.  0.
         25    1    1    2    0    0 -0.27554064466E+03 -0.63852204870E+02  0.36192546579E+02  0.31134330144E+03  0.12500000000E+03 0.  0.
</event>
<event>
 5    0  0.5568866E-005  0.2857750E+03  0.7546771E-02  0.1092576E+00
         21   -1    0    0  502  501  0.00000000000E+00  0.00000000000E+00  0.99292841380E+03  0.99292841380E+03  0.00000000000E+00 0. -1.
         21   -1    0    0  501  502 -0.00000000000E+00 -0.00000000000E+00 -0.82249003769E+02  0.82249003769E+02  0.00000000000E+00 0. -1.
         25    1    1    2    0    0 -0.37811203010E+02  0.17192417668E+03  0.24714522422E+03  0.32816668243E+03  0.12500000000E+03 0.  0.
         25    1    1    2    0    0  0.48867092813E+02 -0.62908924352E+02  0.46512278479E+03  0.48816977626E+03  0.12500000000E+03 0.  0.
         25    1    1    2    0    0 -0.11055889803E+02 -0.10901525233E+03  0.19841140101E+03  0.25884095888E+03  0.12500000000E+03 0.  0.
</event>
<event>
 5    0  0.5568866E-005  0.2702832E+03  0.7546771E-02  0.1101118E+00
         21   -1    0    0  502  501  0.00000000000E+00  0.00000000000E+00  0.90604039118E+03  0.90604039118E+03  0.00000000000E+00 0. -1.
         21   -1    0    0  501  502 -0.00000000000E+00 -0.00000000000E+00 -0.80628883389E+02  0.80628883389E+02  0.00000000000E+00 0. -1.
         25    1    1    2    0    0 -0.74322280700E+02  0.23919768255E+02  0.35265650949E+03  0.38221403743E+03  0.12500000000E+03 0.  0.
         25    1    1    2    0    0  0.11599113583E+03 -0.93697158455E+01  0.77466482509E+02  0.18753077368E+03  0.12500000000E+03 0.  0.
         25    1    1    2    0    0 -0.41668855127E+02 -0.14550052410E+02  0.39528851579E+03  0.41692446346E+03  0.12500000000E+03 0.  0.
</event>
<event>
 5    0  0.5568866E-005  0.4182080E+03  0.7546771E-02  0.1037651E+00
         21   -1    0    0  502  501  0.00000000000E+00  0.00000000000E+00  0.17288468253E+03  0.17288468253E+03  0.00000000000E+00 0. -1.
         21   -1    0    0  501  502 -0.00000000000E+00 -0.00000000000E+00 -0.10116449929E+04  0.10116449929E+04  0.00000000000E+00 0. -1.
         25    1    1    2    0    0  0.73073389382E+01  0.23316678769E+03 -0.35294402907E+03  0.44115148842E+03  0.12500000000E+03 0.  0.
         25    1    1    2    0    0  0.15650603041E+03 -0.13989169756E+03 -0.45711301473E+02  0.24855250489E+03  0.12500000000E+03 0.  0.
         25    1    1    2    0    0 -0.16381336935E+03 -0.93275090122E+02 -0.44010497984E+03  0.49482568213E+03  0.12500000000E+03 0.  0.
</event>
<event>
 5    0  0.5568866E-005  0.3185338E+03  0.7546771E-02  0.1076326E+00
         21   -1    0    0  502  501  0.00000000000E+00  0.00000000000E+00  0.90603144531E+02  0.90603144531E+02  0.00000000000E+00 0.  1.
         21   -1    0    0  501  502 -0.00000000000E+00 -0.00000000000E+00 -0.11198701382E+04  0.11198701382E+04  0.00000000000E+00 0.  1.
         25    1    1    2    0    0  0.58103363431E+02  0.57917786751E+02 -0.37618852425E+03  0.40481264388E+03  0.12500000000E+03 0.  0.
         25    1    1    2    0    0 -0.55080917789E+01  0.11844705547E+03 -0.51679851387E+03  0.54476210218E+03  0.12500000000E+03 0.  0.
         25    1    1    2    0    0 -0.52595271652E+02 -0.17636484222E+03 -0.13627995559E+03  0.26089853673E+03  0.12500000000E+03 0.  0.
</event>
<event>
 5    0  0.5568866E-005  0.2935400E+03  0.7546771E-02  0.1088515E+00
         21   -1    0    0  502  501  0.00000000000E+00  0.00000000000E+00  0.16844990797E+03  0.16844990797E+03  0.00000000000E+00 0. -1.
         21   -1    0    0  501  502 -0.00000000000E+00 -0.00000000000E+00 -0.51152134203E+03  0.51152134203E+03  0.00000000000E+00 0. -1.
         25    1    1    2    0    0  0.20942716415E+02  0.10129864462E+02 -0.31780074311E+02  0.13105794386E+03  0.12500000000E+03 0.  0.
         25    1    1    2    0    0 -0.35047019989E+02  0.14394509284E+03 -0.29007609570E+03  0.34888053064E+03  0.12500000000E+03 0.  0.
         25    1    1    2    0    0  0.14104303574E+02 -0.15407495730E+03 -0.21215264045E+02  0.20003277550E+03  0.12500000000E+03 0.  0.
</event>
<event>
 5    0  0.5568866E-005  0.3264100E+03  0.7546771E-02  0.1072736E+00
         21   -1    0    0  502  501  0.00000000000E+00  0.00000000000E+00  0.31830472644E+03  0.31830472644E+03  0.00000000000E+00 0. -1.
         21   -1    0    0  501  502 -0.00000000000E+00 -0.00000000000E+00 -0.33472166144E+03  0.33472166144E+03  0.00000000000E+00 0. -1.
         25    1    1    2    0    0 -0.34505214873E+02  0.14646688508E+03  0.37127256277E+02  0.19911451840E+03  0.12500000000E+03 0.  0.
         25    1    1    2    0    0  0.13662743467E+03 -0.20753579586E+03 -0.30870638114E+02  0.27985024346E+03  0.12500000000E+03 0.  0.
         25    1    1    2    0    0 -0.10212221980E+03  0.61068910775E+02 -0.22673553155E+02  0.17406162602E+03  0.12500000000E+03 0.  0.
</event>
<event>
 5    0  0.5568866E-005  0.3181726E+03  0.7546771E-02  0.1076493E+00
         21   -1    0    0  502  501  0.00000000000E+00  0.00000000000E+00  0.22878275198E+03  0.22878275198E+03  0.00000000000E+00 0. -1.
         21   -1    0    0  501  502 -0.00000000000E+00 -0.00000000000E+00 -0.44248865524E+03  0.44248865524E+03  0.00000000000E+00 0. -1.
         25    1    1    2    0    0 -0.97052903171E+01  0.50394724180E+01  0.14883004201E+03  0.19466630511E+03  0.12500000000E+03 0.  0.
         25    1    1    2    0    0  0.34171050314E+02  0.69670278632E+02 -0.25329229805E+03  0.29292250964E+03  0.12500000000E+03 0.  0.
         25    1    1    2    0    0 -0.24465759997E+02 -0.74709751050E+02 -0.10924364722E+03  0.18368259246E+03  0.12500000000E+03 0.  0.
</event>
<event>
 5    0  0.5568866E-005  0.2506127E+03  0.7546771E-02  0.1112918E+00
         21   -1    0    0  502  501  0.00000000000E+00  0.00000000000E+00  0.34961564228E+03  0.34961564228E+03  0.00000000000E+00 0. -1.
         21   -1    0    0  501  502 -0.00000000000E+00 -0.00000000000E+00 -0.17964508522E+03  0.17964508522E+03  0.00000000000E+00 0. -1.
         25    1    1    2    0    0  0.33615755685E+02 -0.21213385579E+02 -0.95458729042E+01  0.13151482976E+03  0.12500000000E+03 0.  0.
         25    1    1    2    0    0  0.15732736824E+02  0.12519363892E+03  0.13205319509E+03  0.22132332134E+03  0.12500000000E+03 0.  0.
         25    1    1    2    0    0 -0.49348492509E+02 -0.10398025334E+03  0.47463234873E+02  0.17642257640E+03  0.12500000000E+03 0.  0.
</event>
<event>
 5    0  0.5568866E-005  0.3383310E+03  0.7546771E-02  0.1067509E+00
         21   -1    0    0  502  501  0.00000000000E+00  0.00000000000E+00  0.36888958311E+03  0.36888958311E+03  0.00000000000E+00 0. -1.
         21   -1    0    0  501  502 -0.00000000000E+00 -0.00000000000E+00 -0.31030385931E+03  0.31030385931E+03  0.00000000000E+00 0. -1.
         25    1    1    2    0    0  0.14150909758E+02 -0.89348064343E+02 -0.10050640275E+03  0.18414630554E+03  0.12500000000E+03 0.  0.
         25    1    1    2    0    0 -0.97686978296E+02  0.18116691688E+03 -0.22731033473E+02  0.24187992348E+03  0.12500000000E+03 0.  0.
         25    1    1    2    0    0  0.83536068538E+02 -0.91818852535E+02  0.18182316002E+03  0.25316721341E+03  0.12500000000E+03 0.  0.
</event>
<event>
 5    0  0.5568866E-005  0.2175708E+03  0.7546771E-02  0.1135707E+00
         21   -1    0    0  502  501  0.00000000000E+00  0.00000000000E+00  0.64145206657E+03  0.64145206657E+03  0.00000000000E+00 0.  1.
         21   -1    0    0  501  502 -0.00000000000E+00 -0.00000000000E+00 -0.73796736879E+02  0.73796736879E+02  0.00000000000E+00 0.  1.
         25    1    1    2    0    0 -0.46229810676E+02  0.20527178536E+02  0.11120300679E+03  0.17478463655E+03  0.12500000000E+03 0.  0.
         25    1    1    2    0    0  0.38146906031E+02  0.45530528823E+02  0.15748455022E+03  0.20965352144E+03  0.12500000000E+03 0.  0.
         25    1    1    2    0    0  0.80829046447E+01 -0.66057707359E+02  0.29896777268E+03  0.33081064546E+03  0.12500000000E+03 0.  0.
</event>
<event>
 5    0  0.5568866E-005  0.2714991E+03  0.7546771E-02  0.1100425E+00
         21   -1    0    0  502  501  0.00000000000E+00  0.00000000000E+00  0.12418717590E+03  0.12418717590E+03  0.00000000000E+00 0. -1.
         21   -1    0    0  501  502 -0.00000000000E+00 -0.00000000000E+00 -0.59355356083E+03  0.59355356083E+03  0.00000000000E+00 0. -1.
         25    1    1    2    0    0 -0.64407086274E+02 -0.59859966724E+02 -0.30659790476E+02  0.15587338173E+03  0.12500000000E+03 0.  0.
         25    1    1    2    0    0  0.67271755386E+02  0.13827069798E+03 -0.20238689915E+03  0.28324853387E+03  0.12500000000E+03 0.  0.
         25    1    1    2    0    0 -0.28646691119E+01 -0.78410731252E+02 -0.23631969530E+03  0.27861882114E+03  0.12500000000E+03 0.  0.
</event>
<event>
 5    0  0.5568866E-005  0.2824693E+03  0.7546771E-02  0.1094348E+00
         21   -1    0    0  502  501  0.00000000000E+00  0.00000000000E+00  0.71668181123E+03  0.71668181123E+03  0.00000000000E+00 0.  1.
         21   -1    0    0  501  502 -0.00000000000E+00 -0.00000000000E+00 -0.11133100515E+03  0.11133100515E+03  0.00000000000E+00 0.  1.
         25    1    1    2    0    0  0.57250560032E+02 -0.14111338692E+03  0.98217626218E+02  0.22014158328E+03  0.12500000000E+03 0.  0.
         25    1    1    2    0    0 -0.48293102339E+02  0.21948483995E+02  0.11011952550E+03  0.17482925836E+03  0.12500000000E+03 0.  0.
         25    1    1    2    0    0 -0.89574576935E+01  0.11916490292E+03  0.39701365436E+03  0.43304197474E+03  0.12500000000E+03 0.  0.
</event>
<event>
 5    0  0.5605376E-005  0.2571198E+03  0.7546771E-02  0.1108886E+00
         21   -1    0    0  502  501  0.00000000000E+00  0.00000000000E+00  0.13227569993E+03  0.13227569993E+03  0.00000000000E+00 0. -1.
         21   -1    0    0  501  502 -0.00000000000E+00 -0.00000000000E+00 -0.49979411875E+03  0.49979411875E+03  0.00000000000E+00 0. -1.
         25    1    1    2    0    0 -0.80292226895E+02 -0.54734235943E+02 -0.75317892651E+02  0.17532958460E+03  0.12500000000E+03 0.  0.
         25    1    1    2    0    0  0.68266784217E+02  0.71871100037E+02 -0.28882346262E+03  0.32995424138E+03  0.12500000000E+03 0.  0.
         25    1    1    2    0    0  0.12025442678E+02 -0.17136864094E+02 -0.33770635507E+01  0.12678599268E+03  0.12500000000E+03 0.  0.
</event>
<event>
 5    0  0.5568866E-005  0.2458790E+03  0.7546771E-02  0.1115937E+00
         21   -1    0    0  502  501  0.00000000000E+00  0.00000000000E+00  0.16591928356E+03  0.16591928356E+03  0.00000000000E+00 0. -1.
         21   -1    0    0  501  502 -0.00000000000E+00 -0.00000000000E+00 -0.36437279392E+03  0.36437279392E+03  0.00000000000E+00 0. -1.
         25    1    1    2    0    0 -0.52153787379E+02  0.12221957864E+02 -0.37025782788E+02  0.14094432370E+03  0.12500000000E+03 0.  0.
         25    1    1    2    0    0  0.19958510940E+02  0.90140001995E+02  0.45881287438E+01  0.15546579381E+03  0.12500000000E+03 0.  0.
         25    1    1    2    0    0  0.32195276439E+02 -0.10236195986E+03 -0.16601585632E+03  0.23388195998E+03  0.12500000000E+03 0.  0.
</event>
<event>
 5    0  0.6346915E-005  0.5247192E+03  0.7546771E-02  0.1007521E+00
         21   -1    0    0  502  501  0.00000000000E+00  0.00000000000E+00  0.10235435184E+04  0.10235435184E+04  0.00000000000E+00 0. -1.
         21   -1    0    0  501  502 -0.00000000000E+00 -0.00000000000E+00 -0.26899708785E+03  0.26899708785E+03  0.00000000000E+00 0.  1.
         25    1    1    2    0    0 -0.29539974075E+03  0.87469407360E+00  0.60987193343E+03  0.68907949259E+03  0.12500000000E+03 0.  0.
         25    1    1    2    0    0 -0.33824040156E+02  0.90924367439E+01 -0.10886150999E+03  0.16941831795E+03  0.12500000000E+03 0.  0.
         25    1    1    2    0    0  0.32922378091E+03 -0.99671308175E+01  0.25353600713E+03  0.43404279573E+03  0.12500000000E+03 0.  0.
</event>
<event>
 5    0  0.5568866E-005  0.2955185E+03  0.7546771E-02  0.1087503E+00
         21   -1    0    0  502  501  0.00000000000E+00  0.00000000000E+00  0.11038263027E+03  0.11038263027E+03  0.00000000000E+00 0.  1.
         21   -1    0    0  501  502 -0.00000000000E+00 -0.00000000000E+00 -0.79116792234E+03  0.79116792234E+03  0.00000000000E+00 0.  1.
         25    1    1    2    0    0 -0.18036512910E+03 -0.41245850487E+02 -0.24369672238E+03  0.33052366402E+03  0.12500000000E+03 0.  0.
         25    1    1    2    0    0  0.73296541904E+00 -0.25635453662E+02 -0.22684989838E+03  0.26027598836E+03  0.12500000000E+03 0.  0.
         25    1    1    2    0    0  0.17963216368E+03  0.66881304150E+02 -0.21023867131E+03  0.31075090022E+03  0.12500000000E+03 0.  0.
</event>
<event>
 5    0  0.5568866E-005  0.3512107E+03  0.7546771E-02  0.1062119E+00
         21   -1    0    0  502  501  0.00000000000E+00  0.00000000000E+00  0.21711585457E+03  0.21711585457E+03  0.00000000000E+00 0.  1.
         21   -1    0    0  501  502 -0.00000000000E+00 -0.00000000000E+00 -0.56812517537E+03  0.56812517537E+03  0.00000000000E+00 0.  1.
         25    1    1    2    0    0  0.94845172046E+02  0.66068748078E+02 -0.33976356433E+03  0.38003284829E+03  0.12500000000E+03 0.  0.
         25    1    1    2    0    0  0.43892095463E+02 -0.11527629834E+03 -0.89177608512E+02  0.19695884561E+03  0.12500000000E+03 0.  0.
         25    1    1    2    0    0 -0.13873726751E+03  0.49207550263E+02  0.77931852041E+02  0.20824933604E+03  0.12500000000E+03 0.  0.
</event>
<event>
 5    0  0.5568866E-005  0.2548661E+03  0.7546771E-02  0.1110268E+00
         21   -1    0    0  502  501  0.00000000000E+00  0.00000000000E+00  0.32539669474E+03  0.32539669474E+03  0.00000000000E+00 0.  1.
         21   -1    0    0  501  502 -0.00000000000E+00 -0.00000000000E+00 -0.19962319035E+03  0.19962319035E+03  0.00000000000E+00 0.  1.
         25    1    1    2    0    0  0.16700605640E+02 -0.18816234515E+02  0.78826594267E+02  0.14990527967E+03  0.12500000000E+03 0.  0.
         25    1    1    2    0    0 -0.24068993846E+02 -0.24202105758E+02 -0.10986498842E+03  0.16988341317E+03  0.12500000000E+03 0.  0.
         25    1    1    2    0    0  0.73683882065E+01  0.43018340273E+02  0.15681189855E+03  0.20523119225E+03  0.12500000000E+03 0.  0.
</event>
<event>
 5    0  0.5568866E-005  0.2134610E+03  0.7546771E-02  0.1138854E+00
         21   -1    0    0  502  501  0.00000000000E+00  0.00000000000E+00  0.51705925539E+03  0.51705925539E+03  0.00000000000E+00 0. -1.
         21   -1    0    0  501  502 -0.00000000000E+00 -0.00000000000E+00 -0.88124511403E+02  0.88124511403E+02  0.00000000000E+00 0. -1.
         25    1    1    2    0    0 -0.35621958968E+02  0.55601260899E+02  0.66301992455E+02  0.15614537578E+03  0.12500000000E+03 0.  0.
         25    1    1    2    0    0  0.26781924619E+02 -0.20555334301E+02  0.22527220901E+03  0.25983140959E+03  0.12500000000E+03 0.  0.
         25    1    1    2    0    0  0.88400343488E+01 -0.35045926598E+02  0.13736054251E+03  0.18920698142E+03  0.12500000000E+03 0.  0.
</event>
<event>
 5    0  0.5568866E-005  0.3296467E+03  0.7546771E-02  0.1071293E+00
         21   -1    0    0  502  501  0.00000000000E+00  0.00000000000E+00  0.15741260112E+04  0.15741260112E+04  0.00000000000E+00 0. -1.
         21   -1    0    0  501  502 -0.00000000000E+00 -0.00000000000E+00 -0.69033195789E+02  0.69033195789E+02  0.00000000000E+00 0. -1.
         25    1    1    2    0    0  0.25046383760E+02  0.23689241915E+03  0.49922744063E+03  0.56709644424E+03  0.12500000000E+03 0.  0.
         25    1    1    2    0    0 -0.23166036812E+02 -0.10356837890E+03  0.70680047668E+03  0.72557217987E+03  0.12500000000E+03 0.  0.
         25    1    1    2    0    0 -0.18803469478E+01 -0.13332404025E+03  0.29906489814E+03  0.35049058291E+03  0.12500000000E+03 0.  0.
</event>
<event>
 5    0  0.6315105E-005  0.3483298E+03  0.7546771E-02  0.1063303E+00
         21   -1    0    0  502  501  0.00000000000E+00  0.00000000000E+00  0.75570842776E+02  0.75570842776E+02  0.00000000000E+00 0. -1.
         21   -1    0    0  501  502 -0.00000000000E+00 -0.00000000000E+00 -0.16055612476E+04  0.16055612476E+04  0.00000000000E+00 0. -1.
         25    1    1    2    0    0 -0.53756632084E+02 -0.80520615396E+02 -0.78530846409E+02  0.17653735818E+03  0.12500000000E+03 0.  0.
         25    1    1    2    0    0  0.35316159346E+02  0.16795117037E+03 -0.53939775958E+03  0.57968074815E+03  0.12500000000E+03 0.  0.
         25    1    1    2    0    0  0.18440472738E+02 -0.87430554975E+02 -0.91206179888E+03  0.92491398408E+03  0.12500000000E+03 0.  0.
</event>
<event>
 5    0  0.5568866E-005  0.3980933E+03  0.7546771E-02  0.1044442E+00
         21   -1    0    0  502  501  0.00000000000E+00  0.00000000000E+00  0.52508437403E+03  0.52508437403E+03  0.00000000000E+00 0. -1.
         21   -1    0    0  501  502 -0.00000000000E+00 -0.00000000000E+00 -0.30181485903E+03  0.30181485903E+03  0.00000000000E+00 0. -1.
         25    1    1    2    0    0 -0.28162727379E+00  0.11858164936E+03 -0.75968475557E+02  0.18830267167E+03  0.12500000000E+03 0.  0.
         25    1    1    2    0    0  0.15490980035E+03  0.71809224061E+02 -0.25199576321E+02  0.21310473845E+03  0.12500000000E+03 0.  0.
         25    1    1    2    0    0 -0.15462817308E+03 -0.19039087342E+03  0.32443756688E+03  0.42549182294E+03  0.12500000000E+03 0.  0.
</event>
<event>
 5    0  0.5568866E-005  0.2662692E+03  0.7546771E-02  0.1103434E+00
         21   -1    0    0  502  501  0.00000000000E+00  0.00000000000E+00  0.28878400712E+03  0.28878400712E+03  0.00000000000E+00 0.  1.
         21   -1    0    0  501  502 -0.00000000000E+00 -0.00000000000E+00 -0.24550974789E+03  0.24550974789E+03  0.00000000000E+00 0.  1.
         25    1    1    2    0    0  0.90617631261E+02  0.13201022436E+03  0.46495932014E+02  0.20838696247E+03  0.12500000000E+03 0.  0.
         25    1    1    2    0    0 -0.76046831292E+02 -0.34599301422E+02 -0.52590959611E+02  0.15928289689E+03  0.12500000000E+03 0.  0.
         25    1    1    2    0    0 -0.14570799969E+02 -0.97410922941E+02  0.49369286826E+02  0.16662389565E+03  0.12500000000E+03 0.  0.
</event>
<event>
 5    0  0.5568866E-005  0.3482248E+03  0.7546771E-02  0.1063346E+00
         21   -1    0    0  502  501  0.00000000000E+00  0.00000000000E+00  0.19444757472E+03  0.19444757472E+03  0.00000000000E+00 0. -1.
         21   -1    0    0  501  502 -0.00000000000E+00 -0.00000000000E+00 -0.62361530257E+03  0.62361530257E+03  0.00000000000E+00 0. -1.
         25    1    1    2    0    0 -0.33717488676E+02  0.21088034610E+03 -0.32989017181E+03  0.41238321361E+03  0.12500000000E+03 0.  0.
         25    1    1    2    0    0  0.96419701681E+02 -0.69717196786E+02 -0.11335918481E+03  0.20647651484E+03  0.12500000000E+03 0.  0.
         25    1    1    2    0    0 -0.62702213006E+02 -0.14116314931E+03  0.14081628774E+02  0.19920314884E+03  0.12500000000E+03 0.  0.
</event>
<event>
 5    0  0.5568866E-005  0.2884352E+03  0.7546771E-02  0.1091169E+00
         21   -1    0    0  502  501  0.00000000000E+00  0.00000000000E+00  0.62014492332E+03  0.62014492332E+03  0.00000000000E+00 0. -1.
         21   -1    0    0  501  502 -0.00000000000E+00 -0.00000000000E+00 -0.13415390409E+03  0.13415390409E+03  0.00000000000E+00 0. -1.
         25    1    1    2    0    0 -0.10707512639E+03 -0.32531024428E+02  0.21063796270E+03  0.26928925261E+03  0.12500000000E+03 0.  0.
         25    1    1    2    0    0  0.88301265008E+02  0.11784167606E+03  0.27056573709E+03  0.33243735065E+03  0.12500000000E+03 0.  0.
         25    1    1    2    0    0  0.18773861381E+02 -0.85310651633E+02  0.47873194410E+01  0.15257222415E+03  0.12500000000E+03 0.  0.
</event>
<event>
 5    0  0.5568866E-005  0.3647845E+03  0.7546771E-02  0.1056705E+00
         21   -1    0    0  502  501  0.00000000000E+00  0.00000000000E+00  0.57292991513E+03  0.57292991513E+03  0.00000000000E+00 0.  1.
         21   -1    0    0  501  502 -0.00000000000E+00 -0.00000000000E+00 -0.23225834402E+03  0.23225834402E+03  0.00000000000E+00 0.  1.
         25    1    1    2    0    0  0.95886935170E+02 -0.10909731854E+03  0.24436028799E+03  0.31053740450E+03  0.12500000000E+03 0.  0.
         25    1    1    2    0    0  0.13692125078E+03  0.82869673339E+02 -0.21376454138E+02  0.20419785617E+03  0.12500000000E+03 0.  0.
         25    1    1    2    0    0 -0.23280818595E+03  0.26227645199E+02  0.11768773725E+03  0.29045299847E+03  0.12500000000E+03 0.  0.
</event>
<event>
 5    0  0.5630803E-005  0.3307577E+03  0.7546771E-02  0.1070802E+00
         21   -1    0    0  502  501  0.00000000000E+00  0.00000000000E+00  0.29937454243E+03  0.29937454243E+03  0.00000000000E+00 0.  1.
         21   -1    0    0  501  502 -0.00000000000E+00 -0.00000000000E+00 -0.36543066624E+03  0.36543066624E+03  0.00000000000E+00 0.  1.
         25    1    1    2    0    0 -0.46154843196E+02 -0.68509327287E+02 -0.14458847929E+03  0.20821773656E+03  0.12500000000E+03 0.  0.
         25    1    1    2    0    0 -0.43738798368E+02 -0.29226629613E+02  0.19696388578E+03  0.23913814138E+03  0.12500000000E+03 0.  0.
         25    1    1    2    0    0  0.89893641564E+02  0.97735956900E+02 -0.11843153031E+03  0.21744933073E+03  0.12500000000E+03 0.  0.
</event>
<event>
 5    0  0.5568866E-005  0.4118820E+03  0.7546771E-02  0.1039741E+00
         21   -1    0    0  502  501  0.00000000000E+00  0.00000000000E+00  0.37456559671E+04  0.37456559671E+04  0.00000000000E+00 0. -1.
         21   -1    0    0  501  502 -0.00000000000E+00 -0.00000000000E+00 -0.45291618292E+02  0.45291618292E+02  0.00000000000E+00 0. -1.
         25    1    1    2    0    0 -0.17088660992E+03 -0.19159797285E+03  0.99608268630E+03  0.10362035199E+04  0.12500000000E+03 0.  0.
         25    1    1    2    0    0 -0.37083921788E+02 -0.73565784788E+02  0.11347726838E+04  0.11446052533E+04  0.12500000000E+03 0.  0.
         25    1    1    2    0    0  0.20797053171E+03  0.26516375764E+03  0.15695089787E+04  0.16101388122E+04  0.12500000000E+03 0.  0.
</event>
<event>
 5    0  0.5568866E-005  0.2537095E+03  0.7546771E-02  0.1110983E+00
         21   -1    0    0  502  501  0.00000000000E+00  0.00000000000E+00  0.41847907595E+03  0.41847907595E+03  0.00000000000E+00 0. -1.
         21   -1    0    0  501  502 -0.00000000000E+00 -0.00000000000E+00 -0.15381536983E+03  0.15381536983E+03  0.00000000000E+00 0. -1.
         25    1    1    2    0    0  0.23620114598E+02 -0.12210507700E+03  0.24254000885E+02  0.17799105652E+03  0.12500000000E+03 0.  0.
         25    1    1    2    0    0 -0.54373019233E+02  0.22052505424E+02  0.16357879333E+03  0.21406952105E+03  0.12500000000E+03 0.  0.
         25    1    1    2    0    0  0.30752904635E+02  0.10005257158E+03  0.76830911906E+02  0.18023386820E+03  0.12500000000E+03 0.  0.
</event>
<event>
 5    0  0.5568866E-005  0.2903392E+03  0.7546771E-02  0.1090172E+00
         21   -1    0    0  502  501  0.00000000000E+00  0.00000000000E+00  0.18413144815E+03  0.18413144815E+03  0.00000000000E+00 0. -1.
         21   -1    0    0  501  502 -0.00000000000E+00 -0.00000000000E+00 -0.45780808234E+03  0.45780808234E+03  0.00000000000E+00 0. -1.
         25    1    1    2    0    0  0.47324569896E+02  0.72953416491E+02 -0.25851887001E+03  0.30003136843E+03  0.12500000000E+03 0.  0.
         25    1    1    2    0    0 -0.48863351981E+02  0.51340982663E+01  0.89269611013E+02  0.16127011373E+03  0.12500000000E+03 0.  0.
         25    1    1    2    0    0  0.15387820854E+01 -0.78087514757E+02 -0.10442737520E+03  0.18063804833E+03  0.12500000000E+03 0.  0.
</event>
<event>
 5    0  0.5568866E-005  0.3499143E+03  0.7546771E-02  0.1062650E+00
         21   -1    0    0  502  501  0.00000000000E+00  0.00000000000E+00  0.12320066830E+04  0.12320066830E+04  0.00000000000E+00 0. -1.
         21   -1    0    0  501  502 -0.00000000000E+00 -0.00000000000E+00 -0.99382587774E+02  0.99382587774E+02  0.00000000000E+00 0. -1.
         25    1    1    2    0    0 -0.27107054191E+00 -0.12000540129E+03  0.61819940170E+02  0.18397846293E+03  0.12500000000E+03 0.  0.
         25    1    1    2    0    0  0.20373164317E+02 -0.67229136593E+02  0.68865796360E+03  0.70342704914E+03  0.12500000000E+03 0.  0.
         25    1    1    2    0    0 -0.20102093775E+02  0.18723453789E+03  0.38214619147E+03  0.44398375872E+03  0.12500000000E+03 0.  0.
</event>
<event>
 5    0  0.6267592E-005  0.2737037E+03  0.7546771E-02  0.1099178E+00
         21   -1    0    0  502  501  0.00000000000E+00  0.00000000000E+00  0.60414441677E+03  0.60414441677E+03  0.00000000000E+00 0. -1.
         21   -1    0    0  501  502 -0.00000000000E+00 -0.00000000000E+00 -0.12399970033E+03  0.12399970033E+03  0.00000000000E+00 0. -1.
         25    1    1    2    0    0 -0.51651715998E+02  0.15814909224E+03  0.15769667232E+03  0.26109821065E+03  0.12500000000E+03 0.  0.
         25    1    1    2    0    0  0.65081740858E+02 -0.80425221823E+02  0.26024304922E+03  0.30668435560E+03  0.12500000000E+03 0.  0.
         25    1    1    2    0    0 -0.13430024860E+02 -0.77723870420E+02  0.62204994892E+02  0.16036155085E+03  0.12500000000E+03 0.  0.
</event>
<event>
 5    0  0.5568866E-005  0.2852920E+03  0.7546771E-02  0.1092833E+00
         21   -1    0    0  502  501  0.00000000000E+00  0.00000000000E+00  0.73854479937E+02  0.73854479937E+02  0.00000000000E+00 0. -1.
         21   -1    0    0  501  502 -0.00000000000E+00 -0.00000000000E+00 -0.11020524826E+04  0.11020524826E+04  0.00000000000E+00 0. -1.
         25    1    1    2    0    0  0.13287386979E+03  0.15231831291E+03 -0.50870795032E+03  0.56148473928E+03  0.12500000000E+03 0.  0.
         25    1    1    2    0    0 -0.67165542726E+02 -0.98688575561E+02 -0.22795123541E+03  0.28607238735E+03  0.12500000000E+03 0.  0.
         25    1    1    2    0    0 -0.65708327061E+02 -0.53629737345E+02 -0.29153881697E+03  0.32834983596E+03  0.12500000000E+03 0.  0.
</event>
<event>
 5    0  0.5568866E-005  0.2567377E+03  0.7546771E-02  0.1109119E+00
         21   -1    0    0  502  501  0.00000000000E+00  0.00000000000E+00  0.51144805213E+03  0.51144805213E+03  0.00000000000E+00 0.  1.
         21   -1    0    0  501  502 -0.00000000000E+00 -0.00000000000E+00 -0.12887771411E+03  0.12887771411E+03  0.00000000000E+00 0.  1.
         25    1    1    2    0    0  0.10990423742E+03 -0.58578431317E+02  0.29132075718E+03  0.34059236278E+03  0.12500000000E+03 0.  0.
         25    1    1    2    0    0 -0.53243958902E+02  0.20587901222E+02  0.15091893241E+02  0.13824451554E+03  0.12500000000E+03 0.  0.
         25    1    1    2    0    0 -0.56660278521E+02  0.37990530095E+02  0.76157687603E+02  0.16148888791E+03  0.12500000000E+03 0.  0.
</event>
<event>
 5    0  0.5568866E-005  0.3312764E+03  0.7546771E-02  0.1070574E+00
         21   -1    0    0  502  501  0.00000000000E+00  0.00000000000E+00  0.16133081140E+03  0.16133081140E+03  0.00000000000E+00 0. -1.
         21   -1    0    0  501  502 -0.00000000000E+00 -0.00000000000E+00 -0.68024218700E+03  0.68024218700E+03  0.00000000000E+00 0. -1.
         25    1    1    2    0    0  0.13959245813E+03 -0.18647213964E+03 -0.31267219225E+03  0.40944695998E+03  0.12500000000E+03 0.  0.
         25    1    1    2    0    0 -0.12203952370E+03  0.18238394961E+03 -0.15126781159E+03  0.29438835106E+03  0.12500000000E+03 0.  0.
         25    1    1    2    0    0 -0.17552934436E+02  0.40881900342E+01 -0.54971371752E+02  0.13773768735E+03  0.12500000000E+03 0.  0.
</event>
<event>
 5    0  0.5568866E-005  0.3192076E+03  0.7546771E-02  0.1076015E+00
         21   -1    0    0  502  501  0.00000000000E+00  0.00000000000E+00  0.21409868352E+03  0.21409868352E+03  0.00000000000E+00 0.  1.
         21   -1    0    0  501  502 -0.00000000000E+00 -0.00000000000E+00 -0.47591839682E+03  0.47591839682E+03  0.00000000000E+00 0.  1.
         25    1    1    2    0    0 -0.27103345148E+02 -0.35950489114E+02  0.13556309197E+03  0.18981406926E+03  0.12500000000E+03 0.  0.
         25    1    1    2    0    0  0.76447305065E+02 -0.36656264141E+02 -0.19922025660E+03  0.25000316556E+03  0.12500000000E+03 0.  0.
         25    1    1    2    0    0 -0.49343959917E+02  0.72606753255E+02 -0.19816254867E+03  0.25019984551E+03  0.12500000000E+03 0.  0.
</event>
<event>
 5    0  0.5568866E-005  0.2838808E+03  0.7546771E-02  0.1093588E+00
         21   -1    0    0  502  501  0.00000000000E+00  0.00000000000E+00  0.82805882460E+03  0.82805882460E+03  0.00000000000E+00 0.  1.
         21   -1    0    0  501  502 -0.00000000000E+00 -0.00000000000E+00 -0.97321964060E+02  0.97321964060E+02  0.00000000000E+00 0.  1.
         25    1    1    2    0    0  0.28174647666E+02  0.33742977817E+02  0.18247632914E+01  0.13251690113E+03  0.12500000000E+03 0.  0.
         25    1    1    2    0    0  0.69477526265E+02 -0.45011214995E+01  0.43043659126E+03  0.45359458313E+03  0.12500000000E+03 0.  0.
         25    1    1    2    0    0 -0.97652173931E+02 -0.29241856318E+02  0.29847550599E+03  0.33926930440E+03  0.12500000000E+03 0.  0.
</event>
<event>
 5    0  0.5568866E-005  0.3383072E+03  0.7546771E-02  0.1067519E+00
         21   -1    0    0  502  501  0.00000000000E+00  0.00000000000E+00  0.12914925866E+04  0.12914925866E+04  0.00000000000E+00 0. -1.
         21   -1    0    0  501  502 -0.00000000000E+00 -0.00000000000E+00 -0.88619750384E+02  0.88619750384E+02  0.00000000000E+00 0. -1.
         25    1    1    2    0    0 -0.13277587432E+03  0.11864505003E+02  0.27741149441E+03  0.33219322165E+03  0.12500000000E+03 0.  0.
         25    1    1    2    0    0  0.16958416935E+03 -0.18092686505E+03  0.54489605513E+03  0.61157994726E+03  0.12500000000E+03 0.  0.
         25    1    1    2    0    0 -0.36808295030E+02  0.16906236005E+03  0.38056528662E+03  0.43633916802E+03  0.12500000000E+03 0.  0.
</event>
<event>
 5    0  0.6131923E-005  0.3286692E+03  0.7546771E-02  0.1071727E+00
         21   -1    0    0  502  501  0.00000000000E+00  0.00000000000E+00  0.48217459103E+03  0.48217459103E+03  0.00000000000E+00 0.  1.
         21   -1    0    0  501  502 -0.00000000000E+00 -0.00000000000E+00 -0.22403393101E+03  0.22403393101E+03  0.00000000000E+00 0.  1.
         25    1    1    2    0    0 -0.27741301002E+02 -0.11245743483E+03 -0.26690294211E+01  0.17043584760E+03  0.12500000000E+03 0.  0.
         25    1    1    2    0    0  0.10833361042E+03  0.15141600114E+02 -0.53654982820E+02  0.17455456563E+03  0.12500000000E+03 0.  0.
         25    1    1    2    0    0 -0.80592309422E+02  0.97315834714E+02  0.31446467226E+03  0.36121810880E+03  0.12500000000E+03 0.  0.
</event>
<event>
 5    0  0.5568866E-005  0.2981203E+03  0.7546771E-02  0.1086184E+00
         21   -1    0    0  502  501  0.00000000000E+00  0.00000000000E+00  0.50254908939E+02  0.50254908939E+02  0.00000000000E+00 0. -1.
         21   -1    0    0  501  502 -0.00000000000E+00 -0.00000000000E+00 -0.17684976790E+04  0.17684976790E+04  0.00000000000E+00 0. -1.
         25    1    1    2    0    0 -0.13560410715E+01  0.23535845084E+02 -0.10279184000E+04  0.10357591477E+04  0.12500000000E+03 0.  0.
         25    1    1    2    0    0 -0.60445837545E+02 -0.12345227697E+03 -0.25848878762E+03  0.31833255770E+03  0.12500000000E+03 0.  0.
         25    1    1    2    0    0  0.61801878617E+02  0.99916431886E+02 -0.43183558245E+03  0.46466088261E+03  0.12500000000E+03 0.  0.
</event>
<event>
 5    0  0.5568866E-005  0.2460231E+03  0.7546771E-02  0.1115844E+00
         21   -1    0    0  502  501  0.00000000000E+00  0.00000000000E+00  0.16831232370E+04  0.16831232370E+04  0.00000000000E+00 0. -1.
         21   -1    0    0  501  502 -0.00000000000E+00 -0.00000000000E+00 -0.35961338706E+02  0.35961338706E+02  0.00000000000E+00 0. -1.
         25    1    1    2    0    0  0.49041359875E+01  0.47921749721E+02  0.20367472840E+03  0.24378051529E+03  0.12500000000E+03 0.  0.
         25    1    1    2    0    0 -0.40223785358E+02  0.37344987592E+02  0.46748836594E+03  0.48701434609E+03  0.12500000000E+03 0.  0.
         25    1    1    2    0    0  0.35319649371E+02 -0.85266737314E+02  0.97599880397E+03  0.98828971434E+03  0.12500000000E+03 0.  0.
</event>
<event>
 5    0  0.5568866E-005  0.3234873E+03  0.7546771E-02  0.1074055E+00
         21   -1    0    0  502  501  0.00000000000E+00  0.00000000000E+00  0.44055108442E+03  0.44055108442E+03  0.00000000000E+00 0.  1.
         21   -1    0    0  501  502 -0.00000000000E+00 -0.00000000000E+00 -0.23752978984E+03  0.23752978984E+03  0.00000000000E+00 0.  1.
         25    1    1    2    0    0  0.66799641009E+02  0.47125923502E+02 -0.12515593560E+02  0.14988223640E+03  0.12500000000E+03 0.  0.
         25    1    1    2    0    0  0.21714655872E+02 -0.20039198103E+03  0.22921416306E+02  0.23828315858E+03  0.12500000000E+03 0.  0.
         25    1    1    2    0    0 -0.88514296881E+02  0.15326605752E+03  0.19261547184E+03  0.28991547929E+03  0.12500000000E+03 0.  0.
</event>
<event>
 5    0  0.6222540E-005  0.3553581E+03  0.7546771E-02  0.1060437E+00
         21   -1    0    0  502  501  0.00000000000E+00  0.00000000000E+00  0.38271347388E+03  0.38271347388E+03  0.00000000000E+00 0. -1.
         21   -1    0    0  501  502 -0.00000000000E+00 -0.00000000000E+00 -0.32995796471E+03  0.32995796471E+03  0.00000000000E+00 0. -1.
         25    1    1    2    0    0 -0.67081380618E+02 -0.10123396987E+03  0.14533954787E+03  0.22692909125E+03  0.12500000000E+03 0.  0.
         25    1    1    2    0    0 -0.66724911945E+02  0.21451493474E+03 -0.17398538527E+02  0.25767533884E+03  0.12500000000E+03 0.  0.
         25    1    1    2    0    0  0.13380629256E+03 -0.11328096488E+03 -0.75185500173E+02  0.22806700851E+03  0.12500000000E+03 0.  0.
</event>
<event>
 5    0  0.5568866E-005  0.3049893E+03  0.7546771E-02  0.1082773E+00
         21   -1    0    0  502  501  0.00000000000E+00  0.00000000000E+00  0.28088270528E+03  0.28088270528E+03  0.00000000000E+00 0. -1.
         21   -1    0    0  501  502 -0.00000000000E+00 -0.00000000000E+00 -0.33116472996E+03  0.33116472996E+03  0.00000000000E+00 0. -1.
         25    1    1    2    0    0 -0.16229466817E+03 -0.72811504752E+02 -0.14052257506E+02  0.21786128725E+03  0.12500000000E+03 0.  0.
         25    1    1    2    0    0 -0.22805713008E+02  0.33791751496E+02 -0.92270283445E+02  0.16062623765E+03  0.12500000000E+03 0.  0.
         25    1    1    2    0    0  0.18510038118E+03  0.39019753255E+02  0.56040516263E+02  0.23355991034E+03  0.12500000000E+03 0.  0.
</event>
<event>
 5    0  0.5568866E-005  0.2456352E+03  0.7546771E-02  0.1116095E+00
         21   -1    0    0  502  501  0.00000000000E+00  0.00000000000E+00  0.73409087143E+02  0.73409087143E+02  0.00000000000E+00 0.  1.
         21   -1    0    0  501  502 -0.00000000000E+00 -0.00000000000E+00 -0.82192339976E+03  0.82192339976E+03  0.00000000000E+00 0.  1.
         25    1    1    2    0    0  0.48085473190E+02  0.20144420276E+02 -0.67941662046E+02  0.15152253906E+03  0.12500000000E+03 0.  0.
         25    1    1    2    0    0  0.38357167256E+02  0.30769877324E+02 -0.38212869384E+03  0.40504986888E+03  0.12500000000E+03 0.  0.
         25    1    1    2    0    0 -0.86442640446E+02 -0.50914297599E+02 -0.29844395673E+03  0.33876007896E+03  0.12500000000E+03 0.  0.
</event>
<event>
 5    0  0.5568866E-005  0.2872216E+03  0.7546771E-02  0.1091809E+00
         21   -1    0    0  502  501  0.00000000000E+00  0.00000000000E+00  0.96708775561E+02  0.96708775561E+02  0.00000000000E+00 0. -1.
         21   -1    0    0  501  502 -0.00000000000E+00 -0.00000000000E+00 -0.85303783059E+03  0.85303783059E+03  0.00000000000E+00 0. -1.
         25    1    1    2    0    0 -0.47436681658E+02  0.85574482162E+01 -0.11430111919E+03  0.17610569137E+03  0.12500000000E+03 0.  0.
         25    1    1    2    0    0 -0.94030663921E+02 -0.11320496167E+03 -0.42864325696E+03  0.47012463331E+03  0.12500000000E+03 0.  0.
         25    1    1    2    0    0  0.14146734558E+03  0.10464751345E+03 -0.21338467889E+03  0.30351628148E+03  0.12500000000E+03 0.  0.
</event>
<event>
 5    0  0.5568866E-005  0.3113683E+03  0.7546771E-02  0.1079692E+00
         21   -1    0    0  502  501  0.00000000000E+00  0.00000000000E+00  0.33565079461E+03  0.33565079461E+03  0.00000000000E+00 0. -1.
         21   -1    0    0  501  502 -0.00000000000E+00 -0.00000000000E+00 -0.28884253604E+03  0.28884253604E+03  0.00000000000E+00 0. -1.
         25    1    1    2    0    0 -0.60406548123E+02 -0.12369338731E+03  0.21590373566E+03  0.28493583171E+03  0.12500000000E+03 0.  0.
         25    1    1    2    0    0  0.18619847436E+02  0.97739300788E+02 -0.83437150325E+02  0.18023991703E+03  0.12500000000E+03 0.  0.
         25    1    1    2    0    0  0.41786700687E+02  0.25954086518E+02 -0.85658326761E+02  0.15931758191E+03  0.12500000000E+03 0.  0.
</event>
<event>
 5    0  0.5568866E-005  0.3947631E+03  0.7546771E-02  0.1045608E+00
         21   -1    0    0  502  501  0.00000000000E+00  0.00000000000E+00  0.23695578041E+03  0.23695578041E+03  0.00000000000E+00 0.  1.
         21   -1    0    0  501  502 -0.00000000000E+00 -0.00000000000E+00 -0.65766649548E+03  0.65766649548E+03  0.00000000000E+00 0.  1.
         25    1    1    2    0    0  0.11594471473E+03 -0.22009014886E+02 -0.25939902091E+03  0.31119194344E+03  0.12500000000E+03 0.  0.
         25    1    1    2    0    0 -0.20549212932E+03  0.18434821905E+03 -0.19047559705E+03  0.35793467861E+03  0.12500000000E+03 0.  0.
         25    1    1    2    0    0  0.89547414597E+02 -0.16233920416E+03  0.29163902888E+02  0.22549565384E+03  0.12500000000E+03 0.  0.
</event>
<event>
 5    0  0.6841658E-005  0.2916400E+03  0.7546771E-02  0.1089496E+00
         21   -1    0    0  502  501  0.00000000000E+00  0.00000000000E+00  0.83434343235E+02  0.83434343235E+02  0.00000000000E+00 0. -1.
         21   -1    0    0  501  502 -0.00000000000E+00 -0.00000000000E+00 -0.10194107157E+04  0.10194107157E+04  0.00000000000E+00 0. -1.
         25    1    1    2    0    0 -0.31601937122E+02 -0.47819894449E+02 -0.53632124961E+03  0.55367039611E+03  0.12500000000E+03 0.  0.
         25    1    1    2    0    0  0.13603498631E+03  0.80265550085E+00 -0.11426626326E+03  0.21722785428E+03  0.12500000000E+03 0.  0.
         25    1    1    2    0    0 -0.10443304919E+03  0.47017238948E+02 -0.28538885956E+03  0.33194680851E+03  0.12500000000E+03 0.  0.
</event>
<event>
 5    0  0.5568866E-005  0.2982769E+03  0.7546771E-02  0.1086105E+00
         21   -1    0    0  502  501  0.00000000000E+00  0.00000000000E+00  0.14680616562E+03  0.14680616562E+03  0.00000000000E+00 0. -1.
         21   -1    0    0  501  502 -0.00000000000E+00 -0.00000000000E+00 -0.60603110043E+03  0.60603110043E+03  0.00000000000E+00 0. -1.
         25    1    1    2    0    0  0.32756174995E+02 -0.11124041829E+03 -0.13001638116E+03  0.21442168041E+03  0.12500000000E+03 0.  0.
         25    1    1    2    0    0  0.91191555794E+02  0.17913034498E+03 -0.16815870572E+03  0.29035483576E+03  0.12500000000E+03 0.  0.
         25    1    1    2    0    0 -0.12394773079E+03 -0.67889926694E+02 -0.16104984793E+03  0.24806074988E+03  0.12500000000E+03 0.  0.
</event>
<event>
 5    0  0.5568866E-005  0.2958099E+03  0.7546771E-02  0.1087354E+00
         21   -1    0    0  502  501  0.00000000000E+00  0.00000000000E+00  0.15834008755E+03  0.15834008755E+03  0.00000000000E+00 0.  1.
         21   -1    0    0  501  502 -0.00000000000E+00 -0.00000000000E+00 -0.55263023525E+03  0.55263023525E+03  0.00000000000E+00 0.  1.
         25    1    1    2    0    0  0.32815709896E+02 -0.13513493852E+03 -0.25771653880E+03  0.31840404645E+03  0.12500000000E+03 0.  0.
         25    1    1    2    0    0  0.71019404807E+01  0.17013771196E+03 -0.14544534448E+03  0.25646954365E+03  0.12500000000E+03 0.  0.
         25    1    1    2    0    0 -0.39917650377E+02 -0.35002773444E+02  0.88717355711E+01  0.13609673270E+03  0.12500000000E+03 0.  0.
</event>
<event>
 5    0  0.5568866E-005  0.2794373E+03  0.7546771E-02  0.1095997E+00
         21   -1    0    0  502  501  0.00000000000E+00  0.00000000000E+00  0.78965771381E+03  0.78965771381E+03  0.00000000000E+00 0. -1.
         21   -1    0    0  501  502 -0.00000000000E+00 -0.00000000000E+00 -0.98884902863E+02  0.98884902863E+02  0.00000000000E+00 0. -1.
         25    1    1    2    0    0 -0.96991749758E+02  0.31068953757E+02  0.15887606852E+03  0.22636096076E+03  0.12500000000E+03 0.  0.
         25    1    1    2    0    0  0.74108664651E+02  0.67378114461E+02  0.73158410936E+02  0.17609388852E+03  0.12500000000E+03 0.  0.
         25    1    1    2    0    0  0.22883085107E+02 -0.98447068218E+02  0.45873833149E+03  0.48608776739E+03  0.12500000000E+03 0.  0.
</event>
<event>
 5    0  0.5568866E-005  0.2496033E+03  0.7546771E-02  0.1113556E+00
         21   -1    0    0  502  501  0.00000000000E+00  0.00000000000E+00  0.34845328686E+03  0.34845328686E+03  0.00000000000E+00 0.  1.
         21   -1    0    0  501  502 -0.00000000000E+00 -0.00000000000E+00 -0.17879526778E+03  0.17879526778E+03  0.00000000000E+00 0.  1.
         25    1    1    2    0    0 -0.66464400251E+02 -0.52573361899E+02 -0.10485610029E+02  0.15138171257E+03  0.12500000000E+03 0.  0.
         25    1    1    2    0    0  0.78546734457E+02  0.11406593205E+03  0.75696347576E+02  0.20133445653E+03  0.12500000000E+03 0.  0.
         25    1    1    2    0    0 -0.12082334206E+02 -0.61492570154E+02  0.10444728153E+03  0.17453238554E+03  0.12500000000E+03 0.  0.
</event>
<event>
 5    0  0.5568866E-005  0.1969775E+03  0.7546771E-02  0.1152314E+00
         21   -1    0    0  502  501  0.00000000000E+00  0.00000000000E+00  0.41335931408E+03  0.41335931408E+03  0.00000000000E+00 0.  1.
         21   -1    0    0  501  502 -0.00000000000E+00 -0.00000000000E+00 -0.93865395680E+02  0.93865395680E+02  0.00000000000E+00 0.  1.
         25    1    1    2    0    0 -0.17621485149E+02  0.31040854381E+02  0.65995996086E+02  0.14578930989E+03  0.12500000000E+03 0.  0.
         25    1    1    2    0    0  0.27687703464E+02 -0.32984816187E+02  0.12937600225E+03  0.18498042323E+03  0.12500000000E+03 0.  0.
         25    1    1    2    0    0 -0.10066218316E+02  0.19439618062E+01  0.12412192007E+03  0.17645497664E+03  0.12500000000E+03 0.  0.
</event>
<event>
 5    0  0.5568866E-005  0.4900885E+03  0.7546771E-02  0.1016399E+00
         21   -1    0    0  502  501  0.00000000000E+00  0.00000000000E+00  0.34744633893E+03  0.34744633893E+03  0.00000000000E+00 0.  1.
         21   -1    0    0  501  502 -0.00000000000E+00 -0.00000000000E+00 -0.69129169905E+03  0.69129169905E+03  0.00000000000E+00 0.  1.
         25    1    1    2    0    0 -0.28355159546E+03  0.20905143300E+03 -0.26964704664E+03  0.46091055390E+03  0.12500000000E+03 0.  0.
         25    1    1    2    0    0  0.12207163483E+03  0.55053827521E+02  0.91898954441E+02  0.20494590941E+03  0.12500000000E+03 0.  0.
         25    1    1    2    0    0  0.16147996063E+03 -0.26410526052E+03 -0.16609726792E+03  0.37288157467E+03  0.12500000000E+03 0.  0.
</event>
<event>
 5    0  0.5568866E-005  0.3087752E+03  0.7546771E-02  0.1080934E+00
         21   -1    0    0  502  501  0.00000000000E+00  0.00000000000E+00  0.69717822665E+03  0.69717822665E+03  0.00000000000E+00 0. -1.
         21   -1    0    0  501  502 -0.00000000000E+00 -0.00000000000E+00 -0.13675429108E+03  0.13675429108E+03  0.00000000000E+00 0. -1.
         25    1    1    2    0    0 -0.11712264017E+03 -0.51623660710E+02  0.10162076892E+02  0.17919537659E+03  0.12500000000E+03 0.  0.
         25    1    1    2    0    0 -0.47066422043E+02  0.64998925990E+01  0.14192792135E+03  0.19500264498E+03  0.12500000000E+03 0.  0.
         25    1    1    2    0    0  0.16418906221E+03  0.45123768111E+02  0.40833393732E+03  0.45973449617E+03  0.12500000000E+03 0.  0.
</event>
<event>
 5    0  0.6341853E-005  0.3111231E+03  0.7546771E-02  0.1079809E+00
         21   -1    0    0  502  501  0.00000000000E+00  0.00000000000E+00  0.16892235015E+03  0.16892235015E+03  0.00000000000E+00 0.  1.
         21   -1    0    0  501  502 -0.00000000000E+00 -0.00000000000E+00 -0.57302996490E+03  0.57302996490E+03  0.00000000000E+00 0.  1.
         25    1    1    2    0    0 -0.84505438481E+02 -0.39871289742E+02 -0.34271926805E+03  0.37657985285E+03  0.12500000000E+03 0.  0.
         25    1    1    2    0    0 -0.85435098754E+01 -0.88767634525E+02  0.21053432428E+01  0.15356469962E+03  0.12500000000E+03 0.  0.
         25    1    1    2    0    0  0.93048948357E+02  0.12863892427E+03 -0.63493689936E+02  0.21180776258E+03  0.12500000000E+03 0.  0.
</event>
<event>
 5    0  0.5739680E-005  0.3323586E+03  0.7546771E-02  0.1070098E+00
         21   -1    0    0  502  501  0.00000000000E+00  0.00000000000E+00  0.48411803635E+03  0.48411803635E+03  0.00000000000E+00 0.  1.
         21   -1    0    0  501  502 -0.00000000000E+00 -0.00000000000E+00 -0.22817211997E+03  0.22817211997E+03  0.00000000000E+00 0.  1.
         25    1    1    2    0    0 -0.17082849811E+03 -0.43037504076E+02  0.24576448539E+03  0.32719991565E+03  0.12500000000E+03 0.  0.
         25    1    1    2    0    0  0.12955062415E+03  0.80744428106E+02  0.10013111829E+03  0.22125611344E+03  0.12500000000E+03 0.  0.
         25    1    1    2    0    0  0.41277873968E+02 -0.37706924030E+02 -0.89949687290E+02  0.16383412722E+03  0.12500000000E+03 0.  0.
</event>
<event>
 5    0  0.5837163E-005  0.2842392E+03  0.7546771E-02  0.1093396E+00
         21   -1    0    0  502  501  0.00000000000E+00  0.00000000000E+00  0.26383101525E+03  0.26383101525E+03  0.00000000000E+00 0. -1.
         21   -1    0    0  501  502 -0.00000000000E+00 -0.00000000000E+00 -0.30622603321E+03  0.30622603321E+03  0.00000000000E+00 0. -1.
         25    1    1    2    0    0 -0.10489361752E+02  0.47330321170E+02  0.10877888601E+03  0.17265002767E+03  0.12500000000E+03 0.  0.
         25    1    1    2    0    0  0.30162271427E+02  0.83547349834E+02 -0.15121229756E+03  0.21536035200E+03  0.12500000000E+03 0.  0.
         25    1    1    2    0    0 -0.19672909675E+02 -0.13087767100E+03  0.38393578277E-01  0.18204666879E+03  0.12500000000E+03 0.  0.
</event>
<event>
 5    0  0.5568866E-005  0.2701280E+03  0.7546771E-02  0.1101206E+00
         21   -1    0    0  502  501  0.00000000000E+00  0.00000000000E+00  0.25831806610E+03  0.25831806610E+03  0.00000000000E+00 0. -1.
         21   -1    0    0  501  502 -0.00000000000E+00 -0.00000000000E+00 -0.28247779207E+03  0.28247779207E+03  0.00000000000E+00 0. -1.
         25    1    1    2    0    0  0.58340281777E+02  0.10192863845E+03 -0.98188581142E+02  0.19763358338E+03  0.12500000000E+03 0.  0.
         25    1    1    2    0    0 -0.10158873528E+03 -0.93220927018E+02  0.95010328279E+02  0.20895543747E+03  0.12500000000E+03 0.  0.
         25    1    1    2    0    0  0.43248453502E+02 -0.87077114353E+01 -0.20981473105E+02  0.13420683732E+03  0.12500000000E+03 0.  0.
</event>
<event>
 5    0  0.5568866E-005  0.2817713E+03  0.7546771E-02  0.1094725E+00
         21   -1    0    0  502  501  0.00000000000E+00  0.00000000000E+00  0.18634107577E+04  0.18634107577E+04  0.00000000000E+00 0.  1.
         21   -1    0    0  501  502 -0.00000000000E+00 -0.00000000000E+00 -0.42607400900E+02  0.42607400900E+02  0.00000000000E+00 0.  1.
         25    1    1    2    0    0 -0.11680084938E+03 -0.10896854765E+03  0.99983338717E+03  0.10202001690E+04  0.12500000000E+03 0.  0.
         25    1    1    2    0    0 -0.33169424010E+01  0.97523068667E+01  0.41214618095E+03  0.43080805943E+03  0.12500000000E+03 0.  0.
         25    1    1    2    0    0  0.12011779178E+03  0.99216240783E+02  0.40882378869E+03  0.45500993015E+03  0.12500000000E+03 0.  0.
</event>
<event>
 5    0  0.5568866E-005  0.2034069E+03  0.7546771E-02  0.1146896E+00
         21   -1    0    0  502  501  0.00000000000E+00  0.00000000000E+00  0.40646902603E+03  0.40646902603E+03  0.00000000000E+00 0.  1.
         21   -1    0    0  501  502 -0.00000000000E+00 -0.00000000000E+00 -0.10178969708E+03  0.10178969708E+03  0.00000000000E+00 0.  1.
         25    1    1    2    0    0 -0.22307959184E+02 -0.26974432757E+02  0.45345149780E+02  0.13750071881E+03  0.12500000000E+03 0.  0.
         25    1    1    2    0    0 -0.17679030683E+02  0.19131881861E+01  0.89967483132E+02  0.15503340426E+03  0.12500000000E+03 0.  0.
         25    1    1    2    0    0  0.39986989867E+02  0.25061244571E+02  0.16936669603E+03  0.21572460004E+03  0.12500000000E+03 0.  0.
</event>
<event>
 5    0  0.5568866E-005  0.7300280E+03  0.7546771E-02  0.9667215E-01
         21   -1    0    0  502  501  0.00000000000E+00  0.00000000000E+00  0.92710978826E+03  0.92710978826E+03  0.00000000000E+00 0. -1.
         21   -1    0    0  501  502 -0.00000000000E+00 -0.00000000000E+00 -0.57484111978E+03  0.57484111978E+03  0.00000000000E+00 0. -1.
         25    1    1    2    0    0 -0.16747596163E+03  0.53776280688E+03 -0.82785936426E+02  0.58285122069E+03  0.12500000000E+03 0.  0.
         25    1    1    2    0    0  0.16923297199E+03 -0.13317210093E+03 -0.71306561762E+02  0.25900624128E+03  0.12500000000E+03 0.  0.
         25    1    1    2    0    0 -0.17570103549E+01 -0.40459070595E+03  0.50636116667E+03  0.66009344606E+03  0.12500000000E+03 0.  0.
</event>
<event>
 5    0  0.6747979E-005  0.2877833E+03  0.7546771E-02  0.1091512E+00
         21   -1    0    0  502  501  0.00000000000E+00  0.00000000000E+00  0.50934092359E+03  0.50934092359E+03  0.00000000000E+00 0.  1.
         21   -1    0    0  501  502 -0.00000000000E+00 -0.00000000000E+00 -0.16260080357E+03  0.16260080357E+03  0.00000000000E+00 0.  1.
         25    1    1    2    0    0 -0.50222277564E+02 -0.87902933678E+01 -0.22390825305E+02  0.13684259380E+03  0.12500000000E+03 0.  0.
         25    1    1    2    0    0 -0.53995205081E+02  0.33958832437E+02  0.34005174524E+03  0.36787072989E+03  0.12500000000E+03 0.  0.
         25    1    1    2    0    0  0.10421748264E+03 -0.25168539070E+02  0.29079200090E+02  0.16722840347E+03  0.12500000000E+03 0.  0.
</event>
<event>
 5    0  0.6509281E-005  0.4601979E+03  0.7546771E-02  0.1024724E+00
         21   -1    0    0  502  501  0.00000000000E+00  0.00000000000E+00  0.38696396086E+03  0.38696396086E+03  0.00000000000E+00 0.  1.
         21   -1    0    0  501  502 -0.00000000000E+00 -0.00000000000E+00 -0.54729163474E+03  0.54729163474E+03  0.00000000000E+00 0.  1.
         25    1    1    2    0    0  0.68318837730E+02 -0.29397741918E+03 -0.17455016973E+03  0.37038216524E+03  0.12500000000E+03 0.  0.
         25    1    1    2    0    0  0.48919404667E+02  0.16386922482E+02  0.15748112087E+03  0.20757394541E+03  0.12500000000E+03 0.  0.
         25    1    1    2    0    0 -0.11723824240E+03  0.27759049670E+03 -0.14325862501E+03  0.35629948495E+03  0.12500000000E+03 0.  0.
</event>
<event>
 5    0  0.5568866E-005  0.3881372E+03  0.7546771E-02  0.1047967E+00
         21   -1    0    0  502  501  0.00000000000E+00  0.00000000000E+00  0.89474306774E+03  0.89474306774E+03  0.00000000000E+00 0. -1.
         21   -1    0    0  501  502 -0.00000000000E+00 -0.00000000000E+00 -0.16837289895E+03  0.16837289895E+03  0.00000000000E+00 0. -1.
         25    1    1    2    0    0 -0.12400690510E+03 -0.12434973128E+02  0.49863471795E+03  0.52895550192E+03  0.12500000000E+03 0.  0.
         25    1    1    2    0    0 -0.10735719600E+03 -0.67261414743E+02  0.18387316051E+03  0.25589842634E+03  0.12500000000E+03 0.  0.
         25    1    1    2    0    0  0.23136410109E+03  0.79696387870E+02  0.43862290326E+02  0.27826203842E+03  0.12500000000E+03 0.  0.
</event>
<event>
 5    0  0.5568866E-005  0.2528112E+03  0.7546771E-02  0.1111541E+00
         21   -1    0    0  502  501  0.00000000000E+00  0.00000000000E+00  0.43575234056E+03  0.43575234056E+03  0.00000000000E+00 0.  1.
         21   -1    0    0  501  502 -0.00000000000E+00 -0.00000000000E+00 -0.14667392654E+03  0.14667392654E+03  0.00000000000E+00 0.  1.
         25    1    1    2    0    0 -0.24457587532E+02 -0.10216658442E+03 -0.18547841657E+02  0.16433261085E+03  0.12500000000E+03 0.  0.
         25    1    1    2    0    0  0.39405698037E+02  0.84633962213E+02  0.17195721485E+03  0.23218527157E+03  0.12500000000E+03 0.  0.
         25    1    1    2    0    0 -0.14948110504E+02  0.17532622205E+02  0.13566904083E+03  0.18590838467E+03  0.12500000000E+03 0.  0.
</event>
<event>
 5    0  0.6951092E-005  0.3499667E+03  0.7546771E-02  0.1062629E+00
         21   -1    0    0  502  501  0.00000000000E+00  0.00000000000E+00  0.18137129720E+03  0.18137129720E+03  0.00000000000E+00 0.  1.
         21   -1    0    0  501  502 -0.00000000000E+00 -0.00000000000E+00 -0.67528157542E+03  0.67528157542E+03  0.00000000000E+00 0.  1.
         25    1    1    2    0    0  0.12237244168E+03 -0.16327356726E+03 -0.38994871812E+02  0.24244354452E+03  0.12500000000E+03 0.  0.
         25    1    1    2    0    0 -0.79248674815E+01  0.83291491614E+02 -0.38644808423E+03  0.41468951989E+03  0.12500000000E+03 0.  0.
         25    1    1    2    0    0 -0.11444757420E+03  0.79982075650E+02 -0.68467322171E+02  0.19951980822E+03  0.12500000000E+03 0.  0.
</event>
<event>
 5    0  0.5568866E-005  0.3057538E+03  0.7546771E-02  0.1082399E+00
         21   -1    0    0  502  501  0.00000000000E+00  0.00000000000E+00  0.30996987458E+03  0.30996987458E+03  0.00000000000E+00 0.  1.
         21   -1    0    0  501  502 -0.00000000000E+00 -0.00000000000E+00 -0.30159512516E+03  0.30159512516E+03  0.00000000000E+00 0.  1.
         25    1    1    2    0    0  0.11124638704E+03 -0.15812055285E+03  0.52413804761E+02  0.23611453745E+03  0.12500000000E+03 0.  0.
         25    1    1    2    0    0 -0.15547595627E+03  0.12628664913E+03 -0.19628636687E+02  0.23692060718E+03  0.12500000000E+03 0.  0.
         25    1    1    2    0    0  0.44229569231E+02  0.31833903724E+02 -0.24410418647E+02  0.13852985512E+03  0.12500000000E+03 0.  0.
</event>
<event>
 5    0  0.5568866E-005  0.3573096E+03  0.7546771E-02  0.1059654E+00
         21   -1    0    0  502  501  0.00000000000E+00  0.00000000000E+00  0.41291085074E+03  0.41291085074E+03  0.00000000000E+00 0.  1.
         21   -1    0    0  501  502 -0.00000000000E+00 -0.00000000000E+00 -0.30919545206E+03  0.30919545206E+03  0.00000000000E+00 0.  1.
         25    1    1    2    0    0  0.13107128172E+03  0.11802493314E+02  0.23942388382E+03  0.30044596167E+03  0.12500000000E+03 0.  0.
         25    1    1    2    0    0 -0.17279517885E+03  0.27339061400E+02 -0.17659618287E+03  0.27823876422E+03  0.12500000000E+03 0.  0.
         25    1    1    2    0    0  0.41723897125E+02 -0.39141554714E+02  0.40887697733E+02  0.14342157691E+03  0.12500000000E+03 0.  0.
</event>
<event>
 5    0  0.5568866E-005  0.2595159E+03  0.7546771E-02  0.1107434E+00
         21   -1    0    0  502  501  0.00000000000E+00  0.00000000000E+00  0.12060689012E+03  0.12060689012E+03  0.00000000000E+00 0. -1.
         21   -1    0    0  501  502 -0.00000000000E+00 -0.00000000000E+00 -0.55841327545E+03  0.55841327545E+03  0.00000000000E+00 0.  1.
         25    1    1    2    0    0  0.12491277018E+03  0.90141802455E+02 -0.14615565065E+03  0.24640458380E+03  0.12500000000E+03 0.  0.
         25    1    1    2    0    0  0.13979992585E+01 -0.22793471834E+02 -0.14333232928E+03  0.19154804456E+03  0.12500000000E+03 0.  0.
         25    1    1    2    0    0 -0.12631076943E+03 -0.67348330621E+02 -0.14831840541E+03  0.24106753721E+03  0.12500000000E+03 0.  0.
</event>
<event>
 5    0  0.5568866E-005  0.3556753E+03  0.7546771E-02  0.1060309E+00
         21   -1    0    0  502  501  0.00000000000E+00  0.00000000000E+00  0.49562440880E+03  0.49562440880E+03  0.00000000000E+00 0. -1.
         21   -1    0    0  501  502 -0.00000000000E+00 -0.00000000000E+00 -0.25524355732E+03  0.25524355732E+03  0.00000000000E+00 0. -1.
         25    1    1    2    0    0  0.52436611993E+02 -0.26642647313E+03  0.94119614686E+01  0.29907565745E+03  0.12500000000E+03 0.  0.
         25    1    1    2    0    0 -0.18023614742E+02  0.89777648629E+02  0.37360895500E+02  0.15939169801E+03  0.12500000000E+03 0.  0.
         25    1    1    2    0    0 -0.34412997251E+02  0.17664882450E+03  0.19360799451E+03  0.29240061066E+03  0.12500000000E+03 0.  0.
</event>
<event>
 5    0  0.5568866E-005  0.2611180E+03  0.7546771E-02  0.1106473E+00
         21   -1    0    0  502  501  0.00000000000E+00  0.00000000000E+00  0.23948846027E+03  0.23948846027E+03  0.00000000000E+00 0.  1.
         21   -1    0    0  501  502 -0.00000000000E+00 -0.00000000000E+00 -0.28470107190E+03  0.28470107190E+03  0.00000000000E+00 0.  1.
         25    1    1    2    0    0 -0.12883274371E+03  0.31005301283E+02 -0.86290754584E+02  0.20156958820E+03  0.12500000000E+03 0.  0.
         25    1    1    2    0    0  0.24505029613E+02  0.46762245096E+02  0.42457497956E+02  0.14217891256E+03  0.12500000000E+03 0.  0.
         25    1    1    2    0    0  0.10432771410E+03 -0.77767546379E+02 -0.13793550047E+01  0.18044103142E+03  0.12500000000E+03 0.  0.
</event>
<event>
 5    0  0.5568866E-005  0.3635349E+03  0.7546771E-02  0.1057193E+00
         21   -1    0    0  502  501  0.00000000000E+00  0.00000000000E+00  0.35504031695E+03  0.35504031695E+03  0.00000000000E+00 0. -1.
         21   -1    0    0  501  502 -0.00000000000E+00 -0.00000000000E+00 -0.37223268355E+03  0.37223268355E+03  0.00000000000E+00 0. -1.
         25    1    1    2    0    0 -0.14514171161E+03 -0.10617613726E+03 -0.55873182306E+02  0.22602278884E+03  0.12500000000E+03 0.  0.
         25    1    1    2    0    0  0.18506819927E+03  0.22519476435E+03 -0.10711295380E+02  0.31733681180E+03  0.12500000000E+03 0.  0.
         25    1    1    2    0    0 -0.39926487654E+02 -0.11901862710E+03  0.49392111087E+02  0.18391339987E+03  0.12500000000E+03 0.  0.
</event>
<event>
 5    0  0.5568866E-005  0.2834130E+03  0.7546771E-02  0.1093839E+00
         21   -1    0    0  502  501  0.00000000000E+00  0.00000000000E+00  0.13903173205E+04  0.13903173205E+04  0.00000000000E+00 0. -1.
         21   -1    0    0  501  502 -0.00000000000E+00 -0.00000000000E+00 -0.57773084926E+02  0.57773084926E+02  0.00000000000E+00 0. -1.
         25    1    1    2    0    0 -0.86329093609E+02 -0.10969121058E+03  0.30433577042E+03  0.35739352993E+03  0.12500000000E+03 0.  0.
         25    1    1    2    0    0  0.55043116635E+01 -0.42234564100E+02  0.57630279536E+03  0.59123934899E+03  0.12500000000E+03 0.  0.
         25    1    1    2    0    0  0.80824781945E+02  0.15192577468E+03  0.45190566979E+03  0.49945752650E+03  0.12500000000E+03 0.  0.
</event>
<event>
 5    0  0.5568866E-005  0.2996664E+03  0.7546771E-02  0.1085408E+00
         21   -1    0    0  502  501  0.00000000000E+00  0.00000000000E+00  0.12242685477E+03  0.12242685477E+03  0.00000000000E+00 0. -1.
         21   -1    0    0  501  502 -0.00000000000E+00 -0.00000000000E+00 -0.73349859670E+03  0.73349859670E+03  0.00000000000E+00 0. -1.
         25    1    1    2    0    0 -0.13306477698E+02  0.10060029515E+03 -0.97464531597E+02  0.18820684539E+03  0.12500000000E+03 0.  0.
         25    1    1    2    0    0 -0.11640816229E+03 -0.52296465728E+02 -0.42544398685E+03  0.46142536398E+03  0.12500000000E+03 0.  0.
         25    1    1    2    0    0  0.12971463999E+03 -0.48303829421E+02 -0.88163223479E+02  0.20629324210E+03  0.12500000000E+03 0.  0.
</event>
<event>
 5    0  0.5568866E-005  0.2321759E+03  0.7546771E-02  0.1125118E+00
         21   -1    0    0  502  501  0.00000000000E+00  0.00000000000E+00  0.60112981442E+02  0.60112981442E+02  0.00000000000E+00 0.  1.
         21   -1    0    0  501  502 -0.00000000000E+00 -0.00000000000E+00 -0.89673885864E+03  0.89673885864E+03  0.00000000000E+00 0.  1.
         25    1    1    2    0    0  0.93385511283E+02 -0.24542820070E+02 -0.22593705409E+03  0.27567327790E+03  0.12500000000E+03 0.  0.
         25    1    1    2    0    0  0.17843592828E+02  0.20373323205E+02 -0.19659720977E+03  0.23453982389E+03  0.12500000000E+03 0.  0.
         25    1    1    2    0    0 -0.11122910411E+03  0.41694968650E+01 -0.41409161334E+03  0.44663873829E+03  0.12500000000E+03 0.  0.
</event>
<event>
 5    0  0.5568866E-005  0.5162650E+03  0.7546771E-02  0.1009619E+00
         21   -1    0    0  502  501  0.00000000000E+00  0.00000000000E+00  0.52717610881E+03  0.52717610881E+03  0.00000000000E+00 0.  1.
         21   -1    0    0  501  502 -0.00000000000E+00 -0.00000000000E+00 -0.50557965417E+03  0.50557965417E+03  0.00000000000E+00 0.  1.
         25    1    1    2    0    0  0.29506264472E+03  0.66920876338E+01 -0.22727441878E+03  0.39291908809E+03  0.12500000000E+03 0.  0.
         25    1    1    2    0    0 -0.38791156354E+03  0.61805075175E+02  0.12970265646E+03  0.43213774140E+03  0.12500000000E+03 0.  0.
         25    1    1    2    0    0  0.92848918820E+02 -0.68497162809E+02  0.11916821696E+03  0.20769893349E+03  0.12500000000E+03 0.  0.
</event>
<event>
 5    0  0.5568866E-005  0.2238046E+03  0.7546771E-02  0.1131078E+00
         21   -1    0    0  502  501  0.00000000000E+00  0.00000000000E+00  0.52007243166E+03  0.52007243166E+03  0.00000000000E+00 0.  1.
         21   -1    0    0  501  502 -0.00000000000E+00 -0.00000000000E+00 -0.96310610133E+02  0.96310610133E+02  0.00000000000E+00 0.  1.
         25    1    1    2    0    0  0.64123963826E+02  0.36114147811E+00  0.10777855609E+03  0.17706843398E+03  0.12500000000E+03 0.  0.
         25    1    1    2    0    0 -0.98752967785E+02 -0.37493771600E+02  0.21789214135E+03  0.27250672802E+03  0.12500000000E+03 0.  0.
         25    1    1    2    0    0  0.34629003958E+02  0.37132630122E+02  0.98091124087E+02  0.16680787979E+03  0.12500000000E+03 0.  0.
</event>
<event>
 5    0  0.5632379E-005  0.3298520E+03  0.7546771E-02  0.1071202E+00
         21   -1    0    0  502  501  0.00000000000E+00  0.00000000000E+00  0.14682121679E+03  0.14682121679E+03  0.00000000000E+00 0. -1.
         21   -1    0    0  501  502 -0.00000000000E+00 -0.00000000000E+00 -0.74105315389E+03  0.74105315389E+03  0.00000000000E+00 0. -1.
         25    1    1    2    0    0  0.54485154285E+02  0.46503069473E+02 -0.24797790673E+03  0.28679123022E+03  0.12500000000E+03 0.  0.
         25    1    1    2    0    0 -0.26738974407E+02 -0.22767215183E+03 -0.13162168156E+03  0.29240186136E+03  0.12500000000E+03 0.  0.
         25    1    1    2    0    0 -0.27746179878E+02  0.18116908236E+03 -0.21463234882E+03  0.30868127909E+03  0.12500000000E+03 0.  0.
</event>
<event>
 5    0  0.5568866E-005  0.2063114E+03  0.7546771E-02  0.1144521E+00
         21   -1    0    0  502  501  0.00000000000E+00  0.00000000000E+00  0.14742727755E+03  0.14742727755E+03  0.00000000000E+00 0.  1.
         21   -1    0    0  501  502 -0.00000000000E+00 -0.00000000000E+00 -0.28871440420E+03  0.28871440420E+03  0.00000000000E+00 0.  1.
         25    1    1    2    0    0 -0.45827008194E+02  0.96450918178E+01 -0.75576470773E+02  0.15339473723E+03  0.12500000000E+03 0.  0.
         25    1    1    2    0    0 -0.25572623628E+02 -0.24101186479E+02 -0.39435429210E+02  0.13570180303E+03  0.12500000000E+03 0.  0.
         25    1    1    2    0    0  0.71399631822E+02  0.14456094661E+02 -0.26275226662E+02  0.14704514148E+03  0.12500000000E+03 0.  0.
</event>
<event>
 5    0  0.5568866E-005  0.6117540E+03  0.7546771E-02  0.9881316E-01
         21   -1    0    0  502  501  0.00000000000E+00  0.00000000000E+00  0.47063554500E+03  0.47063554500E+03  0.00000000000E+00 0. -1.
         21   -1    0    0  501  502 -0.00000000000E+00 -0.00000000000E+00 -0.79518637158E+03  0.79518637158E+03  0.00000000000E+00 0. -1.
         25    1    1    2    0    0 -0.16283678322E+02 -0.16331720327E+02 -0.56916684472E+03  0.58318760309E+03  0.12500000000E+03 0.  0.
         25    1    1    2    0    0  0.24672659874E+03 -0.13569303333E+03  0.22003816083E+03  0.37858738230E+03  0.12500000000E+03 0.  0.
         25    1    1    2    0    0 -0.23044292041E+03  0.15202475366E+03  0.24577857309E+02  0.30404693118E+03  0.12500000000E+03 0.  0.
</event>
<event>
 5    0  0.5568866E-005  0.2765488E+03  0.7546771E-02  0.1097589E+00
         21   -1    0    0  502  501  0.00000000000E+00  0.00000000000E+00  0.14123877309E+04  0.14123877309E+04  0.00000000000E+00 0. -1.
         21   -1    0    0  501  502 -0.00000000000E+00 -0.00000000000E+00 -0.54148895561E+02  0.54148895561E+02  0.00000000000E+00 0. -1.
         25    1    1    2    0    0 -0.87153389472E+02  0.71658137733E+02  0.23897977545E+03  0.29234728505E+03  0.12500000000E+03 0.  0.
         25    1    1    2    0    0  0.31151136374E+01 -0.10630269534E+03  0.83158588971E+03  0.84762613158E+03  0.12500000000E+03 0.  0.
         25    1    1    2    0    0  0.84038275835E+02  0.34644557607E+02  0.28767317018E+03  0.32656320983E+03  0.12500000000E+03 0.  0.
</event>
<event>
 5    0  0.5568866E-005  0.2252286E+03  0.7546771E-02  0.1130044E+00
         21   -1    0    0  502  501  0.00000000000E+00  0.00000000000E+00  0.10289739986E+03  0.10289739986E+03  0.00000000000E+00 0.  1.
         21   -1    0    0  501  502 -0.00000000000E+00 -0.00000000000E+00 -0.49299526249E+03  0.49299526249E+03  0.00000000000E+00 0.  1.
         25    1    1    2    0    0  0.50642295385E+02 -0.37043834470E+02 -0.41810292228E+02  0.14597941050E+03  0.12500000000E+03 0.  0.
         25    1    1    2    0    0 -0.70957232849E+02  0.30411959503E+02 -0.24793953081E+03  0.28819928367E+03  0.12500000000E+03 0.  0.
         25    1    1    2    0    0  0.20314937464E+02  0.66318749676E+01 -0.10034803959E+03  0.16171396817E+03  0.12500000000E+03 0.  0.
</event>
<event>
 5    0  0.5568866E-005  0.2696360E+03  0.7546771E-02  0.1101488E+00
         21   -1    0    0  502  501  0.00000000000E+00  0.00000000000E+00  0.25992964459E+03  0.25992964459E+03  0.00000000000E+00 0. -1.
         21   -1    0    0  501  502 -0.00000000000E+00 -0.00000000000E+00 -0.27970477203E+03  0.27970477203E+03  0.00000000000E+00 0. -1.
         25    1    1    2    0    0 -0.68693112582E+02  0.65547842051E+02 -0.38450004769E+02  0.16161270427E+03  0.12500000000E+03 0.  0.
         25    1    1    2    0    0  0.11353894879E+03 -0.13039566863E+03 -0.43407734816E+02  0.21772311483E+03  0.12500000000E+03 0.  0.
         25    1    1    2    0    0 -0.44845836206E+02  0.64847826581E+02  0.62082612149E+02  0.16029859753E+03  0.12500000000E+03 0.  0.
</event>
<event>
 5    0  0.5568866E-005  0.2468784E+03  0.7546771E-02  0.1115294E+00
         21   -1    0    0  502  501  0.00000000000E+00  0.00000000000E+00  0.10613612096E+03  0.10613612096E+03  0.00000000000E+00 0. -1.
         21   -1    0    0  501  502 -0.00000000000E+00 -0.00000000000E+00 -0.57425243142E+03  0.57425243142E+03  0.00000000000E+00 0. -1.
         25    1    1    2    0    0  0.71789160138E+02 -0.89674675365E+02 -0.10572328871E+03  0.19999411164E+03  0.12500000000E+03 0.  0.
         25    1    1    2    0    0 -0.38643585560E+02 -0.34063517968E+02 -0.17665642947E+03  0.22245481346E+03  0.12500000000E+03 0.  0.
         25    1    1    2    0    0 -0.33145574577E+02  0.12373819333E+03 -0.18573659229E+03  0.25793962727E+03  0.12500000000E+03 0.  0.
</event>
<event>
 5    0  0.5568866E-005  0.3054663E+03  0.7546771E-02  0.1082540E+00
         21   -1    0    0  502  501  0.00000000000E+00  0.00000000000E+00  0.36338951945E+03  0.36338951945E+03  0.00000000000E+00 0. -1.
         21   -1    0    0  501  502 -0.00000000000E+00 -0.00000000000E+00 -0.25677585864E+03  0.25677585864E+03  0.00000000000E+00 0. -1.
         25    1    1    2    0    0  0.34574667388E+02 -0.33054352232E+02 -0.11852110321E+03  0.17877429830E+03  0.12500000000E+03 0.  0.
         25    1    1    2    0    0 -0.99225008009E+02  0.12687973286E+03  0.81783024815E+02  0.21967597041E+03  0.12500000000E+03 0.  0.
         25    1    1    2    0    0  0.64650340621E+02 -0.93825380632E+02  0.14335173921E+03  0.22171510938E+03  0.12500000000E+03 0.  0.
</event>
<event>
 5    0  0.5568866E-005  0.3064184E+03  0.7546771E-02  0.1082075E+00
         21   -1    0    0  502  501  0.00000000000E+00  0.00000000000E+00  0.20677732116E+04  0.20677732116E+04  0.00000000000E+00 0.  1.
         21   -1    0    0  501  502 -0.00000000000E+00 -0.00000000000E+00 -0.45407406761E+02  0.45407406761E+02  0.00000000000E+00 0.  1.
         25    1    1    2    0    0 -0.11335179430E+03 -0.81188085440E+02  0.56240308200E+03  0.59275826534E+03  0.12500000000E+03 0.  0.
         25    1    1    2    0    0  0.21189260497E+03  0.80957756772E+01  0.75940831914E+03  0.79830446122E+03  0.12500000000E+03 0.  0.
         25    1    1    2    0    0 -0.98540810668E+02  0.73092309763E+02  0.70055440366E+03  0.72211789176E+03  0.12500000000E+03 0.  0.
</event>
<event>
 5    0  0.5568866E-005  0.3394923E+03  0.7546771E-02  0.1067012E+00
         21   -1    0    0  502  501  0.00000000000E+00  0.00000000000E+00  0.15005423238E+04  0.15005423238E+04  0.00000000000E+00 0. -1.
         21   -1    0    0  501  502 -0.00000000000E+00 -0.00000000000E+00 -0.76808905765E+02  0.76808905765E+02  0.00000000000E+00 0. -1.
         25    1    1    2    0    0  0.63512552264E+02 -0.17384113801E+03  0.35087148905E+03  0.41592113121E+03  0.12500000000E+03 0.  0.
         25    1    1    2    0    0  0.41045645299E+02  0.14015215860E+03  0.90451889347E+03  0.92471985012E+03  0.12500000000E+03 0.  0.
         25    1    1    2    0    0 -0.10455819756E+03  0.33688979404E+02  0.16834303550E+03  0.23671024822E+03  0.12500000000E+03 0.  0.
</event>
<event>
 5    0  0.5568866E-005  0.5699914E+03  0.7546771E-02  0.9969698E-01
         21   -1    0    0  502  501  0.00000000000E+00  0.00000000000E+00  0.18096402644E+03  0.18096402644E+03  0.00000000000E+00 0. -1.
         21   -1    0    0  501  502 -0.00000000000E+00 -0.00000000000E+00 -0.17953303502E+04  0.17953303502E+04  0.00000000000E+00 0. -1.
         25    1    1    2    0    0  0.24853426429E+03 -0.19009677132E+03 -0.12798738469E+04  0.13234833308E+04  0.12500000000E+03 0.  0.
         25    1    1    2    0    0 -0.62885819113E+02  0.35714574469E+02 -0.35188435998E+03  0.38036529794E+03  0.12500000000E+03 0.  0.
         25    1    1    2    0    0 -0.18564844518E+03  0.15438219685E+03  0.17391883186E+02  0.27244574781E+03  0.12500000000E+03 0.  0.
</event>
<event>
 5    0  0.5723391E-005  0.3130738E+03  0.7546771E-02  0.1078882E+00
         21   -1    0    0  502  501  0.00000000000E+00  0.00000000000E+00  0.54798844874E+03  0.54798844874E+03  0.00000000000E+00 0.  1.
         21   -1    0    0  501  502 -0.00000000000E+00 -0.00000000000E+00 -0.17886359763E+03  0.17886359763E+03  0.00000000000E+00 0.  1.
         25    1    1    2    0    0  0.75139257135E+02 -0.11323392999E+03  0.26680554313E+01  0.18466171607E+03  0.12500000000E+03 0.  0.
         25    1    1    2    0    0  0.95449708563E+02  0.31031405915E+02  0.21969726784E+03  0.27196596205E+03  0.12500000000E+03 0.  0.
         25    1    1    2    0    0 -0.17058896570E+03  0.82202524074E+02  0.14675952783E+03  0.27022436824E+03  0.12500000000E+03 0.  0.
</event>
<event>
 5    0  0.5568866E-005  0.3059772E+03  0.7546771E-02  0.1082290E+00
         21   -1    0    0  502  501  0.00000000000E+00  0.00000000000E+00  0.62659495176E+02  0.62659495176E+02  0.00000000000E+00 0.  1.
         21   -1    0    0  501  502 -0.00000000000E+00 -0.00000000000E+00 -0.14941396283E+04  0.14941396283E+04  0.00000000000E+00 0.  1.
         25    1    1    2    0    0  0.49053857197E+02 -0.26465213747E+02 -0.11327386092E+04  0.11409769696E+04  0.12500000000E+03 0.  0.
         25    1    1    2    0    0  0.80277286838E+01  0.36172461657E+02 -0.22377853779E+03  0.25898788656E+03  0.12500000000E+03 0.  0.
         25    1    1    2    0    0 -0.57081585880E+02 -0.97072479102E+01 -0.74962986151E+02  0.15683426731E+03  0.12500000000E+03 0.  0.
</event>
<event>
 5    0  0.5568866E-005  0.5429756E+03  0.7546771E-02  0.1003133E+00
         21   -1    0    0  502  501  0.00000000000E+00  0.00000000000E+00  0.95469698611E+03  0.95469698611E+03  0.00000000000E+00 0.  1.
         21   -1    0    0  501  502 -0.00000000000E+00 -0.00000000000E+00 -0.30881267029E+03  0.30881267029E+03  0.00000000000E+00 0.  1.
         25    1    1    2    0    0 -0.26768308865E+02  0.20743562497E+03  0.21515554825E+03  0.32505844214E+03  0.12500000000E+03 0.  0.
         25    1    1    2    0    0  0.18949586655E+03 -0.44118829417E+03  0.37621557222E+03  0.62267082085E+03  0.12500000000E+03 0.  0.
         25    1    1    2    0    0 -0.16272755769E+03  0.23375266920E+03  0.54513195354E+02  0.31578039340E+03  0.12500000000E+03 0.  0.
</event>
<event>
 5    0  0.5568866E-005  0.3719421E+03  0.7546771E-02  0.1053953E+00
         21   -1    0    0  502  501  0.00000000000E+00  0.00000000000E+00  0.45259399293E+03  0.45259399293E+03  0.00000000000E+00 0.  1.
         21   -1    0    0  501  502 -0.00000000000E+00 -0.00000000000E+00 -0.30566227991E+03  0.30566227991E+03  0.00000000000E+00 0. -1.
         25    1    1    2    0    0  0.73987847920E+02  0.50271883829E+02  0.27001635898E+03  0.31070130038E+03  0.12500000000E+03 0.  0.
         25    1    1    2    0    0 -0.11950462567E+03  0.12092251510E+03 -0.84680914041E+02  0.22737516887E+03  0.12500000000E+03 0.  0.
         25    1    1    2    0    0  0.45516777750E+02 -0.17119439893E+03 -0.38403731918E+02  0.22017980359E+03  0.12500000000E+03 0.  0.
</event>
<event>
 5    0  0.5568866E-005  0.2992981E+03  0.7546771E-02  0.1085592E+00
         21   -1    0    0  502  501  0.00000000000E+00  0.00000000000E+00  0.21131601996E+04  0.21131601996E+04  0.00000000000E+00 0.  1.
         21   -1    0    0  501  502 -0.00000000000E+00 -0.00000000000E+00 -0.42391167528E+02  0.42391167528E+02  0.00000000000E+00 0.  1.
         25    1    1    2    0    0 -0.12673814229E+03  0.14391784499E+03  0.52855059985E+03  0.57599100637E+03  0.12500000000E+03 0.  0.
         25    1    1    2    0    0  0.11101420817E+03 -0.33359282543E+02  0.66738088165E+03  0.68881001542E+03  0.12500000000E+03 0.  0.
         25    1    1    2    0    0  0.15723934116E+02 -0.11055856244E+03  0.87483755059E+03  0.89075034536E+03  0.12500000000E+03 0.  0.
</event>
<event>
 5    0  0.5568866E-005  0.2359394E+03  0.7546771E-02  0.1122528E+00
         21   -1    0    0  502  501  0.00000000000E+00  0.00000000000E+00  0.79842852494E+02  0.79842852494E+02  0.00000000000E+00 0.  1.
         21   -1    0    0  501  502 -0.00000000000E+00 -0.00000000000E+00 -0.69721230352E+03  0.69721230352E+03  0.00000000000E+00 0.  1.
         25    1    1    2    0    0  0.83972201148E+02 -0.12566525797E+02 -0.25299972938E+03  0.29469155265E+03  0.12500000000E+03 0.  0.
         25    1    1    2    0    0  0.36075036203E+02  0.38481602447E+02 -0.20287381345E+03  0.24405947256E+03  0.12500000000E+03 0.  0.
         25    1    1    2    0    0 -0.12004723735E+03 -0.25915076649E+02 -0.16149590819E+03  0.23830413080E+03  0.12500000000E+03 0.  0.
</event>
<event>
 5    0  0.5568866E-005  0.2522380E+03  0.7546771E-02  0.1111899E+00
         21   -1    0    0  502  501  0.00000000000E+00  0.00000000000E+00  0.19728529477E+03  0.19728529477E+03  0.00000000000E+00 0. -1.
         21   -1    0    0  501  502 -0.00000000000E+00 -0.00000000000E+00 -0.32249736890E+03  0.32249736890E+03  0.00000000000E+00 0. -1.
         25    1    1    2    0    0  0.57082001669E+01 -0.45416051390E+02 -0.22132705524E+02  0.13494464764E+03  0.12500000000E+03 0.  0.
         25    1    1    2    0    0 -0.11851998939E+03  0.68277806172E+02 -0.10869382133E+03  0.21482130597E+03  0.12500000000E+03 0.  0.
         25    1    1    2    0    0  0.11281178922E+03 -0.22861754781E+02  0.56144527242E+01  0.17001671006E+03  0.12500000000E+03 0.  0.
</event>
<event>
 5    0  0.5568866E-005  0.3454925E+03  0.7546771E-02  0.1064480E+00
         21   -1    0    0  502  501  0.00000000000E+00  0.00000000000E+00  0.29985722309E+03  0.29985722309E+03  0.00000000000E+00 0.  1.
         21   -1    0    0  501  502 -0.00000000000E+00 -0.00000000000E+00 -0.39807289999E+03  0.39807289999E+03  0.00000000000E+00 0.  1.
         25    1    1    2    0    0  0.88797453655E+02 -0.49760475224E+02 -0.23607318355E+02  0.16292144779E+03  0.12500000000E+03 0.  0.
         25    1    1    2    0    0 -0.11883480933E+03 -0.18882879340E+03 -0.64746335877E+02  0.26380885720E+03  0.12500000000E+03 0.  0.
         25    1    1    2    0    0  0.30037355674E+02  0.23858926863E+03 -0.98620226709E+01  0.27119981809E+03  0.12500000000E+03 0.  0.
</event>
<event>
 5    0  0.5568866E-005  0.3543446E+03  0.7546771E-02  0.1060846E+00
         21   -1    0    0  502  501  0.00000000000E+00  0.00000000000E+00  0.15816493634E+04  0.15816493634E+04  0.00000000000E+00 0.  1.
         21   -1    0    0  501  502 -0.00000000000E+00 -0.00000000000E+00 -0.79385554335E+02  0.79385554335E+02  0.00000000000E+00 0.  1.
         25    1    1    2    0    0 -0.72362240503E+02  0.50076259759E+02  0.12285934137E+03  0.19612073680E+03  0.12500000000E+03 0.  0.
         25    1    1    2    0    0 -0.72316114374E+02 -0.16596938183E+01  0.11335569331E+03  0.18359435772E+03  0.12500000000E+03 0.  0.
         25    1    1    2    0    0  0.14467835488E+03 -0.48416565940E+02  0.12660487744E+04  0.12813198232E+04  0.12500000000E+03 0.  0.
</event>
<event>
 5    0  0.5568866E-005  0.2506726E+03  0.7546771E-02  0.1112881E+00
         21   -1    0    0  502  501  0.00000000000E+00  0.00000000000E+00  0.51746602522E+03  0.51746602522E+03  0.00000000000E+00 0.  1.
         21   -1    0    0  501  502 -0.00000000000E+00 -0.00000000000E+00 -0.12143160568E+03  0.12143160568E+03  0.00000000000E+00 0.  1.
         25    1    1    2    0    0 -0.97404270691E+01 -0.92684205745E+01  0.30391451010E+02  0.12934225850E+03  0.12500000000E+03 0.  0.
         25    1    1    2    0    0 -0.68947478264E+02  0.67638281931E+02  0.67572426645E+02  0.17181305185E+03  0.12500000000E+03 0.  0.
         25    1    1    2    0    0  0.78687905333E+02 -0.58369861357E+02  0.29807054188E+03  0.33774232056E+03  0.12500000000E+03 0.  0.
</event>
<event>
 5    0  0.5568866E-005  0.6191276E+03  0.7546771E-02  0.9866498E-01
         21   -1    0    0  502  501  0.00000000000E+00  0.00000000000E+00  0.22392845290E+04  0.22392845290E+04  0.00000000000E+00 0.  1.
         21   -1    0    0  501  502 -0.00000000000E+00 -0.00000000000E+00 -0.17117921837E+03  0.17117921837E+03  0.00000000000E+00 0.  1.
         25    1    1    2    0    0 -0.21060414113E+03 -0.46117834846E+03  0.56865694328E+03  0.77203321981E+03  0.12500000000E+03 0.  0.
         25    1    1    2    0    0 -0.54958458340E+02  0.25554811169E+03  0.82958376986E+03  0.87872606696E+03  0.12500000000E+03 0.  0.
         25    1    1    2    0    0  0.26556259947E+03  0.20563023677E+03  0.66986459751E+03  0.75970446063E+03  0.12500000000E+03 0.  0.
</event>
<event>
 5    0  0.5568866E-005  0.3132786E+03  0.7546771E-02  0.1078785E+00
         21   -1    0    0  502  501  0.00000000000E+00  0.00000000000E+00  0.49920769704E+03  0.49920769704E+03  0.00000000000E+00 0. -1.
         21   -1    0    0  501  502 -0.00000000000E+00 -0.00000000000E+00 -0.19659851359E+03  0.19659851359E+03  0.00000000000E+00 0. -1.
         25    1    1    2    0    0  0.15073795699E+03  0.12651019724E+03  0.17419735136E+03  0.29102659484E+03  0.12500000000E+03 0.  0.
         25    1    1    2    0    0 -0.51034044627E+02  0.47150877659E+02  0.79787862001E+02  0.16376440974E+03  0.12500000000E+03 0.  0.
         25    1    1    2    0    0 -0.99703912361E+02 -0.17366107490E+03  0.48623970087E+02  0.24101520604E+03  0.12500000000E+03 0.  0.
</event>
<event>
 5    0  0.5568866E-005  0.4936065E+03  0.7546771E-02  0.1015461E+00
         21   -1    0    0  502  501  0.00000000000E+00  0.00000000000E+00  0.12810575688E+04  0.12810575688E+04  0.00000000000E+00 0. -1.
         21   -1    0    0  501  502 -0.00000000000E+00 -0.00000000000E+00 -0.19019234124E+03  0.19019234124E+03  0.00000000000E+00 0. -1.
         25    1    1    2    0    0  0.15398888902E+03 -0.24877757388E+03  0.44234977189E+03  0.54488639174E+03  0.12500000000E+03 0.  0.
         25    1    1    2    0    0 -0.24479732502E+02 -0.11735889625E+03  0.42994087292E+03  0.46351539568E+03  0.12500000000E+03 0.  0.
         25    1    1    2    0    0 -0.12950915652E+03  0.36613647013E+03  0.21857458273E+03  0.46284812260E+03  0.12500000000E+03 0.  0.
</event>
<event>
 5    0  0.5568866E-005  0.3039604E+03  0.7546771E-02  0.1083277E+00
         21   -1    0    0  502  501  0.00000000000E+00  0.00000000000E+00  0.72652738255E+02  0.72652738255E+02  0.00000000000E+00 0. -1.
         21   -1    0    0  501  502 -0.00000000000E+00 -0.00000000000E+00 -0.12716921348E+04  0.12716921348E+04  0.00000000000E+00 0. -1.
         25    1    1    2    0    0  0.65188061167E+02 -0.52618603508E+02 -0.88520237294E+03  0.89790113143E+03  0.12500000000E+03 0.  0.
         25    1    1    2    0    0 -0.98592088671E+02  0.15033780937E+02 -0.25139183948E+03  0.29794172496E+03  0.12500000000E+03 0.  0.
         25    1    1    2    0    0  0.33404027503E+02  0.37584822571E+02 -0.62445184171E+02  0.14850201671E+03  0.12500000000E+03 0.  0.
</event>
<event>
 5    0  0.5568866E-005  0.4691600E+03  0.7546771E-02  0.1022158E+00
         21   -1    0    0  502  501  0.00000000000E+00  0.00000000000E+00  0.49338063299E+03  0.49338063299E+03  0.00000000000E+00 0. -1.
         21   -1    0    0  501  502 -0.00000000000E+00 -0.00000000000E+00 -0.44612831786E+03  0.44612831786E+03  0.00000000000E+00 0. -1.
         25    1    1    2    0    0  0.25061881682E+01  0.13707793267E+03  0.21421795000E+03  0.28339190304E+03  0.12500000000E+03 0.  0.
         25    1    1    2    0    0 -0.18331885854E+03 -0.22217089759E+03  0.70198758312E+02  0.32174302992E+03  0.12500000000E+03 0.  0.
         25    1    1    2    0    0  0.18081267037E+03  0.85092964923E+02 -0.23716439319E+03  0.33437401790E+03  0.12500000000E+03 0.  0.
</event>
<event>
 5    0  0.5568866E-005  0.3195646E+03  0.7546771E-02  0.1075850E+00
         21   -1    0    0  502  501  0.00000000000E+00  0.00000000000E+00  0.18572813868E+03  0.18572813868E+03  0.00000000000E+00 0.  1.
         21   -1    0    0  501  502 -0.00000000000E+00 -0.00000000000E+00 -0.54984406795E+03  0.54984406795E+03  0.00000000000E+00 0.  1.
         25    1    1    2    0    0  0.97341886378E+02  0.10224159522E+03 -0.23240038033E+03  0.29927198902E+03  0.12500000000E+03 0.  0.
         25    1    1    2    0    0 -0.45287462548E+02 -0.20588168472E+03 -0.68867004648E+02  0.25457000353E+03  0.12500000000E+03 0.  0.
         25    1    1    2    0    0 -0.52054423829E+02  0.10364008950E+03 -0.62848544297E+02  0.18173021409E+03  0.12500000000E+03 0.  0.
</event>
<event>
 5    0  0.5752110E-005  0.4393236E+03  0.7546771E-02  0.1030955E+00
         21   -1    0    0  502  501  0.00000000000E+00  0.00000000000E+00  0.34526864100E+03  0.34526864100E+03  0.00000000000E+00 0. -1.
         21   -1    0    0  501  502 -0.00000000000E+00 -0.00000000000E+00 -0.55900024359E+03  0.55900024359E+03  0.00000000000E+00 0. -1.
         25    1    1    2    0    0  0.15291296080E+03 -0.30154712241E+02  0.21223990497E+03  0.29148320280E+03  0.12500000000E+03 0.  0.
         25    1    1    2    0    0  0.22495830357E+00  0.16046190380E+03 -0.20905776437E+03  0.29168171355E+03  0.12500000000E+03 0.  0.
         25    1    1    2    0    0 -0.15313791910E+03 -0.13030719156E+03 -0.21691374318E+03  0.32110396824E+03  0.12500000000E+03 0.  0.
</event>
<event>
 5    0  0.5568866E-005  0.2636943E+03  0.7546771E-02  0.1104944E+00
         21   -1    0    0  502  501  0.00000000000E+00  0.00000000000E+00  0.65340523535E+02  0.65340523535E+02  0.00000000000E+00 0.  1.
         21   -1    0    0  501  502 -0.00000000000E+00 -0.00000000000E+00 -0.10641891654E+04  0.10641891654E+04  0.00000000000E+00 0.  1.
         25    1    1    2    0    0  0.66922862429E+02  0.15191112004E+03 -0.29463583909E+03  0.36054255724E+03  0.12500000000E+03 0.  0.
         25    1    1    2    0    0  0.17835424665E+01 -0.76157011981E+02 -0.36611920822E+03  0.39429854948E+03  0.12500000000E+03 0.  0.
         25    1    1    2    0    0 -0.68706404896E+02 -0.75754108056E+02 -0.33809359461E+03  0.37468858226E+03  0.12500000000E+03 0.  0.
</event>
<event>
 5    0  0.5568866E-005  0.2084796E+03  0.7546771E-02  0.1142776E+00
         21   -1    0    0  502  501  0.00000000000E+00  0.00000000000E+00  0.49346832064E+03  0.49346832064E+03  0.00000000000E+00 0. -1.
         21   -1    0    0  501  502 -0.00000000000E+00 -0.00000000000E+00 -0.88078114893E+02  0.88078114893E+02  0.00000000000E+00 0. -1.
         25    1    1    2    0    0 -0.59301951939E+02  0.12104448831E+02  0.11911812497E+03  0.18296821276E+03  0.12500000000E+03 0.  0.
         25    1    1    2    0    0  0.14121826608E+02  0.58299213021E+01  0.69951635952E+02  0.14405431386E+03  0.12500000000E+03 0.  0.
         25    1    1    2    0    0  0.45180125331E+02 -0.17934370133E+02  0.21632044482E+03  0.25452390891E+03  0.12500000000E+03 0.  0.
</event>
<event>
 5    0  0.5568866E-005  0.1610257E+04  0.7546771E-02  0.8814271E-01
         21   -1    0    0  502  501  0.00000000000E+00  0.00000000000E+00  0.27573808843E+04  0.27573808843E+04  0.00000000000E+00 0.  1.
         21   -1    0    0  501  502 -0.00000000000E+00 -0.00000000000E+00 -0.94035945566E+03  0.94035945566E+03  0.00000000000E+00 0.  1.
         25    1    1    2    0    0 -0.54797599657E+03 -0.94567389725E+03  0.43039636143E+03  0.11812886356E+04  0.12500000000E+03 0.  0.
         25    1    1    2    0    0 -0.66454573719E+01  0.25994434388E+03 -0.41570620467E+03  0.50601568416E+03  0.12500000000E+03 0.  0.
         25    1    1    2    0    0  0.55462145395E+03  0.68572955338E+03  0.18023312719E+04  0.20104360201E+04  0.12500000000E+03 0.  0.
</event>
<event>
 5    0  0.5568866E-005  0.4545490E+03  0.7546771E-02  0.1026374E+00
         21   -1    0    0  502  501  0.00000000000E+00  0.00000000000E+00  0.43078132245E+03  0.43078132245E+03  0.00000000000E+00 0. -1.
         21   -1    0    0  501  502 -0.00000000000E+00 -0.00000000000E+00 -0.47962796865E+03  0.47962796865E+03  0.00000000000E+00 0. -1.
         25    1    1    2    0    0 -0.20525070413E+03  0.17546903031E+03 -0.14385665534E+03  0.33051016539E+03  0.12500000000E+03 0.  0.
         25    1    1    2    0    0 -0.44291203355E+02 -0.22928538657E+03  0.12721530091E+03  0.29384048730E+03  0.12500000000E+03 0.  0.
         25    1    1    2    0    0  0.24954190748E+03  0.53816356263E+02 -0.32205291773E+02  0.28605863841E+03  0.12500000000E+03 0.  0.
</event>
<event>
 5    0  0.5568866E-005  0.7083899E+03  0.7546771E-02  0.9702991E-01
         21   -1    0    0  502  501  0.00000000000E+00  0.00000000000E+00  0.34073447081E+03  0.34073447081E+03  0.00000000000E+00 0.  1.
         21   -1    0    0  501  502 -0.00000000000E+00 -0.00000000000E+00 -0.14727486037E+04  0.14727486037E+04  0.00000000000E+00 0.  1.
         25    1    1    2    0    0 -0.26559090483E+03  0.31197388638E+03  0.32347734555E+02  0.42957841012E+03  0.12500000000E+03 0.  0.
         25    1    1    2    0    0  0.42032216226E+03 -0.19089456187E+03 -0.96637961523E+03  0.10782513689E+04  0.12500000000E+03 0.  0.
         25    1    1    2    0    0 -0.15473125743E+03 -0.12107932451E+03 -0.19798225224E+03  0.30565329550E+03  0.12500000000E+03 0.  0.
</event>
<event>
 5    0  0.5568866E-005  0.3499563E+03  0.7546771E-02  0.1062633E+00
         21   -1    0    0  502  501  0.00000000000E+00  0.00000000000E+00  0.11248088594E+03  0.11248088594E+03  0.00000000000E+00 0. -1.
         21   -1    0    0  501  502 -0.00000000000E+00 -0.00000000000E+00 -0.10888020315E+04  0.10888020315E+04  0.00000000000E+00 0. -1.
         25    1    1    2    0    0  0.82399575021E+02  0.10916974381E+03 -0.28746077232E+03  0.34200353588E+03  0.12500000000E+03 0.  0.
         25    1    1    2    0    0 -0.10883073125E+03 -0.51965689197E+02 -0.69771881696E+03  0.71901398349E+03  0.12500000000E+03 0.  0.
         25    1    1    2    0    0  0.26431156228E+02 -0.57204054616E+02  0.88584436810E+01  0.14026539812E+03  0.12500000000E+03 0.  0.
</event>
<event>
 5    0  0.5655362E-005  0.3478839E+03  0.7546771E-02  0.1063487E+00
         21   -1    0    0  502  501  0.00000000000E+00  0.00000000000E+00  0.26430159054E+03  0.26430159054E+03  0.00000000000E+00 0.  1.
         21   -1    0    0  501  502 -0.00000000000E+00 -0.00000000000E+00 -0.45789815699E+03  0.45789815699E+03  0.00000000000E+00 0.  1.
         25    1    1    2    0    0  0.80314016556E+02  0.11323043510E+03 -0.22790184439E+02  0.18819103378E+03  0.12500000000E+03 0.  0.
         25    1    1    2    0    0 -0.10163368260E+03  0.14579447251E+03 -0.82157256621E+02  0.23229345335E+03  0.12500000000E+03 0.  0.
         25    1    1    2    0    0  0.21319666040E+02 -0.25902490761E+03 -0.88649125389E+02  0.30171526040E+03  0.12500000000E+03 0.  0.
</event>
<event>
 5    0  0.5568866E-005  0.3836349E+03  0.7546771E-02  0.1049598E+00
         21   -1    0    0  502  501  0.00000000000E+00  0.00000000000E+00  0.62122930647E+03  0.62122930647E+03  0.00000000000E+00 0. -1.
         21   -1    0    0  501  502 -0.00000000000E+00 -0.00000000000E+00 -0.23691043490E+03  0.23691043490E+03  0.00000000000E+00 0. -1.
         25    1    1    2    0    0 -0.14287384274E+03  0.21743339100E+03  0.32457053771E+03  0.43435152631E+03  0.12500000000E+03 0.  0.
         25    1    1    2    0    0  0.17562580038E+02 -0.10505963528E+03  0.12256649758E+03  0.20492319906E+03  0.12500000000E+03 0.  0.
         25    1    1    2    0    0  0.12531126270E+03 -0.11237375572E+03 -0.62818163714E+02  0.21886501600E+03  0.12500000000E+03 0.  0.
</event>
<event>
 5    0  0.5568866E-005  0.2833899E+03  0.7546771E-02  0.1093852E+00
         21   -1    0    0  502  501  0.00000000000E+00  0.00000000000E+00  0.49945123733E+02  0.49945123733E+02  0.00000000000E+00 0. -1.
         21   -1    0    0  501  502 -0.00000000000E+00 -0.00000000000E+00 -0.16079613000E+04  0.16079613000E+04  0.00000000000E+00 0. -1.
         25    1    1    2    0    0 -0.16775718451E+03  0.40193911845E+02 -0.66162143991E+03  0.69507262445E+03  0.12500000000E+03 0.  0.
         25    1    1    2    0    0  0.10978566284E+02 -0.44634122169E+02 -0.21847841819E+03  0.25587214189E+03  0.12500000000E+03 0.  0.
         25    1    1    2    0    0  0.15677861822E+03  0.44402103243E+01 -0.67791631821E+03  0.70696165744E+03  0.12500000000E+03 0.  0.
</event>
<event>
 5    0  0.6769675E-005  0.2912873E+03  0.7546771E-02  0.1089679E+00
         21   -1    0    0  502  501  0.00000000000E+00  0.00000000000E+00  0.49649782937E+03  0.49649782937E+03  0.00000000000E+00 0. -1.
         21   -1    0    0  501  502 -0.00000000000E+00 -0.00000000000E+00 -0.17089354070E+03  0.17089354070E+03  0.00000000000E+00 0. -1.
         25    1    1    2    0    0 -0.66113815723E+02 -0.49096645317E+02  0.93116738220E+02  0.17628739078E+03  0.12500000000E+03 0.  0.
         25    1    1    2    0    0  0.80896169594E+01 -0.14070638806E+03  0.52840077494E+02  0.19565480657E+03  0.12500000000E+03 0.  0.
         25    1    1    2    0    0  0.58024198764E+02  0.18980303337E+03  0.17964747296E+03  0.29544917272E+03  0.12500000000E+03 0.  0.
</event>
<event>
 5    0  0.6190391E-005  0.2691796E+03  0.7546771E-02  0.1101750E+00
         21   -1    0    0  502  501  0.00000000000E+00  0.00000000000E+00  0.59140061730E+03  0.59140061730E+03  0.00000000000E+00 0. -1.
         21   -1    0    0  501  502 -0.00000000000E+00 -0.00000000000E+00 -0.12251869591E+03  0.12251869591E+03  0.00000000000E+00 0. -1.
         25    1    1    2    0    0 -0.15102664305E+02 -0.97977338478E+02  0.25241224982E+03  0.29860440918E+03  0.12500000000E+03 0.  0.
         25    1    1    2    0    0 -0.37167094061E+02  0.19446419036E+02  0.22246007555E+03  0.25859822372E+03  0.12500000000E+03 0.  0.
         25    1    1    2    0    0  0.52269758366E+02  0.78530919441E+02 -0.59904039762E+01  0.15671668031E+03  0.12500000000E+03 0.  0.
</event>
<event>
 5    0  0.5568866E-005  0.3022912E+03  0.7546771E-02  0.1084101E+00
         21   -1    0    0  502  501  0.00000000000E+00  0.00000000000E+00  0.13919581467E+03  0.13919581467E+03  0.00000000000E+00 0. -1.
         21   -1    0    0  501  502 -0.00000000000E+00 -0.00000000000E+00 -0.65648524738E+03  0.65648524738E+03  0.00000000000E+00 0. -1.
         25    1    1    2    0    0  0.16051464486E+03 -0.12321274428E+03 -0.14486712977E+03  0.27849204092E+03  0.12500000000E+03 0.  0.
         25    1    1    2    0    0 -0.10172073117E+03  0.13549081176E+03 -0.28082804114E+03  0.35099039290E+03  0.12500000000E+03 0.  0.
         25    1    1    2    0    0 -0.58793913687E+02 -0.12278067476E+02 -0.91594261799E+02  0.16619862822E+03  0.12500000000E+03 0.  0.
</event>
<event>
 5    0  0.5688697E-005  0.3912153E+03  0.7546771E-02  0.1046865E+00
         21   -1    0    0  502  501  0.00000000000E+00  0.00000000000E+00  0.11595589526E+04  0.11595589526E+04  0.00000000000E+00 0. -1.
         21   -1    0    0  501  502 -0.00000000000E+00 -0.00000000000E+00 -0.13198935256E+03  0.13198935256E+03  0.00000000000E+00 0. -1.
         25    1    1    2    0    0 -0.70340708479E+02  0.57198423057E+02  0.60497992191E+03  0.62437583295E+03  0.12500000000E+03 0.  0.
         25    1    1    2    0    0  0.18993047038E+03  0.94743974026E+02  0.34559349323E+03  0.42439352818E+03  0.12500000000E+03 0.  0.
         25    1    1    2    0    0 -0.11958976190E+03 -0.15194239708E+03  0.76996184915E+02  0.24277894405E+03  0.12500000000E+03 0.  0.
</event>
<event>
 5    0  0.5694823E-005  0.3057373E+03  0.7546771E-02  0.1082407E+00
         21   -1    0    0  502  501  0.00000000000E+00  0.00000000000E+00  0.60558766580E+03  0.60558766580E+03  0.00000000000E+00 0. -1.
         21   -1    0    0  501  502 -0.00000000000E+00 -0.00000000000E+00 -0.15435469795E+03  0.15435469795E+03  0.00000000000E+00 0. -1.
         25    1    1    2    0    0 -0.14908728331E+03 -0.16230512683E+03  0.17108980410E+03  0.30572322991E+03  0.12500000000E+03 0.  0.
         25    1    1    2    0    0  0.13484911874E+03  0.76221971238E+02  0.11675846643E+03  0.23076311059E+03  0.12500000000E+03 0.  0.
         25    1    1    2    0    0  0.14238164565E+02  0.86083155593E+02  0.16338469732E+03  0.22345602325E+03  0.12500000000E+03 0.  0.
</event>
<event>
 5    0  0.5568866E-005  0.2267824E+03  0.7546771E-02  0.1128925E+00
         21   -1    0    0  502  501  0.00000000000E+00  0.00000000000E+00  0.33701529331E+03  0.33701529331E+03  0.00000000000E+00 0. -1.
         21   -1    0    0  501  502 -0.00000000000E+00 -0.00000000000E+00 -0.15260508021E+03  0.15260508021E+03  0.00000000000E+00 0. -1.
         25    1    1    2    0    0  0.27181681922E+02 -0.98684518922E+01  0.58763640110E+02  0.14111837433E+03  0.12500000000E+03 0.  0.
         25    1    1    2    0    0  0.40051124547E+02  0.19732054242E+02 -0.31598800703E+02  0.13644387398E+03  0.12500000000E+03 0.  0.
         25    1    1    2    0    0 -0.67232806469E+02 -0.98636023495E+01  0.15724537369E+03  0.21205812520E+03  0.12500000000E+03 0.  0.
</event>
<event>
 5    0  0.5568866E-005  0.3923445E+03  0.7546771E-02  0.1046463E+00
         21   -1    0    0  502  501  0.00000000000E+00  0.00000000000E+00  0.18099789690E+03  0.18099789690E+03  0.00000000000E+00 0.  1.
         21   -1    0    0  501  502 -0.00000000000E+00 -0.00000000000E+00 -0.85047521124E+03  0.85047521124E+03  0.00000000000E+00 0. -1.
         25    1    1    2    0    0  0.94804025097E+02 -0.24523756603E+02 -0.19178480957E+03  0.24898921863E+03  0.12500000000E+03 0.  0.
         25    1    1    2    0    0  0.81357891484E+02  0.23919614182E+03 -0.35707721706E+03  0.45493190668E+03  0.12500000000E+03 0.  0.
         25    1    1    2    0    0 -0.17616191658E+03 -0.21467238522E+03 -0.12061528771E+03  0.32755198283E+03  0.12500000000E+03 0.  0.
</event>
<event>
 5    0  0.5568866E-005  0.2121621E+03  0.7546771E-02  0.1139865E+00
         21   -1    0    0  502  501  0.00000000000E+00  0.00000000000E+00  0.11957720977E+04  0.11957720977E+04  0.00000000000E+00 0. -1.
         21   -1    0    0  501  502 -0.00000000000E+00 -0.00000000000E+00 -0.37643259553E+02  0.37643259553E+02  0.00000000000E+00 0. -1.
         25    1    1    2    0    0  0.27624163592E+02 -0.18278526255E+02  0.46748602184E+03  0.48504162662E+03  0.12500000000E+03 0.  0.
         25    1    1    2    0    0  0.50943119456E+02  0.35363401715E+02  0.34236797541E+03  0.36971151211E+03  0.12500000000E+03 0.  0.
         25    1    1    2    0    0 -0.78567283048E+02 -0.17084875460E+02  0.34827484087E+03  0.37866221850E+03  0.12500000000E+03 0.  0.
</event>
<event>
 5    0  0.6193364E-005  0.3491710E+03  0.7546771E-02  0.1062956E+00
         21   -1    0    0  502  501  0.00000000000E+00  0.00000000000E+00  0.35111995728E+03  0.35111995728E+03  0.00000000000E+00 0. -1.
         21   -1    0    0  501  502 -0.00000000000E+00 -0.00000000000E+00 -0.34723285345E+03  0.34723285345E+03  0.00000000000E+00 0. -1.
         25    1    1    2    0    0 -0.11062747251E+02 -0.16291200348E+03 -0.16039534079E+03  0.26079564913E+03  0.12500000000E+03 0.  0.
         25    1    1    2    0    0 -0.75604852477E+02  0.51464534868E+02  0.19230317940E+03  0.24692145487E+03  0.12500000000E+03 0.  0.
         25    1    1    2    0    0  0.86667599728E+02  0.11144746861E+03 -0.28020734777E+02  0.19063570673E+03  0.12500000000E+03 0.  0.
</event>
<event>
 5    0  0.5568866E-005  0.3131713E+03  0.7546771E-02  0.1078836E+00
         21   -1    0    0  502  501  0.00000000000E+00  0.00000000000E+00  0.36415037451E+03  0.36415037451E+03  0.00000000000E+00 0. -1.
         21   -1    0    0  501  502 -0.00000000000E+00 -0.00000000000E+00 -0.26932907243E+03  0.26932907243E+03  0.00000000000E+00 0. -1.
         25    1    1    2    0    0 -0.13305417449E+03  0.13700650549E+03  0.36310029136E+02  0.23112250889E+03  0.12500000000E+03 0.  0.
         25    1    1    2    0    0  0.12899924105E+01 -0.37053590266E+02 -0.80058355177E+02  0.15299991133E+03  0.12500000000E+03 0.  0.
         25    1    1    2    0    0  0.13176418208E+03 -0.99952915229E+02  0.13856962812E+03  0.24935702673E+03  0.12500000000E+03 0.  0.
</event>
<event>
 5    0  0.5568866E-005  0.8306360E+03  0.7546771E-02  0.9516702E-01
         21   -1    0    0  502  501  0.00000000000E+00  0.00000000000E+00  0.33647699712E+03  0.33647699712E+03  0.00000000000E+00 0. -1.
         21   -1    0    0  501  502 -0.00000000000E+00 -0.00000000000E+00 -0.20505301872E+04  0.20505301872E+04  0.00000000000E+00 0. -1.
         25    1    1    2    0    0  0.41570523326E+03 -0.19617824135E+03 -0.13384231105E+04  0.14206682111E+04  0.12500000000E+03 0.  0.
         25    1    1    2    0    0 -0.41586611251E+03  0.43214790868E+03 -0.19109338611E+03  0.64174614975E+03  0.12500000000E+03 0.  0.
         25    1    1    2    0    0  0.16087924359E+00 -0.23596966732E+03 -0.18453669339E+03  0.32459282338E+03  0.12500000000E+03 0.  0.
</event>
<event>
 5    0  0.5568866E-005  0.3763025E+03  0.7546771E-02  0.1052309E+00
         21   -1    0    0  502  501  0.00000000000E+00  0.00000000000E+00  0.10749174536E+03  0.10749174536E+03  0.00000000000E+00 0. -1.
         21   -1    0    0  501  502 -0.00000000000E+00 -0.00000000000E+00 -0.13173433563E+04  0.13173433563E+04  0.00000000000E+00 0. -1.
         25    1    1    2    0    0  0.20117720991E+02 -0.12707010924E+03 -0.65432115156E+03  0.67846348814E+03  0.12500000000E+03 0.  0.
         25    1    1    2    0    0 -0.59870964877E+02  0.23235062043E+03 -0.50130611069E+03  0.56965266599E+03  0.12500000000E+03 0.  0.
         25    1    1    2    0    0  0.39753243886E+02 -0.10528051119E+03 -0.54224348731E+02  0.17671894757E+03  0.12500000000E+03 0.  0.
</event>
<event>
 5    0  0.5568866E-005  0.3666575E+03  0.7546771E-02  0.1055978E+00
         21   -1    0    0  502  501  0.00000000000E+00  0.00000000000E+00  0.49093599669E+03  0.49093599669E+03  0.00000000000E+00 0. -1.
         21   -1    0    0  501  502 -0.00000000000E+00 -0.00000000000E+00 -0.27383967672E+03  0.27383967672E+03  0.00000000000E+00 0. -1.
         25    1    1    2    0    0 -0.26072744548E+03 -0.12408026597E+03  0.70712313949E+02  0.32249022400E+03  0.12500000000E+03 0.  0.
         25    1    1    2    0    0  0.44517679281E+02  0.78793340053E+02  0.10102428272E+03  0.18444814964E+03  0.12500000000E+03 0.  0.
         25    1    1    2    0    0  0.21620976620E+03  0.45286925922E+02  0.45359723293E+02  0.25783729977E+03  0.12500000000E+03 0.  0.
</event>
<event>
 5    0  0.5568866E-005  0.3765645E+03  0.7546771E-02  0.1052211E+00
         21   -1    0    0  502  501  0.00000000000E+00  0.00000000000E+00  0.15334244564E+03  0.15334244564E+03  0.00000000000E+00 0.  1.
         21   -1    0    0  501  502 -0.00000000000E+00 -0.00000000000E+00 -0.92473287372E+03  0.92473287372E+03  0.00000000000E+00 0.  1.
         25    1    1    2    0    0  0.15529348924E+03 -0.10134670610E+03 -0.12834900463E+03  0.25784819105E+03  0.12500000000E+03 0.  0.
         25    1    1    2    0    0  0.11248760127E+03 -0.71312180514E+01 -0.35783318963E+03  0.39544140692E+03  0.12500000000E+03 0.  0.
         25    1    1    2    0    0 -0.26778109050E+03  0.10847792415E+03 -0.28520823383E+03  0.42478572140E+03  0.12500000000E+03 0.  0.
</event>
<event>
 5    0  0.5568866E-005  0.3129275E+03  0.7546771E-02  0.1078951E+00
         21   -1    0    0  502  501  0.00000000000E+00  0.00000000000E+00  0.23840506827E+03  0.23840506827E+03  0.00000000000E+00 0. -1.
         21   -1    0    0  501  502 -0.00000000000E+00 -0.00000000000E+00 -0.41074463611E+03  0.41074463611E+03  0.00000000000E+00 0. -1.
         25    1    1    2    0    0 -0.11841578165E+03 -0.38784931429E+02 -0.49766185792E+02  0.18338004662E+03  0.12500000000E+03 0.  0.
         25    1    1    2    0    0 -0.10482107875E+03  0.11153209173E+02 -0.12911976055E+03  0.20834770263E+03  0.12500000000E+03 0.  0.
         25    1    1    2    0    0  0.22323686040E+03  0.27631722256E+02  0.65463785070E+01  0.25742195514E+03  0.12500000000E+03 0.  0.
</event>
<event>
 5    0  0.5568866E-005  0.4448446E+03  0.7546771E-02  0.1029271E+00
         21   -1    0    0  502  501  0.00000000000E+00  0.00000000000E+00  0.15477762387E+04  0.15477762387E+04  0.00000000000E+00 0. -1.
         21   -1    0    0  501  502 -0.00000000000E+00 -0.00000000000E+00 -0.12785230134E+03  0.12785230134E+03  0.00000000000E+00 0. -1.
         25    1    1    2    0    0 -0.11202068196E+03 -0.47103050749E+02 -0.42743828969E+01  0.17438635533E+03  0.12500000000E+03 0.  0.
         25    1    1    2    0    0  0.18618587143E+03  0.14884223027E+03  0.59157906051E+03  0.64993074482E+03  0.12500000000E+03 0.  0.
         25    1    1    2    0    0 -0.74165189470E+02 -0.10173917952E+03  0.83261925974E+03  0.85131143988E+03  0.12500000000E+03 0.  0.
</event>
<event>
 5    0  0.5568866E-005  0.3683868E+03  0.7546771E-02  0.1055312E+00
         21   -1    0    0  502  501  0.00000000000E+00  0.00000000000E+00  0.33795590138E+03  0.33795590138E+03  0.00000000000E+00 0.  1.
         21   -1    0    0  501  502 -0.00000000000E+00 -0.00000000000E+00 -0.40155781662E+03  0.40155781662E+03  0.00000000000E+00 0.  1.
         25    1    1    2    0    0 -0.27832528469E+03  0.91709278663E+02 -0.58199443001E+02  0.32386375384E+03  0.12500000000E+03 0.  0.
         25    1    1    2    0    0  0.98357157506E+02 -0.10147378762E+03  0.36970097667E+02  0.19225724467E+03  0.12500000000E+03 0.  0.
         25    1    1    2    0    0  0.17996812718E+03  0.97645089581E+01 -0.42372569907E+02  0.22339271948E+03  0.12500000000E+03 0.  0.
</event>
<event>
 5    0  0.5568866E-005  0.3752364E+03  0.7546771E-02  0.1052709E+00
         21   -1    0    0  502  501  0.00000000000E+00  0.00000000000E+00  0.45334057207E+02  0.45334057207E+02  0.00000000000E+00 0. -1.
         21   -1    0    0  501  502 -0.00000000000E+00 -0.00000000000E+00 -0.31058839257E+04  0.31058839257E+04  0.00000000000E+00 0.  1.
         25    1    1    2    0    0  0.15978689252E+01 -0.17521593952E+03 -0.20093285088E+04  0.20208239000E+04  0.12500000000E+03 0.  0.
         25    1    1    2    0    0 -0.85785384161E+02  0.21121207494E+03 -0.68918226486E+03  0.73659138396E+03  0.12500000000E+03 0.  0.
         25    1    1    2    0    0  0.84187515236E+02 -0.35996135419E+02 -0.36203909487E+03  0.39380269896E+03  0.12500000000E+03 0.  0.
</event>
<event>
 5    0  0.5568866E-005  0.2104683E+03  0.7546771E-02  0.1141196E+00
         21   -1    0    0  502  501  0.00000000000E+00  0.00000000000E+00  0.12936643781E+04  0.12936643781E+04  0.00000000000E+00 0. -1.
         21   -1    0    0  501  502 -0.00000000000E+00 -0.00000000000E+00 -0.34241422351E+02  0.34241422351E+02  0.00000000000E+00 0. -1.
         25    1    1    2    0    0  0.22177539059E+02  0.17968916486E+02  0.36727018500E+03  0.38900785852E+03  0.12500000000E+03 0.  0.
         25    1    1    2    0    0 -0.33396969704E+02  0.59327066807E+02  0.50355253763E+03  0.52328311324E+03  0.12500000000E+03 0.  0.
         25    1    1    2    0    0  0.11219430644E+02 -0.77295983293E+02  0.38860023314E+03  0.41561482872E+03  0.12500000000E+03 0.  0.
</event>
<event>
 5    0  0.5568866E-005  0.2063230E+03  0.7546771E-02  0.1144511E+00
         21   -1    0    0  502  501  0.00000000000E+00  0.00000000000E+00  0.19852242842E+03  0.19852242842E+03  0.00000000000E+00 0.  1.
         21   -1    0    0  501  502 -0.00000000000E+00 -0.00000000000E+00 -0.21443001661E+03  0.21443001661E+03  0.00000000000E+00 0.  1.
         25    1    1    2    0    0  0.76988569354E+02 -0.46731745457E+01 -0.19907459948E+01  0.14689466104E+03  0.12500000000E+03 0.  0.
         25    1    1    2    0    0 -0.52635808994E+02  0.11296042831E+02 -0.23752406304E+02  0.13815681589E+03  0.12500000000E+03 0.  0.
         25    1    1    2    0    0 -0.24352760360E+02 -0.66228682852E+01  0.98355641119E+01  0.12790096811E+03  0.12500000000E+03 0.  0.
</event>
<event>
 5    0  0.5568866E-005  0.2945195E+03  0.7546771E-02  0.1088013E+00
         21   -1    0    0  502  501  0.00000000000E+00  0.00000000000E+00  0.13443011890E+04  0.13443011890E+04  0.00000000000E+00 0.  1.
         21   -1    0    0  501  502 -0.00000000000E+00 -0.00000000000E+00 -0.64525523121E+02  0.64525523121E+02  0.00000000000E+00 0.  1.
         25    1    1    2    0    0  0.11726268614E+03  0.14296310656E+02  0.26553270642E+03  0.31636614901E+03  0.12500000000E+03 0.  0.
         25    1    1    2    0    0 -0.16825572512E+03  0.37694916886E+02  0.83702175059E+03  0.86369051561E+03  0.12500000000E+03 0.  0.
         25    1    1    2    0    0  0.50993038974E+02 -0.51991227542E+02  0.17722120890E+03  0.22877004754E+03  0.12500000000E+03 0.  0.
</event>
<event>
 5    0  0.5568866E-005  0.2974255E+03  0.7546771E-02  0.1086535E+00
         21   -1    0    0  502  501  0.00000000000E+00  0.00000000000E+00  0.81484620429E+03  0.81484620429E+03  0.00000000000E+00 0.  1.
         21   -1    0    0  501  502 -0.00000000000E+00 -0.00000000000E+00 -0.10856269495E+03  0.10856269495E+03  0.00000000000E+00 0.  1.
         25    1    1    2    0    0 -0.42282201659E+02 -0.65713391380E+02  0.72276592380E+02  0.16417959736E+03  0.12500000000E+03 0.  0.
         25    1    1    2    0    0 -0.80386175526E+02 -0.80807240002E+02  0.38965499127E+03  0.42479143055E+03  0.12500000000E+03 0.  0.
         25    1    1    2    0    0  0.12266837718E+03  0.14652063138E+03  0.24435192569E+03  0.33443787132E+03  0.12500000000E+03 0.  0.
</event>
<event>
 5    0  0.5568866E-005  0.3245077E+03  0.7546771E-02  0.1073593E+00
         21   -1    0    0  502  501  0.00000000000E+00  0.00000000000E+00  0.41303223700E+03  0.41303223700E+03  0.00000000000E+00 0.  1.
         21   -1    0    0  501  502 -0.00000000000E+00 -0.00000000000E+00 -0.25495650094E+03  0.25495650094E+03  0.00000000000E+00 0.  1.
         25    1    1    2    0    0  0.68255548913E+01 -0.13638484881E+03  0.14395682802E+03  0.23451222467E+03  0.12500000000E+03 0.  0.
         25    1    1    2    0    0  0.74144800936E+02  0.54520032289E+01 -0.12456397212E+03  0.19148984045E+03  0.12500000000E+03 0.  0.
         25    1    1    2    0    0 -0.80970355827E+02  0.13093284558E+03  0.13868288016E+03  0.24198667283E+03  0.12500000000E+03 0.  0.
</event>
<event>
 5    0  0.5568866E-005  0.2482438E+03  0.7546771E-02  0.1114420E+00
         21   -1    0    0  502  501  0.00000000000E+00  0.00000000000E+00  0.36967885158E+02  0.36967885158E+02  0.00000000000E+00 0.  1.
         21   -1    0    0  501  502 -0.00000000000E+00 -0.00000000000E+00 -0.16669869791E+04  0.16669869791E+04  0.00000000000E+00 0.  1.
         25    1    1    2    0    0 -0.28336563064E+02  0.37308487121E+00 -0.44408020734E+03  0.46220702131E+03  0.12500000000E+03 0.  0.
         25    1    1    2    0    0 -0.17343157249E+02  0.97201993883E+02 -0.87844473462E+03  0.89277049934E+03  0.12500000000E+03 0.  0.
         25    1    1    2    0    0  0.45679720313E+02 -0.97575078754E+02 -0.30749415195E+03  0.34897734357E+03  0.12500000000E+03 0.  0.
</event>
<event>
 5    0  0.5568866E-005  0.2560291E+03  0.7546771E-02  0.1109553E+00
         21   -1    0    0  502  501  0.00000000000E+00  0.00000000000E+00  0.97493208257E+02  0.97493208257E+02  0.00000000000E+00 0.  1.
         21   -1    0    0  501  502 -0.00000000000E+00 -0.00000000000E+00 -0.67236356876E+03  0.67236356876E+03  0.00000000000E+00 0.  1.
         25    1    1    2    0    0 -0.67249251945E+01  0.31384037675E+02 -0.22988477294E+02  0.13108643152E+03  0.12500000000E+03 0.  0.
         25    1    1    2    0    0  0.61614297272E+02 -0.93789326175E+02 -0.24383365876E+03  0.29609561374E+03  0.12500000000E+03 0.  0.
         25    1    1    2    0    0 -0.54889372077E+02  0.62405288500E+02 -0.30804822445E+03  0.34267473176E+03  0.12500000000E+03 0.  0.
</event>
<event>
 5    0  0.5568866E-005  0.3493250E+03  0.7546771E-02  0.1062892E+00
         21   -1    0    0  502  501  0.00000000000E+00  0.00000000000E+00  0.18236814587E+03  0.18236814587E+03  0.00000000000E+00 0.  1.
         21   -1    0    0  501  502 -0.00000000000E+00 -0.00000000000E+00 -0.66912994697E+03  0.66912994697E+03  0.00000000000E+00 0.  1.
         25    1    1    2    0    0 -0.72702893468E+02 -0.10867216044E+03  0.45748083477E+02  0.18658305474E+03  0.12500000000E+03 0.  0.
         25    1    1    2    0    0 -0.10525050863E+03  0.61963816187E+02 -0.25768073690E+03  0.31135437407E+03  0.12500000000E+03 0.  0.
         25    1    1    2    0    0  0.17795340210E+03  0.46708344253E+02 -0.27482914768E+03  0.35356066404E+03  0.12500000000E+03 0.  0.
</event>
<event>
 5    0  0.5568866E-005  0.3006917E+03  0.7546771E-02  0.1084895E+00
         21   -1    0    0  502  501  0.00000000000E+00  0.00000000000E+00  0.86406996119E+02  0.86406996119E+02  0.00000000000E+00 0.  1.
         21   -1    0    0  501  502 -0.00000000000E+00 -0.00000000000E+00 -0.10463909417E+04  0.10463909417E+04  0.00000000000E+00 0.  1.
         25    1    1    2    0    0 -0.17101121590E+03  0.13105397438E+03 -0.49431487009E+03  0.55352702821E+03  0.12500000000E+03 0.  0.
         25    1    1    2    0    0  0.42785949156E+02 -0.73010391792E+02 -0.15750612013E+03  0.21816125374E+03  0.12500000000E+03 0.  0.
         25    1    1    2    0    0  0.12822526674E+03 -0.58043582593E+02 -0.30816295539E+03  0.36110965590E+03  0.12500000000E+03 0.  0.
</event>
<event>
 5    0  0.5568866E-005  0.6543526E+03  0.7546771E-02  0.9798646E-01
         21   -1    0    0  502  501  0.00000000000E+00  0.00000000000E+00  0.21244762243E+03  0.21244762243E+03  0.00000000000E+00 0. -1.
         21   -1    0    0  501  502 -0.00000000000E+00 -0.00000000000E+00 -0.20154485927E+04  0.20154485927E+04  0.00000000000E+00 0. -1.
         25    1    1    2    0    0 -0.36586617446E+03  0.19567148295E+03 -0.89691674573E+03  0.99610744181E+03  0.12500000000E+03 0.  0.
         25    1    1    2    0    0 -0.53457918725E+02  0.18035190279E+03 -0.11720119660E+03  0.25445172116E+03  0.12500000000E+03 0.  0.
         25    1    1    2    0    0  0.41932409319E+03 -0.37602338575E+03 -0.78888302796E+03  0.97733705218E+03  0.12500000000E+03 0.  0.
</event>
<event>
 5    0  0.5568866E-005  0.4707894E+03  0.7546771E-02  0.1021698E+00
         21   -1    0    0  502  501  0.00000000000E+00  0.00000000000E+00  0.54482547024E+03  0.54482547024E+03  0.00000000000E+00 0.  1.
         21   -1    0    0  501  502 -0.00000000000E+00 -0.00000000000E+00 -0.40681402484E+03  0.40681402484E+03  0.00000000000E+00 0.  1.
         25    1    1    2    0    0  0.12280268357E+03 -0.17460719362E+03  0.86119275669E+02  0.26193453533E+03  0.12500000000E+03 0.  0.
         25    1    1    2    0    0 -0.30010871611E+03  0.28475567937E+03  0.95310128342E+02  0.44256079693E+03  0.12500000000E+03 0.  0.
         25    1    1    2    0    0  0.17730603253E+03 -0.11014848575E+03 -0.43417958607E+02  0.24714416282E+03  0.12500000000E+03 0.  0.
</event>
<event>
 5    0  0.5568866E-005  0.3307751E+03  0.7546771E-02  0.1070794E+00
         21   -1    0    0  502  501  0.00000000000E+00  0.00000000000E+00  0.12222751202E+04  0.12222751202E+04  0.00000000000E+00 0.  1.
         21   -1    0    0  501  502 -0.00000000000E+00 -0.00000000000E+00 -0.89515164842E+02  0.89515164842E+02  0.00000000000E+00 0.  1.
         25    1    1    2    0    0 -0.21998330408E+03  0.30290599734E+02  0.53875216083E+03  0.59597740335E+03  0.12500000000E+03 0.  0.
         25    1    1    2    0    0  0.12743836065E+03  0.54954358415E+02  0.15633509793E+03  0.24356966174E+03  0.12500000000E+03 0.  0.
         25    1    1    2    0    0  0.92544943429E+02 -0.85244958149E+02  0.43767269659E+03  0.47224321994E+03  0.12500000000E+03 0.  0.
</event>
<event>
 5    0  0.5568866E-005  0.2676584E+03  0.7546771E-02  0.1102627E+00
         21   -1    0    0  502  501  0.00000000000E+00  0.00000000000E+00  0.71130484999E+02  0.71130484999E+02  0.00000000000E+00 0.  1.
         21   -1    0    0  501  502 -0.00000000000E+00 -0.00000000000E+00 -0.10071775558E+04  0.10071775558E+04  0.00000000000E+00 0.  1.
         25    1    1    2    0    0  0.26771696082E+02  0.57925895247E+02 -0.16320637124E+03  0.21525206773E+03  0.12500000000E+03 0.  0.
         25    1    1    2    0    0 -0.14230438369E+03 -0.42877131517E+02 -0.54279406872E+03  0.57648884383E+03  0.12500000000E+03 0.  0.
         25    1    1    2    0    0  0.11553268761E+03 -0.15048763730E+02 -0.23004663087E+03  0.28656712926E+03  0.12500000000E+03 0.  0.
</event>
<event>
 5    0  0.5568866E-005  0.2816912E+03  0.7546771E-02  0.1094769E+00
         21   -1    0    0  502  501  0.00000000000E+00  0.00000000000E+00  0.15147617916E+03  0.15147617916E+03  0.00000000000E+00 0.  1.
         21   -1    0    0  501  502 -0.00000000000E+00 -0.00000000000E+00 -0.52384420926E+03  0.52384420926E+03  0.00000000000E+00 0.  1.
         25    1    1    2    0    0  0.63160527470E+02 -0.80919908924E+02 -0.29017087122E+03  0.33220689095E+03  0.12500000000E+03 0.  0.
         25    1    1    2    0    0 -0.38473788249E+02  0.82887570372E+01  0.55149713456E+02  0.14218096486E+03  0.12500000000E+03 0.  0.
         25    1    1    2    0    0 -0.24686739220E+02  0.72631151887E+02 -0.13734687234E+03  0.20093253260E+03  0.12500000000E+03 0.  0.
</event>
<event>
 5    0  0.5568866E-005  0.3233557E+03  0.7546771E-02  0.1074115E+00
         21   -1    0    0  502  501  0.00000000000E+00  0.00000000000E+00  0.43279111907E+03  0.43279111907E+03  0.00000000000E+00 0. -1.
         21   -1    0    0  501  502 -0.00000000000E+00 -0.00000000000E+00 -0.24159202438E+03  0.24159202438E+03  0.00000000000E+00 0. -1.
         25    1    1    2    0    0 -0.14913498007E+03 -0.15808951367E+03  0.51602620609E+02  0.25597141846E+03  0.12500000000E+03 0.  0.
         25    1    1    2    0    0 -0.20851030797E+02  0.60787646380E+02 -0.11864748953E+02  0.14105203191E+03  0.12500000000E+03 0.  0.
         25    1    1    2    0    0  0.16998601086E+03  0.97301867293E+02  0.15146122303E+03  0.27735969309E+03  0.12500000000E+03 0.  0.
</event>
<event>
 5    0  0.5568866E-005  0.3732042E+03  0.7546771E-02  0.1053474E+00
         21   -1    0    0  502  501  0.00000000000E+00  0.00000000000E+00  0.52655587604E+03  0.52655587604E+03  0.00000000000E+00 0.  1.
         21   -1    0    0  501  502 -0.00000000000E+00 -0.00000000000E+00 -0.26451397213E+03  0.26451397213E+03  0.00000000000E+00 0.  1.
         25    1    1    2    0    0 -0.11234195971E+03  0.47605325668E+02  0.10203670480E+03  0.20229550679E+03  0.12500000000E+03 0.  0.
         25    1    1    2    0    0 -0.10927603966E+03  0.92436602013E+01  0.26076032000E+03  0.30926953064E+03  0.12500000000E+03 0.  0.
         25    1    1    2    0    0  0.22161799937E+03 -0.56848985869E+02 -0.10075512088E+03  0.27950481073E+03  0.12500000000E+03 0.  0.
</event>
<event>
 5    0  0.5568866E-005  0.2332828E+03  0.7546771E-02  0.1124350E+00
         21   -1    0    0  502  501  0.00000000000E+00  0.00000000000E+00  0.47095201728E+03  0.47095201728E+03  0.00000000000E+00 0. -1.
         21   -1    0    0  501  502 -0.00000000000E+00 -0.00000000000E+00 -0.11555498201E+03  0.11555498201E+03  0.00000000000E+00 0. -1.
         25    1    1    2    0    0  0.44240489343E+02  0.61137942582E+02  0.13840755924E+03  0.20118827345E+03  0.12500000000E+03 0.  0.
         25    1    1    2    0    0 -0.25530629031E+02 -0.11762032434E+03  0.15854521849E+03  0.23504880349E+03  0.12500000000E+03 0.  0.
         25    1    1    2    0    0 -0.18709860313E+02  0.56482381758E+02  0.58444257539E+02  0.15026992234E+03  0.12500000000E+03 0.  0.
</event>
<event>
 5    0  0.5568866E-005  0.3048517E+03  0.7546771E-02  0.1082840E+00
         21   -1    0    0  502  501  0.00000000000E+00  0.00000000000E+00  0.43225964396E+03  0.43225964396E+03  0.00000000000E+00 0. -1.
         21   -1    0    0  501  502 -0.00000000000E+00 -0.00000000000E+00 -0.21499707542E+03  0.21499707542E+03  0.00000000000E+00 0. -1.
         25    1    1    2    0    0  0.28156784378E+02  0.22579683205E+02  0.14788949824E+03  0.19697449147E+03  0.12500000000E+03 0.  0.
         25    1    1    2    0    0  0.57429339959E+02 -0.89123934780E+02  0.18594829284E+03  0.24787693005E+03  0.12500000000E+03 0.  0.
         25    1    1    2    0    0 -0.85586124337E+02  0.66544251575E+02 -0.11657522253E+03  0.20240529787E+03  0.12500000000E+03 0.  0.
</event>
<event>
 5    0  0.5568866E-005  0.2594897E+03  0.7546771E-02  0.1107450E+00
         21   -1    0    0  502  501  0.00000000000E+00  0.00000000000E+00  0.26089090039E+03  0.26089090039E+03  0.00000000000E+00 0.  1.
         21   -1    0    0  501  502 -0.00000000000E+00 -0.00000000000E+00 -0.25809605648E+03  0.25809605648E+03  0.00000000000E+00 0.  1.
         25    1    1    2    0    0  0.97889450042E+02 -0.36677474353E+02  0.24585552779E+02  0.16479390450E+03  0.12500000000E+03 0.  0.
         25    1    1    2    0    0 -0.63589318863E+02  0.12826106851E+03 -0.40698459864E+02  0.19436014973E+03  0.12500000000E+03 0.  0.
         25    1    1    2    0    0 -0.34300131180E+02 -0.91583594159E+02  0.18907750996E+02  0.15983290264E+03  0.12500000000E+03 0.  0.
</event>
<event>
 5    0  0.5568866E-005  0.4960023E+03  0.7546771E-02  0.1014828E+00
         21   -1    0    0  502  501  0.00000000000E+00  0.00000000000E+00  0.13704046745E+03  0.13704046745E+03  0.00000000000E+00 0. -1.
         21   -1    0    0  501  502 -0.00000000000E+00 -0.00000000000E+00 -0.17952236788E+04  0.17952236788E+04  0.00000000000E+00 0. -1.
         25    1    1    2    0    0  0.25257424290E+03  0.78020262794E+02 -0.13346395248E+04  0.13662973947E+04  0.12500000000E+03 0.  0.
         25    1    1    2    0    0 -0.24265754825E+03 -0.55391234525E+02 -0.77852423720E+02  0.28920040536E+03  0.12500000000E+03 0.  0.
         25    1    1    2    0    0 -0.99166946561E+01 -0.22629028269E+02 -0.24569126284E+03  0.27676634620E+03  0.12500000000E+03 0.  0.
</event>
<event>
 5    0  0.5568866E-005  0.3761443E+03  0.7546771E-02  0.1052368E+00
         21   -1    0    0  502  501  0.00000000000E+00  0.00000000000E+00  0.81792843964E+02  0.81792843964E+02  0.00000000000E+00 0. -1.
         21   -1    0    0  501  502 -0.00000000000E+00 -0.00000000000E+00 -0.17297910552E+04  0.17297910552E+04  0.00000000000E+00 0. -1.
         25    1    1    2    0    0 -0.86270002455E+02 -0.73474087001E+02 -0.81627814324E+03  0.83353222009E+03  0.12500000000E+03 0.  0.
         25    1    1    2    0    0  0.56525198624E+02 -0.14471720488E+03 -0.60903577685E+03  0.64084923731E+03  0.12500000000E+03 0.  0.
         25    1    1    2    0    0  0.29744803830E+02  0.21819129189E+03 -0.22268429111E+03  0.33720244174E+03  0.12500000000E+03 0.  0.
</event>
<event>
 5    0  0.5568866E-005  0.5354028E+03  0.7546771E-02  0.1004930E+00
         21   -1    0    0  502  501  0.00000000000E+00  0.00000000000E+00  0.14577211337E+03  0.14577211337E+03  0.00000000000E+00 0.  1.
         21   -1    0    0  501  502 -0.00000000000E+00 -0.00000000000E+00 -0.19664678359E+04  0.19664678359E+04  0.00000000000E+00 0.  1.
         25    1    1    2    0    0 -0.29107948868E+03  0.11209054629E+03 -0.25012907489E+03  0.41890465908E+03  0.12500000000E+03 0.  0.
         25    1    1    2    0    0  0.32364913713E+03 -0.21309084037E+03 -0.72040448475E+03  0.82750473827E+03  0.12500000000E+03 0.  0.
         25    1    1    2    0    0 -0.32569648453E+02  0.10100029408E+03 -0.85016216293E+03  0.86583055195E+03  0.12500000000E+03 0.  0.
</event>
<event>
 5    0  0.5568866E-005  0.2491225E+03  0.7546771E-02  0.1113861E+00
         21   -1    0    0  502  501  0.00000000000E+00  0.00000000000E+00  0.63765337072E+02  0.63765337072E+02  0.00000000000E+00 0. -1.
         21   -1    0    0  501  502 -0.00000000000E+00 -0.00000000000E+00 -0.97328789475E+03  0.97328789475E+03  0.00000000000E+00 0. -1.
         25    1    1    2    0    0  0.30578923217E+02 -0.95653386906E+02 -0.29692311734E+03  0.33745070541E+03  0.12500000000E+03 0.  0.
         25    1    1    2    0    0 -0.64873855929E+02  0.29780619216E+02 -0.48581360900E+03  0.50669060101E+03  0.12500000000E+03 0.  0.
         25    1    1    2    0    0  0.34294932712E+02  0.65872767690E+02 -0.12678583134E+03  0.19291192540E+03  0.12500000000E+03 0.  0.
</event>
<event>
 5    0  0.5568866E-005  0.2558155E+03  0.7546771E-02  0.1109684E+00
         21   -1    0    0  502  501  0.00000000000E+00  0.00000000000E+00  0.12711990578E+03  0.12711990578E+03  0.00000000000E+00 0. -1.
         21   -1    0    0  501  502 -0.00000000000E+00 -0.00000000000E+00 -0.51480179763E+03  0.51480179763E+03  0.00000000000E+00 0. -1.
         25    1    1    2    0    0  0.16238572774E+02  0.39756855271E+02 -0.32901360616E+03  0.35456910726E+03  0.12500000000E+03 0.  0.
         25    1    1    2    0    0 -0.20140857554E+02 -0.51150420402E+02  0.21686769822E+02  0.13826545351E+03  0.12500000000E+03 0.  0.
         25    1    1    2    0    0  0.39022847798E+01  0.11393565131E+02 -0.80355055510E+02  0.14908714263E+03  0.12500000000E+03 0.  0.
</event>
<event>
 5    0  0.5568866E-005  0.3510126E+03  0.7546771E-02  0.1062200E+00
         21   -1    0    0  502  501  0.00000000000E+00  0.00000000000E+00  0.23054000743E+04  0.23054000743E+04  0.00000000000E+00 0. -1.
         21   -1    0    0  501  502 -0.00000000000E+00 -0.00000000000E+00 -0.53444024818E+02  0.53444024818E+02  0.00000000000E+00 0. -1.
         25    1    1    2    0    0 -0.84904496081E+02  0.25169416318E+02  0.41013934465E+03  0.43781452123E+03  0.12500000000E+03 0.  0.
         25    1    1    2    0    0  0.20750036654E+03  0.65792426410E+02  0.44982129350E+03  0.51512060877E+03  0.12500000000E+03 0.  0.
         25    1    1    2    0    0 -0.12259587046E+03 -0.90961842727E+02  0.13919954114E+04  0.14059089692E+04  0.12500000000E+03 0.  0.
</event>
<event>
 5    0  0.6099033E-005  0.2824059E+03  0.7546771E-02  0.1094382E+00
         21   -1    0    0  502  501  0.00000000000E+00  0.00000000000E+00  0.15113191132E+03  0.15113191132E+03  0.00000000000E+00 0.  1.
         21   -1    0    0  501  502 -0.00000000000E+00 -0.00000000000E+00 -0.52770522833E+03  0.52770522833E+03  0.00000000000E+00 0.  1.
         25    1    1    2    0    0 -0.18516455674E+03  0.57449041903E+02 -0.18211529629E+03  0.29390013037E+03  0.12500000000E+03 0.  0.
         25    1    1    2    0    0  0.95596671561E+02 -0.67363284072E+02 -0.63053133318E+02  0.18242048480E+03  0.12500000000E+03 0.  0.
         25    1    1    2    0    0  0.89567885175E+02  0.99142421695E+01 -0.13140488740E+03  0.20251652448E+03  0.12500000000E+03 0.  0.
</event>
<event>
 5    0  0.5568866E-005  0.4186571E+03  0.7546771E-02  0.1037504E+00
         21   -1    0    0  502  501  0.00000000000E+00  0.00000000000E+00  0.63544805432E+03  0.63544805432E+03  0.00000000000E+00 0. -1.
         21   -1    0    0  501  502 -0.00000000000E+00 -0.00000000000E+00 -0.27582699792E+03  0.27582699792E+03  0.00000000000E+00 0. -1.
         25    1    1    2    0    0  0.22386996758E+03  0.26997527611E+03  0.13755527911E+03  0.39692677776E+03  0.12500000000E+03 0.  0.
         25    1    1    2    0    0 -0.98700705461E+02 -0.14602388025E+03  0.20471109473E+03  0.29765153312E+03  0.12500000000E+03 0.  0.
         25    1    1    2    0    0 -0.12516926212E+03 -0.12395139586E+03  0.17354682563E+02  0.21669674137E+03  0.12500000000E+03 0.  0.
</event>
<event>
 5    0  0.5568866E-005  0.2981022E+03  0.7546771E-02  0.1086193E+00
         21   -1    0    0  502  501  0.00000000000E+00  0.00000000000E+00  0.18482562463E+03  0.18482562463E+03  0.00000000000E+00 0. -1.
         21   -1    0    0  501  502 -0.00000000000E+00 -0.00000000000E+00 -0.48080420877E+03  0.48080420877E+03  0.00000000000E+00 0. -1.
         25    1    1    2    0    0 -0.76590437222E+02  0.69958932685E+02 -0.24581273943E+03  0.29463409545E+03  0.12500000000E+03 0.  0.
         25    1    1    2    0    0  0.14994668092E+03 -0.36813898348E+02 -0.88468098740E+02  0.21746465167E+03  0.12500000000E+03 0.  0.
         25    1    1    2    0    0 -0.73356243702E+02 -0.33145034337E+02  0.38302254031E+02  0.15353108628E+03  0.12500000000E+03 0.  0.
</event>
<event>
 5    0  0.5568866E-005  0.2209674E+03  0.7546771E-02  0.1133164E+00
         21   -1    0    0  502  501  0.00000000000E+00  0.00000000000E+00  0.60701349220E+03  0.60701349220E+03  0.00000000000E+00 0. -1.
         21   -1    0    0  501  502 -0.00000000000E+00 -0.00000000000E+00 -0.80437397989E+02  0.80437397989E+02  0.00000000000E+00 0. -1.
         25    1    1    2    0    0 -0.64888031392E+02  0.63838941857E+02  0.16438417719E+03  0.22568346157E+03  0.12500000000E+03 0.  0.
         25    1    1    2    0    0  0.78139306121E+02 -0.81600213708E+01  0.20959776157E+03  0.25637581548E+03  0.12500000000E+03 0.  0.
         25    1    1    2    0    0 -0.13251274729E+02 -0.55678920486E+02  0.15259415544E+03  0.20539161313E+03  0.12500000000E+03 0.  0.
</event>
<event>
 5    0  0.5568866E-005  0.3399805E+03  0.7546771E-02  0.1066804E+00
         21   -1    0    0  502  501  0.00000000000E+00  0.00000000000E+00  0.43072686673E+02  0.43072686673E+02  0.00000000000E+00 0. -1.
         21   -1    0    0  501  502 -0.00000000000E+00 -0.00000000000E+00 -0.26835275225E+04  0.26835275225E+04  0.00000000000E+00 0. -1.
         25    1    1    2    0    0  0.11620806709E+03  0.27306753470E+02 -0.43070398585E+03  0.46409147489E+03  0.12500000000E+03 0.  0.
         25    1    1    2    0    0 -0.95744578345E+02 -0.18256977993E+03 -0.16592717855E+04  0.16766951443E+04  0.12500000000E+03 0.  0.
         25    1    1    2    0    0 -0.20463488743E+02  0.15526302646E+03 -0.55047906448E+03  0.58581358996E+03  0.12500000000E+03 0.  0.
</event>
<event>
 5    0  0.5568866E-005  0.4603829E+03  0.7546771E-02  0.1024670E+00
         21   -1    0    0  502  501  0.00000000000E+00  0.00000000000E+00  0.13755022518E+04  0.13755022518E+04  0.00000000000E+00 0.  1.
         21   -1    0    0  501  502 -0.00000000000E+00 -0.00000000000E+00 -0.15409095329E+03  0.15409095329E+03  0.00000000000E+00 0.  1.
         25    1    1    2    0    0 -0.18336271029E+03  0.20103948713E+03  0.47509599552E+03  0.56158700472E+03  0.12500000000E+03 0.  0.
         25    1    1    2    0    0  0.10304481827E+03  0.12501629148E+03  0.47927213380E+03  0.52112770598E+03  0.12500000000E+03 0.  0.
         25    1    1    2    0    0  0.80317892017E+02 -0.32605577861E+03  0.26704316922E+03  0.44687849441E+03  0.12500000000E+03 0.  0.
</event>
<event>
 5    0  0.5568866E-005  0.2587482E+03  0.7546771E-02  0.1107898E+00
         21   -1    0    0  502  501  0.00000000000E+00  0.00000000000E+00  0.48331154778E+03  0.48331154778E+03  0.00000000000E+00 0.  1.
         21   -1    0    0  501  502 -0.00000000000E+00 -0.00000000000E+00 -0.13852482730E+03  0.13852482730E+03  0.00000000000E+00 0.  1.
         25    1    1    2    0    0 -0.40288058309E+01  0.35295137901E+02  0.15366150848E+03  0.20124322902E+03  0.12500000000E+03 0.  0.
         25    1    1    2    0    0  0.13578465206E+03  0.31416879588E+00  0.61108359303E+02  0.19441399645E+03  0.12500000000E+03 0.  0.
         25    1    1    2    0    0 -0.13175584623E+03 -0.35609306697E+02  0.13001685269E+03  0.22617914962E+03  0.12500000000E+03 0.  0.
</event>
<event>
 5    0  0.7115641E-005  0.7121479E+03  0.7546771E-02  0.9696680E-01
         21   -1    0    0  502  501  0.00000000000E+00  0.00000000000E+00  0.53999061144E+03  0.53999061144E+03  0.00000000000E+00 0.  1.
         21   -1    0    0  501  502 -0.00000000000E+00 -0.00000000000E+00 -0.93919144301E+03  0.93919144301E+03  0.00000000000E+00 0.  1.
         25    1    1    2    0    0  0.25906150149E+03  0.48266375877E+03 -0.15969039640E+03  0.58412600378E+03  0.12500000000E+03 0.  0.
         25    1    1    2    0    0 -0.13449749212E+03 -0.45776098575E+03 -0.41526689261E+03  0.64475288875E+03  0.12500000000E+03 0.  0.
         25    1    1    2    0    0 -0.12456400937E+03 -0.24902773025E+02  0.17575645744E+03  0.25030316192E+03  0.12500000000E+03 0.  0.
</event>
<event>
 5    0  0.5568866E-005  0.4649021E+03  0.7546771E-02  0.1023369E+00
         21   -1    0    0  502  501  0.00000000000E+00  0.00000000000E+00  0.10237279040E+04  0.10237279040E+04  0.00000000000E+00 0.  1.
         21   -1    0    0  501  502 -0.00000000000E+00 -0.00000000000E+00 -0.21112442230E+03  0.21112442230E+03  0.00000000000E+00 0.  1.
         25    1    1    2    0    0 -0.14423216690E+03 -0.18261716809E+03  0.27402813316E+03  0.38061577189E+03  0.12500000000E+03 0.  0.
         25    1    1    2    0    0  0.15964126877E+03 -0.18451433336E+03  0.24353587898E+03  0.36669551164E+03  0.12500000000E+03 0.  0.
         25    1    1    2    0    0 -0.15409101871E+02  0.36713150145E+03  0.29503946955E+03  0.48754104276E+03  0.12500000000E+03 0.  0.
</event>
<event>
 5    0  0.5568866E-005  0.6220051E+03  0.7546771E-02  0.9860776E-01
         21   -1    0    0  502  501  0.00000000000E+00  0.00000000000E+00  0.29384573595E+03  0.29384573595E+03  0.00000000000E+00 0.  1.
         21   -1    0    0  501  502 -0.00000000000E+00 -0.00000000000E+00 -0.13166442439E+04  0.13166442439E+04  0.00000000000E+00 0.  1.
         25    1    1    2    0    0  0.13283168090E+03  0.17161543084E+03 -0.21437069332E+03  0.32966028834E+03  0.12500000000E+03 0.  0.
         25    1    1    2    0    0 -0.33236282871E+03  0.12716202995E+03  0.11080500146E+02  0.37733673192E+03  0.12500000000E+03 0.  0.
         25    1    1    2    0    0  0.19953114781E+03 -0.29877746079E+03 -0.81950831477E+03  0.90349295957E+03  0.12500000000E+03 0.  0.
</event>
<event>
 5    0  0.5568866E-005  0.3166290E+03  0.7546771E-02  0.1077211E+00
         21   -1    0    0  502  501  0.00000000000E+00  0.00000000000E+00  0.14538528930E+03  0.14538528930E+03  0.00000000000E+00 0.  1.
         21   -1    0    0  501  502 -0.00000000000E+00 -0.00000000000E+00 -0.68957408668E+03  0.68957408668E+03  0.00000000000E+00 0.  1.
         25    1    1    2    0    0  0.96616771764E+02  0.13325194275E+02 -0.16677831431E+02  0.15942243082E+03  0.12500000000E+03 0.  0.
         25    1    1    2    0    0 -0.84998968546E+02  0.55421606313E+02 -0.50575517144E+03  0.53076329238E+03  0.12500000000E+03 0.  0.
         25    1    1    2    0    0 -0.11617803218E+02 -0.68746800588E+02 -0.21755794513E+02  0.14477365277E+03  0.12500000000E+03 0.  0.
</event>
<event>
 5    0  0.5568866E-005  0.2688721E+03  0.7546771E-02  0.1101927E+00
         21   -1    0    0  502  501  0.00000000000E+00  0.00000000000E+00  0.16777444461E+03  0.16777444461E+03  0.00000000000E+00 0.  1.
         21   -1    0    0  501  502 -0.00000000000E+00 -0.00000000000E+00 -0.43088933948E+03  0.43088933948E+03  0.00000000000E+00 0.  1.
         25    1    1    2    0    0 -0.55913090722E+02 -0.71179491581E+02 -0.43613434717E+02  0.16037432907E+03  0.12500000000E+03 0.  0.
         25    1    1    2    0    0 -0.19397416979E+02 -0.94727844143E+02 -0.10114807630E+03  0.18763144081E+03  0.12500000000E+03 0.  0.
         25    1    1    2    0    0  0.75310507701E+02  0.16590733572E+03 -0.11835338385E+03  0.25065801421E+03  0.12500000000E+03 0.  0.
</event>
<event>
 5    0  0.5568866E-005  0.4407015E+03  0.7546771E-02  0.1030532E+00
         21   -1    0    0  502  501  0.00000000000E+00  0.00000000000E+00  0.64994170150E+03  0.64994170150E+03  0.00000000000E+00 0.  1.
         21   -1    0    0  501  502 -0.00000000000E+00 -0.00000000000E+00 -0.29882343641E+03  0.29882343641E+03  0.00000000000E+00 0.  1.
         25    1    1    2    0    0  0.37736474157E+02  0.80470309949E+02  0.26808485223E+03  0.30885919164E+03  0.12500000000E+03 0.  0.
         25    1    1    2    0    0 -0.30672229289E+03 -0.63879539046E+02  0.49867104327E+02  0.34098517352E+03  0.12500000000E+03 0.  0.
         25    1    1    2    0    0  0.26898581874E+03 -0.16590770903E+02  0.33166308526E+02  0.29892077275E+03  0.12500000000E+03 0.  0.
</event>
<event>
 5    0  0.5568866E-005  0.3459090E+03  0.7546771E-02  0.1064307E+00
         21   -1    0    0  502  501  0.00000000000E+00  0.00000000000E+00  0.10837728699E+04  0.10837728699E+04  0.00000000000E+00 0. -1.
         21   -1    0    0  501  502 -0.00000000000E+00 -0.00000000000E+00 -0.11040419020E+03  0.11040419020E+03  0.00000000000E+00 0. -1.
         25    1    1    2    0    0  0.11449270743E+03 -0.17908773869E+01  0.64268420995E+03  0.66466516459E+03  0.12500000000E+03 0.  0.
         25    1    1    2    0    0  0.36448019379E+02  0.97935436249E+02  0.43225329893E+02  0.16856226427E+03  0.12500000000E+03 0.  0.
         25    1    1    2    0    0 -0.15094072681E+03 -0.96144558862E+02  0.28745913987E+03  0.36094963126E+03  0.12500000000E+03 0.  0.
</event>
<event>
 5    0  0.5568866E-005  0.2181145E+03  0.7546771E-02  0.1135297E+00
         21   -1    0    0  502  501  0.00000000000E+00  0.00000000000E+00  0.49855546027E+03  0.49855546027E+03  0.00000000000E+00 0.  1.
         21   -1    0    0  501  502 -0.00000000000E+00 -0.00000000000E+00 -0.95423578895E+02  0.95423578895E+02  0.00000000000E+00 0.  1.
         25    1    1    2    0    0  0.52208897165E+02 -0.18632496046E+02  0.24163175310E+03  0.27763977193E+03  0.12500000000E+03 0.  0.
         25    1    1    2    0    0 -0.61157794521E+02 -0.19506293684E+02  0.74056856358E+02  0.15884013755E+03  0.12500000000E+03 0.  0.
         25    1    1    2    0    0  0.89488973563E+01  0.38138789730E+02  0.87443271913E+02  0.15749912968E+03  0.12500000000E+03 0.  0.
</event>
<event>
 5    0  0.5568866E-005  0.4164457E+03  0.7546771E-02  0.1038229E+00
         21   -1    0    0  502  501  0.00000000000E+00  0.00000000000E+00  0.36457202451E+03  0.36457202451E+03  0.00000000000E+00 0.  1.
         21   -1    0    0  501  502 -0.00000000000E+00 -0.00000000000E+00 -0.47570038895E+03  0.47570038895E+03  0.00000000000E+00 0.  1.
         25    1    1    2    0    0 -0.12635899462E+03 -0.25631316211E+03  0.86538183455E+02  0.32369258531E+03  0.12500000000E+03 0.  0.
         25    1    1    2    0    0  0.16651705662E+03  0.23103019316E+02 -0.80445737721E+02  0.22440631979E+03  0.12500000000E+03 0.  0.
         25    1    1    2    0    0 -0.40158062001E+02  0.23321014279E+03 -0.11722081018E+03  0.29217350835E+03  0.12500000000E+03 0.  0.
</event>
<event>
 5    0  0.5568866E-005  0.2649827E+03  0.7546771E-02  0.1104186E+00
         21   -1    0    0  502  501  0.00000000000E+00  0.00000000000E+00  0.55380521955E+02  0.55380521955E+02  0.00000000000E+00 0. -1.
         21   -1    0    0  501  502 -0.00000000000E+00 -0.00000000000E+00 -0.12678797215E+04  0.12678797215E+04  0.00000000000E+00 0. -1.
         25    1    1    2    0    0  0.49709593205E+02 -0.39344199156E+02 -0.10478136377E+03  0.17499469666E+03  0.12500000000E+03 0.  0.
         25    1    1    2    0    0  0.46277093713E+02 -0.15863745688E+02 -0.54541043904E+03  0.56168565483E+03  0.12500000000E+03 0.  0.
         25    1    1    2    0    0 -0.95986686918E+02  0.55207944844E+02 -0.56230739669E+03  0.58657989193E+03  0.12500000000E+03 0.  0.
</event>
<event>
 5    0  0.5568866E-005  0.2363035E+03  0.7546771E-02  0.1122280E+00
         21   -1    0    0  502  501  0.00000000000E+00  0.00000000000E+00  0.16240181531E+03  0.16240181531E+03  0.00000000000E+00 0.  1.
         21   -1    0    0  501  502 -0.00000000000E+00 -0.00000000000E+00 -0.34383449871E+03  0.34383449871E+03  0.00000000000E+00 0.  1.
         25    1    1    2    0    0  0.63490194957E+02  0.89803820904E+02 -0.29277330412E+02  0.16904997244E+03  0.12500000000E+03 0.  0.
         25    1    1    2    0    0 -0.52611062176E+01  0.11356699699E+02 -0.36831297827E+02  0.13091294194E+03  0.12500000000E+03 0.  0.
         25    1    1    2    0    0 -0.58229088739E+02 -0.10116052060E+03 -0.11532405515E+03  0.20627339965E+03  0.12500000000E+03 0.  0.
</event>
<event>
 5    0  0.5568866E-005  0.4517775E+03  0.7546771E-02  0.1027193E+00
         21   -1    0    0  502  501  0.00000000000E+00  0.00000000000E+00  0.41974747837E+03  0.41974747837E+03  0.00000000000E+00 0.  1.
         21   -1    0    0  501  502 -0.00000000000E+00 -0.00000000000E+00 -0.48625163587E+03  0.48625163587E+03  0.00000000000E+00 0.  1.
         25    1    1    2    0    0 -0.25010014722E+03 -0.16205473133E+03 -0.12237744833E+03  0.34556194733E+03  0.12500000000E+03 0.  0.
         25    1    1    2    0    0  0.27982246794E+02 -0.87979721234E+02 -0.84388985178E+02  0.17683308034E+03  0.12500000000E+03 0.  0.
         25    1    1    2    0    0  0.22211790043E+03  0.25003445257E+03  0.14026227600E+03  0.38360408656E+03  0.12500000000E+03 0.  0.
</event>
<event>
 5    0  0.5568866E-005  0.2791947E+03  0.7546771E-02  0.1096130E+00
         21   -1    0    0  502  501  0.00000000000E+00  0.00000000000E+00  0.79510691939E+02  0.79510691939E+02  0.00000000000E+00 0. -1.
         21   -1    0    0  501  502 -0.00000000000E+00 -0.00000000000E+00 -0.98036695256E+03  0.98036695256E+03  0.00000000000E+00 0. -1.
         25    1    1    2    0    0  0.25211553673E+02  0.14687662525E+03 -0.28081715162E+03  0.34160157805E+03  0.12500000000E+03 0.  0.
         25    1    1    2    0    0 -0.95672703159E+02 -0.15018197101E+03 -0.40500214365E+03  0.45973865065E+03  0.12500000000E+03 0.  0.
         25    1    1    2    0    0  0.70461149486E+02  0.33053457609E+01 -0.21503696536E+03  0.25853741580E+03  0.12500000000E+03 0.  0.
</event>
<event>
 5    0  0.6213925E-005  0.3251855E+03  0.7546771E-02  0.1073287E+00
         21   -1    0    0  502  501  0.00000000000E+00  0.00000000000E+00  0.48977733327E+03  0.48977733327E+03  0.00000000000E+00 0. -1.
         21   -1    0    0  501  502 -0.00000000000E+00 -0.00000000000E+00 -0.21590546036E+03  0.21590546036E+03  0.00000000000E+00 0.  1.
         25    1    1    2    0    0 -0.17535322204E+03 -0.15277132342E+02  0.67791620017E+02  0.22628046092E+03  0.12500000000E+03 0.  0.
         25    1    1    2    0    0  0.55677207948E+02 -0.31845227203E+02 -0.64646304823E+02  0.15465514769E+03  0.12500000000E+03 0.  0.
         25    1    1    2    0    0  0.11967601409E+03  0.47122359545E+02  0.27072655772E+03  0.32474718501E+03  0.12500000000E+03 0.  0.
</event>
<event>
 5    0  0.5568866E-005  0.2439744E+03  0.7546771E-02  0.1117173E+00
         21   -1    0    0  502  501  0.00000000000E+00  0.00000000000E+00  0.27083553240E+02  0.27083553240E+02  0.00000000000E+00 0. -1.
         21   -1    0    0  501  502 -0.00000000000E+00 -0.00000000000E+00 -0.21977737546E+04  0.21977737546E+04  0.00000000000E+00 0. -1.
         25    1    1    2    0    0  0.32893243524E+02 -0.10600670330E+03 -0.95646510052E+03  0.97096337476E+03  0.12500000000E+03 0.  0.
         25    1    1    2    0    0  0.12076953710E+02 -0.18001376628E+02 -0.40006821799E+03  0.41970165763E+03  0.12500000000E+03 0.  0.
         25    1    1    2    0    0 -0.44970197235E+02  0.12400807993E+03 -0.81415688285E+03  0.83419227545E+03  0.12500000000E+03 0.  0.
</event>
<event>
 5    0  0.5568866E-005  0.5307012E+03  0.7546771E-02  0.1006062E+00
         21   -1    0    0  502  501  0.00000000000E+00  0.00000000000E+00  0.17775360714E+04  0.17775360714E+04  0.00000000000E+00 0.  1.
         21   -1    0    0  501  502 -0.00000000000E+00 -0.00000000000E+00 -0.15844614005E+03  0.15844614005E+03  0.00000000000E+00 0.  1.
         25    1    1    2    0    0 -0.35961247499E+03  0.15401085660E+03  0.82121673053E+03  0.91818429230E+03  0.12500000000E+03 0.  0.
         25    1    1    2    0    0  0.35761236637E+03  0.60429184798E+02  0.47694692005E+03  0.61207977870E+03  0.12500000000E+03 0.  0.
         25    1    1    2    0    0  0.20001086255E+01 -0.21444004140E+03  0.32092628076E+03  0.40571814043E+03  0.12500000000E+03 0.  0.
</event>
<event>
 5    0  0.5568866E-005  0.2964266E+03  0.7546771E-02  0.1087041E+00
         21   -1    0    0  502  501  0.00000000000E+00  0.00000000000E+00  0.14956036265E+03  0.14956036265E+03  0.00000000000E+00 0.  1.
         21   -1    0    0  501  502 -0.00000000000E+00 -0.00000000000E+00 -0.58751339399E+03  0.58751339399E+03  0.00000000000E+00 0.  1.
         25    1    1    2    0    0  0.16518336676E+03 -0.23605064328E+02 -0.25346369959E+03  0.32819444043E+03  0.12500000000E+03 0.  0.
         25    1    1    2    0    0 -0.18890723898E+03  0.46102531080E+02 -0.14851312117E+03  0.27475904984E+03  0.12500000000E+03 0.  0.
         25    1    1    2    0    0  0.23723872217E+02 -0.22497466752E+02 -0.35976210574E+02  0.13412026637E+03  0.12500000000E+03 0.  0.
</event>
<event>
 5    0  0.5568866E-005  0.2109099E+03  0.7546771E-02  0.1140847E+00
         21   -1    0    0  502  501  0.00000000000E+00  0.00000000000E+00  0.11911600286E+03  0.11911600286E+03  0.00000000000E+00 0. -1.
         21   -1    0    0  501  502 -0.00000000000E+00 -0.00000000000E+00 -0.37344256006E+03  0.37344256006E+03  0.00000000000E+00 0. -1.
         25    1    1    2    0    0  0.63981922282E+02  0.43222932796E+02 -0.14224079664E+03  0.20449780568E+03  0.12500000000E+03 0.  0.
         25    1    1    2    0    0 -0.38874545809E+02 -0.21400721696E+02 -0.79595168653E+02  0.15469199098E+03  0.12500000000E+03 0.  0.
         25    1    1    2    0    0 -0.25107376472E+02 -0.21822211100E+02 -0.32490591906E+02  0.13336876626E+03  0.12500000000E+03 0.  0.
</event>
<event>
 5    0  0.5568866E-005  0.3887861E+03  0.7546771E-02  0.1047733E+00
         21   -1    0    0  502  501  0.00000000000E+00  0.00000000000E+00  0.46725298791E+03  0.46725298791E+03  0.00000000000E+00 0.  1.
         21   -1    0    0  501  502 -0.00000000000E+00 -0.00000000000E+00 -0.32349628036E+03  0.32349628036E+03  0.00000000000E+00 0.  1.
         25    1    1    2    0    0  0.50174835293E+02  0.20105065066E+03  0.33405475038E+02  0.24429450258E+03  0.12500000000E+03 0.  0.
         25    1    1    2    0    0  0.13414895679E+03 -0.20095844192E+03 -0.43877489583E+02  0.27555484405E+03  0.12500000000E+03 0.  0.
         25    1    1    2    0    0 -0.18432379208E+03 -0.92208743301E-01  0.15422872209E+03  0.27089992164E+03  0.12500000000E+03 0.  0.
</event>
<event>
 5    0  0.5637759E-005  0.3413229E+03  0.7546771E-02  0.1066234E+00
         21   -1    0    0  502  501  0.00000000000E+00  0.00000000000E+00  0.17719405716E+03  0.17719405716E+03  0.00000000000E+00 0.  1.
         21   -1    0    0  501  502 -0.00000000000E+00 -0.00000000000E+00 -0.65747853809E+03  0.65747853809E+03  0.00000000000E+00 0.  1.
         25    1    1    2    0    0 -0.33655132188E+01  0.91232834639E+02  0.81439278163E+02  0.17490601140E+03  0.12500000000E+03 0.  0.
         25    1    1    2    0    0  0.10338247253E+03 -0.52142451248E+02 -0.36732424437E+03  0.40491835146E+03  0.12500000000E+03 0.  0.
         25    1    1    2    0    0 -0.10001695931E+03 -0.39090383391E+02 -0.19439951472E+03  0.25484823238E+03  0.12500000000E+03 0.  0.
</event>
<event>
 5    0  0.5568866E-005  0.2616109E+03  0.7546771E-02  0.1106179E+00
         21   -1    0    0  502  501  0.00000000000E+00  0.00000000000E+00  0.25662875998E+04  0.25662875998E+04  0.00000000000E+00 0. -1.
         21   -1    0    0  501  502 -0.00000000000E+00 -0.00000000000E+00 -0.26668966405E+02  0.26668966405E+02  0.00000000000E+00 0. -1.
         25    1    1    2    0    0  0.13094895673E+03  0.86197714162E+02  0.10888633587E+04  0.11071703072E+04  0.12500000000E+03 0.  0.
         25    1    1    2    0    0 -0.10568922982E+03 -0.91442904758E+02  0.99416240543E+03  0.10116896295E+04  0.12500000000E+03 0.  0.
         25    1    1    2    0    0 -0.25259726914E+02  0.52451905961E+01  0.45659286925E+03  0.47409662947E+03  0.12500000000E+03 0.  0.
</event>
<event>
 5    0  0.5568866E-005  0.4433903E+03  0.7546771E-02  0.1029712E+00
         21   -1    0    0  502  501  0.00000000000E+00  0.00000000000E+00  0.12258826109E+04  0.12258826109E+04  0.00000000000E+00 0. -1.
         21   -1    0    0  501  502 -0.00000000000E+00 -0.00000000000E+00 -0.16037013764E+03  0.16037013764E+03  0.00000000000E+00 0. -1.
         25    1    1    2    0    0  0.52185467509E+02  0.26511886074E+03  0.21467385485E+03  0.36704386291E+03  0.12500000000E+03 0.  0.
         25    1    1    2    0    0 -0.16221784477E+03 -0.80321133308E+02  0.12742927069E+03  0.25422299787E+03  0.12500000000E+03 0.  0.
         25    1    1    2    0    0  0.11003237727E+03 -0.18479772743E+03  0.72340934767E+03  0.76498588771E+03  0.12500000000E+03 0.  0.
</event>
<event>
 5    0  0.5568866E-005  0.4561192E+03  0.7546771E-02  0.1025913E+00
         21   -1    0    0  502  501  0.00000000000E+00  0.00000000000E+00  0.38782153992E+03  0.38782153992E+03  0.00000000000E+00 0.  1.
         21   -1    0    0  501  502 -0.00000000000E+00 -0.00000000000E+00 -0.53644456093E+03  0.53644456093E+03  0.00000000000E+00 0.  1.
         25    1    1    2    0    0 -0.17471592206E+02 -0.75550555863E+02 -0.39351585216E+03  0.42011054369E+03  0.12500000000E+03 0.  0.
         25    1    1    2    0    0 -0.10330778186E+03 -0.99288881853E+02  0.14051052671E+03  0.23642966813E+03  0.12500000000E+03 0.  0.
         25    1    1    2    0    0  0.12077937407E+03  0.17483943772E+03  0.10438230443E+03  0.26772588903E+03  0.12500000000E+03 0.  0.
</event>
<event>
 5    0  0.5568866E-005  0.5518765E+03  0.7546771E-02  0.1001061E+00
         21   -1    0    0  502  501  0.00000000000E+00  0.00000000000E+00  0.75162380725E+03  0.75162380725E+03  0.00000000000E+00 0. -1.
         21   -1    0    0  501  502 -0.00000000000E+00 -0.00000000000E+00 -0.40521293092E+03  0.40521293092E+03  0.00000000000E+00 0. -1.
         25    1    1    2    0    0 -0.28215791097E+03  0.13881803973E+03  0.34436304144E+02  0.34013878626E+03  0.12500000000E+03 0.  0.
         25    1    1    2    0    0  0.37329763663E+03 -0.21809732665E+03  0.41705363383E+03  0.61357664794E+03  0.12500000000E+03 0.  0.
         25    1    1    2    0    0 -0.91139725661E+02  0.79279286918E+02 -0.10507906165E+03  0.20312130397E+03  0.12500000000E+03 0.  0.
</event>
<event>
 5    0  0.5568866E-005  0.3200673E+03  0.7546771E-02  0.1075618E+00
         21   -1    0    0  502  501  0.00000000000E+00  0.00000000000E+00  0.24532906332E+03  0.24532906332E+03  0.00000000000E+00 0. -1.
         21   -1    0    0  501  502 -0.00000000000E+00 -0.00000000000E+00 -0.41757407911E+03  0.41757407911E+03  0.00000000000E+00 0. -1.
         25    1    1    2    0    0  0.12065320461E+02 -0.18654413512E+03 -0.10055546870E+03  0.24633450549E+03  0.12500000000E+03 0.  0.
         25    1    1    2    0    0  0.18417083303E+01  0.17472113085E+03  0.70743125189E+02  0.22618677065E+03  0.12500000000E+03 0.  0.
         25    1    1    2    0    0 -0.13907028792E+02  0.11823004277E+02 -0.14243267228E+03  0.19038186629E+03  0.12500000000E+03 0.  0.
</event>
<event>
 5    0  0.5568866E-005  0.2279894E+03  0.7546771E-02  0.1128063E+00
         21   -1    0    0  502  501  0.00000000000E+00  0.00000000000E+00  0.84876339426E+02  0.84876339426E+02  0.00000000000E+00 0.  1.
         21   -1    0    0  501  502 -0.00000000000E+00 -0.00000000000E+00 -0.61241042203E+03  0.61241042203E+03  0.00000000000E+00 0.  1.
         25    1    1    2    0    0  0.50369405390E+02 -0.47824406081E+02 -0.48132813137E+02  0.15088412281E+03  0.12500000000E+03 0.  0.
         25    1    1    2    0    0 -0.23359194580E+02  0.35309379477E+02 -0.27386339734E+03  0.30400421815E+03  0.12500000000E+03 0.  0.
         25    1    1    2    0    0 -0.27010210811E+02  0.12515026603E+02 -0.20553787213E+03  0.24239842049E+03  0.12500000000E+03 0.  0.
</event>
<event>
 5    0  0.5568866E-005  0.4088060E+03  0.7546771E-02  0.1040772E+00
         21   -1    0    0  502  501  0.00000000000E+00  0.00000000000E+00  0.35888513343E+03  0.35888513343E+03  0.00000000000E+00 0.  1.
         21   -1    0    0  501  502 -0.00000000000E+00 -0.00000000000E+00 -0.46567092117E+03  0.46567092117E+03  0.00000000000E+00 0.  1.
         25    1    1    2    0    0 -0.18622105203E+03 -0.13214646756E+03  0.10870098096E+03  0.28210259192E+03  0.12500000000E+03 0.  0.
         25    1    1    2    0    0  0.27523790014E+03  0.15371063623E+03 -0.11654075076E+03  0.35859393183E+03  0.12500000000E+03 0.  0.
         25    1    1    2    0    0 -0.89016848107E+02 -0.21564168671E+02 -0.98946017937E+02  0.18385953085E+03  0.12500000000E+03 0.  0.
</event>
<event>
 5    0  0.5568866E-005  0.3073682E+03  0.7546771E-02  0.1081614E+00
         21   -1    0    0  502  501  0.00000000000E+00  0.00000000000E+00  0.11132061933E+04  0.11132061933E+04  0.00000000000E+00 0. -1.
         21   -1    0    0  501  502 -0.00000000000E+00 -0.00000000000E+00 -0.84867682022E+02  0.84867682022E+02  0.00000000000E+00 0. -1.
         25    1    1    2    0    0  0.15761440907E+03  0.83393358448E+02  0.44900921565E+03  0.49903008919E+03  0.12500000000E+03 0.  0.
         25    1    1    2    0    0 -0.20285798770E+03 -0.78868890711E+02  0.43904946581E+03  0.50572828528E+03  0.12500000000E+03 0.  0.
         25    1    1    2    0    0  0.45243578628E+02 -0.45244677376E+01  0.14027982980E+03  0.19331550084E+03  0.12500000000E+03 0.  0.
</event>
<event>
 5    0  0.5568866E-005  0.2327423E+03  0.7546771E-02  0.1124724E+00
         21   -1    0    0  502  501  0.00000000000E+00  0.00000000000E+00  0.23751455931E+03  0.23751455931E+03  0.00000000000E+00 0. -1.
         21   -1    0    0  501  502 -0.00000000000E+00 -0.00000000000E+00 -0.22806591761E+03  0.22806591761E+03  0.00000000000E+00 0. -1.
         25    1    1    2    0    0  0.13496656192E+02  0.12701370304E+03  0.37355785356E+02  0.18257901081E+03  0.12500000000E+03 0.  0.
         25    1    1    2    0    0 -0.48198125502E+01 -0.64320303619E+02 -0.29823180081E+01  0.14069195525E+03  0.12500000000E+03 0.  0.
         25    1    1    2    0    0 -0.86768436423E+01 -0.62693399426E+02 -0.24924825654E+02  0.14230951086E+03  0.12500000000E+03 0.  0.
</event>
<event>
 5    0  0.5568866E-005  0.3205312E+03  0.7546771E-02  0.1075405E+00
         21   -1    0    0  502  501  0.00000000000E+00  0.00000000000E+00  0.28430765721E+03  0.28430765721E+03  0.00000000000E+00 0. -1.
         21   -1    0    0  501  502 -0.00000000000E+00 -0.00000000000E+00 -0.36136992297E+03  0.36136992297E+03  0.00000000000E+00 0. -1.
         25    1    1    2    0    0  0.27898965347E+02  0.93219332707E+02 -0.45096898057E+02  0.16470253936E+03  0.12500000000E+03 0.  0.
         25    1    1    2    0    0  0.69095662865E+02  0.46378382473E+02  0.14262924746E+03  0.20710689804E+03  0.12500000000E+03 0.  0.
         25    1    1    2    0    0 -0.96994628212E+02 -0.13959771518E+03 -0.17459461516E+03  0.27386814278E+03  0.12500000000E+03 0.  0.
</event>
<event>
 5    0  0.5568866E-005  0.3415933E+03  0.7546771E-02  0.1066119E+00
         21   -1    0    0  502  501  0.00000000000E+00  0.00000000000E+00  0.31961021921E+03  0.31961021921E+03  0.00000000000E+00 0. -1.
         21   -1    0    0  501  502 -0.00000000000E+00 -0.00000000000E+00 -0.36508829381E+03  0.36508829381E+03  0.00000000000E+00 0. -1.
         25    1    1    2    0    0  0.44555927106E+02  0.14663022940E+03 -0.17608274301E+03  0.26479385793E+03  0.12500000000E+03 0.  0.
         25    1    1    2    0    0 -0.51486359049E+02  0.37017332694E+02  0.13911495907E+03  0.19748189771E+03  0.12500000000E+03 0.  0.
         25    1    1    2    0    0  0.69304319430E+01 -0.18364756209E+03 -0.85102906558E+01  0.22242275737E+03  0.12500000000E+03 0.  0.
</event>
<event>
 5    0  0.5568866E-005  0.4451214E+03  0.7546771E-02  0.1029187E+00
         21   -1    0    0  502  501  0.00000000000E+00  0.00000000000E+00  0.67902347624E+03  0.67902347624E+03  0.00000000000E+00 0. -1.
         21   -1    0    0  501  502 -0.00000000000E+00 -0.00000000000E+00 -0.29179120961E+03  0.29179120961E+03  0.00000000000E+00 0. -1.
         25    1    1    2    0    0  0.45912838534E+02 -0.49384538289E+02  0.80679644029E+02  0.16334327756E+03  0.12500000000E+03 0.  0.
         25    1    1    2    0    0 -0.33928062214E+03 -0.12058772016E+03  0.20157436781E+03  0.43117277810E+03  0.12500000000E+03 0.  0.
         25    1    1    2    0    0  0.29336778361E+03  0.16997225845E+03  0.10497825479E+03  0.37629863019E+03  0.12500000000E+03 0.  0.
</event>
<event>
 5    0  0.5568866E-005  0.2358788E+03  0.7546771E-02  0.1122569E+00
         21   -1    0    0  502  501  0.00000000000E+00  0.00000000000E+00  0.45509787006E+03  0.45509787006E+03  0.00000000000E+00 0. -1.
         21   -1    0    0  501  502 -0.00000000000E+00 -0.00000000000E+00 -0.12225683119E+03  0.12225683119E+03  0.00000000000E+00 0. -1.
         25    1    1    2    0    0 -0.72823097406E+02  0.80139928017E+02  0.14114170352E+03  0.21742031196E+03  0.12500000000E+03 0.  0.
         25    1    1    2    0    0 -0.14240326760E+02 -0.24295348924E+02  0.13969193554E+03  0.18955708307E+03  0.12500000000E+03 0.  0.
         25    1    1    2    0    0  0.87063424165E+02 -0.55844579093E+02  0.52007399810E+02  0.17037730623E+03  0.12500000000E+03 0.  0.
</event>
<event>
 5    0  0.5568866E-005  0.2422761E+03  0.7546771E-02  0.1118286E+00
         21   -1    0    0  502  501  0.00000000000E+00  0.00000000000E+00  0.20049939609E+04  0.20049939609E+04  0.00000000000E+00 0.  1.
         21   -1    0    0  501  502 -0.00000000000E+00 -0.00000000000E+00 -0.29275756041E+02  0.29275756041E+02  0.00000000000E+00 0.  1.
         25    1    1    2    0    0 -0.48697896714E+02 -0.10018950636E+03  0.73776614032E+03  0.75652713112E+03  0.12500000000E+03 0.  0.
         25    1    1    2    0    0 -0.16024116558E+02 -0.27223342128E+01  0.33118806138E+03  0.35436522885E+03  0.12500000000E+03 0.  0.
         25    1    1    2    0    0  0.64722013272E+02  0.10291184058E+03  0.90676400317E+03  0.92337735698E+03  0.12500000000E+03 0.  0.
</event>
<event>
 5    0  0.5994021E-005  0.2764909E+03  0.7546771E-02  0.1097621E+00
         21   -1    0    0  502  501  0.00000000000E+00  0.00000000000E+00  0.34667059782E+03  0.34667059782E+03  0.00000000000E+00 0.  1.
         21   -1    0    0  501  502 -0.00000000000E+00 -0.00000000000E+00 -0.22051837110E+03  0.22051837110E+03  0.00000000000E+00 0.  1.
         25    1    1    2    0    0 -0.82357386127E+02  0.65691149726E+02  0.11637909695E+01  0.16347605516E+03  0.12500000000E+03 0.  0.
         25    1    1    2    0    0 -0.36333753080E+02 -0.42034873104E+02 -0.60341242238E+02  0.14950965750E+03  0.12500000000E+03 0.  0.
         25    1    1    2    0    0  0.11869113921E+03 -0.23656276622E+02  0.18532967799E+03  0.25420325626E+03  0.12500000000E+03 0.  0.
</event>
<event>
 5    0  0.5568866E-005  0.2487129E+03  0.7546771E-02  0.1114121E+00
         21   -1    0    0  502  501  0.00000000000E+00  0.00000000000E+00  0.19649563260E+03  0.19649563260E+03  0.00000000000E+00 0.  1.
         21   -1    0    0  501  502 -0.00000000000E+00 -0.00000000000E+00 -0.31480664038E+03  0.31480664038E+03  0.00000000000E+00 0.  1.
         25    1    1    2    0    0 -0.21840514727E+02 -0.53230448153E+02 -0.85701843252E+02  0.16211198176E+03  0.12500000000E+03 0.  0.
         25    1    1    2    0    0  0.28485969149E+01 -0.25785993269E+02 -0.12097361609E+03  0.17587679706E+03  0.12500000000E+03 0.  0.
         25    1    1    2    0    0  0.18991917812E+02  0.79016441422E+02  0.88364451563E+02  0.17331349416E+03  0.12500000000E+03 0.  0.
</event>
<event>
 5    0  0.5568866E-005  0.2558366E+03  0.7546771E-02  0.1109671E+00
         21   -1    0    0  502  501  0.00000000000E+00  0.00000000000E+00  0.74648293648E+03  0.74648293648E+03  0.00000000000E+00 0. -1.
         21   -1    0    0  501  502 -0.00000000000E+00 -0.00000000000E+00 -0.87680989167E+02  0.87680989167E+02  0.00000000000E+00 0. -1.
         25    1    1    2    0    0  0.21557604136E+02 -0.94639327739E+02  0.83024368449E+02  0.17871591537E+03  0.12500000000E+03 0.  0.
         25    1    1    2    0    0  0.37700686928E+02  0.35698499188E+02  0.14122551587E+03  0.19561536487E+03  0.12500000000E+03 0.  0.
         25    1    1    2    0    0 -0.59258291064E+02  0.58940828550E+02  0.43455206299E+03  0.45983264541E+03  0.12500000000E+03 0.  0.
</event>
<event>
 5    0  0.5568866E-005  0.2127647E+03  0.7546771E-02  0.1139395E+00
         21   -1    0    0  502  501  0.00000000000E+00  0.00000000000E+00  0.42295484575E+03  0.42295484575E+03  0.00000000000E+00 0. -1.
         21   -1    0    0  501  502 -0.00000000000E+00 -0.00000000000E+00 -0.10702991654E+03  0.10702991654E+03  0.00000000000E+00 0. -1.
         25    1    1    2    0    0 -0.17430666421E+02 -0.57936479332E+02  0.43247825301E+02  0.14545046635E+03  0.12500000000E+03 0.  0.
         25    1    1    2    0    0 -0.31198996813E+02  0.16179008017E+02  0.11615527584E+03  0.17421878719E+03  0.12500000000E+03 0.  0.
         25    1    1    2    0    0  0.48629663234E+02  0.41757471315E+02  0.15652182807E+03  0.21031550875E+03  0.12500000000E+03 0.  0.
</event>
<event>
 5    0  0.5568866E-005  0.2209514E+03  0.7546771E-02  0.1133176E+00
         21   -1    0    0  502  501  0.00000000000E+00  0.00000000000E+00  0.52409964029E+03  0.52409964029E+03  0.00000000000E+00 0. -1.
         21   -1    0    0  501  502 -0.00000000000E+00 -0.00000000000E+00 -0.93149314273E+02  0.93149314273E+02  0.00000000000E+00 0. -1.
         25    1    1    2    0    0  0.24715662389E+02 -0.38518045222E+02  0.20958074019E+03  0.24828127282E+03  0.12500000000E+03 0.  0.
         25    1    1    2    0    0  0.95821236965E+01 -0.18792003575E+02  0.18214388527E+03  0.22191518973E+03  0.12500000000E+03 0.  0.
         25    1    1    2    0    0 -0.34297786086E+02  0.57310048797E+02  0.39225700567E+02  0.14705249202E+03  0.12500000000E+03 0.  0.
</event>
<event>
 5    0  0.5568866E-005  0.2727150E+03  0.7546771E-02  0.1099736E+00
         21   -1    0    0  502  501  0.00000000000E+00  0.00000000000E+00  0.24047131708E+04  0.24047131708E+04  0.00000000000E+00 0. -1.
         21   -1    0    0  501  502 -0.00000000000E+00 -0.00000000000E+00 -0.30928199951E+02  0.30928199951E+02  0.00000000000E+00 0. -1.
         25    1    1    2    0    0 -0.69742966853E+01  0.34505704491E+02  0.15215221980E+04  0.15270540539E+04  0.12500000000E+03 0.  0.
         25    1    1    2    0    0  0.67513795106E+02 -0.81014785611E+02  0.52870237139E+03  0.55341910477E+03  0.12500000000E+03 0.  0.
         25    1    1    2    0    0 -0.60539498421E+02  0.46509081120E+02  0.32356040150E+03  0.35516821214E+03  0.12500000000E+03 0.  0.
</event>
<event>
 5    0  0.5568866E-005  0.3004653E+03  0.7546771E-02  0.1085008E+00
         21   -1    0    0  502  501  0.00000000000E+00  0.00000000000E+00  0.95921462365E+02  0.95921462365E+02  0.00000000000E+00 0. -1.
         21   -1    0    0  501  502 -0.00000000000E+00 -0.00000000000E+00 -0.94118015425E+03  0.94118015425E+03  0.00000000000E+00 0. -1.
         25    1    1    2    0    0 -0.22962151075E+00 -0.27031192859E+02 -0.39998369667E+03  0.41993177507E+03  0.12500000000E+03 0.  0.
         25    1    1    2    0    0  0.77159200483E+02 -0.14054833611E+03 -0.18870282459E+03  0.27738264728E+03  0.12500000000E+03 0.  0.
         25    1    1    2    0    0 -0.76929578973E+02  0.16757952896E+03 -0.25657217062E+03  0.33978719426E+03  0.12500000000E+03 0.  0.
</event>
<event>
 5    0  0.5568866E-005  0.3188113E+03  0.7546771E-02  0.1076198E+00
         21   -1    0    0  502  501  0.00000000000E+00  0.00000000000E+00  0.23421665247E+03  0.23421665247E+03  0.00000000000E+00 0.  1.
         21   -1    0    0  501  502 -0.00000000000E+00 -0.00000000000E+00 -0.43396003874E+03  0.43396003874E+03  0.00000000000E+00 0.  1.
         25    1    1    2    0    0  0.18056024358E+03 -0.36876560165E+02 -0.14589231531E+03  0.26621692268E+03  0.12500000000E+03 0.  0.
         25    1    1    2    0    0 -0.29599996938E+02  0.11386904215E+03  0.31890890903E+02  0.17459767324E+03  0.12500000000E+03 0.  0.
         25    1    1    2    0    0 -0.15096024665E+03 -0.76992481987E+02 -0.85741961873E+02  0.22736209529E+03  0.12500000000E+03 0.  0.
</event>
<event>
 5    0  0.5568866E-005  0.3897671E+03  0.7546771E-02  0.1047382E+00
         21   -1    0    0  502  501  0.00000000000E+00  0.00000000000E+00  0.11201879716E+04  0.11201879716E+04  0.00000000000E+00 0. -1.
         21   -1    0    0  501  502 -0.00000000000E+00 -0.00000000000E+00 -0.13561865727E+03  0.13561865727E+03  0.00000000000E+00 0. -1.
         25    1    1    2    0    0  0.11917338068E+03 -0.13915814506E+03  0.63290877041E+03  0.67064580492E+03  0.12500000000E+03 0.  0.
         25    1    1    2    0    0  0.11744782973E+03  0.95576425061E+02  0.13888841578E+03  0.24050745887E+03  0.12500000000E+03 0.  0.
         25    1    1    2    0    0 -0.23662121040E+03  0.43581720001E+02  0.21277212811E+03  0.34465336504E+03  0.12500000000E+03 0.  0.
</event>
<event>
 5    0  0.5568866E-005  0.2488567E+03  0.7546771E-02  0.1114029E+00
         21   -1    0    0  502  501  0.00000000000E+00  0.00000000000E+00  0.38425764369E+02  0.38425764369E+02  0.00000000000E+00 0.  1.
         21   -1    0    0  501  502 -0.00000000000E+00 -0.00000000000E+00 -0.16116706824E+04  0.16116706824E+04  0.00000000000E+00 0.  1.
         25    1    1    2    0    0  0.59950960559E+02  0.20118872013E+02 -0.31255252769E+03  0.34250980898E+03  0.12500000000E+03 0.  0.
         25    1    1    2    0    0 -0.13741733160E+03  0.71081761303E+01 -0.86073836737E+03  0.88058479788E+03  0.12500000000E+03 0.  0.
         25    1    1    2    0    0  0.77466371041E+02 -0.27227048143E+02 -0.39995402293E+03  0.42700183987E+03  0.12500000000E+03 0.  0.
</event>
<event>
 5    0  0.5568866E-005  0.2778201E+03  0.7546771E-02  0.1096886E+00
         21   -1    0    0  502  501  0.00000000000E+00  0.00000000000E+00  0.25935760346E+03  0.25935760346E+03  0.00000000000E+00 0. -1.
         21   -1    0    0  501  502 -0.00000000000E+00 -0.00000000000E+00 -0.29759688921E+03  0.29759688921E+03  0.00000000000E+00 0. -1.
         25    1    1    2    0    0 -0.70009814772E+02  0.16826254637E+02 -0.84160227964E+02  0.16701030202E+03  0.12500000000E+03 0.  0.
         25    1    1    2    0    0  0.14329261757E+03 -0.59971467356E+02  0.10771223284E+03  0.22661923186E+03  0.12500000000E+03 0.  0.
         25    1    1    2    0    0 -0.73282802797E+02  0.43145212719E+02 -0.61791290630E+02  0.16332495879E+03  0.12500000000E+03 0.  0.
</event>
<event>
 5    0  0.5568866E-005  0.4291643E+03  0.7546771E-02  0.1034124E+00
         21   -1    0    0  502  501  0.00000000000E+00  0.00000000000E+00  0.18737441828E+03  0.18737441828E+03  0.00000000000E+00 0. -1.
         21   -1    0    0  501  502 -0.00000000000E+00 -0.00000000000E+00 -0.98296254930E+03  0.98296254930E+03  0.00000000000E+00 0. -1.
         25    1    1    2    0    0  0.65180780498E+02 -0.12075056034E+01 -0.22196029417E+03  0.26294745560E+03  0.12500000000E+03 0.  0.
         25    1    1    2    0    0  0.33850380812E+02  0.17701687640E+03  0.62795769659E+02  0.22814278752E+03  0.12500000000E+03 0.  0.
         25    1    1    2    0    0 -0.99031161310E+02 -0.17580937080E+03 -0.63642360651E+03  0.67924672446E+03  0.12500000000E+03 0.  0.
</event>
<event>
 5    0  0.5568866E-005  0.2939265E+03  0.7546771E-02  0.1088317E+00
         21   -1    0    0  502  501  0.00000000000E+00  0.00000000000E+00  0.92632489396E+03  0.92632489396E+03  0.00000000000E+00 0.  1.
         21   -1    0    0  501  502 -0.00000000000E+00 -0.00000000000E+00 -0.93264034912E+02  0.93264034912E+02  0.00000000000E+00 0.  1.
         25    1    1    2    0    0  0.16805824406E+03 -0.32308466452E+02  0.46704809205E+03  0.51288042534E+03  0.12500000000E+03 0.  0.
         25    1    1    2    0    0 -0.36678029907E+02  0.86992334676E+02  0.20575568631E+03  0.25859881403E+03  0.12500000000E+03 0.  0.
         25    1    1    2    0    0 -0.13138021415E+03 -0.54683868224E+02  0.16025708068E+03  0.24810968950E+03  0.12500000000E+03 0.  0.
</event>
<event>
 5    0  0.5568866E-005  0.4330805E+03  0.7546771E-02  0.1032891E+00
         21   -1    0    0  502  501  0.00000000000E+00  0.00000000000E+00  0.42419687729E+03  0.42419687729E+03  0.00000000000E+00 0. -1.
         21   -1    0    0  501  502 -0.00000000000E+00 -0.00000000000E+00 -0.44215011690E+03  0.44215011690E+03  0.00000000000E+00 0. -1.
         25    1    1    2    0    0  0.90902960427E+02  0.18336062704E+03  0.17547065557E+02  0.24045242206E+03  0.12500000000E+03 0.  0.
         25    1    1    2    0    0  0.14057752376E+03 -0.17082073168E+03  0.15787764656E+03  0.29915232548E+03  0.12500000000E+03 0.  0.
         25    1    1    2    0    0 -0.23148048418E+03 -0.12539895364E+02 -0.19337795173E+03  0.32674224665E+03  0.12500000000E+03 0.  0.
</event>
<event>
 5    0  0.5568866E-005  0.2730669E+03  0.7546771E-02  0.1099537E+00
         21   -1    0    0  502  501  0.00000000000E+00  0.00000000000E+00  0.13941233654E+03  0.13941233654E+03  0.00000000000E+00 0.  1.
         21   -1    0    0  501  502 -0.00000000000E+00 -0.00000000000E+00 -0.53485603482E+03  0.53485603482E+03  0.00000000000E+00 0.  1.
         25    1    1    2    0    0 -0.17337286581E+02 -0.32669887946E+02 -0.36636306084E+03  0.38886346631E+03  0.12500000000E+03 0.  0.
         25    1    1    2    0    0  0.20357188742E+02 -0.20838543723E+02 -0.66212952494E+02  0.14442234978E+03  0.12500000000E+03 0.  0.
         25    1    1    2    0    0 -0.30199021612E+01  0.53508431669E+02  0.37132315053E+02  0.14098255527E+03  0.12500000000E+03 0.  0.
</event>
<event>
 5    0  0.5619320E-005  0.2546624E+03  0.7546771E-02  0.1110393E+00
         21   -1    0    0  502  501  0.00000000000E+00  0.00000000000E+00  0.14213370919E+03  0.14213370919E+03  0.00000000000E+00 0.  1.
         21   -1    0    0  501  502 -0.00000000000E+00 -0.00000000000E+00 -0.45628105625E+03  0.45628105625E+03  0.00000000000E+00 0.  1.
         25    1    1    2    0    0 -0.71416458194E+02  0.28624554420E+02  0.86834402771E+01  0.14703767460E+03  0.12500000000E+03 0.  0.
         25    1    1    2    0    0  0.36677098422E+02  0.15569436395E+02 -0.40118409376E+02  0.13719367212E+03  0.12500000000E+03 0.  0.
         25    1    1    2    0    0  0.34739359772E+02 -0.44193990815E+02 -0.28271237796E+03  0.31418341871E+03  0.12500000000E+03 0.  0.
</event>
<event>
 5    0  0.7185335E-005  0.3319673E+03  0.7546771E-02  0.1070270E+00
         21   -1    0    0  502  501  0.00000000000E+00  0.00000000000E+00  0.16668629938E+03  0.16668629938E+03  0.00000000000E+00 0. -1.
         21   -1    0    0  501  502 -0.00000000000E+00 -0.00000000000E+00 -0.66113593978E+03  0.66113593978E+03  0.00000000000E+00 0. -1.
         25    1    1    2    0    0  0.10634072325E+02 -0.13862837415E+03 -0.93577101079E+02  0.20907554486E+03  0.12500000000E+03 0.  0.
         25    1    1    2    0    0 -0.11073941606E+03  0.14885191749E+03 -0.44749922148E+02  0.22813957820E+03  0.12500000000E+03 0.  0.
         25    1    1    2    0    0  0.10010534373E+03 -0.10223543342E+02 -0.35612261718E+03  0.39060711610E+03  0.12500000000E+03 0.  0.
</event>
<event>
 5    0  0.5568866E-005  0.2859293E+03  0.7546771E-02  0.1092494E+00
         21   -1    0    0  502  501  0.00000000000E+00  0.00000000000E+00  0.10478913287E+03  0.10478913287E+03  0.00000000000E+00 0. -1.
         21   -1    0    0  501  502 -0.00000000000E+00 -0.00000000000E+00 -0.78019099440E+03  0.78019099440E+03  0.00000000000E+00 0. -1.
         25    1    1    2    0    0 -0.46810782627E+02  0.47575367722E+02 -0.48388474232E+02  0.14973680050E+03  0.12500000000E+03 0.  0.
         25    1    1    2    0    0 -0.11120705350E+03 -0.45499003523E+02 -0.37044391340E+03  0.40901205489E+03  0.12500000000E+03 0.  0.
         25    1    1    2    0    0  0.15801783613E+03 -0.20763641989E+01 -0.25656947389E+03  0.32623127189E+03  0.12500000000E+03 0.  0.
</event>
<event>
 5    0  0.5568866E-005  0.2935969E+03  0.7546771E-02  0.1088486E+00
         21   -1    0    0  502  501  0.00000000000E+00  0.00000000000E+00  0.16250065628E+03  0.16250065628E+03  0.00000000000E+00 0. -1.
         21   -1    0    0  501  502 -0.00000000000E+00 -0.00000000000E+00 -0.53045402863E+03  0.53045402863E+03  0.00000000000E+00 0. -1.
         25    1    1    2    0    0  0.15795923583E+03 -0.67770852609E+02 -0.11259091883E+03  0.24051137946E+03  0.12500000000E+03 0.  0.
         25    1    1    2    0    0 -0.77847732746E+02  0.18941287823E+02 -0.25624227968E+03  0.29614886083E+03  0.12500000000E+03 0.  0.
         25    1    1    2    0    0 -0.80111503083E+02  0.48829564786E+02  0.87982615802E+00  0.15629444461E+03  0.12500000000E+03 0.  0.
</event>
<event>
 5    0  0.5568866E-005  0.2662683E+03  0.7546771E-02  0.1103435E+00
         21   -1    0    0  502  501  0.00000000000E+00  0.00000000000E+00  0.94858085261E+02  0.94858085261E+02  0.00000000000E+00 0. -1.
         21   -1    0    0  501  502 -0.00000000000E+00 -0.00000000000E+00 -0.74741976858E+03  0.74741976858E+03  0.00000000000E+00 0. -1.
         25    1    1    2    0    0  0.27140787077E+02  0.94135633791E+01 -0.31863668798E+03  0.34348155180E+03  0.12500000000E+03 0.  0.
         25    1    1    2    0    0  0.82093292225E+01  0.13550731114E+02 -0.34414368821E+03  0.36648450654E+03  0.12500000000E+03 0.  0.
         25    1    1    2    0    0 -0.35350116299E+02 -0.22964294493E+02  0.10218692874E+02  0.13231179550E+03  0.12500000000E+03 0.  0.
</event>
<event>
 5    0  0.5568866E-005  0.5056261E+03  0.7546771E-02  0.1012321E+00
         21   -1    0    0  502  501  0.00000000000E+00  0.00000000000E+00  0.14093203934E+04  0.14093203934E+04  0.00000000000E+00 0. -1.
         21   -1    0    0  501  502 -0.00000000000E+00 -0.00000000000E+00 -0.18140496186E+03  0.18140496186E+03  0.00000000000E+00 0. -1.
         25    1    1    2    0    0 -0.91737344195E+01 -0.59652708012E+02 -0.59972393331E+02  0.15120942741E+03  0.12500000000E+03 0.  0.
         25    1    1    2    0    0 -0.37811290662E+02 -0.67705333380E+02  0.89922161276E+01  0.14737559439E+03  0.12500000000E+03 0.  0.
         25    1    1    2    0    0  0.46985025082E+02  0.12735804139E+03  0.12788956088E+04  0.12921403335E+04  0.12500000000E+03 0.  0.
</event>
<event>
 5    0  0.5568866E-005  0.2074551E+03  0.7546771E-02  0.1143597E+00
         21   -1    0    0  502  501  0.00000000000E+00  0.00000000000E+00  0.27322659377E+03  0.27322659377E+03  0.00000000000E+00 0.  1.
         21   -1    0    0  501  502 -0.00000000000E+00 -0.00000000000E+00 -0.15751625378E+03  0.15751625378E+03  0.00000000000E+00 0.  1.
         25    1    1    2    0    0  0.29435088589E+02  0.58836355231E+02  0.87857260059E+02  0.16634914873E+03  0.12500000000E+03 0.  0.
         25    1    1    2    0    0 -0.61067712463E+01 -0.43399733307E+02 -0.35517572410E+01  0.13250828082E+03  0.12500000000E+03 0.  0.
         25    1    1    2    0    0 -0.23328317343E+02 -0.15436621924E+02  0.31404837172E+02  0.13188541801E+03  0.12500000000E+03 0.  0.
</event>
<event>
 5    0  0.5568866E-005  0.2834344E+03  0.7546771E-02  0.1093828E+00
         21   -1    0    0  502  501  0.00000000000E+00  0.00000000000E+00  0.18520860804E+03  0.18520860804E+03  0.00000000000E+00 0. -1.
         21   -1    0    0  501  502 -0.00000000000E+00 -0.00000000000E+00 -0.43375434872E+03  0.43375434872E+03  0.00000000000E+00 0. -1.
         25    1    1    2    0    0 -0.36848082357E+02  0.15735227871E+03 -0.13605921864E+03  0.24546818890E+03  0.12500000000E+03 0.  0.
         25    1    1    2    0    0  0.87890006805E+02 -0.10975405328E+03 -0.13083776965E+03  0.22915961135E+03  0.12500000000E+03 0.  0.
         25    1    1    2    0    0 -0.51041924448E+02 -0.47598225428E+02  0.18351247607E+02  0.14433515651E+03  0.12500000000E+03 0.  0.
</event>
<event>
 5    0  0.5568866E-005  0.3287205E+03  0.7546771E-02  0.1071704E+00
         21   -1    0    0  502  501  0.00000000000E+00  0.00000000000E+00  0.24261653836E+03  0.24261653836E+03  0.00000000000E+00 0.  1.
         21   -1    0    0  501  502 -0.00000000000E+00 -0.00000000000E+00 -0.44538246283E+03  0.44538246283E+03  0.00000000000E+00 0.  1.
         25    1    1    2    0    0 -0.69584498736E+01  0.14681761715E+03  0.67203073675E+02  0.20431614191E+03  0.12500000000E+03 0.  0.
         25    1    1    2    0    0  0.15668248262E+02  0.12871439660E+02 -0.24934181822E+03  0.27965605711E+03  0.12500000000E+03 0.  0.
         25    1    1    2    0    0 -0.87097983887E+01 -0.15968905681E+03 -0.20627179929E+02  0.20402680218E+03  0.12500000000E+03 0.  0.
</event>
<event>
 5    0  0.5568866E-005  0.2500054E+03  0.7546771E-02  0.1113301E+00
         21   -1    0    0  502  501  0.00000000000E+00  0.00000000000E+00  0.18711426973E+03  0.18711426973E+03  0.00000000000E+00 0. -1.
         21   -1    0    0  501  502 -0.00000000000E+00 -0.00000000000E+00 -0.33403500491E+03  0.33403500491E+03  0.00000000000E+00 0. -1.
         25    1    1    2    0    0 -0.51429050428E+02  0.93799210739E+02  0.48058562009E+02  0.17139972154E+03  0.12500000000E+03 0.  0.
         25    1    1    2    0    0  0.66287180024E+02 -0.40646075730E+02 -0.64174009088E+02  0.16059077542E+03  0.12500000000E+03 0.  0.
         25    1    1    2    0    0 -0.14858129597E+02 -0.53153135009E+02 -0.13080528810E+03  0.18915877767E+03  0.12500000000E+03 0.  0.
</event>
<event>
 5    0  0.6250217E-005  0.2468395E+03  0.7546771E-02  0.1115319E+00
         21   -1    0    0  502  501  0.00000000000E+00  0.00000000000E+00  0.57674644094E+03  0.57674644094E+03  0.00000000000E+00 0. -1.
         21   -1    0    0  501  502 -0.00000000000E+00 -0.00000000000E+00 -0.10564392153E+03  0.10564392153E+03  0.00000000000E+00 0. -1.
         25    1    1    2    0    0 -0.37419463053E+02 -0.49016121397E+02  0.70772687684E+02  0.15632200643E+03  0.12500000000E+03 0.  0.
         25    1    1    2    0    0  0.56671682661E+02  0.43679678953E+02  0.36834585847E+03  0.39550381215E+03  0.12500000000E+03 0.  0.
         25    1    1    2    0    0 -0.19252219608E+02  0.53364424445E+01  0.31983973247E+02  0.13056454389E+03  0.12500000000E+03 0.  0.
</event>
<event>
 5    0  0.5780232E-005  0.2946462E+03  0.7546771E-02  0.1087948E+00
         21   -1    0    0  502  501  0.00000000000E+00  0.00000000000E+00  0.32726065913E+03  0.32726065913E+03  0.00000000000E+00 0. -1.
         21   -1    0    0  501  502 -0.00000000000E+00 -0.00000000000E+00 -0.26528201818E+03  0.26528201818E+03  0.00000000000E+00 0. -1.
         25    1    1    2    0    0  0.74147303203E+02 -0.18179337158E+02  0.97234283552E+02  0.17580619093E+03  0.12500000000E+03 0.  0.
         25    1    1    2    0    0 -0.84330371161E+02 -0.17930357632E+02 -0.17082328099E+03  0.22855787572E+03  0.12500000000E+03 0.  0.
         25    1    1    2    0    0  0.10183067957E+02  0.36109694790E+02  0.13556763839E+03  0.18817861066E+03  0.12500000000E+03 0.  0.
</event>
<event>
 5    0  0.5568866E-005  0.2950946E+03  0.7546771E-02  0.1087719E+00
         21   -1    0    0  502  501  0.00000000000E+00  0.00000000000E+00  0.33168753777E+03  0.33168753777E+03  0.00000000000E+00 0.  1.
         21   -1    0    0  501  502 -0.00000000000E+00 -0.00000000000E+00 -0.26253879340E+03  0.26253879340E+03  0.00000000000E+00 0.  1.
         25    1    1    2    0    0  0.68486266154E+02 -0.16712702006E+02 -0.10669306146E+01  0.14351244337E+03  0.12500000000E+03 0.  0.
         25    1    1    2    0    0  0.10554240654E+03  0.61555265071E+02 -0.72668971239E+02  0.18929878398E+03  0.12500000000E+03 0.  0.
         25    1    1    2    0    0 -0.17402867270E+03 -0.44842563065E+02  0.14288464622E+03  0.26141510383E+03  0.12500000000E+03 0.  0.
</event>
<event>
 5    0  0.5568866E-005  0.3117180E+03  0.7546771E-02  0.1079525E+00
         21   -1    0    0  502  501  0.00000000000E+00  0.00000000000E+00  0.13216855560E+04  0.13216855560E+04  0.00000000000E+00 0.  1.
         21   -1    0    0  501  502 -0.00000000000E+00 -0.00000000000E+00 -0.73518338390E+02  0.73518338390E+02  0.00000000000E+00 0.  1.
         25    1    1    2    0    0  0.80289503833E+02  0.93801664186E+02  0.50227910265E+03  0.53212259263E+03  0.12500000000E+03 0.  0.
         25    1    1    2    0    0  0.20370363259E+02  0.81148078991E+02  0.11604106711E+03  0.18997497645E+03  0.12500000000E+03 0.  0.
         25    1    1    2    0    0 -0.10065986709E+03 -0.17494974318E+03  0.62984704790E+03  0.67310632535E+03  0.12500000000E+03 0.  0.
</event>
<event>
 5    0  0.5568866E-005  0.2800606E+03  0.7546771E-02  0.1095656E+00
         21   -1    0    0  502  501  0.00000000000E+00  0.00000000000E+00  0.28327085441E+02  0.28327085441E+02  0.00000000000E+00 0. -1.
         21   -1    0    0  501  502 -0.00000000000E+00 -0.00000000000E+00 -0.27688663459E+04  0.27688663459E+04  0.00000000000E+00 0. -1.
         25    1    1    2    0    0  0.32066666496E+02 -0.12293899878E+03 -0.93009949843E+03  0.94702288541E+03  0.12500000000E+03 0.  0.
         25    1    1    2    0    0  0.10894021821E+03  0.89652558143E+02 -0.98086965512E+03  0.99881721684E+03  0.12500000000E+03 0.  0.
         25    1    1    2    0    0 -0.14100688471E+03  0.33286440642E+02 -0.82957010695E+03  0.85135332913E+03  0.12500000000E+03 0.  0.
</event>
<event>
 5    0  0.5568866E-005  0.5314382E+03  0.7546771E-02  0.1005884E+00
         21   -1    0    0  502  501  0.00000000000E+00  0.00000000000E+00  0.33589545562E+04  0.33589545562E+04  0.00000000000E+00 0. -1.
         21   -1    0    0  501  502 -0.00000000000E+00 -0.00000000000E+00 -0.84081674968E+02  0.84081674968E+02  0.00000000000E+00 0. -1.
         25    1    1    2    0    0  0.86042599518E+01  0.25034450119E+03  0.20355912316E+03  0.34613251680E+03  0.12500000000E+03 0.  0.
         25    1    1    2    0    0  0.32856687194E+02 -0.18507384627E+03  0.12957105091E+04  0.13152272100E+04  0.12500000000E+03 0.  0.
         25    1    1    2    0    0 -0.41460947146E+02 -0.65270654916E+02  0.17756032490E+04  0.17816765044E+04  0.12500000000E+03 0.  0.
</event>
<event>
 5    0  0.5568866E-005  0.2251556E+03  0.7546771E-02  0.1130097E+00
         21   -1    0    0  502  501  0.00000000000E+00  0.00000000000E+00  0.59271640982E+03  0.59271640982E+03  0.00000000000E+00 0. -1.
         21   -1    0    0  501  502 -0.00000000000E+00 -0.00000000000E+00 -0.85530020117E+02  0.85530020117E+02  0.00000000000E+00 0. -1.
         25    1    1    2    0    0 -0.46617997331E+02  0.25096813088E+02  0.21315725296E+03  0.25271347845E+03  0.12500000000E+03 0.  0.
         25    1    1    2    0    0 -0.59181161092E+02 -0.26833462413E+02  0.10682351209E+03  0.17680132145E+03  0.12500000000E+03 0.  0.
         25    1    1    2    0    0  0.10579915842E+03  0.17366493249E+01  0.18720562465E+03  0.24873163003E+03  0.12500000000E+03 0.  0.
</event>
<event>
 5    0  0.5568866E-005  0.2287943E+03  0.7546771E-02  0.1127491E+00
         21   -1    0    0  502  501  0.00000000000E+00  0.00000000000E+00  0.10310339687E+03  0.10310339687E+03  0.00000000000E+00 0. -1.
         21   -1    0    0  501  502 -0.00000000000E+00 -0.00000000000E+00 -0.50771218232E+03  0.50771218232E+03  0.00000000000E+00 0. -1.
         25    1    1    2    0    0  0.98633260040E+02  0.27348638246E+02 -0.84671038879E+02  0.18240244742E+03  0.12500000000E+03 0.  0.
         25    1    1    2    0    0 -0.11627809140E+02  0.15348629282E+02 -0.13289589414E+03  0.18345872845E+03  0.12500000000E+03 0.  0.
         25    1    1    2    0    0 -0.87005450900E+02 -0.42697267528E+02 -0.18704185244E+03  0.24495440332E+03  0.12500000000E+03 0.  0.
</event>
<event>
 5    0  0.5568866E-005  0.4571095E+03  0.7546771E-02  0.1025623E+00
         21   -1    0    0  502  501  0.00000000000E+00  0.00000000000E+00  0.11759036784E+04  0.11759036784E+04  0.00000000000E+00 0. -1.
         21   -1    0    0  501  502 -0.00000000000E+00 -0.00000000000E+00 -0.17769237349E+03  0.17769237349E+03  0.00000000000E+00 0. -1.
         25    1    1    2    0    0 -0.52165320119E+02  0.81775402747E+02 -0.46258365989E+02  0.16484317863E+03  0.12500000000E+03 0.  0.
         25    1    1    2    0    0  0.13432371862E+03 -0.34852997485E+02  0.10114426380E+04  0.10285420763E+04  0.12500000000E+03 0.  0.
         25    1    1    2    0    0 -0.82158398503E+02 -0.46922405262E+02  0.33027032940E+02  0.16021079697E+03  0.12500000000E+03 0.  0.
</event>
<event>
 5    0  0.5568866E-005  0.2701096E+03  0.7546771E-02  0.1101217E+00
         21   -1    0    0  502  501  0.00000000000E+00  0.00000000000E+00  0.24612224606E+03  0.24612224606E+03  0.00000000000E+00 0.  1.
         21   -1    0    0  501  502 -0.00000000000E+00 -0.00000000000E+00 -0.29643485380E+03  0.29643485380E+03  0.00000000000E+00 0.  1.
         25    1    1    2    0    0  0.41180167141E+02 -0.63911449245E+02  0.92755663577E+02  0.17323132695E+03  0.12500000000E+03 0.  0.
         25    1    1    2    0    0 -0.13773488380E+02  0.67346473736E+02 -0.18590743763E+03  0.23433273752E+03  0.12500000000E+03 0.  0.
         25    1    1    2    0    0 -0.27406678761E+02 -0.34350244911E+01  0.42839166314E+02  0.13499303539E+03  0.12500000000E+03 0.  0.
</event>
<event>
 5    0  0.5568866E-005  0.3316761E+03  0.7546771E-02  0.1070398E+00
         21   -1    0    0  502  501  0.00000000000E+00  0.00000000000E+00  0.41425791043E+03  0.41425791043E+03  0.00000000000E+00 0.  1.
         21   -1    0    0  501  502 -0.00000000000E+00 -0.00000000000E+00 -0.26555683099E+03  0.26555683099E+03  0.00000000000E+00 0.  1.
         25    1    1    2    0    0  0.66880337830E+02 -0.78029931605E+02 -0.56513087501E+02  0.17140705608E+03  0.12500000000E+03 0.  0.
         25    1    1    2    0    0  0.20990757453E+02  0.22171935260E+03  0.11071184798E+03  0.27835624027E+03  0.12500000000E+03 0.  0.
         25    1    1    2    0    0 -0.87871095283E+02 -0.14368942099E+03  0.94502318954E+02  0.23005144507E+03  0.12500000000E+03 0.  0.
</event>
<event>
 5    0  0.5568866E-005  0.2870583E+03  0.7546771E-02  0.1091895E+00
         21   -1    0    0  502  501  0.00000000000E+00  0.00000000000E+00  0.19655301763E+04  0.19655301763E+04  0.00000000000E+00 0. -1.
         21   -1    0    0  501  502 -0.00000000000E+00 -0.00000000000E+00 -0.41923797982E+02  0.41923797982E+02  0.00000000000E+00 0. -1.
         25    1    1    2    0    0  0.89170375002E+02 -0.33349862888E+02  0.28480099412E+03  0.32526938895E+03  0.12500000000E+03 0.  0.
         25    1    1    2    0    0 -0.41499013982E+02  0.12785282528E+03  0.51986488715E+03  0.55131933939E+03  0.12500000000E+03 0.  0.
         25    1    1    2    0    0 -0.47671361021E+02 -0.94502962387E+02  0.11189404970E+04  0.11308652459E+04  0.12500000000E+03 0.  0.
</event>
<event>
 5    0  0.5568866E-005  0.2687009E+03  0.7546771E-02  0.1102025E+00
         21   -1    0    0  502  501  0.00000000000E+00  0.00000000000E+00  0.12334230594E+03  0.12334230594E+03  0.00000000000E+00 0.  1.
         21   -1    0    0  501  502 -0.00000000000E+00 -0.00000000000E+00 -0.58536428212E+03  0.58536428212E+03  0.00000000000E+00 0.  1.
         25    1    1    2    0    0 -0.12027582999E+03  0.13750713898E+02 -0.18409069451E+02  0.17498357423E+03  0.12500000000E+03 0.  0.
         25    1    1    2    0    0  0.76595022702E+02 -0.57237781121E+02 -0.23273759476E+03  0.28095328634E+03  0.12500000000E+03 0.  0.
         25    1    1    2    0    0  0.43680807287E+02  0.43487067223E+02 -0.21087531197E+03  0.25276972750E+03  0.12500000000E+03 0.  0.
</event>
<event>
 5    0  0.5568866E-005  0.2878035E+03  0.7546771E-02  0.1091502E+00
         21   -1    0    0  502  501  0.00000000000E+00  0.00000000000E+00  0.21799698886E+04  0.21799698886E+04  0.00000000000E+00 0.  1.
         21   -1    0    0  501  502 -0.00000000000E+00 -0.00000000000E+00 -0.37996324926E+02  0.37996324926E+02  0.00000000000E+00 0.  1.
         25    1    1    2    0    0 -0.42955781230E+02 -0.41244785652E+01  0.13310497895E+04  0.13376026138E+04  0.12500000000E+03 0.  0.
         25    1    1    2    0    0  0.33550468701E+02  0.28696358202E+02  0.12352761483E+03  0.18119930064E+03  0.12500000000E+03 0.  0.
         25    1    1    2    0    0  0.94053125285E+01 -0.24571879636E+02  0.68739615940E+03  0.69916429910E+03  0.12500000000E+03 0.  0.
</event>
<event>
 5    0  0.5568866E-005  0.3256086E+03  0.7546771E-02  0.1073097E+00
         21   -1    0    0  502  501  0.00000000000E+00  0.00000000000E+00  0.98374028897E+02  0.98374028897E+02  0.00000000000E+00 0. -1.
         21   -1    0    0  501  502 -0.00000000000E+00 -0.00000000000E+00 -0.10777334464E+04  0.10777334464E+04  0.00000000000E+00 0. -1.
         25    1    1    2    0    0 -0.53145539556E+02 -0.11790699011E+03 -0.52369028969E+03  0.55371746063E+03  0.12500000000E+03 0.  0.
         25    1    1    2    0    0 -0.20235085745E+02 -0.35650380259E+02 -0.37317970028E+03  0.39568737282E+03  0.12500000000E+03 0.  0.
         25    1    1    2    0    0  0.73380625301E+02  0.15355737037E+03 -0.82489427525E+02  0.22670264184E+03  0.12500000000E+03 0.  0.
</event>
<event>
 5    0  0.5568866E-005  0.3100756E+03  0.7546771E-02  0.1080310E+00
         21   -1    0    0  502  501  0.00000000000E+00  0.00000000000E+00  0.32985397327E+03  0.32985397327E+03  0.00000000000E+00 0. -1.
         21   -1    0    0  501  502 -0.00000000000E+00 -0.00000000000E+00 -0.29148320597E+03  0.29148320597E+03  0.00000000000E+00 0. -1.
         25    1    1    2    0    0  0.12225708595E+03 -0.13391733837E+03  0.52840848744E+02  0.22649018494E+03  0.12500000000E+03 0.  0.
         25    1    1    2    0    0 -0.17299164476E+03  0.14201926892E+03 -0.32849151513E+02  0.25845627997E+03  0.12500000000E+03 0.  0.
         25    1    1    2    0    0  0.50734558815E+02 -0.81019305566E+01  0.18379070064E+02  0.13639071432E+03  0.12500000000E+03 0.  0.
</event>
<event>
 5    0  0.5568866E-005  0.3276828E+03  0.7546771E-02  0.1072167E+00
         21   -1    0    0  502  501  0.00000000000E+00  0.00000000000E+00  0.44972906262E+03  0.44972906262E+03  0.00000000000E+00 0. -1.
         21   -1    0    0  501  502 -0.00000000000E+00 -0.00000000000E+00 -0.23875714048E+03  0.23875714048E+03  0.00000000000E+00 0. -1.
         25    1    1    2    0    0 -0.13334170138E+03 -0.14972231363E+03 -0.71795374371E+02  0.24693391081E+03  0.12500000000E+03 0.  0.
         25    1    1    2    0    0  0.50399110186E+02  0.15568245267E+02  0.13890176975E+03  0.19416781970E+03  0.12500000000E+03 0.  0.
         25    1    1    2    0    0  0.82942591189E+02  0.13415406837E+03  0.14386552676E+03  0.24738447260E+03  0.12500000000E+03 0.  0.
</event>
<event>
 5    0  0.5568866E-005  0.2440797E+03  0.7546771E-02  0.1117105E+00
         21   -1    0    0  502  501  0.00000000000E+00  0.00000000000E+00  0.72639634215E+02  0.72639634215E+02  0.00000000000E+00 0. -1.
         21   -1    0    0  501  502 -0.00000000000E+00 -0.00000000000E+00 -0.82014286005E+03  0.82014286005E+03  0.00000000000E+00 0.  1.
         25    1    1    2    0    0  0.14800674988E+02 -0.29407338724E+02 -0.43060736270E+03  0.44959042734E+03  0.12500000000E+03 0.  0.
         25    1    1    2    0    0  0.11976743010E+02  0.92419178837E+02 -0.22453356942E+03  0.27335886813E+03  0.12500000000E+03 0.  0.
         25    1    1    2    0    0 -0.26777417999E+02 -0.63011840113E+02 -0.92362293712E+02  0.16983319878E+03  0.12500000000E+03 0.  0.
</event>
<event>
 5    0  0.5568866E-005  0.3002181E+03  0.7546771E-02  0.1085132E+00
         21   -1    0    0  502  501  0.00000000000E+00  0.00000000000E+00  0.12271745302E+04  0.12271745302E+04  0.00000000000E+00 0.  1.
         21   -1    0    0  501  502 -0.00000000000E+00 -0.00000000000E+00 -0.73445891014E+02  0.73445891014E+02  0.00000000000E+00 0.  1.
         25    1    1    2    0    0 -0.90272609539E+02 -0.13992496698E+03  0.47044460312E+03  0.51446211233E+03  0.12500000000E+03 0.  0.
         25    1    1    2    0    0  0.47343577305E+02 -0.20911493143E+02  0.46601437932E+03  0.48525571258E+03  0.12500000000E+03 0.  0.
         25    1    1    2    0    0  0.42929032234E+02  0.16083646013E+03  0.21726965671E+03  0.30090259627E+03  0.12500000000E+03 0.  0.
</event>
<event>
 5    0  0.5568866E-005  0.3222649E+03  0.7546771E-02  0.1074612E+00
         21   -1    0    0  502  501  0.00000000000E+00  0.00000000000E+00  0.87154936914E+03  0.87154936914E+03  0.00000000000E+00 0.  1.
         21   -1    0    0  501  502 -0.00000000000E+00 -0.00000000000E+00 -0.11916098966E+03  0.11916098966E+03  0.00000000000E+00 0.  1.
         25    1    1    2    0    0  0.30518996459E+02 -0.66479801064E+02  0.94176304467E+01  0.14513671092E+03  0.12500000000E+03 0.  0.
         25    1    1    2    0    0 -0.14217787889E+03  0.12158940005E+03  0.37131131575E+03  0.43416082810E+03  0.12500000000E+03 0.  0.
         25    1    1    2    0    0  0.11165888243E+03 -0.55109598984E+02  0.37165943329E+03  0.41141281978E+03  0.12500000000E+03 0.  0.
</event>
<event>
 5    0  0.5568866E-005  0.3812961E+03  0.7546771E-02  0.1050456E+00
         21   -1    0    0  502  501  0.00000000000E+00  0.00000000000E+00  0.20396579987E+03  0.20396579987E+03  0.00000000000E+00 0. -1.
         21   -1    0    0  501  502 -0.00000000000E+00 -0.00000000000E+00 -0.71279944791E+03  0.71279944791E+03  0.00000000000E+00 0. -1.
         25    1    1    2    0    0 -0.16075519336E+03 -0.15489546351E+03 -0.13647658580E+03  0.28997533564E+03  0.12500000000E+03 0.  0.
         25    1    1    2    0    0  0.24220991841E+02 -0.75339267764E+02 -0.28099509231E+03  0.31756244050E+03  0.12500000000E+03 0.  0.
         25    1    1    2    0    0  0.13653420152E+03  0.23023473127E+03 -0.91361969935E+02  0.30922747164E+03  0.12500000000E+03 0.  0.
</event>
<event>
 5    0  0.5568866E-005  0.3264726E+03  0.7546771E-02  0.1072708E+00
         21   -1    0    0  502  501  0.00000000000E+00  0.00000000000E+00  0.26948960634E+03  0.26948960634E+03  0.00000000000E+00 0. -1.
         21   -1    0    0  501  502 -0.00000000000E+00 -0.00000000000E+00 -0.39550452350E+03  0.39550452350E+03  0.00000000000E+00 0. -1.
         25    1    1    2    0    0 -0.24342548462E+02  0.13859936045E+03 -0.54716280915E+02  0.19601330001E+03  0.12500000000E+03 0.  0.
         25    1    1    2    0    0 -0.35760356312E+02  0.10796951388E+03  0.23481008511E+02  0.17062408028E+03  0.12500000000E+03 0.  0.
         25    1    1    2    0    0  0.60102904774E+02 -0.24656887433E+03 -0.94779644757E+02  0.29835674956E+03  0.12500000000E+03 0.  0.
</event>
<event>
 5    0  0.5568866E-005  0.2401455E+03  0.7546771E-02  0.1119696E+00
         21   -1    0    0  502  501  0.00000000000E+00  0.00000000000E+00  0.12678507841E+03  0.12678507841E+03  0.00000000000E+00 0. -1.
         21   -1    0    0  501  502 -0.00000000000E+00 -0.00000000000E+00 -0.45486315838E+03  0.45486315838E+03  0.00000000000E+00 0. -1.
         25    1    1    2    0    0  0.31296365238E+02 -0.73327648487E+02 -0.10442489853E+03  0.18134488122E+03  0.12500000000E+03 0.  0.
         25    1    1    2    0    0  0.50103554432E+02  0.62323455431E+02 -0.19974377535E+03  0.24883157970E+03  0.12500000000E+03 0.  0.
         25    1    1    2    0    0 -0.81399919670E+02  0.11004193057E+02 -0.23909406088E+02  0.15147177587E+03  0.12500000000E+03 0.  0.
</event>
<event>
 5    0  0.5568866E-005  0.2532523E+03  0.7546771E-02  0.1111267E+00
         21   -1    0    0  502  501  0.00000000000E+00  0.00000000000E+00  0.99050879138E+02  0.99050879138E+02  0.00000000000E+00 0.  1.
         21   -1    0    0  501  502 -0.00000000000E+00 -0.00000000000E+00 -0.64751310153E+03  0.64751310153E+03  0.00000000000E+00 0.  1.
         25    1    1    2    0    0  0.43131824287E+02  0.67349639441E+02 -0.86260741506E+02  0.17164569241E+03  0.12500000000E+03 0.  0.
         25    1    1    2    0    0  0.51265576452E+02  0.51434480850E+02 -0.17709355312E+03  0.22860619350E+03  0.12500000000E+03 0.  0.
         25    1    1    2    0    0 -0.94397400738E+02 -0.11878412029E+03 -0.28510792777E+03  0.34631209476E+03  0.12500000000E+03 0.  0.
</event>
<event>
 5    0  0.5568866E-005  0.2742785E+03  0.7546771E-02  0.1098856E+00
         21   -1    0    0  502  501  0.00000000000E+00  0.00000000000E+00  0.37249221434E+03  0.37249221434E+03  0.00000000000E+00 0.  1.
         21   -1    0    0  501  502 -0.00000000000E+00 -0.00000000000E+00 -0.20196045858E+03  0.20196045858E+03  0.00000000000E+00 0.  1.
         25    1    1    2    0    0 -0.37039342310E+02 -0.44926506946E+02  0.15939474725E+02  0.13881415907E+03  0.12500000000E+03 0.  0.
         25    1    1    2    0    0  0.60437793685E+02  0.25946612949E+02  0.24196995627E+03  0.28017925220E+03  0.12500000000E+03 0.  0.
         25    1    1    2    0    0 -0.23398451375E+02  0.18979893997E+02 -0.87377675232E+02  0.15545926165E+03  0.12500000000E+03 0.  0.
</event>
<event>
 5    0  0.5568866E-005  0.2390472E+03  0.7546771E-02  0.1120429E+00
         21   -1    0    0  502  501  0.00000000000E+00  0.00000000000E+00  0.27270673738E+03  0.27270673738E+03  0.00000000000E+00 0. -1.
         21   -1    0    0  501  502 -0.00000000000E+00 -0.00000000000E+00 -0.20954223084E+03  0.20954223084E+03  0.00000000000E+00 0. -1.
         25    1    1    2    0    0 -0.69533565824E+02 -0.52039680463E+02 -0.11258709491E+02  0.15262635309E+03  0.12500000000E+03 0.  0.
         25    1    1    2    0    0 -0.22780987001E+02  0.87760004452E+02  0.71449038608E+02  0.17014921942E+03  0.12500000000E+03 0.  0.
         25    1    1    2    0    0  0.92314552825E+02 -0.35720323989E+02  0.29741774207E+01  0.15947339571E+03  0.12500000000E+03 0.  0.
</event>
<event>
 5    0  0.5568866E-005  0.3180482E+03  0.7546771E-02  0.1076551E+00
         21   -1    0    0  502  501  0.00000000000E+00  0.00000000000E+00  0.30603485424E+03  0.30603485424E+03  0.00000000000E+00 0. -1.
         21   -1    0    0  501  502 -0.00000000000E+00 -0.00000000000E+00 -0.33053316672E+03  0.33053316672E+03  0.00000000000E+00 0. -1.
         25    1    1    2    0    0 -0.11997424991E+03 -0.18124629680E+03  0.42435309398E+02  0.25430256827E+03  0.12500000000E+03 0.  0.
         25    1    1    2    0    0  0.50757638662E+02 -0.10936985259E+02 -0.77241869221E+01  0.13557514002E+03  0.12500000000E+03 0.  0.
         25    1    1    2    0    0  0.69216611248E+02  0.19218328206E+03 -0.59209434950E+02  0.24669031266E+03  0.12500000000E+03 0.  0.
</event>
<event>
 5    0  0.5568866E-005  0.6750928E+03  0.7546771E-02  0.9760801E-01
         21   -1    0    0  502  501  0.00000000000E+00  0.00000000000E+00  0.10666102307E+04  0.10666102307E+04  0.00000000000E+00 0. -1.
         21   -1    0    0  501  502 -0.00000000000E+00 -0.00000000000E+00 -0.42728854877E+03  0.42728854877E+03  0.00000000000E+00 0. -1.
         25    1    1    2    0    0  0.47969416225E+02 -0.10122067846E+03 -0.33242295460E+03  0.37239322145E+03  0.12500000000E+03 0.  0.
         25    1    1    2    0    0  0.16734685225E+02 -0.79626632287E+02  0.84809198427E+03  0.86110711531E+03  0.12500000000E+03 0.  0.
         25    1    1    2    0    0 -0.64704101450E+02  0.18084731075E+03  0.12365265223E+03  0.26039844268E+03  0.12500000000E+03 0.  0.
</event>
<event>
 5    0  0.5568866E-005  0.2108843E+03  0.7546771E-02  0.1140868E+00
         21   -1    0    0  502  501  0.00000000000E+00  0.00000000000E+00  0.13822006904E+03  0.13822006904E+03  0.00000000000E+00 0.  1.
         21   -1    0    0  501  502 -0.00000000000E+00 -0.00000000000E+00 -0.32174920065E+03  0.32174920065E+03  0.00000000000E+00 0.  1.
         25    1    1    2    0    0 -0.65810043812E+02  0.38369039996E+02 -0.94266684959E+02  0.17411017486E+03  0.12500000000E+03 0.  0.
         25    1    1    2    0    0  0.27660568173E+02  0.22640238244E+01 -0.11777570246E+02  0.12858438473E+03  0.12500000000E+03 0.  0.
         25    1    1    2    0    0  0.38149475640E+02 -0.40633063820E+02 -0.77484876408E+02  0.15727471011E+03  0.12500000000E+03 0.  0.
</event>
<event>
 5    0  0.5568866E-005  0.5481673E+03  0.7546771E-02  0.1001919E+00
         21   -1    0    0  502  501  0.00000000000E+00  0.00000000000E+00  0.10173550544E+04  0.10173550544E+04  0.00000000000E+00 0.  1.
         21   -1    0    0  501  502 -0.00000000000E+00 -0.00000000000E+00 -0.29536141886E+03  0.29536141886E+03  0.00000000000E+00 0.  1.
         25    1    1    2    0    0  0.86135020597E+02  0.90637078134E+02  0.71565241012E+03  0.73716870106E+03  0.12500000000E+03 0.  0.
         25    1    1    2    0    0 -0.25293656059E+03  0.49985947004E+02 -0.98690176486E+02  0.30305156247E+03  0.12500000000E+03 0.  0.
         25    1    1    2    0    0  0.16680153999E+03 -0.14062302514E+03  0.10503140194E+03  0.27249620977E+03  0.12500000000E+03 0.  0.
</event>
<event>
 5    0  0.5568866E-005  0.2259327E+03  0.7546771E-02  0.1129536E+00
         21   -1    0    0  502  501  0.00000000000E+00  0.00000000000E+00  0.21441296861E+03  0.21441296861E+03  0.00000000000E+00 0. -1.
         21   -1    0    0  501  502 -0.00000000000E+00 -0.00000000000E+00 -0.23807140343E+03  0.23807140343E+03  0.00000000000E+00 0. -1.
         25    1    1    2    0    0  0.95014189838E+02  0.95913004568E+01 -0.30538009181E+02  0.16024125349E+03  0.12500000000E+03 0.  0.
         25    1    1    2    0    0 -0.62479873295E+02  0.44835943639E+02  0.31051400784E+02  0.15001061929E+03  0.12500000000E+03 0.  0.
         25    1    1    2    0    0 -0.32534316544E+02 -0.54427244096E+02 -0.24171826421E+02  0.14223249926E+03  0.12500000000E+03 0.  0.
</event>
<event>
 5    0  0.5568866E-005  0.2489607E+03  0.7546771E-02  0.1113963E+00
         21   -1    0    0  502  501  0.00000000000E+00  0.00000000000E+00  0.20367420483E+03  0.20367420483E+03  0.00000000000E+00 0. -1.
         21   -1    0    0  501  502 -0.00000000000E+00 -0.00000000000E+00 -0.30431658290E+03  0.30431658290E+03  0.00000000000E+00 0. -1.
         25    1    1    2    0    0  0.32780624515E+02 -0.38961372540E+02  0.31136920934E+02  0.13851738425E+03  0.12500000000E+03 0.  0.
         25    1    1    2    0    0  0.42662055530E+02  0.11228389621E+03 -0.27169434633E+02  0.17547336695E+03  0.12500000000E+03 0.  0.
         25    1    1    2    0    0 -0.75442680046E+02 -0.73322523674E+02 -0.10460986437E+03  0.19400003653E+03  0.12500000000E+03 0.  0.
</event>
<event>
 5    0  0.5568866E-005  0.2113285E+03  0.7546771E-02  0.1140518E+00
         21   -1    0    0  502  501  0.00000000000E+00  0.00000000000E+00  0.37041307717E+03  0.37041307717E+03  0.00000000000E+00 0. -1.
         21   -1    0    0  501  502 -0.00000000000E+00 -0.00000000000E+00 -0.12056733105E+03  0.12056733105E+03  0.00000000000E+00 0. -1.
         25    1    1    2    0    0 -0.17992417680E+02  0.21969489190E+01  0.21445339048E+02  0.12811501179E+03  0.12500000000E+03 0.  0.
         25    1    1    2    0    0 -0.39373428866E+02  0.41658934139E+02  0.11604790066E+03  0.17993845877E+03  0.12500000000E+03 0.  0.
         25    1    1    2    0    0  0.57365846546E+02 -0.43855883058E+02  0.11235250641E+03  0.18292693767E+03  0.12500000000E+03 0.  0.
</event>
<event>
 5    0  0.5568866E-005  0.2840228E+03  0.7546771E-02  0.1093512E+00
         21   -1    0    0  502  501  0.00000000000E+00  0.00000000000E+00  0.17722974068E+03  0.17722974068E+03  0.00000000000E+00 0.  1.
         21   -1    0    0  501  502 -0.00000000000E+00 -0.00000000000E+00 -0.45516612887E+03  0.45516612887E+03  0.00000000000E+00 0.  1.
         25    1    1    2    0    0 -0.23986312062E+02 -0.17500226689E+03 -0.38452119931E+02  0.21978330717E+03  0.12500000000E+03 0.  0.
         25    1    1    2    0    0  0.18742394682E+02  0.67842539690E+02 -0.30758700997E+02  0.14671395720E+03  0.12500000000E+03 0.  0.
         25    1    1    2    0    0  0.52439173804E+01  0.10715972720E+03 -0.20872556727E+03  0.26589860518E+03  0.12500000000E+03 0.  0.
</event>
<event>
 5    0  0.5568866E-005  0.2952624E+03  0.7546771E-02  0.1087633E+00
         21   -1    0    0  502  501  0.00000000000E+00  0.00000000000E+00  0.32151369041E+02  0.32151369041E+02  0.00000000000E+00 0. -1.
         21   -1    0    0  501  502 -0.00000000000E+00 -0.00000000000E+00 -0.27115452695E+04  0.27115452695E+04  0.00000000000E+00 0. -1.
         25    1    1    2    0    0 -0.27813617217E+02 -0.43622608386E+02 -0.96443085873E+03  0.97387289239E+03  0.12500000000E+03 0.  0.
         25    1    1    2    0    0 -0.86710324342E+02 -0.12041548455E+03 -0.93720873587E+03  0.95708086589E+03  0.12500000000E+03 0.  0.
         25    1    1    2    0    0  0.11452394156E+03  0.16403809294E+03 -0.77775430585E+03  0.81274288024E+03  0.12500000000E+03 0.  0.
</event>
<event>
 5    0  0.5568866E-005  0.4228340E+03  0.7546771E-02  0.1036148E+00
         21   -1    0    0  502  501  0.00000000000E+00  0.00000000000E+00  0.60914708741E+03  0.60914708741E+03  0.00000000000E+00 0.  1.
         21   -1    0    0  501  502 -0.00000000000E+00 -0.00000000000E+00 -0.29350642470E+03  0.29350642470E+03  0.00000000000E+00 0.  1.
         25    1    1    2    0    0  0.25000883862E+03  0.50901491566E+02  0.40345561350E+02  0.28696366591E+03  0.12500000000E+03 0.  0.
         25    1    1    2    0    0  0.82620121617E+02  0.81945176780E+02  0.98551844565E+02  0.19717647568E+03  0.12500000000E+03 0.  0.
         25    1    1    2    0    0 -0.33262896024E+03 -0.13284666835E+03  0.17674325680E+03  0.41851337052E+03  0.12500000000E+03 0.  0.
</event>
<event>
 5    0  0.5568866E-005  0.2941599E+03  0.7546771E-02  0.1088197E+00
         21   -1    0    0  502  501  0.00000000000E+00  0.00000000000E+00  0.41161198388E+03  0.41161198388E+03  0.00000000000E+00 0.  1.
         21   -1    0    0  501  502 -0.00000000000E+00 -0.00000000000E+00 -0.21022240518E+03  0.21022240518E+03  0.00000000000E+00 0.  1.
         25    1    1    2    0    0  0.17616939368E+01 -0.65600926801E+02 -0.10841645598E+03  0.17800481199E+03  0.12500000000E+03 0.  0.
         25    1    1    2    0    0 -0.72015454277E+02  0.72496908409E+02  0.22553177220E+03  0.27736547668E+03  0.12500000000E+03 0.  0.
         25    1    1    2    0    0  0.70253760340E+02 -0.68959816075E+01  0.84274262480E+02  0.16646410040E+03  0.12500000000E+03 0.  0.
</event>
<event>
 5    0  0.5568866E-005  0.4608511E+03  0.7546771E-02  0.1024535E+00
         21   -1    0    0  502  501  0.00000000000E+00  0.00000000000E+00  0.21643203656E+03  0.21643203656E+03  0.00000000000E+00 0.  1.
         21   -1    0    0  501  502 -0.00000000000E+00 -0.00000000000E+00 -0.98129544219E+03  0.98129544219E+03  0.00000000000E+00 0.  1.
         25    1    1    2    0    0 -0.25348061266E+02  0.33927540337E+03 -0.19572960824E+03  0.41192888109E+03  0.12500000000E+03 0.  0.
         25    1    1    2    0    0  0.59801696442E+02 -0.20809127699E+03 -0.79132086095E+02  0.26223102315E+03  0.12500000000E+03 0.  0.
         25    1    1    2    0    0 -0.34453635177E+02 -0.13118412638E+03 -0.49000171130E+03  0.52356757450E+03  0.12500000000E+03 0.  0.
</event>
<event>
 5    0  0.5568866E-005  0.4055979E+03  0.7546771E-02  0.1041858E+00
         21   -1    0    0  502  501  0.00000000000E+00  0.00000000000E+00  0.22577784196E+03  0.22577784196E+03  0.00000000000E+00 0.  1.
         21   -1    0    0  501  502 -0.00000000000E+00 -0.00000000000E+00 -0.72863508957E+03  0.72863508957E+03  0.00000000000E+00 0.  1.
         25    1    1    2    0    0  0.84118477724E+02  0.17295868008E+03 -0.84832442900E+02  0.24456526057E+03  0.12500000000E+03 0.  0.
         25    1    1    2    0    0 -0.16015639630E+03  0.28991217926E+02 -0.41212921137E+03  0.46039770727E+03  0.12500000000E+03 0.  0.
         25    1    1    2    0    0  0.76037918575E+02 -0.20194989801E+03 -0.58955933463E+01  0.24944996370E+03  0.12500000000E+03 0.  0.
</event>
<event>
 5    0  0.5568866E-005  0.4202889E+03  0.7546771E-02  0.1036972E+00
         21   -1    0    0  502  501  0.00000000000E+00  0.00000000000E+00  0.89589938555E+03  0.89589938555E+03  0.00000000000E+00 0.  1.
         21   -1    0    0  501  502 -0.00000000000E+00 -0.00000000000E+00 -0.19716811728E+03  0.19716811728E+03  0.00000000000E+00 0.  1.
         25    1    1    2    0    0  0.76114463891E+02 -0.21935326614E+02  0.57741076905E+02  0.15885088017E+03  0.12500000000E+03 0.  0.
         25    1    1    2    0    0  0.83296610850E+02 -0.24097615356E+03  0.10295986158E+03  0.30204894481E+03  0.12500000000E+03 0.  0.
         25    1    1    2    0    0 -0.15941107474E+03  0.26291148017E+03  0.53803032979E+03  0.63216767786E+03  0.12500000000E+03 0.  0.
</event>
<event>
 5    0  0.5568866E-005  0.2751039E+03  0.7546771E-02  0.1098394E+00
         21   -1    0    0  502  501  0.00000000000E+00  0.00000000000E+00  0.80653926062E+02  0.80653926062E+02  0.00000000000E+00 0.  1.
         21   -1    0    0  501  502 -0.00000000000E+00 -0.00000000000E+00 -0.93835677376E+03  0.93835677376E+03  0.00000000000E+00 0.  1.
         25    1    1    2    0    0 -0.10351070502E+03  0.28375743072E+02 -0.58473275272E+03  0.60750065098E+03  0.12500000000E+03 0.  0.
         25    1    1    2    0    0  0.12029599352E+03 -0.32497686686E+02 -0.12107289047E+03  0.21403474135E+03  0.12500000000E+03 0.  0.
         25    1    1    2    0    0 -0.16785288501E+02  0.41219436139E+01 -0.15189720452E+03  0.19747530749E+03  0.12500000000E+03 0.  0.
</event>
<event>
 5    0  0.5568866E-005  0.2326098E+03  0.7546771E-02  0.1124816E+00
         21   -1    0    0  502  501  0.00000000000E+00  0.00000000000E+00  0.66624934701E+02  0.66624934701E+02  0.00000000000E+00 0. -1.
         21   -1    0    0  501  502 -0.00000000000E+00 -0.00000000000E+00 -0.81211810410E+03  0.81211810410E+03  0.00000000000E+00 0. -1.
         25    1    1    2    0    0  0.30932097772E+01  0.76801018273E+02 -0.21537175994E+03  0.26061074294E+03  0.12500000000E+03 0.  0.
         25    1    1    2    0    0 -0.32197168282E+02  0.23544102965E+02 -0.35728872847E+03  0.38061951858E+03  0.12500000000E+03 0.  0.
         25    1    1    2    0    0  0.29103958505E+02 -0.10034512124E+03 -0.17283268099E+03  0.23751277729E+03  0.12500000000E+03 0.  0.
</event>
<event>
 5    0  0.5568866E-005  0.4827012E+03  0.7546771E-02  0.1018395E+00
         21   -1    0    0  502  501  0.00000000000E+00  0.00000000000E+00  0.12804266495E+04  0.12804266495E+04  0.00000000000E+00 0. -1.
         21   -1    0    0  501  502 -0.00000000000E+00 -0.00000000000E+00 -0.18197093564E+03  0.18197093564E+03  0.00000000000E+00 0. -1.
         25    1    1    2    0    0 -0.16224370720E+03 -0.18023869736E+03  0.18147462477E+02  0.27342885536E+03  0.12500000000E+03 0.  0.
         25    1    1    2    0    0  0.37056220482E+02 -0.82849739787E+01  0.78791336539E+03  0.79867031724E+03  0.12500000000E+03 0.  0.
         25    1    1    2    0    0  0.12518748672E+03  0.18852367133E+03  0.29239488603E+03  0.39029841257E+03  0.12500000000E+03 0.  0.
</event>
<event>
 5    0  0.5568866E-005  0.4263645E+03  0.7546771E-02  0.1035015E+00
         21   -1    0    0  502  501  0.00000000000E+00  0.00000000000E+00  0.12231766199E+03  0.12231766199E+03  0.00000000000E+00 0.  1.
         21   -1    0    0  501  502 -0.00000000000E+00 -0.00000000000E+00 -0.14861850630E+04  0.14861850630E+04  0.00000000000E+00 0.  1.
         25    1    1    2    0    0 -0.12841883360E+03 -0.66305206201E+02 -0.73590156051E+03  0.76030512556E+03  0.12500000000E+03 0.  0.
         25    1    1    2    0    0 -0.55896965047E+02 -0.17957090787E+03 -0.16978533109E+03  0.28252830001E+03  0.12500000000E+03 0.  0.
         25    1    1    2    0    0  0.18431579865E+03  0.24587611407E+03 -0.45818050941E+03  0.56566929942E+03  0.12500000000E+03 0.  0.
</event>
<event>
 5    0  0.5568866E-005  0.4457247E+03  0.7546771E-02  0.1029005E+00
         21   -1    0    0  502  501  0.00000000000E+00  0.00000000000E+00  0.27237696335E+03  0.27237696335E+03  0.00000000000E+00 0. -1.
         21   -1    0    0  501  502 -0.00000000000E+00 -0.00000000000E+00 -0.72939537234E+03  0.72939537234E+03  0.00000000000E+00 0. -1.
         25    1    1    2    0    0 -0.11821815318E+02  0.92781479784E+02  0.19165597977E+01  0.15613081538E+03  0.12500000000E+03 0.  0.
         25    1    1    2    0    0  0.86729400141E+02  0.26200451660E+03 -0.96579770824E+02  0.31799529509E+03  0.12500000000E+03 0.  0.
         25    1    1    2    0    0 -0.74907584824E+02 -0.35478599639E+03 -0.36235519796E+03  0.52764622522E+03  0.12500000000E+03 0.  0.
</event>
<event>
 5    0  0.5568866E-005  0.3701430E+03  0.7546771E-02  0.1054638E+00
         21   -1    0    0  502  501  0.00000000000E+00  0.00000000000E+00  0.53656010134E+03  0.53656010134E+03  0.00000000000E+00 0. -1.
         21   -1    0    0  501  502 -0.00000000000E+00 -0.00000000000E+00 -0.25534105301E+03  0.25534105301E+03  0.00000000000E+00 0. -1.
         25    1    1    2    0    0  0.40516167383E+02 -0.89423719011E+02  0.36185613760E+03  0.39522528469E+03  0.12500000000E+03 0.  0.
         25    1    1    2    0    0 -0.47429608106E+02  0.17840840800E+03  0.55021065814E+00  0.22294490464E+03  0.12500000000E+03 0.  0.
         25    1    1    2    0    0  0.69134407229E+01 -0.88984688993E+02 -0.81187299932E+02  0.17373096502E+03  0.12500000000E+03 0.  0.
</event>
<event>
 5    0  0.5568866E-005  0.2877211E+03  0.7546771E-02  0.1091545E+00
         21   -1    0    0  502  501  0.00000000000E+00  0.00000000000E+00  0.24853850617E+03  0.24853850617E+03  0.00000000000E+00 0.  1.
         21   -1    0    0  501  502 -0.00000000000E+00 -0.00000000000E+00 -0.33308085369E+03  0.33308085369E+03  0.00000000000E+00 0.  1.
         25    1    1    2    0    0 -0.70364510112E+02  0.59233986273E+01  0.91194845530E+02  0.17008160037E+03  0.12500000000E+03 0.  0.
         25    1    1    2    0    0  0.36807269704E+02  0.37221815615E+02 -0.22817044806E+03  0.26538084337E+03  0.12500000000E+03 0.  0.
         25    1    1    2    0    0  0.33557240408E+02 -0.43145214242E+02  0.52433255013E+02  0.14615691611E+03  0.12500000000E+03 0.  0.
</event>
<event>
 5    0  0.5568866E-005  0.3066402E+03  0.7546771E-02  0.1081968E+00
         21   -1    0    0  502  501  0.00000000000E+00  0.00000000000E+00  0.12575417077E+04  0.12575417077E+04  0.00000000000E+00 0.  1.
         21   -1    0    0  501  502 -0.00000000000E+00 -0.00000000000E+00 -0.74771429527E+02  0.74771429527E+02  0.00000000000E+00 0.  1.
         25    1    1    2    0    0  0.99186376679E+02  0.28308639917E+01  0.21314664586E+03  0.26627512792E+03  0.12500000000E+03 0.  0.
         25    1    1    2    0    0 -0.88338494314E+02 -0.15168290298E+03  0.70710326661E+03  0.73920999877E+03  0.12500000000E+03 0.  0.
         25    1    1    2    0    0 -0.10847882365E+02  0.14885203899E+03  0.26252036575E+03  0.32682801057E+03  0.12500000000E+03 0.  0.
</event>
<event>
 5    0  0.5568866E-005  0.2009511E+03  0.7546771E-02  0.1148939E+00
         21   -1    0    0  502  501  0.00000000000E+00  0.00000000000E+00  0.48863512688E+03  0.48863512688E+03  0.00000000000E+00 0. -1.
         21   -1    0    0  501  502 -0.00000000000E+00 -0.00000000000E+00 -0.82641109874E+02  0.82641109874E+02  0.00000000000E+00 0. -1.
         25    1    1    2    0    0  0.34427618830E+02  0.13057283155E+01  0.22292934510E+03  0.25789427828E+03  0.12500000000E+03 0.  0.
         25    1    1    2    0    0 -0.50817880783E+01  0.61925013535E+01  0.80708587995E+02  0.14900687172E+03  0.12500000000E+03 0.  0.
         25    1    1    2    0    0 -0.29345830752E+02 -0.74982296690E+01  0.10235608391E+03  0.16437508675E+03  0.12500000000E+03 0.  0.
</event>
<event>
 5    0  0.5568866E-005  0.2894632E+03  0.7546771E-02  0.1090630E+00
         21   -1    0    0  502  501  0.00000000000E+00  0.00000000000E+00  0.88959944802E+03  0.88959944802E+03  0.00000000000E+00 0.  1.
         21   -1    0    0  501  502 -0.00000000000E+00 -0.00000000000E+00 -0.94187241726E+02  0.94187241726E+02  0.00000000000E+00 0.  1.
         25    1    1    2    0    0 -0.99376978541E+02 -0.54365816327E+02  0.72202566469E+02  0.18349287848E+03  0.12500000000E+03 0.  0.
         25    1    1    2    0    0  0.10081282767E+03  0.11215836167E+03  0.51158769387E+03  0.54780442937E+03  0.12500000000E+03 0.  0.
         25    1    1    2    0    0 -0.14358491252E+01 -0.57792545346E+02  0.21162194595E+03  0.25248938189E+03  0.12500000000E+03 0.  0.
</event>
<event>
 5    0  0.5568866E-005  0.2268436E+03  0.7546771E-02  0.1128881E+00
         21   -1    0    0  502  501  0.00000000000E+00  0.00000000000E+00  0.51640722433E+02  0.51640722433E+02  0.00000000000E+00 0.  1.
         21   -1    0    0  501  502 -0.00000000000E+00 -0.00000000000E+00 -0.99646223399E+03  0.99646223399E+03  0.00000000000E+00 0.  1.
         25    1    1    2    0    0 -0.59216049980E+01  0.51177906762E+02 -0.19959943478E+03  0.24107919427E+03  0.12500000000E+03 0.  0.
         25    1    1    2    0    0 -0.49132892031E+02  0.36351596767E+02 -0.25273251154E+03  0.28850338309E+03  0.12500000000E+03 0.  0.
         25    1    1    2    0    0  0.55054497029E+02 -0.87529503529E+02 -0.49248956523E+03  0.51852037906E+03  0.12500000000E+03 0.  0.
</event>
<event>
 5    0  0.5568866E-005  0.2434967E+03  0.7546771E-02  0.1117485E+00
         21   -1    0    0  502  501  0.00000000000E+00  0.00000000000E+00  0.83646649271E+03  0.83646649271E+03  0.00000000000E+00 0. -1.
         21   -1    0    0  501  502 -0.00000000000E+00 -0.00000000000E+00 -0.70882272002E+02  0.70882272002E+02  0.00000000000E+00 0. -1.
         25    1    1    2    0    0 -0.15627743882E+02 -0.88681417799E+02  0.46768130426E+03  0.49240168826E+03  0.12500000000E+03 0.  0.
         25    1    1    2    0    0 -0.17056353358E+02  0.90893427609E+02  0.19715349032E+03  0.25109168269E+03  0.12500000000E+03 0.  0.
         25    1    1    2    0    0  0.32684097239E+02 -0.22120098098E+01  0.10074942612E+03  0.16385539376E+03  0.12500000000E+03 0.  0.
</event>
<event>
 5    0  0.5568866E-005  0.3604843E+03  0.7546771E-02  0.1058392E+00
         21   -1    0    0  502  501  0.00000000000E+00  0.00000000000E+00  0.51969087354E+03  0.51969087354E+03  0.00000000000E+00 0.  1.
         21   -1    0    0  501  502 -0.00000000000E+00 -0.00000000000E+00 -0.25005043968E+03  0.25005043968E+03  0.00000000000E+00 0.  1.
         25    1    1    2    0    0 -0.23403746425E+03  0.47779579829E+02  0.26646156637E+03  0.37905565458E+03  0.12500000000E+03 0.  0.
         25    1    1    2    0    0  0.16057058253E+03  0.44045047509E+02  0.47249097161E+02  0.21349556288E+03  0.12500000000E+03 0.  0.
         25    1    1    2    0    0  0.73466881713E+02 -0.91824627338E+02 -0.44070229668E+02  0.17719009577E+03  0.12500000000E+03 0.  0.
</event>
<event>
 5    0  0.5841323E-005  0.4823517E+03  0.7546771E-02  0.1018491E+00
         21   -1    0    0  502  501  0.00000000000E+00  0.00000000000E+00  0.67972509996E+03  0.67972509996E+03  0.00000000000E+00 0. -1.
         21   -1    0    0  501  502 -0.00000000000E+00 -0.00000000000E+00 -0.34229014950E+03  0.34229014950E+03  0.00000000000E+00 0. -1.
         25    1    1    2    0    0  0.16152967414E+03 -0.23042414774E+03  0.35537792745E+03  0.47021866701E+03  0.12500000000E+03 0.  0.
         25    1    1    2    0    0 -0.25963910727E+03  0.67108263211E+02 -0.95801900768E+02  0.31099676720E+03  0.12500000000E+03 0.  0.
         25    1    1    2    0    0  0.98109433135E+02  0.16331588453E+03  0.77858923777E+02  0.24079981524E+03  0.12500000000E+03 0.  0.
</event>
<event>
 5    0  0.5568866E-005  0.5550999E+03  0.7546771E-02  0.1000320E+00
         21   -1    0    0  502  501  0.00000000000E+00  0.00000000000E+00  0.36050586445E+03  0.36050586445E+03  0.00000000000E+00 0. -1.
         21   -1    0    0  501  502 -0.00000000000E+00 -0.00000000000E+00 -0.85473202679E+03  0.85473202679E+03  0.00000000000E+00 0. -1.
         25    1    1    2    0    0 -0.16712966667E+03  0.21150192952E+03 -0.33754197311E+03  0.44969431315E+03  0.12500000000E+03 0.  0.
         25    1    1    2    0    0  0.32962058372E+03 -0.29443508235E+03  0.51038351698E+02  0.46213813982E+03  0.12500000000E+03 0.  0.
         25    1    1    2    0    0 -0.16249091705E+03  0.82933152826E+02 -0.20772254093E+03  0.30340543827E+03  0.12500000000E+03 0.  0.
</event>
<event>
 5    0  0.5568866E-005  0.2996152E+03  0.7546771E-02  0.1085433E+00
         21   -1    0    0  502  501  0.00000000000E+00  0.00000000000E+00  0.27062159948E+03  0.27062159948E+03  0.00000000000E+00 0.  1.
         21   -1    0    0  501  502 -0.00000000000E+00 -0.00000000000E+00 -0.33171519271E+03  0.33171519271E+03  0.00000000000E+00 0.  1.
         25    1    1    2    0    0 -0.58815584048E+01 -0.54275779960E+01  0.12955295334E+03  0.18020271655E+03  0.12500000000E+03 0.  0.
         25    1    1    2    0    0  0.11954851273E+03  0.73514709106E+02 -0.13590498855E+03  0.23192978520E+03  0.12500000000E+03 0.  0.
         25    1    1    2    0    0 -0.11366695432E+03 -0.68087131110E+02 -0.54741558030E+02  0.19020429044E+03  0.12500000000E+03 0.  0.
</event>
<event>
 5    0  0.5568866E-005  0.3916360E+03  0.7546771E-02  0.1046715E+00
         21   -1    0    0  502  501  0.00000000000E+00  0.00000000000E+00  0.12125252994E+03  0.12125252994E+03  0.00000000000E+00 0.  1.
         21   -1    0    0  501  502 -0.00000000000E+00 -0.00000000000E+00 -0.12649532676E+04  0.12649532676E+04  0.00000000000E+00 0.  1.
         25    1    1    2    0    0 -0.59445499818E+02  0.24298293307E+03 -0.42041911145E+03  0.50492742299E+03  0.12500000000E+03 0.  0.
         25    1    1    2    0    0 -0.10948639253E+03 -0.16939700852E+03 -0.55042798347E+03  0.59939851654E+03  0.12500000000E+03 0.  0.
         25    1    1    2    0    0  0.16893189235E+03 -0.73585924555E+02 -0.17285364273E+03  0.28187985800E+03  0.12500000000E+03 0.  0.
</event>
<event>
 5    0  0.5568866E-005  0.2433349E+03  0.7546771E-02  0.1117591E+00
         21   -1    0    0  502  501  0.00000000000E+00  0.00000000000E+00  0.38694561699E+03  0.38694561699E+03  0.00000000000E+00 0.  1.
         21   -1    0    0  501  502 -0.00000000000E+00 -0.00000000000E+00 -0.15302381888E+03  0.15302381888E+03  0.00000000000E+00 0.  1.
         25    1    1    2    0    0  0.89089896732E+01  0.33106629042E+02 -0.11831827765E+02  0.13015533463E+03  0.12500000000E+03 0.  0.
         25    1    1    2    0    0 -0.99563477511E+02  0.80355456575E+01  0.77569051890E+02  0.17781848571E+03  0.12500000000E+03 0.  0.
         25    1    1    2    0    0  0.90654487838E+02 -0.41142174699E+02  0.16818457399E+03  0.23199561554E+03  0.12500000000E+03 0.  0.
</event>
<event>
 5    0  0.5568866E-005  0.3200286E+03  0.7546771E-02  0.1075636E+00
         21   -1    0    0  502  501  0.00000000000E+00  0.00000000000E+00  0.13643451250E+03  0.13643451250E+03  0.00000000000E+00 0.  1.
         21   -1    0    0  501  502 -0.00000000000E+00 -0.00000000000E+00 -0.75067758001E+03  0.75067758001E+03  0.00000000000E+00 0.  1.
         25    1    1    2    0    0  0.11424908590E+03  0.27546003528E+02 -0.58671167968E+02  0.18132551362E+03  0.12500000000E+03 0.  0.
         25    1    1    2    0    0 -0.80830718411E+02  0.14682420022E+03 -0.34440816511E+03  0.40290561551E+03  0.12500000000E+03 0.  0.
         25    1    1    2    0    0 -0.33418367486E+02 -0.17437020375E+03 -0.21116373443E+03  0.30288096338E+03  0.12500000000E+03 0.  0.
</event>
<event>
 5    0  0.5568866E-005  0.3217048E+03  0.7546771E-02  0.1074867E+00
         21   -1    0    0  502  501  0.00000000000E+00  0.00000000000E+00  0.86584352959E+02  0.86584352959E+02  0.00000000000E+00 0. -1.
         21   -1    0    0  501  502 -0.00000000000E+00 -0.00000000000E+00 -0.11952964719E+04  0.11952964719E+04  0.00000000000E+00 0. -1.
         25    1    1    2    0    0  0.34408451805E+02 -0.12945695916E+03 -0.39765675396E+03  0.43783437485E+03  0.12500000000E+03 0.  0.
         25    1    1    2    0    0  0.83327121879E+02  0.85659956025E+02 -0.83666571843E+02  0.19210968885E+03  0.12500000000E+03 0.  0.
         25    1    1    2    0    0 -0.11773557368E+03  0.43797003132E+02 -0.62738879318E+03  0.65193676119E+03  0.12500000000E+03 0.  0.
</event>
<event>
 5    0  0.5568866E-005  0.2343410E+03  0.7546771E-02  0.1123621E+00
         21   -1    0    0  502  501  0.00000000000E+00  0.00000000000E+00  0.18129431703E+04  0.18129431703E+04  0.00000000000E+00 0.  1.
         21   -1    0    0  501  502 -0.00000000000E+00 -0.00000000000E+00 -0.30290914022E+02  0.30290914022E+02  0.00000000000E+00 0.  1.
         25    1    1    2    0    0 -0.56447085926E+02 -0.65832995816E+02  0.39943630152E+03  0.42742790716E+03  0.12500000000E+03 0.  0.
         25    1    1    2    0    0  0.84609324029E+02 -0.11088827981E+02  0.63214909283E+03  0.65001475013E+03  0.12500000000E+03 0.  0.
         25    1    1    2    0    0 -0.28162238102E+02  0.76921823797E+02  0.75106686191E+03  0.76579142702E+03  0.12500000000E+03 0.  0.
</event>
<event>
 5    0  0.5568866E-005  0.2109258E+03  0.7546771E-02  0.1140835E+00
         21   -1    0    0  502  501  0.00000000000E+00  0.00000000000E+00  0.44545098902E+03  0.44545098902E+03  0.00000000000E+00 0.  1.
         21   -1    0    0  501  502 -0.00000000000E+00 -0.00000000000E+00 -0.99875642217E+02  0.99875642217E+02  0.00000000000E+00 0.  1.
         25    1    1    2    0    0 -0.38685451238E+02  0.34566985018E+02  0.20428646270E+03  0.24504978970E+03  0.12500000000E+03 0.  0.
         25    1    1    2    0    0 -0.99900443980E+01 -0.56342559132E+00  0.81300512294E+02  0.14944862574E+03  0.12500000000E+03 0.  0.
         25    1    1    2    0    0  0.48675495636E+02 -0.34003559426E+02  0.59988371812E+02  0.15082821580E+03  0.12500000000E+03 0.  0.
</event>
<event>
 5    0  0.5568866E-005  0.2370091E+03  0.7546771E-02  0.1121801E+00
         21   -1    0    0  502  501  0.00000000000E+00  0.00000000000E+00  0.35040295222E+03  0.35040295222E+03  0.00000000000E+00 0. -1.
         21   -1    0    0  501  502 -0.00000000000E+00 -0.00000000000E+00 -0.16031057770E+03  0.16031057770E+03  0.00000000000E+00 0. -1.
         25    1    1    2    0    0 -0.18926663628E+02 -0.25617387968E+01  0.95852547383E+02  0.15867416911E+03  0.12500000000E+03 0.  0.
         25    1    1    2    0    0  0.47272309151E+02 -0.47456227162E+02  0.14739499947E+03  0.20454107308E+03  0.12500000000E+03 0.  0.
         25    1    1    2    0    0 -0.28345645523E+02  0.50017965959E+02 -0.53155172339E+02  0.14749828774E+03  0.12500000000E+03 0.  0.
</event>
<event>
 5    0  0.5568866E-005  0.3537731E+03  0.7546771E-02  0.1061077E+00
         21   -1    0    0  502  501  0.00000000000E+00  0.00000000000E+00  0.49585920949E+03  0.49585920949E+03  0.00000000000E+00 0. -1.
         21   -1    0    0  501  502 -0.00000000000E+00 -0.00000000000E+00 -0.25240114147E+03  0.25240114147E+03  0.00000000000E+00 0. -1.
         25    1    1    2    0    0 -0.39790877906E+02 -0.16143554043E+03 -0.75919626926E+02  0.22143517659E+03  0.12500000000E+03 0.  0.
         25    1    1    2    0    0 -0.27619541299E+02  0.67255739585E+02  0.32563763885E+03  0.35630190205E+03  0.12500000000E+03 0.  0.
         25    1    1    2    0    0  0.67410419205E+02  0.94179800847E+02 -0.62599439071E+01  0.17052327232E+03  0.12500000000E+03 0.  0.
</event>
<event>
 5    0  0.5568866E-005  0.2326177E+03  0.7546771E-02  0.1124811E+00
         21   -1    0    0  502  501  0.00000000000E+00  0.00000000000E+00  0.41965265419E+02  0.41965265419E+02  0.00000000000E+00 0.  1.
         21   -1    0    0  501  502 -0.00000000000E+00 -0.00000000000E+00 -0.12894236495E+04  0.12894236495E+04  0.00000000000E+00 0.  1.
         25    1    1    2    0    0  0.78331484530E+02  0.72360468330E+02 -0.58517994135E+03  0.60780952822E+03  0.12500000000E+03 0.  0.
         25    1    1    2    0    0 -0.56990861852E+02 -0.88825588596E+02 -0.37319679553E+03  0.40747857823E+03  0.12500000000E+03 0.  0.
         25    1    1    2    0    0 -0.21340622679E+02  0.16465120265E+02 -0.28908164722E+03  0.31610080848E+03  0.12500000000E+03 0.  0.
</event>
<event>
 5    0  0.5568866E-005  0.3613579E+03  0.7546771E-02  0.1058047E+00
         21   -1    0    0  502  501  0.00000000000E+00  0.00000000000E+00  0.26058249036E+03  0.26058249036E+03  0.00000000000E+00 0. -1.
         21   -1    0    0  501  502 -0.00000000000E+00 -0.00000000000E+00 -0.50110635384E+03  0.50110635384E+03  0.00000000000E+00 0. -1.
         25    1    1    2    0    0 -0.38566299292E+02  0.65472404519E+02 -0.39108870591E+02  0.15142159342E+03  0.12500000000E+03 0.  0.
         25    1    1    2    0    0  0.20845475684E+03  0.86442312649E+02  0.33211711116E+02  0.26010320417E+03  0.12500000000E+03 0.  0.
         25    1    1    2    0    0 -0.16988845755E+03 -0.15191471717E+03 -0.23462670401E+03  0.35016404661E+03  0.12500000000E+03 0.  0.
</event>
<event>
 5    0  0.5568866E-005  0.7521497E+03  0.7546771E-02  0.9631984E-01
         21   -1    0    0  502  501  0.00000000000E+00  0.00000000000E+00  0.50272464693E+03  0.50272464693E+03  0.00000000000E+00 0. -1.
         21   -1    0    0  501  502 -0.00000000000E+00 -0.00000000000E+00 -0.11253262317E+04  0.11253262317E+04  0.00000000000E+00 0. -1.
         25    1    1    2    0    0  0.91498600373E+02 -0.14665688457E+03 -0.91327937200E+03  0.93786163531E+03  0.12500000000E+03 0.  0.
         25    1    1    2    0    0  0.49779985415E+02 -0.15417823473E+03 -0.35902247130E+02  0.20775694058E+03  0.12500000000E+03 0.  0.
         25    1    1    2    0    0 -0.14127858579E+03  0.30083511930E+03  0.32658003440E+03  0.48243230269E+03  0.12500000000E+03 0.  0.
</event>
<event>
 5    0  0.5568866E-005  0.2207998E+03  0.7546771E-02  0.1133288E+00
         21   -1    0    0  502  501  0.00000000000E+00  0.00000000000E+00  0.43557429576E+03  0.43557429576E+03  0.00000000000E+00 0.  1.
         21   -1    0    0  501  502 -0.00000000000E+00 -0.00000000000E+00 -0.11192702789E+03  0.11192702789E+03  0.00000000000E+00 0.  1.
         25    1    1    2    0    0  0.36016225543E+02 -0.45161464791E+02  0.15085563225E+03  0.20425265772E+03  0.12500000000E+03 0.  0.
         25    1    1    2    0    0 -0.86528686040E+02  0.35268559578E+02  0.60034851693E+02  0.16721324176E+03  0.12500000000E+03 0.  0.
         25    1    1    2    0    0  0.50512460497E+02  0.98929052129E+01  0.11275678393E+03  0.17603542416E+03  0.12500000000E+03 0.  0.
</event>
<event>
 5    0  0.5568866E-005  0.4682309E+03  0.7546771E-02  0.1022421E+00
         21   -1    0    0  502  501  0.00000000000E+00  0.00000000000E+00  0.14427524232E+03  0.14427524232E+03  0.00000000000E+00 0.  1.
         21   -1    0    0  501  502 -0.00000000000E+00 -0.00000000000E+00 -0.15195969429E+04  0.15195969429E+04  0.00000000000E+00 0.  1.
         25    1    1    2    0    0 -0.26646798658E+03 -0.14219522364E+03 -0.90577602111E+03  0.96295372158E+03  0.12500000000E+03 0.  0.
         25    1    1    2    0    0  0.51845209890E+02  0.21678788814E+03 -0.28394945825E+03  0.38201728897E+03  0.12500000000E+03 0.  0.
         25    1    1    2    0    0  0.21462277668E+03 -0.74592664503E+02 -0.18559622123E+03  0.31890117467E+03  0.12500000000E+03 0.  0.
</event>
<event>
 5    0  0.5634495E-005  0.3572327E+03  0.7546771E-02  0.1059685E+00
         21   -1    0    0  502  501  0.00000000000E+00  0.00000000000E+00  0.10871289953E+03  0.10871289953E+03  0.00000000000E+00 0.  1.
         21   -1    0    0  501  502 -0.00000000000E+00 -0.00000000000E+00 -0.11738734413E+04  0.11738734413E+04  0.00000000000E+00 0.  1.
         25    1    1    2    0    0  0.13025845614E+02 -0.10126694734E+03 -0.71846820128E+02  0.17666814325E+03  0.12500000000E+03 0.  0.
         25    1    1    2    0    0  0.29648165030E+02 -0.26114668910E+02 -0.88116026069E+03  0.89085879613E+03  0.12500000000E+03 0.  0.
         25    1    1    2    0    0 -0.42674010645E+02  0.12738161625E+03 -0.11215346094E+03  0.21505940143E+03  0.12500000000E+03 0.  0.
</event>
<event>
 5    0  0.5568866E-005  0.4000007E+03  0.7546771E-02  0.1043779E+00
         21   -1    0    0  502  501  0.00000000000E+00  0.00000000000E+00  0.56879625724E+02  0.56879625724E+02  0.00000000000E+00 0. -1.
         21   -1    0    0  501  502 -0.00000000000E+00 -0.00000000000E+00 -0.28129673923E+04  0.28129673923E+04  0.00000000000E+00 0. -1.
         25    1    1    2    0    0 -0.37958877820E+02 -0.21884482577E+02 -0.91751300486E+03  0.92702476832E+03  0.12500000000E+03 0.  0.
         25    1    1    2    0    0  0.19183350857E+03  0.17261165427E+03 -0.46087350336E+03  0.54279302161E+03  0.12500000000E+03 0.  0.
         25    1    1    2    0    0 -0.15387463075E+03 -0.15072717169E+03 -0.13777012584E+04  0.14000292281E+04  0.12500000000E+03 0.  0.
</event>
<event>
 5    0  0.5568866E-005  0.3736569E+03  0.7546771E-02  0.1053303E+00
         21   -1    0    0  502  501  0.00000000000E+00  0.00000000000E+00  0.61961340728E+03  0.61961340728E+03  0.00000000000E+00 0. -1.
         21   -1    0    0  501  502 -0.00000000000E+00 -0.00000000000E+00 -0.22533316118E+03  0.22533316118E+03  0.00000000000E+00 0. -1.
         25    1    1    2    0    0 -0.14791911158E+03 -0.22516054480E+03  0.18976036120E+02  0.29759439587E+03  0.12500000000E+03 0.  0.
         25    1    1    2    0    0  0.98478299681E+02  0.12096286091E+03  0.99399609896E+02  0.22323815014E+03  0.12500000000E+03 0.  0.
         25    1    1    2    0    0  0.49440811897E+02  0.10419768389E+03  0.27590460008E+03  0.32411402246E+03  0.12500000000E+03 0.  0.
</event>
<event>
 5    0  0.5568866E-005  0.3783082E+03  0.7546771E-02  0.1051561E+00
         21   -1    0    0  502  501  0.00000000000E+00  0.00000000000E+00  0.82887993031E+03  0.82887993031E+03  0.00000000000E+00 0. -1.
         21   -1    0    0  501  502 -0.00000000000E+00 -0.00000000000E+00 -0.17266321607E+03  0.17266321607E+03  0.00000000000E+00 0. -1.
         25    1    1    2    0    0 -0.52610412020E+02 -0.41302978135E+02  0.12307050846E+03  0.18773689437E+03  0.12500000000E+03 0.  0.
         25    1    1    2    0    0 -0.13831052206E+03  0.23295990296E+03  0.16774538107E+03  0.34229173197E+03  0.12500000000E+03 0.  0.
         25    1    1    2    0    0  0.19092093408E+03 -0.19165692483E+03  0.36540082472E+03  0.47151452004E+03  0.12500000000E+03 0.  0.
</event>
<event>
 5    0  0.6334769E-005  0.3734730E+03  0.7546771E-02  0.1053373E+00
         21   -1    0    0  502  501  0.00000000000E+00  0.00000000000E+00  0.56435486045E+03  0.56435486045E+03  0.00000000000E+00 0. -1.
         21   -1    0    0  501  502 -0.00000000000E+00 -0.00000000000E+00 -0.24715312490E+03  0.24715312490E+03  0.00000000000E+00 0. -1.
         25    1    1    2    0    0 -0.18169481123E+03  0.30785391664E+02  0.25167640464E+02  0.22409630719E+03  0.12500000000E+03 0.  0.
         25    1    1    2    0    0  0.10442599182E+03  0.64166103199E+02 -0.67453277579E+02  0.18760869176E+03  0.12500000000E+03 0.  0.
         25    1    1    2    0    0  0.77268819416E+02 -0.94951494863E+02  0.35948737267E+03  0.39980298640E+03  0.12500000000E+03 0.  0.
</event>
<event>
 5    0  0.5568866E-005  0.2962907E+03  0.7546771E-02  0.1087110E+00
         21   -1    0    0  502  501  0.00000000000E+00  0.00000000000E+00  0.22469066368E+03  0.22469066368E+03  0.00000000000E+00 0. -1.
         21   -1    0    0  501  502 -0.00000000000E+00 -0.00000000000E+00 -0.39070676932E+03  0.39070676932E+03  0.00000000000E+00 0. -1.
         25    1    1    2    0    0  0.13153951466E+03  0.51416563868E+02  0.32358721865E+02  0.19135933172E+03  0.12500000000E+03 0.  0.
         25    1    1    2    0    0 -0.95162527442E+02 -0.44157517047E+02  0.25294963088E+02  0.16513820908E+03  0.12500000000E+03 0.  0.
         25    1    1    2    0    0 -0.36376987215E+02 -0.72590468216E+01 -0.22366979059E+03  0.25889989220E+03  0.12500000000E+03 0.  0.
</event>
<event>
 5    0  0.5568866E-005  0.3517941E+03  0.7546771E-02  0.1061881E+00
         21   -1    0    0  502  501  0.00000000000E+00  0.00000000000E+00  0.10321085058E+04  0.10321085058E+04  0.00000000000E+00 0.  1.
         21   -1    0    0  501  502 -0.00000000000E+00 -0.00000000000E+00 -0.11990896013E+03  0.11990896013E+03  0.00000000000E+00 0.  1.
         25    1    1    2    0    0 -0.64893838375E+02  0.27005354632E+02  0.14222305971E+03  0.20197251831E+03  0.12500000000E+03 0.  0.
         25    1    1    2    0    0  0.15378467178E+03 -0.73111538119E+02  0.56287941460E+02  0.21860547714E+03  0.12500000000E+03 0.  0.
         25    1    1    2    0    0 -0.88890833410E+02  0.46106183488E+02  0.71368854450E+03  0.73143947047E+03  0.12500000000E+03 0.  0.
</event>
<event>
 5    0  0.5568866E-005  0.3806600E+03  0.7546771E-02  0.1050690E+00
         21   -1    0    0  502  501  0.00000000000E+00  0.00000000000E+00  0.70075726483E+03  0.70075726483E+03  0.00000000000E+00 0. -1.
         21   -1    0    0  501  502 -0.00000000000E+00 -0.00000000000E+00 -0.20677916133E+03  0.20677916133E+03  0.00000000000E+00 0. -1.
         25    1    1    2    0    0  0.21524215208E+03  0.18191485893E+03  0.33125417608E+03  0.45252240729E+03  0.12500000000E+03 0.  0.
         25    1    1    2    0    0 -0.10274779502E+03 -0.23829469977E+02  0.15306592836E+03  0.22400698973E+03  0.12500000000E+03 0.  0.
         25    1    1    2    0    0 -0.11249435706E+03 -0.15808538895E+03  0.96579990547E+01  0.23100702914E+03  0.12500000000E+03 0.  0.
</event>
<event>
 5    0  0.5568866E-005  0.2445433E+03  0.7546771E-02  0.1116803E+00
         21   -1    0    0  502  501  0.00000000000E+00  0.00000000000E+00  0.50647844917E+03  0.50647844917E+03  0.00000000000E+00 0.  1.
         21   -1    0    0  501  502 -0.00000000000E+00 -0.00000000000E+00 -0.11807298204E+03  0.11807298204E+03  0.00000000000E+00 0.  1.
         25    1    1    2    0    0 -0.70215123774E+01  0.28714833147E+02 -0.29445021953E+02  0.13177956062E+03  0.12500000000E+03 0.  0.
         25    1    1    2    0    0  0.13159236515E+02 -0.19708931428E+02  0.14794446936E+03  0.19512604516E+03  0.12500000000E+03 0.  0.
         25    1    1    2    0    0 -0.61377241375E+01 -0.90059017191E+01  0.26990601972E+03  0.29764582544E+03  0.12500000000E+03 0.  0.
</event>
<event>
 5    0  0.5568866E-005  0.3232449E+03  0.7546771E-02  0.1074166E+00
         21   -1    0    0  502  501  0.00000000000E+00  0.00000000000E+00  0.76856155474E+02  0.76856155474E+02  0.00000000000E+00 0. -1.
         21   -1    0    0  501  502 -0.00000000000E+00 -0.00000000000E+00 -0.13595174668E+04  0.13595174668E+04  0.00000000000E+00 0. -1.
         25    1    1    2    0    0 -0.11189196812E+03  0.43188662769E+02 -0.42741992992E+03  0.46119179266E+03  0.12500000000E+03 0.  0.
         25    1    1    2    0    0  0.24175568093E+03  0.13343435434E+02 -0.41917859636E+03  0.49995955054E+03  0.12500000000E+03 0.  0.
         25    1    1    2    0    0 -0.12986371281E+03 -0.56532098203E+02 -0.43606278509E+03  0.47522227912E+03  0.12500000000E+03 0.  0.
</event>
<event>
 5    0  0.5568866E-005  0.2254196E+03  0.7546771E-02  0.1129906E+00
         21   -1    0    0  502  501  0.00000000000E+00  0.00000000000E+00  0.42979421266E+03  0.42979421266E+03  0.00000000000E+00 0. -1.
         21   -1    0    0  501  502 -0.00000000000E+00 -0.00000000000E+00 -0.11822871514E+03  0.11822871514E+03  0.00000000000E+00 0. -1.
         25    1    1    2    0    0 -0.60332831845E+02 -0.25724283616E+02  0.47323601591E+02  0.14888355394E+03  0.12500000000E+03 0.  0.
         25    1    1    2    0    0  0.62509673154E+02 -0.36960829548E+02  0.19594064443E+03  0.24349804578E+03  0.12500000000E+03 0.  0.
         25    1    1    2    0    0 -0.21768413090E+01  0.62685113165E+02  0.68301251486E+02  0.15564132808E+03  0.12500000000E+03 0.  0.
</event>
<event>
 5    0  0.5568866E-005  0.2237287E+03  0.7546771E-02  0.1131133E+00
         21   -1    0    0  502  501  0.00000000000E+00  0.00000000000E+00  0.18932573433E+03  0.18932573433E+03  0.00000000000E+00 0.  1.
         21   -1    0    0  501  502 -0.00000000000E+00 -0.00000000000E+00 -0.26438324810E+03  0.26438324810E+03  0.00000000000E+00 0.  1.
         25    1    1    2    0    0 -0.13569470877E+02 -0.73801616686E+01 -0.54323445438E+02  0.13716644652E+03  0.12500000000E+03 0.  0.
         25    1    1    2    0    0 -0.36823360612E+02  0.21693685784E+02 -0.94321022376E+02  0.16232076624E+03  0.12500000000E+03 0.  0.
         25    1    1    2    0    0  0.50392831489E+02 -0.14313524116E+02  0.73586954042E+02  0.15422176968E+03  0.12500000000E+03 0.  0.
</event>
<event>
 5    0  0.5568866E-005  0.4571525E+03  0.7546771E-02  0.1025610E+00
         21   -1    0    0  502  501  0.00000000000E+00  0.00000000000E+00  0.14301380063E+04  0.14301380063E+04  0.00000000000E+00 0.  1.
         21   -1    0    0  501  502 -0.00000000000E+00 -0.00000000000E+00 -0.14613166002E+03  0.14613166002E+03  0.00000000000E+00 0.  1.
         25    1    1    2    0    0 -0.16502410523E+03  0.14832170409E+03  0.18674157360E+03  0.31580009266E+03  0.12500000000E+03 0.  0.
         25    1    1    2    0    0 -0.11090877476E+03  0.58129812288E+02  0.69086178612E+03  0.71315835473E+03  0.12500000000E+03 0.  0.
         25    1    1    2    0    0  0.27593287999E+03 -0.20645151638E+03  0.40640298655E+03  0.54731121892E+03  0.12500000000E+03 0.  0.
</event>
<event>
 5    0  0.5568866E-005  0.4479293E+03  0.7546771E-02  0.1028341E+00
         21   -1    0    0  502  501  0.00000000000E+00  0.00000000000E+00  0.20368572079E+03  0.20368572079E+03  0.00000000000E+00 0.  1.
         21   -1    0    0  501  502 -0.00000000000E+00 -0.00000000000E+00 -0.98504997987E+03  0.98504997987E+03  0.00000000000E+00 0.  1.
         25    1    1    2    0    0 -0.12381533783E+03 -0.97047525548E+02 -0.18654779400E+03  0.27417793409E+03  0.12500000000E+03 0.  0.
         25    1    1    2    0    0 -0.54234054594E+02 -0.23151240774E+03 -0.38114883530E+03  0.46630329429E+03  0.12500000000E+03 0.  0.
         25    1    1    2    0    0  0.17804939242E+03  0.32855993329E+03 -0.21366762978E+03  0.44825447228E+03  0.12500000000E+03 0.  0.
</event>
<event>
 5    0  0.5568866E-005  0.2513321E+03  0.7546771E-02  0.1112466E+00
         21   -1    0    0  502  501  0.00000000000E+00  0.00000000000E+00  0.91842174892E+03  0.91842174892E+03  0.00000000000E+00 0. -1.
         21   -1    0    0  501  502 -0.00000000000E+00 -0.00000000000E+00 -0.68778676179E+02  0.68778676179E+02  0.00000000000E+00 0. -1.
         25    1    1    2    0    0 -0.16588721876E+02  0.11756831153E+03  0.34723634697E+03  0.38767973151E+03  0.12500000000E+03 0.  0.
         25    1    1    2    0    0  0.69604710310E+02 -0.18805291731E+02  0.32319253895E+03  0.35394473005E+03  0.12500000000E+03 0.  0.
         25    1    1    2    0    0 -0.53015988434E+02 -0.98763019804E+02  0.17921418683E+03  0.24557596354E+03  0.12500000000E+03 0.  0.
</event>
<event>
 5    0  0.5568866E-005  0.3524888E+03  0.7546771E-02  0.1061598E+00
         21   -1    0    0  502  501  0.00000000000E+00  0.00000000000E+00  0.34301160365E+03  0.34301160365E+03  0.00000000000E+00 0.  1.
         21   -1    0    0  501  502 -0.00000000000E+00 -0.00000000000E+00 -0.36222789466E+03  0.36222789466E+03  0.00000000000E+00 0.  1.
         25    1    1    2    0    0  0.12602505213E+03 -0.13749214781E+01 -0.21723235886E+03  0.28053360210E+03  0.12500000000E+03 0.  0.
         25    1    1    2    0    0  0.65746610068E+02  0.20564328247E+02  0.49058220338E+02  0.15092122884E+03  0.12500000000E+03 0.  0.
         25    1    1    2    0    0 -0.19177166220E+03 -0.19189406768E+02  0.14895784751E+03  0.27378466737E+03  0.12500000000E+03 0.  0.
</event>
<event>
 5    0  0.5568866E-005  0.2667140E+03  0.7546771E-02  0.1103175E+00
         21   -1    0    0  502  501  0.00000000000E+00  0.00000000000E+00  0.73436337935E+03  0.73436337935E+03  0.00000000000E+00 0.  1.
         21   -1    0    0  501  502 -0.00000000000E+00 -0.00000000000E+00 -0.96868081336E+02  0.96868081336E+02  0.00000000000E+00 0.  1.
         25    1    1    2    0    0 -0.11083368403E+03 -0.77668024165E+02  0.35350230340E+03  0.39862928392E+03  0.12500000000E+03 0.  0.
         25    1    1    2    0    0 -0.24066850402E+02  0.18674696552E+02  0.14954679531E+03  0.19727443212E+03  0.12500000000E+03 0.  0.
         25    1    1    2    0    0  0.13490053443E+03  0.58993327614E+02  0.13444619931E+03  0.23532774465E+03  0.12500000000E+03 0.  0.
</event>
<event>
 5    0  0.6167993E-005  0.2798721E+03  0.7546771E-02  0.1095759E+00
         21   -1    0    0  502  501  0.00000000000E+00  0.00000000000E+00  0.50505727716E+03  0.50505727716E+03  0.00000000000E+00 0.  1.
         21   -1    0    0  501  502 -0.00000000000E+00 -0.00000000000E+00 -0.15508812045E+03  0.15508812045E+03  0.00000000000E+00 0.  1.
         25    1    1    2    0    0 -0.49549312548E+01 -0.41904064226E+02 -0.19149913767E+01  0.13194381052E+03  0.12500000000E+03 0.  0.
         25    1    1    2    0    0 -0.68056684604E+02  0.25544253629E+02  0.35411675858E+03  0.38250215675E+03  0.12500000000E+03 0.  0.
         25    1    1    2    0    0  0.73011615859E+02  0.16359810597E+02 -0.22326104862E+01  0.14569943034E+03  0.12500000000E+03 0.  0.
</event>
<event>
 5    0  0.5568866E-005  0.2957349E+03  0.7546771E-02  0.1087392E+00
         21   -1    0    0  502  501  0.00000000000E+00  0.00000000000E+00  0.15417649931E+03  0.15417649931E+03  0.00000000000E+00 0. -1.
         21   -1    0    0  501  502 -0.00000000000E+00 -0.00000000000E+00 -0.56726640666E+03  0.56726640666E+03  0.00000000000E+00 0. -1.
         25    1    1    2    0    0 -0.63535290903E+02 -0.73300293371E+02 -0.15648049621E+03  0.22253272095E+03  0.12500000000E+03 0.  0.
         25    1    1    2    0    0  0.17390512370E+03  0.11989540890E+02 -0.23779942940E+03  0.32025038604E+03  0.12500000000E+03 0.  0.
         25    1    1    2    0    0 -0.11036983279E+03  0.61310752481E+02 -0.18809981739E+02  0.17865979898E+03  0.12500000000E+03 0.  0.
</event>
<event>
 5    0  0.5568866E-005  0.2986659E+03  0.7546771E-02  0.1085909E+00
         21   -1    0    0  502  501  0.00000000000E+00  0.00000000000E+00  0.32919526076E+03  0.32919526076E+03  0.00000000000E+00 0. -1.
         21   -1    0    0  501  502 -0.00000000000E+00 -0.00000000000E+00 -0.27096773343E+03  0.27096773343E+03  0.00000000000E+00 0. -1.
         25    1    1    2    0    0 -0.18023195943E+03 -0.16437209247E+02  0.77650784766E+02  0.23325605120E+03  0.12500000000E+03 0.  0.
         25    1    1    2    0    0  0.11726136541E+03  0.15226978666E+02 -0.10621688650E+03  0.20221057261E+03  0.12500000000E+03 0.  0.
         25    1    1    2    0    0  0.62970594017E+02  0.12102305815E+01  0.86793629067E+02  0.16469637038E+03  0.12500000000E+03 0.  0.
</event>
<event>
 5    0  0.7026645E-005  0.2905431E+03  0.7546771E-02  0.1090066E+00
         21   -1    0    0  502  501  0.00000000000E+00  0.00000000000E+00  0.28838531932E+03  0.28838531932E+03  0.00000000000E+00 0. -1.
         21   -1    0    0  501  502 -0.00000000000E+00 -0.00000000000E+00 -0.29271699742E+03  0.29271699742E+03  0.00000000000E+00 0. -1.
         25    1    1    2    0    0 -0.38643272123E+02 -0.10805376730E+03  0.54769345872E+02  0.17830760038E+03  0.12500000000E+03 0.  0.
         25    1    1    2    0    0 -0.83818418854E+02  0.13032189864E+03 -0.98390841622E+02  0.22206999419E+03  0.12500000000E+03 0.  0.
         25    1    1    2    0    0  0.12246169098E+03 -0.22268131343E+02  0.39289817653E+02  0.18072472217E+03  0.12500000000E+03 0.  0.
</event>
<event>
 5    0  0.5568866E-005  0.2158099E+03  0.7546771E-02  0.1137046E+00
         21   -1    0    0  502  501  0.00000000000E+00  0.00000000000E+00  0.38274538331E+03  0.38274538331E+03  0.00000000000E+00 0.  1.
         21   -1    0    0  501  502 -0.00000000000E+00 -0.00000000000E+00 -0.12168374737E+03  0.12168374737E+03  0.00000000000E+00 0.  1.
         25    1    1    2    0    0 -0.81526203109E+02 -0.39201238135E+00  0.11800895291E+03  0.19025716395E+03  0.12500000000E+03 0.  0.
         25    1    1    2    0    0  0.81473980802E+00 -0.17287872277E+02  0.40246053815E+02  0.13245481938E+03  0.12500000000E+03 0.  0.
         25    1    1    2    0    0  0.80711463301E+02  0.17679884659E+02  0.10280662921E+03  0.18171714735E+03  0.12500000000E+03 0.  0.
</event>
<event>
 5    0  0.5568866E-005  0.3621993E+03  0.7546771E-02  0.1057716E+00
         21   -1    0    0  502  501  0.00000000000E+00  0.00000000000E+00  0.18989406806E+04  0.18989406806E+04  0.00000000000E+00 0.  1.
         21   -1    0    0  501  502 -0.00000000000E+00 -0.00000000000E+00 -0.69085012924E+02  0.69085012924E+02  0.00000000000E+00 0.  1.
         25    1    1    2    0    0 -0.59161493991E+02 -0.11378216508E+03  0.12855681852E+04  0.12979819037E+04  0.12500000000E+03 0.  0.
         25    1    1    2    0    0  0.11894044793E+03 -0.42238165182E+02  0.30119147379E+03  0.34967441519E+03  0.12500000000E+03 0.  0.
         25    1    1    2    0    0 -0.59778953937E+02  0.15602033026E+03  0.24309600870E+03  0.32036937468E+03  0.12500000000E+03 0.  0.
</event>
<event>
 5    0  0.5699022E-005  0.2675169E+03  0.7546771E-02  0.1102709E+00
         21   -1    0    0  502  501  0.00000000000E+00  0.00000000000E+00  0.46766992083E+03  0.46766992083E+03  0.00000000000E+00 0. -1.
         21   -1    0    0  501  502 -0.00000000000E+00 -0.00000000000E+00 -0.15302521125E+03  0.15302521125E+03  0.00000000000E+00 0. -1.
         25    1    1    2    0    0 -0.50267506369E+02 -0.94346275509E+02  0.21477707818E+03  0.27052215290E+03  0.12500000000E+03 0.  0.
         25    1    1    2    0    0  0.59702538400E+01 -0.52778032805E+02  0.58219482766E+02  0.14776898474E+03  0.12500000000E+03 0.  0.
         25    1    1    2    0    0  0.44297252529E+02  0.14712430831E+03  0.41648148640E+02  0.20240399444E+03  0.12500000000E+03 0.  0.
</event>
<event>
 5    0  0.5568866E-005  0.4578643E+03  0.7546771E-02  0.1025402E+00
         21   -1    0    0  502  501  0.00000000000E+00  0.00000000000E+00  0.43415387259E+03  0.43415387259E+03  0.00000000000E+00 0. -1.
         21   -1    0    0  501  502 -0.00000000000E+00 -0.00000000000E+00 -0.48286956680E+03  0.48286956680E+03  0.00000000000E+00 0. -1.
         25    1    1    2    0    0 -0.49811214329E+02  0.16142966530E+03 -0.81316573674E+01  0.21031361764E+03  0.12500000000E+03 0.  0.
         25    1    1    2    0    0 -0.27186645918E+03 -0.59937130888E+02 -0.13666489980E+03  0.33437423065E+03  0.12500000000E+03 0.  0.
         25    1    1    2    0    0  0.32167767351E+03 -0.10149253441E+03  0.96080862957E+02  0.37233559111E+03  0.12500000000E+03 0.  0.
</event>
<event>
 5    0  0.5568866E-005  0.2708556E+03  0.7546771E-02  0.1100791E+00
         21   -1    0    0  502  501  0.00000000000E+00  0.00000000000E+00  0.10107956208E+03  0.10107956208E+03  0.00000000000E+00 0. -1.
         21   -1    0    0  501  502 -0.00000000000E+00 -0.00000000000E+00 -0.72579225659E+03  0.72579225659E+03  0.00000000000E+00 0. -1.
         25    1    1    2    0    0 -0.54844959829E+02 -0.11254543376E+02 -0.11706520269E+03  0.18017740160E+03  0.12500000000E+03 0.  0.
         25    1    1    2    0    0  0.63657973307E+02 -0.13143919937E+03 -0.15812079993E+03  0.24890919643E+03  0.12500000000E+03 0.  0.
         25    1    1    2    0    0 -0.88130134783E+01  0.14269374275E+03 -0.34952669189E+03  0.39778522065E+03  0.12500000000E+03 0.  0.
</event>
<event>
 5    0  0.5568866E-005  0.4285488E+03  0.7546771E-02  0.1034319E+00
         21   -1    0    0  502  501  0.00000000000E+00  0.00000000000E+00  0.51688602783E+03  0.51688602783E+03  0.00000000000E+00 0.  1.
         21   -1    0    0  501  502 -0.00000000000E+00 -0.00000000000E+00 -0.35530858517E+03  0.35530858517E+03  0.00000000000E+00 0.  1.
         25    1    1    2    0    0  0.14451449153E+03 -0.22302137398E+01 -0.22851865696E+02  0.19244900593E+03  0.12500000000E+03 0.  0.
         25    1    1    2    0    0  0.58142683724E+02 -0.85226997651E+02 -0.17583549029E+03  0.23913873054E+03  0.12500000000E+03 0.  0.
         25    1    1    2    0    0 -0.20265717526E+03  0.87457211391E+02  0.36026479865E+03  0.44060687654E+03  0.12500000000E+03 0.  0.
</event>
<event>
 5    0  0.5568866E-005  0.3477302E+03  0.7546771E-02  0.1063551E+00
         21   -1    0    0  502  501  0.00000000000E+00  0.00000000000E+00  0.77500524083E+03  0.77500524083E+03  0.00000000000E+00 0. -1.
         21   -1    0    0  501  502 -0.00000000000E+00 -0.00000000000E+00 -0.15602000897E+03  0.15602000897E+03  0.00000000000E+00 0. -1.
         25    1    1    2    0    0  0.12386447207E+03 -0.14176213888E+03 -0.22143755575E+00  0.22597336236E+03  0.12500000000E+03 0.  0.
         25    1    1    2    0    0 -0.59176581927E+02  0.36956865429E+02  0.16681438657E+03  0.21981746363E+03  0.12500000000E+03 0.  0.
         25    1    1    2    0    0 -0.64687890145E+02  0.10480527345E+03  0.45239228285E+03  0.48523442381E+03  0.12500000000E+03 0.  0.
</event>
<event>
 5    0  0.5568866E-005  0.4606082E+03  0.7546771E-02  0.1024605E+00
         21   -1    0    0  502  501  0.00000000000E+00  0.00000000000E+00  0.75055692832E+03  0.75055692832E+03  0.00000000000E+00 0. -1.
         21   -1    0    0  501  502 -0.00000000000E+00 -0.00000000000E+00 -0.28266997193E+03  0.28266997193E+03  0.00000000000E+00 0. -1.
         25    1    1    2    0    0  0.65446528026E+01 -0.16106510047E+03 -0.12090918754E+03  0.23712619151E+03  0.12500000000E+03 0.  0.
         25    1    1    2    0    0  0.48747924081E+02  0.98025615324E+02 -0.21470875535E+02  0.16754515767E+03  0.12500000000E+03 0.  0.
         25    1    1    2    0    0 -0.55292576884E+02  0.63039485143E+02  0.61026701946E+03  0.62855555108E+03  0.12500000000E+03 0.  0.
</event>
<event>
 5    0  0.5568866E-005  0.2814371E+03  0.7546771E-02  0.1094907E+00
         21   -1    0    0  502  501  0.00000000000E+00  0.00000000000E+00  0.10419522252E+03  0.10419522252E+03  0.00000000000E+00 0. -1.
         21   -1    0    0  501  502 -0.00000000000E+00 -0.00000000000E+00 -0.76017702308E+03  0.76017702308E+03  0.00000000000E+00 0. -1.
         25    1    1    2    0    0  0.68275322081E+02  0.33166017278E+02 -0.24673042657E+03  0.28681423901E+03  0.12500000000E+03 0.  0.
         25    1    1    2    0    0 -0.14101997028E+03 -0.22247107070E+02 -0.38673998979E+03  0.43078345545E+03  0.12500000000E+03 0.  0.
         25    1    1    2    0    0  0.72744648203E+02 -0.10918910209E+02 -0.22511384210E+02  0.14677455114E+03  0.12500000000E+03 0.  0.
</event>
<event>
 5    0  0.5568866E-005  0.6221839E+03  0.7546771E-02  0.9860421E-01
         21   -1    0    0  502  501  0.00000000000E+00  0.00000000000E+00  0.84112172075E+03  0.84112172075E+03  0.00000000000E+00 0. -1.
         21   -1    0    0  501  502 -0.00000000000E+00 -0.00000000000E+00 -0.46023404193E+03  0.46023404193E+03  0.00000000000E+00 0. -1.
         25    1    1    2    0    0  0.91175520218E+02  0.17675741900E+03 -0.82844434445E+02  0.24908705502E+03  0.12500000000E+03 0.  0.
         25    1    1    2    0    0  0.16977862695E+03 -0.12639293481E+02  0.64130438336E+03  0.67518948898E+03  0.12500000000E+03 0.  0.
         25    1    1    2    0    0 -0.26095414716E+03 -0.16411812552E+03 -0.17757227010E+03  0.37707921867E+03  0.12500000000E+03 0.  0.
</event>
<event>
 5    0  0.5568866E-005  0.2885109E+03  0.7546771E-02  0.1091129E+00
         21   -1    0    0  502  501  0.00000000000E+00  0.00000000000E+00  0.12839759155E+03  0.12839759155E+03  0.00000000000E+00 0. -1.
         21   -1    0    0  501  502 -0.00000000000E+00 -0.00000000000E+00 -0.64828720730E+03  0.64828720730E+03  0.00000000000E+00 0.  1.
         25    1    1    2    0    0  0.42616908329E+02  0.14818659883E+03 -0.11253960289E+03  0.22817894549E+03  0.12500000000E+03 0.  0.
         25    1    1    2    0    0 -0.90764115044E+02 -0.16930232031E+03 -0.28626985568E+03  0.36671082683E+03  0.12500000000E+03 0.  0.
         25    1    1    2    0    0  0.48147206716E+02  0.21115721479E+02 -0.12108015718E+03  0.18179502653E+03  0.12500000000E+03 0.  0.
</event>
<event>
 5    0  0.5568866E-005  0.2550324E+03  0.7546771E-02  0.1110165E+00
         21   -1    0    0  502  501  0.00000000000E+00  0.00000000000E+00  0.29059890730E+02  0.29059890730E+02  0.00000000000E+00 0.  1.
         21   -1    0    0  501  502 -0.00000000000E+00 -0.00000000000E+00 -0.22381886051E+04  0.22381886051E+04  0.00000000000E+00 0.  1.
         25    1    1    2    0    0  0.90517532570E+02  0.99125998172E+02 -0.73461875606E+03  0.75717177970E+03  0.12500000000E+03 0.  0.
         25    1    1    2    0    0 -0.12147743413E+03 -0.35556823486E+02 -0.69216122917E+03  0.71465601647E+03  0.12500000000E+03 0.  0.
         25    1    1    2    0    0  0.30959901563E+02 -0.63569174686E+02 -0.78234872910E+03  0.79542069963E+03  0.12500000000E+03 0.  0.
</event>
<event>
 5    0  0.5568866E-005  0.2549950E+03  0.7546771E-02  0.1110188E+00
         21   -1    0    0  502  501  0.00000000000E+00  0.00000000000E+00  0.68551669983E+02  0.68551669983E+02  0.00000000000E+00 0. -1.
         21   -1    0    0  501  502 -0.00000000000E+00 -0.00000000000E+00 -0.94851739576E+03  0.94851739576E+03  0.00000000000E+00 0. -1.
         25    1    1    2    0    0 -0.75010594223E+02 -0.10355464685E+03 -0.22530993465E+03  0.28764512995E+03  0.12500000000E+03 0.  0.
         25    1    1    2    0    0 -0.33511959904E+00  0.33658005903E+02 -0.45151161072E+03  0.46970278718E+03  0.12500000000E+03 0.  0.
         25    1    1    2    0    0  0.75345713822E+02  0.69896640946E+02 -0.20314418041E+03  0.25972114862E+03  0.12500000000E+03 0.  0.
</event>
<event>
 5    0  0.5568866E-005  0.2650075E+03  0.7546771E-02  0.1104171E+00
         21   -1    0    0  502  501  0.00000000000E+00  0.00000000000E+00  0.62795530515E+02  0.62795530515E+02  0.00000000000E+00 0. -1.
         21   -1    0    0  501  502 -0.00000000000E+00 -0.00000000000E+00 -0.11183752804E+04  0.11183752804E+04  0.00000000000E+00 0. -1.
         25    1    1    2    0    0  0.12198095909E+03 -0.61270484340E+02 -0.29373437381E+03  0.34718627420E+03  0.12500000000E+03 0.  0.
         25    1    1    2    0    0 -0.10611345839E+03 -0.45090876984E+02 -0.32009259848E+03  0.36246037693E+03  0.12500000000E+03 0.  0.
         25    1    1    2    0    0 -0.15867500697E+02  0.10636136132E+03 -0.44175277763E+03  0.47152415983E+03  0.12500000000E+03 0.  0.
</event>
<event>
 5    0  0.5568866E-005  0.2689414E+03  0.7546771E-02  0.1101887E+00
         21   -1    0    0  502  501  0.00000000000E+00  0.00000000000E+00  0.90693921693E+03  0.90693921693E+03  0.00000000000E+00 0. -1.
         21   -1    0    0  501  502 -0.00000000000E+00 -0.00000000000E+00 -0.79751174762E+02  0.79751174762E+02  0.00000000000E+00 0. -1.
         25    1    1    2    0    0  0.36860087547E+02 -0.43270145916E+02  0.15408020298E+03  0.20638963281E+03  0.12500000000E+03 0.  0.
         25    1    1    2    0    0 -0.19234717653E+02  0.16879452922E+03  0.43041689560E+03  0.47931750591E+03  0.12500000000E+03 0.  0.
         25    1    1    2    0    0 -0.17625369894E+02 -0.12552438330E+03  0.24269094359E+03  0.30098325296E+03  0.12500000000E+03 0.  0.
</event>
<event>
 5    0  0.5568866E-005  0.2756720E+03  0.7546771E-02  0.1098077E+00
         21   -1    0    0  502  501  0.00000000000E+00  0.00000000000E+00  0.19251285661E+04  0.19251285661E+04  0.00000000000E+00 0.  1.
         21   -1    0    0  501  502 -0.00000000000E+00 -0.00000000000E+00 -0.39475310966E+02  0.39475310966E+02  0.00000000000E+00 0.  1.
         25    1    1    2    0    0  0.11842674171E+03 -0.98054490748E+02  0.57626502081E+03  0.60938161321E+03  0.12500000000E+03 0.  0.
         25    1    1    2    0    0 -0.81649963647E+02  0.52467048186E+02  0.32809997256E+03  0.36427201334E+03  0.12500000000E+03 0.  0.
         25    1    1    2    0    0 -0.36776778061E+02  0.45587442561E+02  0.98128826178E+03  0.99095025053E+03  0.12500000000E+03 0.  0.
</event>
<event>
 5    0  0.5568866E-005  0.4050582E+03  0.7546771E-02  0.1042042E+00
         21   -1    0    0  502  501  0.00000000000E+00  0.00000000000E+00  0.16770531524E+04  0.16770531524E+04  0.00000000000E+00 0. -1.
         21   -1    0    0  501  502 -0.00000000000E+00 -0.00000000000E+00 -0.97833616017E+02  0.97833616017E+02  0.00000000000E+00 0. -1.
         25    1    1    2    0    0 -0.23404172072E+02 -0.40918924018E+02  0.80847573131E+03  0.81943890665E+03  0.12500000000E+03 0.  0.
         25    1    1    2    0    0  0.61645867832E+02  0.26829655881E+03  0.40691944391E+03  0.50694347843E+03  0.12500000000E+03 0.  0.
         25    1    1    2    0    0 -0.38241695760E+02 -0.22737763479E+03  0.36382436117E+03  0.44850438334E+03  0.12500000000E+03 0.  0.
</event>
<event>
 5    0  0.5568866E-005  0.4502617E+03  0.7546771E-02  0.1027644E+00
         21   -1    0    0  502  501  0.00000000000E+00  0.00000000000E+00  0.11464922393E+03  0.11464922393E+03  0.00000000000E+00 0.  1.
         21   -1    0    0  501  502 -0.00000000000E+00 -0.00000000000E+00 -0.17683116245E+04  0.17683116245E+04  0.00000000000E+00 0.  1.
         25    1    1    2    0    0  0.22652841697E+03 -0.53337396718E+02 -0.13179723614E+04  0.13441860537E+04  0.12500000000E+03 0.  0.
         25    1    1    2    0    0 -0.11343522108E+03 -0.35024896445E+01 -0.11797886438E+02  0.16924540448E+03  0.12500000000E+03 0.  0.
         25    1    1    2    0    0 -0.11309319589E+03  0.56839886362E+02 -0.32389215273E+03  0.36952939022E+03  0.12500000000E+03 0.  0.
</event>
<event>
 5    0  0.5568866E-005  0.2820242E+03  0.7546771E-02  0.1094588E+00
         21   -1    0    0  502  501  0.00000000000E+00  0.00000000000E+00  0.47854259556E+02  0.47854259556E+02  0.00000000000E+00 0. -1.
         21   -1    0    0  501  502 -0.00000000000E+00 -0.00000000000E+00 -0.16620810597E+04  0.16620810597E+04  0.00000000000E+00 0. -1.
         25    1    1    2    0    0 -0.12598363034E+03  0.99456504373E+02 -0.39818133936E+03  0.44714298652E+03  0.12500000000E+03 0.  0.
         25    1    1    2    0    0  0.66337150039E+02  0.19829150163E+02 -0.35741766655E+03  0.38492363013E+03  0.12500000000E+03 0.  0.
         25    1    1    2    0    0  0.59646480300E+02 -0.11928565454E+03 -0.85862779427E+03  0.87786870264E+03  0.12500000000E+03 0.  0.
</event>
<event>
 5    0  0.6944198E-005  0.3272977E+03  0.7546771E-02  0.1072339E+00
         21   -1    0    0  502  501  0.00000000000E+00  0.00000000000E+00  0.66172092788E+03  0.66172092788E+03  0.00000000000E+00 0. -1.
         21   -1    0    0  501  502 -0.00000000000E+00 -0.00000000000E+00 -0.16188665622E+03  0.16188665622E+03  0.00000000000E+00 0. -1.
         25    1    1    2    0    0 -0.12995671021E+03  0.10171361655E+03  0.82289914502E+02  0.22278024228E+03  0.12500000000E+03 0.  0.
         25    1    1    2    0    0  0.15751805719E+03 -0.18947134175E+03  0.28167186128E+03  0.39455717599E+03  0.12500000000E+03 0.  0.
         25    1    1    2    0    0 -0.27561346976E+02  0.87757725206E+02  0.13587249587E+03  0.20627016584E+03  0.12500000000E+03 0.  0.
</event>
<event>
 5    0  0.5568866E-005  0.2816510E+03  0.7546771E-02  0.1094791E+00
         21   -1    0    0  502  501  0.00000000000E+00  0.00000000000E+00  0.54028333111E+02  0.54028333111E+02  0.00000000000E+00 0.  1.
         21   -1    0    0  501  502 -0.00000000000E+00 -0.00000000000E+00 -0.14682530080E+04  0.14682530080E+04  0.00000000000E+00 0.  1.
         25    1    1    2    0    0 -0.17132060137E+02  0.45532694250E+02 -0.41581475929E+03  0.43691377613E+03  0.12500000000E+03 0.  0.
         25    1    1    2    0    0 -0.79378999384E+02 -0.14408303932E+03 -0.73036309421E+03  0.75902318617E+03  0.12500000000E+03 0.  0.
         25    1    1    2    0    0  0.96511059521E+02  0.98550345072E+02 -0.26804682140E+03  0.32634437882E+03  0.12500000000E+03 0.  0.
</event>
<event>
 5    0  0.5568866E-005  0.3678967E+03  0.7546771E-02  0.1055500E+00
         21   -1    0    0  502  501  0.00000000000E+00  0.00000000000E+00  0.20295725822E+03  0.20295725822E+03  0.00000000000E+00 0. -1.
         21   -1    0    0  501  502 -0.00000000000E+00 -0.00000000000E+00 -0.66687933911E+03  0.66687933911E+03  0.00000000000E+00 0. -1.
         25    1    1    2    0    0 -0.79274247715E+02  0.50099164475E+02 -0.48145934121E+03  0.50618418571E+03  0.12500000000E+03 0.  0.
         25    1    1    2    0    0 -0.50305949703E+02 -0.10725819430E+03  0.27910992529E+02  0.17446785470E+03  0.12500000000E+03 0.  0.
         25    1    1    2    0    0  0.12958019742E+03  0.57159029824E+02 -0.10373732217E+02  0.18918455691E+03  0.12500000000E+03 0.  0.
</event>
<event>
 5    0  0.5568866E-005  0.3963809E+03  0.7546771E-02  0.1045040E+00
         21   -1    0    0  502  501  0.00000000000E+00  0.00000000000E+00  0.38860534954E+03  0.38860534954E+03  0.00000000000E+00 0. -1.
         21   -1    0    0  501  502 -0.00000000000E+00 -0.00000000000E+00 -0.40431196659E+03  0.40431196659E+03  0.00000000000E+00 0. -1.
         25    1    1    2    0    0  0.21225620581E+03 -0.20914046452E+03 -0.12339762720E+03  0.34589652384E+03  0.12500000000E+03 0.  0.
         25    1    1    2    0    0 -0.11754120877E+03  0.28444761391E+02 -0.21261456846E+02  0.17522011801E+03  0.12500000000E+03 0.  0.
         25    1    1    2    0    0 -0.94714997044E+02  0.18069570313E+03  0.12895246699E+03  0.27180067428E+03  0.12500000000E+03 0.  0.
</event>
<event>
 5    0  0.5568866E-005  0.2866420E+03  0.7546771E-02  0.1092116E+00
         21   -1    0    0  502  501  0.00000000000E+00  0.00000000000E+00  0.52322398975E+02  0.52322398975E+02  0.00000000000E+00 0. -1.
         21   -1    0    0  501  502 -0.00000000000E+00 -0.00000000000E+00 -0.15703342545E+04  0.15703342545E+04  0.00000000000E+00 0. -1.
         25    1    1    2    0    0  0.14340297333E+02  0.94113046117E+02 -0.15286014711E+03  0.21921253192E+03  0.12500000000E+03 0.  0.
         25    1    1    2    0    0  0.52609761564E+02 -0.84127225081E+01 -0.88819437763E+03  0.89852813721E+03  0.12500000000E+03 0.  0.
         25    1    1    2    0    0 -0.66950058897E+02 -0.85700323608E+02 -0.47695733078E+03  0.50491598434E+03  0.12500000000E+03 0.  0.
</event>
<event>
 5    0  0.5568866E-005  0.2724510E+03  0.7546771E-02  0.1099885E+00
         21   -1    0    0  502  501  0.00000000000E+00  0.00000000000E+00  0.15143657351E+04  0.15143657351E+04  0.00000000000E+00 0. -1.
         21   -1    0    0  501  502 -0.00000000000E+00 -0.00000000000E+00 -0.49016923628E+02  0.49016923628E+02  0.00000000000E+00 0. -1.
         25    1    1    2    0    0  0.90498274750E+02  0.74585552637E+02  0.26702977874E+03  0.31730560210E+03  0.12500000000E+03 0.  0.
         25    1    1    2    0    0  0.37666594845E+02 -0.94871137158E+02  0.55007848997E+03  0.57326315960E+03  0.12500000000E+03 0.  0.
         25    1    1    2    0    0 -0.12816486959E+03  0.20285584521E+02  0.64824054280E+03  0.67281389705E+03  0.12500000000E+03 0.  0.
</event>
<event>
 5    0  0.5568866E-005  0.3314135E+03  0.7546771E-02  0.1070513E+00
         21   -1    0    0  502  501  0.00000000000E+00  0.00000000000E+00  0.17858720063E+04  0.17858720063E+04  0.00000000000E+00 0. -1.
         21   -1    0    0  501  502 -0.00000000000E+00 -0.00000000000E+00 -0.61502111539E+02  0.61502111539E+02  0.00000000000E+00 0. -1.
         25    1    1    2    0    0 -0.21328175544E+03 -0.12626912352E+03  0.62327254197E+03  0.68229514166E+03  0.12500000000E+03 0.  0.
         25    1    1    2    0    0  0.84631085521E+02  0.10459361620E+02  0.29979430500E+03  0.33581757576E+03  0.12500000000E+03 0.  0.
         25    1    1    2    0    0  0.12865066992E+03  0.11580976190E+03  0.80130304784E+03  0.82926140047E+03  0.12500000000E+03 0.  0.
</event>
<event>
 5    0  0.5568866E-005  0.2487128E+03  0.7546771E-02  0.1114121E+00
         21   -1    0    0  502  501  0.00000000000E+00  0.00000000000E+00  0.12789076735E+04  0.12789076735E+04  0.00000000000E+00 0. -1.
         21   -1    0    0  501  502 -0.00000000000E+00 -0.00000000000E+00 -0.48367894363E+02  0.48367894363E+02  0.00000000000E+00 0. -1.
         25    1    1    2    0    0  0.99071571171E+02 -0.26577316610E+02  0.64878880608E+03  0.66863550973E+03  0.12500000000E+03 0.  0.
         25    1    1    2    0    0 -0.71460640943E+02 -0.49193404556E+02  0.21993771963E+03  0.26744011437E+03  0.12500000000E+03 0.  0.
         25    1    1    2    0    0 -0.27610930229E+02  0.75770721166E+02  0.36181325347E+03  0.39119994381E+03  0.12500000000E+03 0.  0.
</event>
<event>
 5    0  0.5568866E-005  0.2881576E+03  0.7546771E-02  0.1091315E+00
         21   -1    0    0  502  501  0.00000000000E+00  0.00000000000E+00  0.88609704402E+03  0.88609704402E+03  0.00000000000E+00 0. -1.
         21   -1    0    0  501  502 -0.00000000000E+00 -0.00000000000E+00 -0.93708497330E+02  0.93708497330E+02  0.00000000000E+00 0. -1.
         25    1    1    2    0    0 -0.32402465455E+02 -0.10672071785E+03  0.48992094141E+03  0.51777095343E+03  0.12500000000E+03 0.  0.
         25    1    1    2    0    0  0.52881369122E+02  0.13316605567E+03  0.83454092143E+02  0.20765168691E+03  0.12500000000E+03 0.  0.
         25    1    1    2    0    0 -0.20478903667E+02 -0.26445337814E+02  0.21901351314E+03  0.25438290101E+03  0.12500000000E+03 0.  0.
</event>
<event>
 5    0  0.6011190E-005  0.2895762E+03  0.7546771E-02  0.1090571E+00
         21   -1    0    0  502  501  0.00000000000E+00  0.00000000000E+00  0.16466000919E+03  0.16466000919E+03  0.00000000000E+00 0.  1.
         21   -1    0    0  501  502 -0.00000000000E+00 -0.00000000000E+00 -0.50925753750E+03  0.50925753750E+03  0.00000000000E+00 0.  1.
         25    1    1    2    0    0  0.13445847746E+01  0.38324082181E+02 -0.21519224247E+03  0.25180000874E+03  0.12500000000E+03 0.  0.
         25    1    1    2    0    0 -0.30646600952E+02 -0.15741872699E+03  0.17271600461E+01  0.20334171446E+03  0.12500000000E+03 0.  0.
         25    1    1    2    0    0  0.29302016178E+02  0.11909464481E+03 -0.13113244589E+03  0.21877582348E+03  0.12500000000E+03 0.  0.
</event>
<event>
 5    0  0.5568866E-005  0.6002754E+03  0.7546771E-02  0.9904835E-01
         21   -1    0    0  502  501  0.00000000000E+00  0.00000000000E+00  0.63137461269E+03  0.63137461269E+03  0.00000000000E+00 0.  1.
         21   -1    0    0  501  502 -0.00000000000E+00 -0.00000000000E+00 -0.57070808553E+03  0.57070808553E+03  0.00000000000E+00 0.  1.
         25    1    1    2    0    0  0.46726768544E+02  0.24392295151E+03 -0.34700314115E+03  0.44465489668E+03  0.12500000000E+03 0.  0.
         25    1    1    2    0    0 -0.17773011139E+03 -0.31515941046E+03  0.41254113371E+03  0.56278649016E+03  0.12500000000E+03 0.  0.
         25    1    1    2    0    0  0.13100334284E+03  0.71236458952E+02 -0.48714654049E+01  0.19464131138E+03  0.12500000000E+03 0.  0.
</event>
<event>
 5    0  0.5568866E-005  0.2444948E+03  0.7546771E-02  0.1116834E+00
         21   -1    0    0  502  501  0.00000000000E+00  0.00000000000E+00  0.66058695667E+02  0.66058695667E+02  0.00000000000E+00 0. -1.
         21   -1    0    0  501  502 -0.00000000000E+00 -0.00000000000E+00 -0.90491790100E+03  0.90491790100E+03  0.00000000000E+00 0. -1.
         25    1    1    2    0    0 -0.43004858774E+02  0.31729597030E+02 -0.43910695067E+03  0.45966955449E+03  0.12500000000E+03 0.  0.
         25    1    1    2    0    0 -0.51697189668E+02 -0.69773289970E+02 -0.24029583742E+03  0.28444331754E+03  0.12500000000E+03 0.  0.
         25    1    1    2    0    0  0.94702048442E+02  0.38043692941E+02 -0.15945641725E+03  0.22686372463E+03  0.12500000000E+03 0.  0.
</event>
<event>
 5    0  0.5568866E-005  0.2627988E+03  0.7546771E-02  0.1105473E+00
         21   -1    0    0  502  501  0.00000000000E+00  0.00000000000E+00  0.16836220678E+04  0.16836220678E+04  0.00000000000E+00 0. -1.
         21   -1    0    0  501  502 -0.00000000000E+00 -0.00000000000E+00 -0.41020603714E+02  0.41020603714E+02  0.00000000000E+00 0. -1.
         25    1    1    2    0    0 -0.72695637387E+02 -0.48701513783E+02  0.46178292368E+03  0.48633832025E+03  0.12500000000E+03 0.  0.
         25    1    1    2    0    0  0.77764498296E+02  0.91406334164E+02  0.99666911885E+03  0.10116208616E+04  0.12500000000E+03 0.  0.
         25    1    1    2    0    0 -0.50688609093E+01 -0.42704820381E+02  0.18414942155E+03  0.22668348968E+03  0.12500000000E+03 0.  0.
</event>
<event>
 5    0  0.5568866E-005  0.2481914E+03  0.7546771E-02  0.1114453E+00
         21   -1    0    0  502  501  0.00000000000E+00  0.00000000000E+00  0.72958610756E+02  0.72958610756E+02  0.00000000000E+00 0.  1.
         21   -1    0    0  501  502 -0.00000000000E+00 -0.00000000000E+00 -0.84430024640E+03  0.84430024640E+03  0.00000000000E+00 0.  1.
         25    1    1    2    0    0 -0.28300410554E+02 -0.43215481953E+02 -0.81087210779E+02  0.15769789748E+03  0.12500000000E+03 0.  0.
         25    1    1    2    0    0  0.10199840336E+03  0.17612413775E+02 -0.44221764045E+03  0.47105765351E+03  0.12500000000E+03 0.  0.
         25    1    1    2    0    0 -0.73697992810E+02  0.25603068177E+02 -0.24803678442E+03  0.28850330617E+03  0.12500000000E+03 0.  0.
</event>
<event>
 5    0  0.5568866E-005  0.2861197E+03  0.7546771E-02  0.1092393E+00
         21   -1    0    0  502  501  0.00000000000E+00  0.00000000000E+00  0.13938272553E+04  0.13938272553E+04  0.00000000000E+00 0. -1.
         21   -1    0    0  501  502 -0.00000000000E+00 -0.00000000000E+00 -0.58733579906E+02  0.58733579906E+02  0.00000000000E+00 0. -1.
         25    1    1    2    0    0  0.11308720413E+03 -0.17060737855E+02  0.18996480637E+03  0.25454157258E+03  0.12500000000E+03 0.  0.
         25    1    1    2    0    0 -0.86343316252E+02  0.82730875162E+02  0.35472975806E+03  0.39466158569E+03  0.12500000000E+03 0.  0.
         25    1    1    2    0    0 -0.26743887878E+02 -0.65670137307E+02  0.79039911095E+03  0.80335767692E+03  0.12500000000E+03 0.  0.
</event>
<event>
 5    0  0.5568866E-005  0.2670266E+03  0.7546771E-02  0.1102994E+00
         21   -1    0    0  502  501  0.00000000000E+00  0.00000000000E+00  0.65283267345E+03  0.65283267345E+03  0.00000000000E+00 0.  1.
         21   -1    0    0  501  502 -0.00000000000E+00 -0.00000000000E+00 -0.10922123573E+03  0.10922123573E+03  0.00000000000E+00 0.  1.
         25    1    1    2    0    0 -0.98232263056E+02  0.43614221597E+02  0.15253431262E+03  0.22459629195E+03  0.12500000000E+03 0.  0.
         25    1    1    2    0    0  0.30599509572E+02  0.69505221934E+02  0.30110946091E+03  0.33475246573E+03  0.12500000000E+03 0.  0.
         25    1    1    2    0    0  0.67632753483E+02 -0.11311944353E+03  0.89967664185E+02  0.20270515151E+03  0.12500000000E+03 0.  0.
</event>
<event>
 5    0  0.5568866E-005  0.5219848E+03  0.7546771E-02  0.1008195E+00
         21   -1    0    0  502  501  0.00000000000E+00  0.00000000000E+00  0.63333831643E+03  0.63333831643E+03  0.00000000000E+00 0. -1.
         21   -1    0    0  501  502 -0.00000000000E+00 -0.00000000000E+00 -0.43020941479E+03  0.43020941479E+03  0.00000000000E+00 0. -1.
         25    1    1    2    0    0 -0.17479584188E+03 -0.34121517349E+03  0.17392470915E+03  0.43915394273E+03  0.12500000000E+03 0.  0.
         25    1    1    2    0    0  0.18758229138E+03  0.40049694498E+03 -0.53543174754E+02  0.46268433142E+03  0.12500000000E+03 0.  0.
         25    1    1    2    0    0 -0.12786449501E+02 -0.59281771486E+02  0.82747367239E+02  0.16170945707E+03  0.12500000000E+03 0.  0.
</event>
<event>
 5    0  0.5568866E-005  0.4713817E+03  0.7546771E-02  0.1021531E+00
         21   -1    0    0  502  501  0.00000000000E+00  0.00000000000E+00  0.15054733930E+04  0.15054733930E+04  0.00000000000E+00 0.  1.
         21   -1    0    0  501  502 -0.00000000000E+00 -0.00000000000E+00 -0.14759526722E+03  0.14759526722E+03  0.00000000000E+00 0.  1.
         25    1    1    2    0    0 -0.55336429759E+02 -0.12871505557E+03  0.13853831692E+03  0.23333999066E+03  0.12500000000E+03 0.  0.
         25    1    1    2    0    0 -0.21343423450E+03  0.29683116148E+03  0.63852610347E+03  0.74632666822E+03  0.12500000000E+03 0.  0.
         25    1    1    2    0    0  0.26877066426E+03 -0.16811610591E+03  0.58081370536E+03  0.67340200131E+03  0.12500000000E+03 0.  0.
</event>
<event>
 5    0  0.5568866E-005  0.3993488E+03  0.7546771E-02  0.1044005E+00
         21   -1    0    0  502  501  0.00000000000E+00  0.00000000000E+00  0.28665654047E+03  0.28665654047E+03  0.00000000000E+00 0.  1.
         21   -1    0    0  501  502 -0.00000000000E+00 -0.00000000000E+00 -0.55634349803E+03  0.55634349803E+03  0.00000000000E+00 0.  1.
         25    1    1    2    0    0 -0.17866082865E+03  0.68062396594E+02 -0.25943716406E+03  0.34566576866E+03  0.12500000000E+03 0.  0.
         25    1    1    2    0    0 -0.10860685584E+03 -0.43136135881E+02  0.47964728735E+02  0.17771266290E+03  0.12500000000E+03 0.  0.
         25    1    1    2    0    0  0.28726768449E+03 -0.24926260712E+02 -0.58214522229E+02  0.31962160694E+03  0.12500000000E+03 0.  0.
</event>
<event>
 5    0  0.5568866E-005  0.2123683E+03  0.7546771E-02  0.1139704E+00
         21   -1    0    0  502  501  0.00000000000E+00  0.00000000000E+00  0.10166858500E+03  0.10166858500E+03  0.00000000000E+00 0.  1.
         21   -1    0    0  501  502 -0.00000000000E+00 -0.00000000000E+00 -0.44360096634E+03  0.44360096634E+03  0.00000000000E+00 0.  1.
         25    1    1    2    0    0 -0.16418980142E+02 -0.45187238341E+02 -0.97387039457E+02  0.16559198312E+03  0.12500000000E+03 0.  0.
         25    1    1    2    0    0  0.10208430903E+02  0.68096821121E+02 -0.58386920540E+02  0.15419280657E+03  0.12500000000E+03 0.  0.
         25    1    1    2    0    0  0.62105492388E+01 -0.22909582781E+02 -0.18615842134E+03  0.22548476166E+03  0.12500000000E+03 0.  0.
</event>
<event>
 5    0  0.5568866E-005  0.2925707E+03  0.7546771E-02  0.1089015E+00
         21   -1    0    0  502  501  0.00000000000E+00  0.00000000000E+00  0.69638172015E+03  0.69638172015E+03  0.00000000000E+00 0. -1.
         21   -1    0    0  501  502 -0.00000000000E+00 -0.00000000000E+00 -0.12291764597E+03  0.12291764597E+03  0.00000000000E+00 0. -1.
         25    1    1    2    0    0 -0.44403070349E+01 -0.10587579012E+03  0.37886374797E+03  0.41278582677E+03  0.12500000000E+03 0.  0.
         25    1    1    2    0    0 -0.87402892948E+02  0.12880447923E+03  0.11935035505E+03  0.23259270585E+03  0.12500000000E+03 0.  0.
         25    1    1    2    0    0  0.91843199983E+02 -0.22928689105E+02  0.75249971161E+02  0.17392083350E+03  0.12500000000E+03 0.  0.
</event>
<event>
 5    0  0.5568866E-005  0.2552131E+03  0.7546771E-02  0.1110054E+00
         21   -1    0    0  502  501  0.00000000000E+00  0.00000000000E+00  0.11619051818E+03  0.11619051818E+03  0.00000000000E+00 0.  1.
         21   -1    0    0  501  502 -0.00000000000E+00 -0.00000000000E+00 -0.56057691044E+03  0.56057691044E+03  0.00000000000E+00 0.  1.
         25    1    1    2    0    0  0.21681710998E+02  0.59189345076E+02 -0.30179246735E+03  0.33268178265E+03  0.12500000000E+03 0.  0.
         25    1    1    2    0    0  0.39844039372E+02 -0.66713417697E+02 -0.37251416049E+01  0.14723146489E+03  0.12500000000E+03 0.  0.
         25    1    1    2    0    0 -0.61525750370E+02  0.75240726211E+01 -0.13886878331E+03  0.19685418107E+03  0.12500000000E+03 0.  0.
</event>
<event>
 5    0  0.5568866E-005  0.3126935E+03  0.7546771E-02  0.1079062E+00
         21   -1    0    0  502  501  0.00000000000E+00  0.00000000000E+00  0.51504468815E+03  0.51504468815E+03  0.00000000000E+00 0. -1.
         21   -1    0    0  501  502 -0.00000000000E+00 -0.00000000000E+00 -0.18984226231E+03  0.18984226231E+03  0.00000000000E+00 0. -1.
         25    1    1    2    0    0 -0.15074762479E+02  0.75889730394E+02  0.25507511184E+03  0.29440586326E+03  0.12500000000E+03 0.  0.
         25    1    1    2    0    0  0.14925564038E+02  0.11028609191E+02 -0.11494882856E+03  0.17082925941E+03  0.12500000000E+03 0.  0.
         25    1    1    2    0    0  0.14919844087E+00 -0.86918339584E+02  0.18507614256E+03  0.23965182779E+03  0.12500000000E+03 0.  0.
</event>
<event>
 5    0  0.5674892E-005  0.3019542E+03  0.7546771E-02  0.1084268E+00
         21   -1    0    0  502  501  0.00000000000E+00  0.00000000000E+00  0.17131030664E+03  0.17131030664E+03  0.00000000000E+00 0. -1.
         21   -1    0    0  501  502 -0.00000000000E+00 -0.00000000000E+00 -0.53222911291E+03  0.53222911291E+03  0.00000000000E+00 0. -1.
         25    1    1    2    0    0  0.53312750378E+02  0.14029247691E+03 -0.10480872076E+03  0.22166212211E+03  0.12500000000E+03 0.  0.
         25    1    1    2    0    0  0.66998401145E+02  0.22691910448E+02 -0.17254400908E+02  0.14465967962E+03  0.12500000000E+03 0.  0.
         25    1    1    2    0    0 -0.12031115152E+03 -0.16298438736E+03 -0.23885568461E+03  0.33721761783E+03  0.12500000000E+03 0.  0.
</event>
<event>
 5    0  0.5568866E-005  0.2464121E+03  0.7546771E-02  0.1115593E+00
         21   -1    0    0  502  501  0.00000000000E+00  0.00000000000E+00  0.83165142920E+03  0.83165142920E+03  0.00000000000E+00 0.  1.
         21   -1    0    0  501  502 -0.00000000000E+00 -0.00000000000E+00 -0.73010075147E+02  0.73010075147E+02  0.00000000000E+00 0.  1.
         25    1    1    2    0    0 -0.74091272268E+02 -0.23180779347E+02  0.13546949996E+03  0.20000962621E+03  0.12500000000E+03 0.  0.
         25    1    1    2    0    0  0.26972079869E+02  0.61261004505E+02  0.13026893890E+03  0.19254973437E+03  0.12500000000E+03 0.  0.
         25    1    1    2    0    0  0.47119192400E+02 -0.38080225158E+02  0.49290291520E+03  0.51210214377E+03  0.12500000000E+03 0.  0.
</event>
<event>
 5    0  0.5568866E-005  0.2393447E+03  0.7546771E-02  0.1120230E+00
         21   -1    0    0  502  501  0.00000000000E+00  0.00000000000E+00  0.20216720307E+03  0.20216720307E+03  0.00000000000E+00 0. -1.
         21   -1    0    0  501  502 -0.00000000000E+00 -0.00000000000E+00 -0.28335898974E+03  0.28335898974E+03  0.00000000000E+00 0. -1.
         25    1    1    2    0    0  0.86563451026E+01 -0.85327083508E+02  0.28616951242E+02  0.15427110354E+03  0.12500000000E+03 0.  0.
         25    1    1    2    0    0  0.48614980014E+02  0.17928483368E+02  0.11640000990E+02  0.13581360911E+03  0.12500000000E+03 0.  0.
         25    1    1    2    0    0 -0.57271325117E+02  0.67398600140E+02 -0.12144873890E+03  0.19544148015E+03  0.12500000000E+03 0.  0.
</event>
<event>
 5    0  0.5568866E-005  0.2767410E+03  0.7546771E-02  0.1097482E+00
         21   -1    0    0  502  501  0.00000000000E+00  0.00000000000E+00  0.16815278617E+04  0.16815278617E+04  0.00000000000E+00 0. -1.
         21   -1    0    0  501  502 -0.00000000000E+00 -0.00000000000E+00 -0.45545240382E+02  0.45545240382E+02  0.00000000000E+00 0. -1.
         25    1    1    2    0    0  0.11153813598E+03  0.72594338671E+02  0.48602869087E+03  0.51919127703E+03  0.12500000000E+03 0.  0.
         25    1    1    2    0    0 -0.43076945879E+02  0.70656078595E+02  0.31541336265E+03  0.34922556328E+03  0.12500000000E+03 0.  0.
         25    1    1    2    0    0 -0.68461190105E+02 -0.14325041727E+03  0.83454056776E+03  0.85865626175E+03  0.12500000000E+03 0.  0.
</event>
<event>
 5    0  0.5568866E-005  0.3627912E+03  0.7546771E-02  0.1057484E+00
         21   -1    0    0  502  501  0.00000000000E+00  0.00000000000E+00  0.25124502619E+03  0.25124502619E+03  0.00000000000E+00 0.  1.
         21   -1    0    0  501  502 -0.00000000000E+00 -0.00000000000E+00 -0.52386081719E+03  0.52386081719E+03  0.00000000000E+00 0.  1.
         25    1    1    2    0    0  0.13260733155E+03  0.89007652033E+02 -0.18461061630E+03  0.27425015251E+03  0.12500000000E+03 0.  0.
         25    1    1    2    0    0 -0.88289282426E+02 -0.91926862514E+02  0.14682610835E+03  0.23114595289E+03  0.12500000000E+03 0.  0.
         25    1    1    2    0    0 -0.44318049122E+02  0.29192104817E+01 -0.23483128305E+03  0.26970973799E+03  0.12500000000E+03 0.  0.
</event>
<event>
 5    0  0.5568866E-005  0.4682055E+03  0.7546771E-02  0.1022428E+00
         21   -1    0    0  502  501  0.00000000000E+00  0.00000000000E+00  0.39904851196E+03  0.39904851196E+03  0.00000000000E+00 0.  1.
         21   -1    0    0  501  502 -0.00000000000E+00 -0.00000000000E+00 -0.54934775248E+03  0.54934775248E+03  0.00000000000E+00 0. -1.
         25    1    1    2    0    0 -0.23820406576E+03 -0.13261248079E+03 -0.18535880888E+03  0.35257642439E+03  0.12500000000E+03 0.  0.
         25    1    1    2    0    0  0.33378849830E+03  0.19256486705E+03 -0.48188459435E+02  0.40797440759E+03  0.12500000000E+03 0.  0.
         25    1    1    2    0    0 -0.95584432547E+02 -0.59952386259E+02  0.83248027801E+02  0.18784543246E+03  0.12500000000E+03 0.  0.
</event>
<event>
 5    0  0.5568866E-005  0.2663269E+03  0.7546771E-02  0.1103400E+00
         21   -1    0    0  502  501  0.00000000000E+00  0.00000000000E+00  0.93147646994E+02  0.93147646994E+02  0.00000000000E+00 0.  1.
         21   -1    0    0  501  502 -0.00000000000E+00 -0.00000000000E+00 -0.76147915945E+03  0.76147915945E+03  0.00000000000E+00 0.  1.
         25    1    1    2    0    0 -0.22881561042E+02 -0.20890599472E+02 -0.20974930215E+03  0.24612954462E+03  0.12500000000E+03 0.  0.
         25    1    1    2    0    0  0.10890145351E+03  0.15736548988E+02 -0.42005306051E+03  0.45185920284E+03  0.12500000000E+03 0.  0.
         25    1    1    2    0    0 -0.86019892467E+02  0.51540504847E+01 -0.38529149791E+02  0.15663805898E+03  0.12500000000E+03 0.  0.
</event>
<event>
 5    0  0.5568866E-005  0.3863674E+03  0.7546771E-02  0.1048605E+00
         21   -1    0    0  502  501  0.00000000000E+00  0.00000000000E+00  0.37398842950E+03  0.37398842950E+03  0.00000000000E+00 0. -1.
         21   -1    0    0  501  502 -0.00000000000E+00 -0.00000000000E+00 -0.39915605402E+03  0.39915605402E+03  0.00000000000E+00 0. -1.
         25    1    1    2    0    0  0.10920876237E+03  0.26992104915E+03 -0.15535609095E+03  0.35290854559E+03  0.12500000000E+03 0.  0.
         25    1    1    2    0    0 -0.41763086000E+02 -0.74581002820E+02  0.13578169740E+02  0.15203896878E+03  0.12500000000E+03 0.  0.
         25    1    1    2    0    0 -0.67445676368E+02 -0.19534004633E+03  0.11661029669E+03  0.26819696914E+03  0.12500000000E+03 0.  0.
</event>
<event>
 5    0  0.5568866E-005  0.2922615E+03  0.7546771E-02  0.1089174E+00
         21   -1    0    0  502  501  0.00000000000E+00  0.00000000000E+00  0.91183082179E+02  0.91183082179E+02  0.00000000000E+00 0.  1.
         21   -1    0    0  501  502 -0.00000000000E+00 -0.00000000000E+00 -0.93676131676E+03  0.93676131676E+03  0.00000000000E+00 0.  1.
         25    1    1    2    0    0  0.96416607048E+01  0.12713801904E+03 -0.16401391238E+03  0.24245123419E+03  0.12500000000E+03 0.  0.
         25    1    1    2    0    0  0.37833388095E+01 -0.18510238782E+03 -0.26536013426E+03  0.34686915182E+03  0.12500000000E+03 0.  0.
         25    1    1    2    0    0 -0.13424999514E+02  0.57964368773E+02 -0.41620418793E+03  0.43862401292E+03  0.12500000000E+03 0.  0.
</event>
<event>
 5    0  0.5581881E-005  0.3531016E+03  0.7546771E-02  0.1061349E+00
         21   -1    0    0  502  501  0.00000000000E+00  0.00000000000E+00  0.42459630593E+03  0.42459630593E+03  0.00000000000E+00 0.  1.
         21   -1    0    0  501  502 -0.00000000000E+00 -0.00000000000E+00 -0.29364529547E+03  0.29364529547E+03  0.00000000000E+00 0.  1.
         25    1    1    2    0    0  0.11151203042E+03  0.11203652758E+03  0.13170220500E+03  0.24074382078E+03  0.12500000000E+03 0.  0.
         25    1    1    2    0    0 -0.12336200432E+03 -0.12185732742E+02  0.16893087757E+03  0.24398630615E+03  0.12500000000E+03 0.  0.
         25    1    1    2    0    0  0.11849973898E+02 -0.99850794843E+02 -0.16968207211E+03  0.23351147446E+03  0.12500000000E+03 0.  0.
</event>
<event>
 5    0  0.5568866E-005  0.2917406E+03  0.7546771E-02  0.1089444E+00
         21   -1    0    0  502  501  0.00000000000E+00  0.00000000000E+00  0.21904079566E+03  0.21904079566E+03  0.00000000000E+00 0. -1.
         21   -1    0    0  501  502 -0.00000000000E+00 -0.00000000000E+00 -0.38856945638E+03  0.38856945638E+03  0.00000000000E+00 0. -1.
         25    1    1    2    0    0 -0.39275142320E+01  0.11172183200E+03 -0.19329058289E+03  0.25589732814E+03  0.12500000000E+03 0.  0.
         25    1    1    2    0    0  0.48681295165E+02 -0.45072546606E+02  0.11062459197E+03  0.17962239088E+03  0.12500000000E+03 0.  0.
         25    1    1    2    0    0 -0.44753780933E+02 -0.66649285391E+02 -0.86862669804E+02  0.17209053302E+03  0.12500000000E+03 0.  0.
</event>
<event>
 5    0  0.5568866E-005  0.3582716E+03  0.7546771E-02  0.1059270E+00
         21   -1    0    0  502  501  0.00000000000E+00  0.00000000000E+00  0.20146257147E+04  0.20146257147E+04  0.00000000000E+00 0.  1.
         21   -1    0    0  501  502 -0.00000000000E+00 -0.00000000000E+00 -0.63713329062E+02  0.63713329062E+02  0.00000000000E+00 0.  1.
         25    1    1    2    0    0  0.10538810929E+03  0.53263414935E+02  0.23431621140E+03  0.29064193069E+03  0.12500000000E+03 0.  0.
         25    1    1    2    0    0 -0.14368729947E+03  0.15186064432E+03  0.10563151763E+04  0.10840361834E+04  0.12500000000E+03 0.  0.
         25    1    1    2    0    0  0.38299190176E+02 -0.20512405926E+03  0.66028099796E+03  0.70366092965E+03  0.12500000000E+03 0.  0.
</event>
<event>
 5    0  0.5568866E-005  0.4267735E+03  0.7546771E-02  0.1034884E+00
         21   -1    0    0  502  501  0.00000000000E+00  0.00000000000E+00  0.25473486177E+03  0.25473486177E+03  0.00000000000E+00 0. -1.
         21   -1    0    0  501  502 -0.00000000000E+00 -0.00000000000E+00 -0.71500078486E+03  0.71500078486E+03  0.00000000000E+00 0. -1.
         25    1    1    2    0    0 -0.24487489447E+03 -0.57246792936E+02 -0.49382874969E+01  0.28087416386E+03  0.12500000000E+03 0.  0.
         25    1    1    2    0    0  0.17204549400E+03  0.19659611414E+03 -0.37188584277E+03  0.47135312045E+03  0.12500000000E+03 0.  0.
         25    1    1    2    0    0  0.72829400461E+02 -0.13934932121E+03 -0.83441792829E+02  0.21750836233E+03  0.12500000000E+03 0.  0.
</event>
<event>
 5    0  0.5568866E-005  0.3359817E+03  0.7546771E-02  0.1068520E+00
         21   -1    0    0  502  501  0.00000000000E+00  0.00000000000E+00  0.17754190305E+03  0.17754190305E+03  0.00000000000E+00 0.  1.
         21   -1    0    0  501  502 -0.00000000000E+00 -0.00000000000E+00 -0.63581454633E+03  0.63581454633E+03  0.00000000000E+00 0.  1.
         25    1    1    2    0    0 -0.98940394429E+02  0.72224246512E+02 -0.10323678310E+03  0.20319541535E+03  0.12500000000E+03 0.  0.
         25    1    1    2    0    0 -0.12519059561E+03  0.67033695080E+02 -0.21484747937E+03  0.28627022356E+03  0.12500000000E+03 0.  0.
         25    1    1    2    0    0  0.22413099004E+03 -0.13925794159E+03 -0.14018838082E+03  0.32389081047E+03  0.12500000000E+03 0.  0.
</event>
<event>
 5    0  0.5568866E-005  0.2353245E+03  0.7546771E-02  0.1122947E+00
         21   -1    0    0  502  501  0.00000000000E+00  0.00000000000E+00  0.76978402772E+02  0.76978402772E+02  0.00000000000E+00 0. -1.
         21   -1    0    0  501  502 -0.00000000000E+00 -0.00000000000E+00 -0.71939170543E+03  0.71939170543E+03  0.00000000000E+00 0. -1.
         25    1    1    2    0    0  0.82901031705E+02 -0.83182478347E+02 -0.15385123403E+03  0.23040639743E+03  0.12500000000E+03 0.  0.
         25    1    1    2    0    0 -0.23105302819E+02  0.91496257324E+01 -0.19383861482E+03  0.23198271329E+03  0.12500000000E+03 0.  0.
         25    1    1    2    0    0 -0.59795728886E+02  0.74032852615E+02 -0.29472345380E+03  0.33398099748E+03  0.12500000000E+03 0.  0.
</event>
<event>
 5    0  0.5568866E-005  0.3410979E+03  0.7546771E-02  0.1066329E+00
         21   -1    0    0  502  501  0.00000000000E+00  0.00000000000E+00  0.12539993306E+04  0.12539993306E+04  0.00000000000E+00 0. -1.
         21   -1    0    0  501  502 -0.00000000000E+00 -0.00000000000E+00 -0.92781385792E+02  0.92781385792E+02  0.00000000000E+00 0. -1.
         25    1    1    2    0    0  0.10466701552E+03 -0.18897453170E+03  0.80014303004E+03  0.83816491593E+03  0.12500000000E+03 0.  0.
         25    1    1    2    0    0 -0.42032034699E+02  0.15969826950E+03  0.26557188886E+03  0.33678428908E+03  0.12500000000E+03 0.  0.
         25    1    1    2    0    0 -0.62634980820E+02  0.29276262201E+02  0.95503025933E+02  0.17183151141E+03  0.12500000000E+03 0.  0.
</event>
<event>
 5    0  0.5568866E-005  0.3069099E+03  0.7546771E-02  0.1081837E+00
         21   -1    0    0  502  501  0.00000000000E+00  0.00000000000E+00  0.12340108120E+03  0.12340108120E+03  0.00000000000E+00 0. -1.
         21   -1    0    0  501  502 -0.00000000000E+00 -0.00000000000E+00 -0.76331314502E+03  0.76331314502E+03  0.00000000000E+00 0. -1.
         25    1    1    2    0    0  0.84603102548E+02 -0.53581530970E+02  0.19797993951E+02  0.16138657313E+03  0.12500000000E+03 0.  0.
         25    1    1    2    0    0 -0.10571162020E+03  0.49390042554E+02 -0.43311963481E+03  0.46565216740E+03  0.12500000000E+03 0.  0.
         25    1    1    2    0    0  0.21108517651E+02  0.41914884162E+01 -0.22659042296E+03  0.25967548569E+03  0.12500000000E+03 0.  0.
</event>
<event>
 5    0  0.5568866E-005  0.2870134E+03  0.7546771E-02  0.1091919E+00
         21   -1    0    0  502  501  0.00000000000E+00  0.00000000000E+00  0.84286229301E+03  0.84286229301E+03  0.00000000000E+00 0.  1.
         21   -1    0    0  501  502 -0.00000000000E+00 -0.00000000000E+00 -0.97734445919E+02  0.97734445919E+02  0.00000000000E+00 0.  1.
         25    1    1    2    0    0 -0.65363450010E+01 -0.16885319170E+03  0.47001495136E+03  0.51487200220E+03  0.12500000000E+03 0.  0.
         25    1    1    2    0    0 -0.66550778177E+01  0.14805152794E+02  0.10909823111E+03  0.16670604860E+03  0.12500000000E+03 0.  0.
         25    1    1    2    0    0  0.13191422819E+02  0.15404803890E+03  0.16601466462E+03  0.25901868812E+03  0.12500000000E+03 0.  0.
</event>
<event>
 5    0  0.5568866E-005  0.2968139E+03  0.7546771E-02  0.1086844E+00
         21   -1    0    0  502  501  0.00000000000E+00  0.00000000000E+00  0.14121926233E+03  0.14121926233E+03  0.00000000000E+00 0. -1.
         21   -1    0    0  501  502 -0.00000000000E+00 -0.00000000000E+00 -0.62384192624E+03  0.62384192624E+03  0.00000000000E+00 0. -1.
         25    1    1    2    0    0 -0.14903881080E+03 -0.36956682762E+02 -0.74339044980E+02  0.21149387020E+03  0.12500000000E+03 0.  0.
         25    1    1    2    0    0  0.10936088116E+03 -0.74119638072E+02 -0.11985165429E+03  0.21781400807E+03  0.12500000000E+03 0.  0.
         25    1    1    2    0    0  0.39677929635E+02  0.11107632083E+03 -0.28843196464E+03  0.33575331030E+03  0.12500000000E+03 0.  0.
</event>
<event>
 5    0  0.5568866E-005  0.3114104E+03  0.7546771E-02  0.1079672E+00
         21   -1    0    0  502  501  0.00000000000E+00  0.00000000000E+00  0.10920100534E+03  0.10920100534E+03  0.00000000000E+00 0. -1.
         21   -1    0    0  501  502 -0.00000000000E+00 -0.00000000000E+00 -0.88805445053E+03  0.88805445053E+03  0.00000000000E+00 0. -1.
         25    1    1    2    0    0 -0.51402923084E+02  0.39465134670E+02 -0.91599384991E+02  0.16797382143E+03  0.12500000000E+03 0.  0.
         25    1    1    2    0    0 -0.16421711024E+03  0.19944555225E+02 -0.32745855884E+03  0.38758115581E+03  0.12500000000E+03 0.  0.
         25    1    1    2    0    0  0.21562003333E+03 -0.59409689896E+02 -0.35979550135E+03  0.44170047863E+03  0.12500000000E+03 0.  0.
</event>
<event>
 5    0  0.5568866E-005  0.4569858E+03  0.7546771E-02  0.1025659E+00
         21   -1    0    0  502  501  0.00000000000E+00  0.00000000000E+00  0.23555893603E+04  0.23555893603E+04  0.00000000000E+00 0.  1.
         21   -1    0    0  501  502 -0.00000000000E+00 -0.00000000000E+00 -0.88655542084E+02  0.88655542084E+02  0.00000000000E+00 0.  1.
         25    1    1    2    0    0  0.41765994013E+02  0.29431200589E+03  0.11725014874E+04  0.12160381133E+04  0.12500000000E+03 0.  0.
         25    1    1    2    0    0 -0.11868894563E+03 -0.28398515639E+03  0.40779170505E+03  0.52597881095E+03  0.12500000000E+03 0.  0.
         25    1    1    2    0    0  0.76922951616E+02 -0.10326849503E+02  0.68664062570E+03  0.70222797805E+03  0.12500000000E+03 0.  0.
</event>
<event>
 5    0  0.5568866E-005  0.2872936E+03  0.7546771E-02  0.1091771E+00
         21   -1    0    0  502  501  0.00000000000E+00  0.00000000000E+00  0.12519151782E+04  0.12519151782E+04  0.00000000000E+00 0. -1.
         21   -1    0    0  501  502 -0.00000000000E+00 -0.00000000000E+00 -0.65929057866E+02  0.65929057866E+02  0.00000000000E+00 0. -1.
         25    1    1    2    0    0  0.42903668618E+02  0.87717069718E+02  0.22808291388E+03  0.27781617071E+03  0.12500000000E+03 0.  0.
         25    1    1    2    0    0 -0.10256858303E+03 -0.69020468879E+02  0.83687779846E+03  0.85514536127E+03  0.12500000000E+03 0.  0.
         25    1    1    2    0    0  0.59664914408E+02 -0.18696600839E+02  0.12102540801E+03  0.18488270411E+03  0.12500000000E+03 0.  0.
</event>
<event>
 5    0  0.5568866E-005  0.2617690E+03  0.7546771E-02  0.1106085E+00
         21   -1    0    0  502  501  0.00000000000E+00  0.00000000000E+00  0.30754467301E+03  0.30754467301E+03  0.00000000000E+00 0.  1.
         21   -1    0    0  501  502 -0.00000000000E+00 -0.00000000000E+00 -0.22280675718E+03  0.22280675718E+03  0.00000000000E+00 0.  1.
         25    1    1    2    0    0  0.42275257476E+02 -0.10770696430E+03  0.67864100801E+02  0.18335354845E+03  0.12500000000E+03 0.  0.
         25    1    1    2    0    0 -0.86008184852E+02 -0.16112163034E+02  0.54149843184E+02  0.16190804543E+03  0.12500000000E+03 0.  0.
         25    1    1    2    0    0  0.43732927376E+02  0.12381912733E+03 -0.37276028156E+02  0.18508983631E+03  0.12500000000E+03 0.  0.
</event>
<event>
 5    0  0.5568866E-005  0.3560556E+03  0.7546771E-02  0.1060157E+00
         21   -1    0    0  502  501  0.00000000000E+00  0.00000000000E+00  0.38396899789E+03  0.38396899789E+03  0.00000000000E+00 0.  1.
         21   -1    0    0  501  502 -0.00000000000E+00 -0.00000000000E+00 -0.33017137934E+03  0.33017137934E+03  0.00000000000E+00 0.  1.
         25    1    1    2    0    0 -0.20992492434E+03  0.18805921608E+03  0.84383215131E+02  0.31965648688E+03  0.12500000000E+03 0.  0.
         25    1    1    2    0    0  0.17347155202E+03 -0.12337227970E+03 -0.33143157910E+02  0.24907141079E+03  0.12500000000E+03 0.  0.
         25    1    1    2    0    0  0.36453372320E+02 -0.64686936377E+02  0.25575613281E+01  0.14541247956E+03  0.12500000000E+03 0.  0.
</event>
<event>
 5    0  0.5568866E-005  0.4629769E+03  0.7546771E-02  0.1023921E+00
         21   -1    0    0  502  501  0.00000000000E+00  0.00000000000E+00  0.26991153008E+03  0.26991153008E+03  0.00000000000E+00 0. -1.
         21   -1    0    0  501  502 -0.00000000000E+00 -0.00000000000E+00 -0.79414032591E+03  0.79414032591E+03  0.00000000000E+00 0. -1.
         25    1    1    2    0    0 -0.34726665626E+02 -0.31911924920E+03 -0.31415275920E+03  0.46621882483E+03  0.12500000000E+03 0.  0.
         25    1    1    2    0    0 -0.50618691300E+02  0.24339615589E+03  0.54703100532E+02  0.28358661784E+03  0.12500000000E+03 0.  0.
         25    1    1    2    0    0  0.85345356926E+02  0.75723093309E+02 -0.26477913717E+03  0.31424641333E+03  0.12500000000E+03 0.  0.
</event>
<event>
 5    0  0.5568866E-005  0.2659151E+03  0.7546771E-02  0.1103641E+00
         21   -1    0    0  502  501  0.00000000000E+00  0.00000000000E+00  0.21767337088E+03  0.21767337088E+03  0.00000000000E+00 0.  1.
         21   -1    0    0  501  502 -0.00000000000E+00 -0.00000000000E+00 -0.32484829348E+03  0.32484829348E+03  0.00000000000E+00 0.  1.
         25    1    1    2    0    0 -0.31059679981E+02  0.12991813170E+03 -0.20200262902E+02  0.18405563095E+03  0.12500000000E+03 0.  0.
         25    1    1    2    0    0 -0.44370402414E+02  0.56070978425E+01  0.16858738723E+02  0.13382596619E+03  0.12500000000E+03 0.  0.
         25    1    1    2    0    0  0.75430082395E+02 -0.13552522954E+03 -0.10383339842E+03  0.22464006722E+03  0.12500000000E+03 0.  0.
</event>
<event>
 5    0  0.5568866E-005  0.2963922E+03  0.7546771E-02  0.1087058E+00
         21   -1    0    0  502  501  0.00000000000E+00  0.00000000000E+00  0.12446730259E+03  0.12446730259E+03  0.00000000000E+00 0.  1.
         21   -1    0    0  501  502 -0.00000000000E+00 -0.00000000000E+00 -0.70579451817E+03  0.70579451817E+03  0.00000000000E+00 0.  1.
         25    1    1    2    0    0  0.37335104111E+02 -0.16750760034E+03 -0.36721314626E+03  0.42417355051E+03  0.12500000000E+03 0.  0.
         25    1    1    2    0    0  0.31343251740E+02  0.78444682979E+01 -0.60439625930E+02  0.14255484381E+03  0.12500000000E+03 0.  0.
         25    1    1    2    0    0 -0.68678355851E+02  0.15966313204E+03 -0.15367444339E+03  0.26353342643E+03  0.12500000000E+03 0.  0.
</event>
<event>
 5    0  0.5568866E-005  0.3049892E+03  0.7546771E-02  0.1082773E+00
         21   -1    0    0  502  501  0.00000000000E+00  0.00000000000E+00  0.50059533358E+03  0.50059533358E+03  0.00000000000E+00 0. -1.
         21   -1    0    0  501  502 -0.00000000000E+00 -0.00000000000E+00 -0.18581563075E+03  0.18581563075E+03  0.00000000000E+00 0. -1.
         25    1    1    2    0    0  0.74730730742E+02  0.16339447240E+03  0.14545761327E+02  0.21936046796E+03  0.12500000000E+03 0.  0.
         25    1    1    2    0    0  0.49968623227E+02 -0.39753101117E+02  0.14191884429E+03  0.19960744154E+03  0.12500000000E+03 0.  0.
         25    1    1    2    0    0 -0.12469935397E+03 -0.12364137129E+03  0.15831509721E+03  0.26744305483E+03  0.12500000000E+03 0.  0.
</event>
<event>
 5    0  0.5568866E-005  0.2472638E+03  0.7546771E-02  0.1115046E+00
         21   -1    0    0  502  501  0.00000000000E+00  0.00000000000E+00  0.71593052358E+02  0.71593052358E+02  0.00000000000E+00 0.  1.
         21   -1    0    0  501  502 -0.00000000000E+00 -0.00000000000E+00 -0.85398463494E+03  0.85398463494E+03  0.00000000000E+00 0.  1.
         25    1    1    2    0    0  0.26729579125E+02  0.10195038468E+02 -0.33396228683E+03  0.35773484347E+03  0.12500000000E+03 0.  0.
         25    1    1    2    0    0 -0.93401812677E+02 -0.26417078829E+02 -0.37591025549E+03  0.40786674398E+03  0.12500000000E+03 0.  0.
         25    1    1    2    0    0  0.66672233552E+02  0.16222040361E+02 -0.72519040264E+02  0.15997609984E+03  0.12500000000E+03 0.  0.
</event>
<event>
 5    0  0.5568866E-005  0.3751275E+03  0.7546771E-02  0.1052749E+00
         21   -1    0    0  502  501  0.00000000000E+00  0.00000000000E+00  0.26629968455E+03  0.26629968455E+03  0.00000000000E+00 0. -1.
         21   -1    0    0  501  502 -0.00000000000E+00 -0.00000000000E+00 -0.52842964169E+03  0.52842964169E+03  0.00000000000E+00 0. -1.
         25    1    1    2    0    0 -0.29667829311E+03  0.62146746900E+02 -0.13027093289E+03  0.35281120123E+03  0.12500000000E+03 0.  0.
         25    1    1    2    0    0  0.22884569864E+03 -0.32241466961E+00 -0.46405221344E+02  0.26485638053E+03  0.12500000000E+03 0.  0.
         25    1    1    2    0    0  0.67832594467E+02 -0.61824332230E+02 -0.85453802905E+02  0.17706174448E+03  0.12500000000E+03 0.  0.
</event>
<event>
 5    0  0.5568866E-005  0.4681781E+03  0.7546771E-02  0.1022436E+00
         21   -1    0    0  502  501  0.00000000000E+00  0.00000000000E+00  0.98327805823E+02  0.98327805823E+02  0.00000000000E+00 0.  1.
         21   -1    0    0  501  502 -0.00000000000E+00 -0.00000000000E+00 -0.22291832663E+04  0.22291832663E+04  0.00000000000E+00 0.  1.
         25    1    1    2    0    0 -0.16177645914E+03 -0.26542339928E+03 -0.81067123153E+03  0.87717389909E+03  0.12500000000E+03 0.  0.
         25    1    1    2    0    0  0.17626720137E+03 -0.70406656484E+01 -0.21416064433E+03  0.30431805538E+03  0.12500000000E+03 0.  0.
         25    1    1    2    0    0 -0.14490742231E+02  0.27246406493E+03 -0.11060235846E+04  0.11460191176E+04  0.12500000000E+03 0.  0.
</event>
<event>
 5    0  0.5568866E-005  0.4305500E+03  0.7546771E-02  0.1033686E+00
         21   -1    0    0  502  501  0.00000000000E+00  0.00000000000E+00  0.18728577277E+04  0.18728577277E+04  0.00000000000E+00 0.  1.
         21   -1    0    0  501  502 -0.00000000000E+00 -0.00000000000E+00 -0.98978858963E+02  0.98978858963E+02  0.00000000000E+00 0.  1.
         25    1    1    2    0    0  0.18145922286E+02 -0.21444999961E+03  0.19060314304E+03  0.31348466464E+03  0.12500000000E+03 0.  0.
         25    1    1    2    0    0  0.37490487733E+02  0.29125436704E+03  0.12482305943E+04  0.12883863006E+04  0.12500000000E+03 0.  0.
         25    1    1    2    0    0 -0.55636410019E+02 -0.76804367430E+02  0.33504513145E+03  0.36996562149E+03  0.12500000000E+03 0.  0.
</event>
<event>
 5    0  0.5568866E-005  0.1127797E+04  0.7546771E-02  0.9178514E-01
         21   -1    0    0  502  501  0.00000000000E+00  0.00000000000E+00  0.18148071533E+04  0.18148071533E+04  0.00000000000E+00 0.  1.
         21   -1    0    0  501  502 -0.00000000000E+00 -0.00000000000E+00 -0.70086078433E+03  0.70086078433E+03  0.00000000000E+00 0.  1.
         25    1    1    2    0    0 -0.36684396813E+03  0.73824659753E+03  0.10495440367E+04  0.13404291181E+04  0.12500000000E+03 0.  0.
         25    1    1    2    0    0 -0.18958721349E+03 -0.42238937471E+03  0.18172624613E+03  0.51284064184E+03  0.12500000000E+03 0.  0.
         25    1    1    2    0    0  0.55643118162E+03 -0.31585722282E+03 -0.11732391382E+03  0.66239817771E+03  0.12500000000E+03 0.  0.
</event>
<event>
 5    0  0.5568866E-005  0.4112516E+03  0.7546771E-02  0.1039952E+00
         21   -1    0    0  502  501  0.00000000000E+00  0.00000000000E+00  0.24134428129E+03  0.24134428129E+03  0.00000000000E+00 0.  1.
         21   -1    0    0  501  502 -0.00000000000E+00 -0.00000000000E+00 -0.70077444330E+03  0.70077444330E+03  0.00000000000E+00 0.  1.
         25    1    1    2    0    0 -0.24295711554E+03  0.23370513415E+01 -0.60617379870E+02  0.27988048975E+03  0.12500000000E+03 0.  0.
         25    1    1    2    0    0  0.33085104459E+02  0.10648313175E+03 -0.35326728456E+03  0.39096810077E+03  0.12500000000E+03 0.  0.
         25    1    1    2    0    0  0.20987201108E+03 -0.10882018309E+03 -0.45545497591E+02  0.27127013406E+03  0.12500000000E+03 0.  0.
</event>
<event>
 5    0  0.5568866E-005  0.2985375E+03  0.7546771E-02  0.1085974E+00
         21   -1    0    0  502  501  0.00000000000E+00  0.00000000000E+00  0.81391238126E+02  0.81391238126E+02  0.00000000000E+00 0. -1.
         21   -1    0    0  501  502 -0.00000000000E+00 -0.00000000000E+00 -0.10950153140E+04  0.10950153140E+04  0.00000000000E+00 0. -1.
         25    1    1    2    0    0  0.50201918735E+01  0.14650616355E+03 -0.21448619070E+03  0.28830293839E+03  0.12500000000E+03 0.  0.
         25    1    1    2    0    0  0.11263930260E+03 -0.57601034257E+02 -0.51149644620E+03  0.54153403042E+03  0.12500000000E+03 0.  0.
         25    1    1    2    0    0 -0.11765949447E+03 -0.88905129290E+02 -0.28764143894E+03  0.34656958327E+03  0.12500000000E+03 0.  0.
</event>
<event>
 5    0  0.5568866E-005  0.4627857E+03  0.7546771E-02  0.1023976E+00
         21   -1    0    0  502  501  0.00000000000E+00  0.00000000000E+00  0.54906553906E+03  0.54906553906E+03  0.00000000000E+00 0.  1.
         21   -1    0    0  501  502 -0.00000000000E+00 -0.00000000000E+00 -0.39006382335E+03  0.39006382335E+03  0.00000000000E+00 0.  1.
         25    1    1    2    0    0 -0.19473284713E+03 -0.18775794370E+03  0.56248930729E+02  0.30325380357E+03  0.12500000000E+03 0.  0.
         25    1    1    2    0    0  0.33762204153E+03  0.14023576664E+02  0.42303247238E+01  0.36031680404E+03  0.12500000000E+03 0.  0.
         25    1    1    2    0    0 -0.14288919440E+03  0.17373436704E+03  0.98522460258E+02  0.27555875479E+03  0.12500000000E+03 0.  0.
</event>
<event>
 5    0  0.5568866E-005  0.2527658E+03  0.7546771E-02  0.1111569E+00
         21   -1    0    0  502  501  0.00000000000E+00  0.00000000000E+00  0.76628888905E+03  0.76628888905E+03  0.00000000000E+00 0. -1.
         21   -1    0    0  501  502 -0.00000000000E+00 -0.00000000000E+00 -0.83376555873E+02  0.83376555873E+02  0.00000000000E+00 0. -1.
         25    1    1    2    0    0 -0.27574059716E+02  0.12184065144E+02  0.39826171855E+02  0.13461019344E+03  0.12500000000E+03 0.  0.
         25    1    1    2    0    0  0.57224214003E+01 -0.86808190480E+02  0.42908109108E+03  0.45530648004E+03  0.12500000000E+03 0.  0.
         25    1    1    2    0    0  0.21851638316E+02  0.74624125335E+02  0.21400507024E+03  0.25974877145E+03  0.12500000000E+03 0.  0.
</event>
<event>
 5    0  0.5568866E-005  0.2862426E+03  0.7546771E-02  0.1092327E+00
         21   -1    0    0  502  501  0.00000000000E+00  0.00000000000E+00  0.44119035004E+02  0.44119035004E+02  0.00000000000E+00 0.  1.
         21   -1    0    0  501  502 -0.00000000000E+00 -0.00000000000E+00 -0.18571311139E+04  0.18571311139E+04  0.00000000000E+00 0.  1.
         25    1    1    2    0    0 -0.12238980240E+03 -0.61935704418E+02 -0.10118593076E+04  0.10287368728E+04  0.12500000000E+03 0.  0.
         25    1    1    2    0    0  0.10362214870E+03  0.67986434184E+02 -0.65941232857E+03  0.68250225201E+03  0.12500000000E+03 0.  0.
         25    1    1    2    0    0  0.18767653701E+02 -0.60507297663E+01 -0.14174044282E+03  0.19001102412E+03  0.12500000000E+03 0.  0.
</event>
<event>
 5    0  0.5568866E-005  0.3402360E+03  0.7546771E-02  0.1066695E+00
         21   -1    0    0  502  501  0.00000000000E+00  0.00000000000E+00  0.66166702461E+02  0.66166702461E+02  0.00000000000E+00 0. -1.
         21   -1    0    0  501  502 -0.00000000000E+00 -0.00000000000E+00 -0.17495288797E+04  0.17495288797E+04  0.00000000000E+00 0. -1.
         25    1    1    2    0    0 -0.79731249113E+02 -0.16975058215E+03 -0.31547888797E+03  0.38771672775E+03  0.12500000000E+03 0.  0.
         25    1    1    2    0    0  0.12514565389E+03  0.60882036837E+02 -0.36157690080E+03  0.40710061691E+03  0.12500000000E+03 0.  0.
         25    1    1    2    0    0 -0.45414404779E+02  0.10886854531E+03 -0.10063063885E+04  0.10208782375E+04  0.12500000000E+03 0.  0.
</event>
<event>
 5    0  0.5568866E-005  0.2705156E+03  0.7546771E-02  0.1100985E+00
         21   -1    0    0  502  501  0.00000000000E+00  0.00000000000E+00  0.47798749824E+02  0.47798749824E+02  0.00000000000E+00 0.  1.
         21   -1    0    0  501  502 -0.00000000000E+00 -0.00000000000E+00 -0.15309747038E+04  0.15309747038E+04  0.00000000000E+00 0.  1.
         25    1    1    2    0    0 -0.49094376700E+02 -0.12758748401E+03 -0.62223362992E+03  0.64922146769E+03  0.12500000000E+03 0.  0.
         25    1    1    2    0    0  0.11076782935E+03  0.49107096378E+02 -0.30642424537E+03  0.35242281011E+03  0.12500000000E+03 0.  0.
         25    1    1    2    0    0 -0.61673452655E+02  0.78480387630E+02 -0.55451807867E+03  0.57712917582E+03  0.12500000000E+03 0.  0.
</event>
<event>
 5    0  0.5568866E-005  0.3285137E+03  0.7546771E-02  0.1071796E+00
         21   -1    0    0  502  501  0.00000000000E+00  0.00000000000E+00  0.14989900634E+03  0.14989900634E+03  0.00000000000E+00 0. -1.
         21   -1    0    0  501  502 -0.00000000000E+00 -0.00000000000E+00 -0.71995962413E+03  0.71995962413E+03  0.00000000000E+00 0. -1.
         25    1    1    2    0    0 -0.37240100446E+02  0.81623821520E+02 -0.18577685604E+03  0.24122046671E+03  0.12500000000E+03 0.  0.
         25    1    1    2    0    0  0.80393362739E+02 -0.22785628783E+03 -0.11609669601E+03  0.29577867316E+03  0.12500000000E+03 0.  0.
         25    1    1    2    0    0 -0.43153262292E+02  0.14623246631E+03 -0.26818706574E+03  0.33285949060E+03  0.12500000000E+03 0.  0.
</event>
<event>
 5    0  0.5568866E-005  0.3885608E+03  0.7546771E-02  0.1047814E+00
         21   -1    0    0  502  501  0.00000000000E+00  0.00000000000E+00  0.59360829835E+02  0.59360829835E+02  0.00000000000E+00 0.  1.
         21   -1    0    0  501  502 -0.00000000000E+00 -0.00000000000E+00 -0.25434200226E+04  0.25434200226E+04  0.00000000000E+00 0.  1.
         25    1    1    2    0    0  0.98117615902E+02 -0.11731687593E+02 -0.12197485490E+03  0.20066779580E+03  0.12500000000E+03 0.  0.
         25    1    1    2    0    0 -0.75206554373E+02 -0.33511458628E+02 -0.21175965827E+04  0.21228799614E+04  0.12500000000E+03 0.  0.
         25    1    1    2    0    0 -0.22911061528E+02  0.45243146221E+02 -0.24448775521E+03  0.27923309523E+03  0.12500000000E+03 0.  0.
</event>
<event>
 5    0  0.5568866E-005  0.3022625E+03  0.7546771E-02  0.1084115E+00
         21   -1    0    0  502  501  0.00000000000E+00  0.00000000000E+00  0.72261071923E+02  0.72261071923E+02  0.00000000000E+00 0.  1.
         21   -1    0    0  501  502 -0.00000000000E+00 -0.00000000000E+00 -0.12643410481E+04  0.12643410481E+04  0.00000000000E+00 0.  1.
         25    1    1    2    0    0  0.78694210266E+02 -0.94564316154E+02 -0.96779678760E+02  0.20031598748E+03  0.12500000000E+03 0.  0.
         25    1    1    2    0    0 -0.79118735777E+02  0.68636418798E+02 -0.45398276561E+03  0.48238582463E+03  0.12500000000E+03 0.  0.
         25    1    1    2    0    0  0.42452551127E+00  0.25927897356E+02 -0.64131753185E+03  0.65390030796E+03  0.12500000000E+03 0.  0.
</event>
<event>
 5    0  0.5568866E-005  0.3839287E+03  0.7546771E-02  0.1049491E+00
         21   -1    0    0  502  501  0.00000000000E+00  0.00000000000E+00  0.33022177053E+03  0.33022177053E+03  0.00000000000E+00 0. -1.
         21   -1    0    0  501  502 -0.00000000000E+00 -0.00000000000E+00 -0.44637038083E+03  0.44637038083E+03  0.00000000000E+00 0. -1.
         25    1    1    2    0    0 -0.28381509969E+03  0.48135335156E+02 -0.14890092389E+03  0.34736796979E+03  0.12500000000E+03 0.  0.
         25    1    1    2    0    0  0.14663481638E+03 -0.64256667799E+02  0.10593025574E+03  0.22907838792E+03  0.12500000000E+03 0.  0.
         25    1    1    2    0    0  0.13718028331E+03  0.16121332643E+02 -0.73177942161E+02  0.20014579364E+03  0.12500000000E+03 0.  0.
</event>
<event>
 5    0  0.5568866E-005  0.4387164E+03  0.7546771E-02  0.1031141E+00
         21   -1    0    0  502  501  0.00000000000E+00  0.00000000000E+00  0.86202500080E+03  0.86202500080E+03  0.00000000000E+00 0.  1.
         21   -1    0    0  501  502 -0.00000000000E+00 -0.00000000000E+00 -0.22327895671E+03  0.22327895671E+03  0.00000000000E+00 0.  1.
         25    1    1    2    0    0 -0.42073661296E+02  0.12086421257E+03  0.41992064536E+02  0.18375713412E+03  0.12500000000E+03 0.  0.
         25    1    1    2    0    0  0.14179982690E+03 -0.30841915818E+03  0.53777714228E+03  0.64811945103E+03  0.12500000000E+03 0.  0.
         25    1    1    2    0    0 -0.99726165605E+02  0.18755494561E+03  0.58976837272E+02  0.25342737237E+03  0.12500000000E+03 0.  0.
</event>
<event>
 5    0  0.6464958E-005  0.3819347E+03  0.7546771E-02  0.1050221E+00
         21   -1    0    0  502  501  0.00000000000E+00  0.00000000000E+00  0.83223222890E+03  0.83223222890E+03  0.00000000000E+00 0. -1.
         21   -1    0    0  501  502 -0.00000000000E+00 -0.00000000000E+00 -0.17528054627E+03  0.17528054627E+03  0.00000000000E+00 0. -1.
         25    1    1    2    0    0 -0.96162537072E+02  0.18443009417E+03  0.21931708884E+03  0.32708818173E+03  0.12500000000E+03 0.  0.
         25    1    1    2    0    0  0.86084386352E+02 -0.97315724766E+02 -0.35067369690E+02  0.18367251367E+03  0.12500000000E+03 0.  0.
         25    1    1    2    0    0  0.10078150720E+02 -0.87114369401E+02  0.47270196349E+03  0.49675207978E+03  0.12500000000E+03 0.  0.
</event>
<event>
 5    0  0.5568866E-005  0.2537086E+03  0.7546771E-02  0.1110983E+00
         21   -1    0    0  502  501  0.00000000000E+00  0.00000000000E+00  0.95748663445E+03  0.95748663445E+03  0.00000000000E+00 0. -1.
         21   -1    0    0  501  502 -0.00000000000E+00 -0.00000000000E+00 -0.67226043309E+02  0.67226043309E+02  0.00000000000E+00 0. -1.
         25    1    1    2    0    0 -0.92779894822E+02  0.10034542843E+03  0.44318990138E+03  0.48033280397E+03  0.12500000000E+03 0.  0.
         25    1    1    2    0    0  0.69481810016E+02 -0.94276405697E+02  0.17974274256E+03  0.24829058802E+03  0.12500000000E+03 0.  0.
         25    1    1    2    0    0  0.23298084806E+02 -0.60690227285E+01  0.26732794719E+03  0.29608928576E+03  0.12500000000E+03 0.  0.
</event>
<event>
 5    0  0.5568866E-005  0.2777540E+03  0.7546771E-02  0.1096922E+00
         21   -1    0    0  502  501  0.00000000000E+00  0.00000000000E+00  0.49500289042E+02  0.49500289042E+02  0.00000000000E+00 0.  1.
         21   -1    0    0  501  502 -0.00000000000E+00 -0.00000000000E+00 -0.15585215614E+04  0.15585215614E+04  0.00000000000E+00 0.  1.
         25    1    1    2    0    0  0.71310333430E+02 -0.13278737361E+03 -0.79648678958E+03  0.82020354560E+03  0.12500000000E+03 0.  0.
         25    1    1    2    0    0 -0.62898300110E+02  0.15475562600E+03 -0.42780449941E+03  0.47596973607E+03  0.12500000000E+03 0.  0.
         25    1    1    2    0    0 -0.84120333197E+01 -0.21968252383E+02 -0.28472998337E+03  0.31184856877E+03  0.12500000000E+03 0.  0.
</event>
<event>
 5    0  0.5568866E-005  0.2982011E+03  0.7546771E-02  0.1086143E+00
         21   -1    0    0  502  501  0.00000000000E+00  0.00000000000E+00  0.12677065672E+03  0.12677065672E+03  0.00000000000E+00 0.  1.
         21   -1    0    0  501  502 -0.00000000000E+00 -0.00000000000E+00 -0.70145481927E+03  0.70145481927E+03  0.00000000000E+00 0.  1.
         25    1    1    2    0    0 -0.60332939987E+02  0.61988418436E+01 -0.12386680360E+03  0.18613563421E+03  0.12500000000E+03 0.  0.
         25    1    1    2    0    0 -0.64807892260E+02 -0.13623837057E+03 -0.80973512061E+02  0.21199685415E+03  0.12500000000E+03 0.  0.
         25    1    1    2    0    0  0.12514083225E+03  0.13003952873E+03 -0.36984384689E+03  0.43009298763E+03  0.12500000000E+03 0.  0.
</event>
<event>
 5    0  0.5568866E-005  0.2731285E+03  0.7546771E-02  0.1099502E+00
         21   -1    0    0  502  501  0.00000000000E+00  0.00000000000E+00  0.38712188409E+02  0.38712188409E+02  0.00000000000E+00 0.  1.
         21   -1    0    0  501  502 -0.00000000000E+00 -0.00000000000E+00 -0.19270197319E+04  0.19270197319E+04  0.00000000000E+00 0.  1.
         25    1    1    2    0    0 -0.69691744377E+02 -0.27129620854E+02 -0.68092828323E+03  0.69633417442E+03  0.12500000000E+03 0.  0.
         25    1    1    2    0    0  0.29991870226E+02  0.15732861093E+03 -0.72151930071E+03  0.74957781811E+03  0.12500000000E+03 0.  0.
         25    1    1    2    0    0  0.39699874151E+02 -0.13019899008E+03 -0.48585995951E+03  0.51981992774E+03  0.12500000000E+03 0.  0.
</event>
<event>
 5    0  0.5568866E-005  0.2441539E+03  0.7546771E-02  0.1117056E+00
         21   -1    0    0  502  501  0.00000000000E+00  0.00000000000E+00  0.26219855171E+03  0.26219855171E+03  0.00000000000E+00 0. -1.
         21   -1    0    0  501  502 -0.00000000000E+00 -0.00000000000E+00 -0.22735106365E+03  0.22735106365E+03  0.00000000000E+00 0. -1.
         25    1    1    2    0    0 -0.37709606136E+02  0.18938128680E+02  0.20059824022E+02  0.13344685704E+03  0.12500000000E+03 0.  0.
         25    1    1    2    0    0 -0.42611684859E+02 -0.75593215948E+02  0.93575438997E+02  0.17863776971E+03  0.12500000000E+03 0.  0.
         25    1    1    2    0    0  0.80321290995E+02  0.56655087268E+02 -0.78787774965E+02  0.17746498862E+03  0.12500000000E+03 0.  0.
</event>
<event>
 5    0  0.5568866E-005  0.2706703E+03  0.7546771E-02  0.1100897E+00
         21   -1    0    0  502  501  0.00000000000E+00  0.00000000000E+00  0.13395163562E+03  0.13395163562E+03  0.00000000000E+00 0. -1.
         21   -1    0    0  501  502 -0.00000000000E+00 -0.00000000000E+00 -0.54693169985E+03  0.54693169985E+03  0.00000000000E+00 0. -1.
         25    1    1    2    0    0  0.80067204779E+02  0.11837276821E+03 -0.11937672144E+03  0.22427365239E+03  0.12500000000E+03 0.  0.
         25    1    1    2    0    0 -0.61335006616E+01  0.43012318719E+02 -0.11969058947E+03  0.17843350750E+03  0.12500000000E+03 0.  0.
         25    1    1    2    0    0 -0.73933704117E+02 -0.16138508693E+03 -0.17391275332E+03  0.27817617557E+03  0.12500000000E+03 0.  0.
</event>
<event>
 5    0  0.5568866E-005  0.2908073E+03  0.7546771E-02  0.1089928E+00
         21   -1    0    0  502  501  0.00000000000E+00  0.00000000000E+00  0.91805522160E+02  0.91805522160E+02  0.00000000000E+00 0.  1.
         21   -1    0    0  501  502 -0.00000000000E+00 -0.00000000000E+00 -0.92117422251E+03  0.92117422251E+03  0.00000000000E+00 0.  1.
         25    1    1    2    0    0  0.85312421937E+02  0.63845004264E+01 -0.22285471447E+03  0.26945907842E+03  0.12500000000E+03 0.  0.
         25    1    1    2    0    0  0.27373271183E+02 -0.59427767413E+02 -0.53471717901E+03  0.55301755582E+03  0.12500000000E+03 0.  0.
         25    1    1    2    0    0 -0.11268569312E+03  0.53043266987E+02 -0.71796806869E+02  0.19050311043E+03  0.12500000000E+03 0.  0.
</event>
<event>
 5    0  0.6186448E-005  0.3775966E+03  0.7546771E-02  0.1051826E+00
         21   -1    0    0  502  501  0.00000000000E+00  0.00000000000E+00  0.15616059059E+03  0.15616059059E+03  0.00000000000E+00 0. -1.
         21   -1    0    0  501  502 -0.00000000000E+00 -0.00000000000E+00 -0.91302907605E+03  0.91302907605E+03  0.00000000000E+00 0. -1.
         25    1    1    2    0    0  0.17258190010E+03  0.15481869052E+02 -0.48127687330E+02  0.21901021620E+03  0.12500000000E+03 0.  0.
         25    1    1    2    0    0 -0.27376241434E+03 -0.34510446957E+02 -0.40245601939E+03  0.50371884817E+03  0.12500000000E+03 0.  0.
         25    1    1    2    0    0  0.10118051423E+03  0.19028577905E+02 -0.30628477874E+03  0.34646060227E+03  0.12500000000E+03 0.  0.
</event>
<event>
 5    0  0.5568866E-005  0.2459605E+03  0.7546771E-02  0.1115885E+00
         21   -1    0    0  502  501  0.00000000000E+00  0.00000000000E+00  0.56154779378E+02  0.56154779378E+02  0.00000000000E+00 0.  1.
         21   -1    0    0  501  502 -0.00000000000E+00 -0.00000000000E+00 -0.10773183715E+04  0.10773183715E+04  0.00000000000E+00 0.  1.
         25    1    1    2    0    0 -0.76593053230E+02 -0.96854885898E+02 -0.29694430382E+03  0.34503374370E+03  0.12500000000E+03 0.  0.
         25    1    1    2    0    0  0.39470572741E+02  0.98080413515E+02 -0.52834340457E+03  0.55312697166E+03  0.12500000000E+03 0.  0.
         25    1    1    2    0    0  0.37122480490E+02 -0.12255276171E+01 -0.19587588372E+03  0.23531243549E+03  0.12500000000E+03 0.  0.
</event>
<event>
 5    0  0.5568866E-005  0.2895867E+03  0.7546771E-02  0.1090565E+00
         21   -1    0    0  502  501  0.00000000000E+00  0.00000000000E+00  0.98301334813E+02  0.98301334813E+02  0.00000000000E+00 0. -1.
         21   -1    0    0  501  502 -0.00000000000E+00 -0.00000000000E+00 -0.85309605554E+03  0.85309605554E+03  0.00000000000E+00 0. -1.
         25    1    1    2    0    0 -0.15345894992E+03 -0.10843498924E+03 -0.16241815063E+03  0.27805116770E+03  0.12500000000E+03 0.  0.
         25    1    1    2    0    0  0.10477073677E+03  0.39247864503E+02 -0.34350877946E+03  0.38228338143E+03  0.12500000000E+03 0.  0.
         25    1    1    2    0    0  0.48688213158E+02  0.69187124733E+02 -0.24886779064E+03  0.29106284123E+03  0.12500000000E+03 0.  0.
</event>
<event>
 5    0  0.5568866E-005  0.2575980E+03  0.7546771E-02  0.1108595E+00
         21   -1    0    0  502  501  0.00000000000E+00  0.00000000000E+00  0.25129776023E+03  0.25129776023E+03  0.00000000000E+00 0. -1.
         21   -1    0    0  501  502 -0.00000000000E+00 -0.00000000000E+00 -0.26405616423E+03  0.26405616423E+03  0.00000000000E+00 0. -1.
         25    1    1    2    0    0 -0.29406138998E+02  0.20340413433E+02 -0.16599315847E+03  0.21084871849E+03  0.12500000000E+03 0.  0.
         25    1    1    2    0    0  0.27742183621E+02  0.24121841955E+02  0.70558979724E+02  0.14817240509E+03  0.12500000000E+03 0.  0.
         25    1    1    2    0    0  0.16639553769E+01 -0.44462255388E+02  0.82675774739E+02  0.15633280088E+03  0.12500000000E+03 0.  0.
</event>
<event>
 5    0  0.5843378E-005  0.3793619E+03  0.7546771E-02  0.1051170E+00
         21   -1    0    0  502  501  0.00000000000E+00  0.00000000000E+00  0.12901720485E+03  0.12901720485E+03  0.00000000000E+00 0.  1.
         21   -1    0    0  501  502 -0.00000000000E+00 -0.00000000000E+00 -0.11154751010E+04  0.11154751010E+04  0.00000000000E+00 0.  1.
         25    1    1    2    0    0 -0.15367607721E+03  0.88422319919E+02 -0.63172334405E+03  0.66793280110E+03  0.12500000000E+03 0.  0.
         25    1    1    2    0    0  0.91432116742E+02 -0.20246558125E+03 -0.28726909917E+03  0.38405817124E+03  0.12500000000E+03 0.  0.
         25    1    1    2    0    0  0.62243960471E+02  0.11404326133E+03 -0.67465452970E+02  0.19250133354E+03  0.12500000000E+03 0.  0.
</event>
<event>
 5    0  0.5568866E-005  0.2609084E+03  0.7546771E-02  0.1106599E+00
         21   -1    0    0  502  501  0.00000000000E+00  0.00000000000E+00  0.82411233658E+03  0.82411233658E+03  0.00000000000E+00 0. -1.
         21   -1    0    0  501  502 -0.00000000000E+00 -0.00000000000E+00 -0.82601858467E+02  0.82601858467E+02  0.00000000000E+00 0. -1.
         25    1    1    2    0    0  0.52969217298E+02  0.16129166117E+03  0.28362058190E+03  0.35339266039E+03  0.12500000000E+03 0.  0.
         25    1    1    2    0    0 -0.41246227984E+02 -0.11644756525E+03  0.28770540986E+03  0.33713601059E+03  0.12500000000E+03 0.  0.
         25    1    1    2    0    0 -0.11722989314E+02 -0.44844095921E+02  0.17018448635E+03  0.21618552406E+03  0.12500000000E+03 0.  0.
</event>
<event>
 5    0  0.5568866E-005  0.2916650E+03  0.7546771E-02  0.1089483E+00
         21   -1    0    0  502  501  0.00000000000E+00  0.00000000000E+00  0.15059429234E+03  0.15059429234E+03  0.00000000000E+00 0.  1.
         21   -1    0    0  501  502 -0.00000000000E+00 -0.00000000000E+00 -0.56488512606E+03  0.56488512606E+03  0.00000000000E+00 0.  1.
         25    1    1    2    0    0 -0.39549769776E+02 -0.69595244498E+02 -0.66433094825E+02  0.16262237987E+03  0.12500000000E+03 0.  0.
         25    1    1    2    0    0 -0.10575805668E+03  0.33266770220E+01 -0.30408166957E+03  0.34537877048E+03  0.12500000000E+03 0.  0.
         25    1    1    2    0    0  0.14530782646E+03  0.66268567476E+02 -0.43776069331E+02  0.20747826805E+03  0.12500000000E+03 0.  0.
</event>
<event>
 5    0  0.5568866E-005  0.2559268E+03  0.7546771E-02  0.1109615E+00
         21   -1    0    0  502  501  0.00000000000E+00  0.00000000000E+00  0.52391692353E+03  0.52391692353E+03  0.00000000000E+00 0.  1.
         21   -1    0    0  501  502 -0.00000000000E+00 -0.00000000000E+00 -0.12501702743E+03  0.12501702743E+03  0.00000000000E+00 0.  1.
         25    1    1    2    0    0  0.35144689650E+02 -0.42318076262E+02  0.28933514603E+03  0.31994655103E+03  0.12500000000E+03 0.  0.
         25    1    1    2    0    0 -0.43029127407E+02  0.72157019723E+02 -0.13071232113E+02  0.15117538956E+03  0.12500000000E+03 0.  0.
         25    1    1    2    0    0  0.78844377570E+01 -0.29838943461E+02  0.12263598219E+03  0.17781201037E+03  0.12500000000E+03 0.  0.
</event>
<event>
 5    0  0.5568866E-005  0.2900122E+03  0.7546771E-02  0.1090343E+00
         21   -1    0    0  502  501  0.00000000000E+00  0.00000000000E+00  0.17345706218E+03  0.17345706218E+03  0.00000000000E+00 0.  1.
         21   -1    0    0  501  502 -0.00000000000E+00 -0.00000000000E+00 -0.48488689331E+03  0.48488689331E+03  0.00000000000E+00 0.  1.
         25    1    1    2    0    0 -0.16062226848E+03 -0.11197282342E+03 -0.12005444483E+03  0.26148708580E+03  0.12500000000E+03 0.  0.
         25    1    1    2    0    0  0.15147410293E+03  0.10118811024E+03 -0.10776594534E+03  0.24580873964E+03  0.12500000000E+03 0.  0.
         25    1    1    2    0    0  0.91481655558E+01  0.10784713182E+02 -0.83609440960E+02  0.15104813004E+03  0.12500000000E+03 0.  0.
</event>
<event>
 5    0  0.5568866E-005  0.3653970E+03  0.7546771E-02  0.1056467E+00
         21   -1    0    0  502  501  0.00000000000E+00  0.00000000000E+00  0.78769529418E+03  0.78769529418E+03  0.00000000000E+00 0.  1.
         21   -1    0    0  501  502 -0.00000000000E+00 -0.00000000000E+00 -0.16950077607E+03  0.16950077607E+03  0.00000000000E+00 0.  1.
         25    1    1    2    0    0 -0.45105304586E+02 -0.18112631966E+03  0.11423122661E+03  0.25202183498E+03  0.12500000000E+03 0.  0.
         25    1    1    2    0    0 -0.60790269813E+02 -0.34574044610E+02  0.12202051301E+02  0.14375225745E+03  0.12500000000E+03 0.  0.
         25    1    1    2    0    0  0.10589557440E+03  0.21570036427E+03  0.49176124020E+03  0.56142197783E+03  0.12500000000E+03 0.  0.
</event>
<event>
 5    0  0.5568866E-005  0.2676058E+03  0.7546771E-02  0.1102658E+00
         21   -1    0    0  502  501  0.00000000000E+00  0.00000000000E+00  0.30944979383E+02  0.30944979383E+02  0.00000000000E+00 0.  1.
         21   -1    0    0  501  502 -0.00000000000E+00 -0.00000000000E+00 -0.23141999031E+04  0.23141999031E+04  0.00000000000E+00 0.  1.
         25    1    1    2    0    0  0.56107490798E+01 -0.75601126264E+02 -0.36878032193E+03  0.39670005879E+03  0.12500000000E+03 0.  0.
         25    1    1    2    0    0  0.22421297445E+02  0.12438315024E+03 -0.15294671168E+04  0.15397624960E+04  0.12500000000E+03 0.  0.
         25    1    1    2    0    0 -0.28032046525E+02 -0.48782023973E+02 -0.38500748498E+03  0.40868232771E+03  0.12500000000E+03 0.  0.
</event>
<event>
 5    0  0.5568866E-005  0.2898772E+03  0.7546771E-02  0.1090413E+00
         21   -1    0    0  502  501  0.00000000000E+00  0.00000000000E+00  0.15251722904E+03  0.15251722904E+03  0.00000000000E+00 0. -1.
         21   -1    0    0  501  502 -0.00000000000E+00 -0.00000000000E+00 -0.55094630869E+03  0.55094630869E+03  0.00000000000E+00 0. -1.
         25    1    1    2    0    0  0.66172384020E+02  0.57747522802E+00 -0.18317231135E+03  0.23142215437E+03  0.12500000000E+03 0.  0.
         25    1    1    2    0    0  0.12479326835E+03  0.20429317163E+02 -0.15289702520E+03  0.23450632644E+03  0.12500000000E+03 0.  0.
         25    1    1    2    0    0 -0.19096565237E+03 -0.21006792392E+02 -0.62359743088E+02  0.23753505693E+03  0.12500000000E+03 0.  0.
</event>
<event>
 5    0  0.5568866E-005  0.2593637E+03  0.7546771E-02  0.1107526E+00
         21   -1    0    0  502  501  0.00000000000E+00  0.00000000000E+00  0.18112316842E+04  0.18112316842E+04  0.00000000000E+00 0. -1.
         21   -1    0    0  501  502 -0.00000000000E+00 -0.00000000000E+00 -0.37140217851E+02  0.37140217851E+02  0.00000000000E+00 0. -1.
         25    1    1    2    0    0 -0.61525637089E+02  0.29144758826E+02  0.51042160453E+03  0.52989624961E+03  0.12500000000E+03 0.  0.
         25    1    1    2    0    0  0.64840818548E+02 -0.12686820789E+03  0.43127154677E+03  0.47108387892E+03  0.12500000000E+03 0.  0.
         25    1    1    2    0    0 -0.33151814586E+01  0.97723449067E+02  0.83239831507E+03  0.84739177354E+03  0.12500000000E+03 0.  0.
</event>
<event>
 5    0  0.5568866E-005  0.2868863E+03  0.7546771E-02  0.1091986E+00
         21   -1    0    0  502  501  0.00000000000E+00  0.00000000000E+00  0.25224356045E+03  0.25224356045E+03  0.00000000000E+00 0.  1.
         21   -1    0    0  501  502 -0.00000000000E+00 -0.00000000000E+00 -0.32628683659E+03  0.32628683659E+03  0.00000000000E+00 0.  1.
         25    1    1    2    0    0 -0.75508232304E+02  0.46268330214E+02 -0.77962245887E+01  0.15338850232E+03  0.12500000000E+03 0.  0.
         25    1    1    2    0    0  0.34074550654E+02 -0.18583855373E+03 -0.53828525929E+02  0.23285092497E+03  0.12500000000E+03 0.  0.
         25    1    1    2    0    0  0.41433681650E+02  0.13957022352E+03 -0.12418525629E+02  0.19229096975E+03  0.12500000000E+03 0.  0.
</event>
<event>
 5    0  0.5568866E-005  0.2390609E+03  0.7546771E-02  0.1120420E+00
         21   -1    0    0  502  501  0.00000000000E+00  0.00000000000E+00  0.43200118069E+02  0.43200118069E+02  0.00000000000E+00 0.  1.
         21   -1    0    0  501  502 -0.00000000000E+00 -0.00000000000E+00 -0.13229152697E+04  0.13229152697E+04  0.00000000000E+00 0.  1.
         25    1    1    2    0    0  0.70605269089E+02  0.58560371201E+02 -0.44943833056E+03  0.47543057755E+03  0.12500000000E+03 0.  0.
         25    1    1    2    0    0 -0.34808841818E+02  0.45679573105E+02 -0.23283501867E+03  0.27043562041E+03  0.12500000000E+03 0.  0.
         25    1    1    2    0    0 -0.35796427271E+02 -0.10423994431E+03 -0.59744180241E+03  0.62024918981E+03  0.12500000000E+03 0.  0.
</event>
<event>
 5    0  0.5568866E-005  0.2511724E+03  0.7546771E-02  0.1112566E+00
         21   -1    0    0  502  501  0.00000000000E+00  0.00000000000E+00  0.25971900957E+03  0.25971900957E+03  0.00000000000E+00 0.  1.
         21   -1    0    0  501  502 -0.00000000000E+00 -0.00000000000E+00 -0.24290705750E+03  0.24290705750E+03  0.00000000000E+00 0.  1.
         25    1    1    2    0    0 -0.23061241342E+02 -0.33606902865E+02 -0.20861774703E+02  0.13312196820E+03  0.12500000000E+03 0.  0.
         25    1    1    2    0    0 -0.89822061601E+02  0.53636861340E+02  0.97158088414E+02  0.18976198194E+03  0.12500000000E+03 0.  0.
         25    1    1    2    0    0  0.11288330294E+03 -0.20029958475E+02 -0.59484361643E+02  0.17974211693E+03  0.12500000000E+03 0.  0.
</event>
<event>
 5    0  0.5568866E-005  0.3259900E+03  0.7546771E-02  0.1072925E+00
         21   -1    0    0  502  501  0.00000000000E+00  0.00000000000E+00  0.27920851065E+03  0.27920851065E+03  0.00000000000E+00 0. -1.
         21   -1    0    0  501  502 -0.00000000000E+00 -0.00000000000E+00 -0.38060975925E+03  0.38060975925E+03  0.00000000000E+00 0. -1.
         25    1    1    2    0    0  0.19655456467E+03 -0.41742352367E+02 -0.15136848134E+03  0.28091553538E+03  0.12500000000E+03 0.  0.
         25    1    1    2    0    0 -0.18816268442E+03 -0.22775660927E+02  0.67579505816E+02  0.23688798228E+03  0.12500000000E+03 0.  0.
         25    1    1    2    0    0 -0.83918802443E+01  0.64518013294E+02 -0.17612273071E+02  0.14201475225E+03  0.12500000000E+03 0.  0.
</event>
<event>
 5    0  0.5568866E-005  0.3412941E+03  0.7546771E-02  0.1066246E+00
         21   -1    0    0  502  501  0.00000000000E+00  0.00000000000E+00  0.73293365931E+03  0.73293365931E+03  0.00000000000E+00 0.  1.
         21   -1    0    0  501  502 -0.00000000000E+00 -0.00000000000E+00 -0.15892522640E+03  0.15892522640E+03  0.00000000000E+00 0.  1.
         25    1    1    2    0    0 -0.79084898288E+02  0.11705699172E+03  0.45973994028E+02  0.19415295149E+03  0.12500000000E+03 0.  0.
         25    1    1    2    0    0  0.20410237013E+03 -0.13449234700E+03  0.36387399428E+03  0.45582370782E+03  0.12500000000E+03 0.  0.
         25    1    1    2    0    0 -0.12501747184E+03  0.17435355282E+02  0.16416044459E+03  0.24188222640E+03  0.12500000000E+03 0.  0.
</event>
<event>
 5    0  0.5568866E-005  0.4470228E+03  0.7546771E-02  0.1028614E+00
         21   -1    0    0  502  501  0.00000000000E+00  0.00000000000E+00  0.27623192304E+03  0.27623192304E+03  0.00000000000E+00 0. -1.
         21   -1    0    0  501  502 -0.00000000000E+00 -0.00000000000E+00 -0.72341167190E+03  0.72341167190E+03  0.00000000000E+00 0. -1.
         25    1    1    2    0    0  0.81755751197E+02 -0.53074401729E+02 -0.63528574987E+03  0.65476245995E+03  0.12500000000E+03 0.  0.
         25    1    1    2    0    0  0.45201712084E+01  0.19464867474E+01  0.55420855851E+02  0.13682357992E+03  0.12500000000E+03 0.  0.
         25    1    1    2    0    0 -0.86275922406E+02  0.51127914981E+02  0.13268514516E+03  0.20805755508E+03  0.12500000000E+03 0.  0.
</event>
<event>
 5    0  0.5568866E-005  0.3617011E+03  0.7546771E-02  0.1057912E+00
         21   -1    0    0  502  501  0.00000000000E+00  0.00000000000E+00  0.22117244871E+03  0.22117244871E+03  0.00000000000E+00 0. -1.
         21   -1    0    0  501  502 -0.00000000000E+00 -0.00000000000E+00 -0.59151896892E+03  0.59151896892E+03  0.00000000000E+00 0. -1.
         25    1    1    2    0    0  0.20892163341E+03  0.13426055409E+03 -0.31840939260E+03  0.42270993198E+03  0.12500000000E+03 0.  0.
         25    1    1    2    0    0 -0.71948585644E+02 -0.13988248155E+03 -0.30614828795E+02  0.20323871522E+03  0.12500000000E+03 0.  0.
         25    1    1    2    0    0 -0.13697304777E+03  0.56219274638E+01 -0.21322298816E+02  0.18674277044E+03  0.12500000000E+03 0.  0.
</event>
<event>
 5    0  0.5568866E-005  0.1919651E+03  0.7546771E-02  0.1156701E+00
         21   -1    0    0  502  501  0.00000000000E+00  0.00000000000E+00  0.20370331720E+03  0.20370331720E+03  0.00000000000E+00 0.  1.
         21   -1    0    0  501  502 -0.00000000000E+00 -0.00000000000E+00 -0.18090333928E+03  0.18090333928E+03  0.00000000000E+00 0.  1.
         25    1    1    2    0    0 -0.80858803540E-01  0.25578750800E+02  0.21079449659E+02  0.12931984468E+03  0.12500000000E+03 0.  0.
         25    1    1    2    0    0 -0.21948568287E+01 -0.34063714054E+02 -0.62301957651E+01  0.12972651753E+03  0.12500000000E+03 0.  0.
         25    1    1    2    0    0  0.22757156322E+01  0.84849632536E+01  0.79507240236E+01  0.12556029426E+03  0.12500000000E+03 0.  0.
</event>
<event>
 5    0  0.5568866E-005  0.3212279E+03  0.7546771E-02  0.1075086E+00
         21   -1    0    0  502  501  0.00000000000E+00  0.00000000000E+00  0.97262610228E+03  0.97262610228E+03  0.00000000000E+00 0.  1.
         21   -1    0    0  501  502 -0.00000000000E+00 -0.00000000000E+00 -0.10609150223E+03  0.10609150223E+03  0.00000000000E+00 0.  1.
         25    1    1    2    0    0 -0.15755260946E+03  0.46270927663E+02  0.43815761719E+03  0.48432522234E+03  0.12500000000E+03 0.  0.
         25    1    1    2    0    0  0.22794669162E+03 -0.37464321438E+02  0.22808118251E+03  0.34786390358E+03  0.12500000000E+03 0.  0.
         25    1    1    2    0    0 -0.70394082158E+02 -0.88066062256E+01  0.20029580035E+03  0.24652847858E+03  0.12500000000E+03 0.  0.
</event>
<event>
 5    0  0.5568866E-005  0.2912050E+03  0.7546771E-02  0.1089722E+00
         21   -1    0    0  502  501  0.00000000000E+00  0.00000000000E+00  0.40925544711E+03  0.40925544711E+03  0.00000000000E+00 0.  1.
         21   -1    0    0  501  502 -0.00000000000E+00 -0.00000000000E+00 -0.20720645183E+03  0.20720645183E+03  0.00000000000E+00 0.  1.
         25    1    1    2    0    0  0.66302239184E+02  0.10850904412E+03  0.70849996972E+02  0.19187214922E+03  0.12500000000E+03 0.  0.
         25    1    1    2    0    0  0.40269534697E+02  0.77803151920E+02  0.74326789962E+02  0.16977761213E+03  0.12500000000E+03 0.  0.
         25    1    1    2    0    0 -0.10657177388E+03 -0.18631219604E+03  0.56872208350E+02  0.25481213759E+03  0.12500000000E+03 0.  0.
</event>
<event>
 5    0  0.5568866E-005  0.2660508E+03  0.7546771E-02  0.1103561E+00
         21   -1    0    0  502  501  0.00000000000E+00  0.00000000000E+00  0.57388186489E+02  0.57388186489E+02  0.00000000000E+00 0.  1.
         21   -1    0    0  501  502 -0.00000000000E+00 -0.00000000000E+00 -0.12334077682E+04  0.12334077682E+04  0.00000000000E+00 0.  1.
         25    1    1    2    0    0 -0.10246982221E+03  0.22601737904E+02 -0.58107850053E+03  0.60356286068E+03  0.12500000000E+03 0.  0.
         25    1    1    2    0    0  0.13582057779E+03  0.54511653772E+02 -0.30865578821E+03  0.36374736473E+03  0.12500000000E+03 0.  0.
         25    1    1    2    0    0 -0.33350755578E+02 -0.77113391676E+02 -0.28628529294E+03  0.32348572924E+03  0.12500000000E+03 0.  0.
</event>
<event>
 5    0  0.5568866E-005  0.3278754E+03  0.7546771E-02  0.1072081E+00
         21   -1    0    0  502  501  0.00000000000E+00  0.00000000000E+00  0.14286495505E+03  0.14286495505E+03  0.00000000000E+00 0. -1.
         21   -1    0    0  501  502 -0.00000000000E+00 -0.00000000000E+00 -0.75247484292E+03  0.75247484292E+03  0.00000000000E+00 0. -1.
         25    1    1    2    0    0 -0.56783953673E+02  0.14787894360E+03 -0.18286521742E+03  0.27231835615E+03  0.12500000000E+03 0.  0.
         25    1    1    2    0    0 -0.88716758933E+02 -0.20255168491E+03 -0.22526474852E+03  0.33951002239E+03  0.12500000000E+03 0.  0.
         25    1    1    2    0    0  0.14550071261E+03  0.54672741311E+02 -0.20147992192E+03  0.28351141943E+03  0.12500000000E+03 0.  0.
</event>
<event>
 5    0  0.5568866E-005  0.2627138E+03  0.7546771E-02  0.1105524E+00
         21   -1    0    0  502  501  0.00000000000E+00  0.00000000000E+00  0.11198508064E+04  0.11198508064E+04  0.00000000000E+00 0. -1.
         21   -1    0    0  501  502 -0.00000000000E+00 -0.00000000000E+00 -0.61631922441E+02  0.61631922441E+02  0.00000000000E+00 0. -1.
         25    1    1    2    0    0 -0.75990600141E+02 -0.35250292910E+02  0.58170732495E+03  0.60085403082E+03  0.12500000000E+03 0.  0.
         25    1    1    2    0    0  0.76655770654E+01  0.55120974764E+02  0.38876816337E+03  0.41214411045E+03  0.12500000000E+03 0.  0.
         25    1    1    2    0    0  0.68325023076E+02 -0.19870681853E+02  0.87743395691E+02  0.16848458761E+03  0.12500000000E+03 0.  0.
</event>
<event>
 5    0  0.5970671E-005  0.2868938E+03  0.7546771E-02  0.1091982E+00
         21   -1    0    0  502  501  0.00000000000E+00  0.00000000000E+00  0.20697041026E+03  0.20697041026E+03  0.00000000000E+00 0. -1.
         21   -1    0    0  501  502 -0.00000000000E+00 -0.00000000000E+00 -0.39768023201E+03  0.39768023201E+03  0.00000000000E+00 0. -1.
         25    1    1    2    0    0 -0.17678287275E+02 -0.87915196657E+02  0.15604572753E+02  0.15462893111E+03  0.12500000000E+03 0.  0.
         25    1    1    2    0    0  0.45274233157E+02  0.29952192816E+02 -0.26480393255E+03  0.29781372154E+03  0.12500000000E+03 0.  0.
         25    1    1    2    0    0 -0.27595945882E+02  0.57963003841E+02  0.58489538057E+02  0.15220798962E+03  0.12500000000E+03 0.  0.
</event>
<event>
 5    0  0.5750227E-005  0.2924095E+03  0.7546771E-02  0.1089098E+00
         21   -1    0    0  502  501  0.00000000000E+00  0.00000000000E+00  0.58693501204E+03  0.58693501204E+03  0.00000000000E+00 0. -1.
         21   -1    0    0  501  502 -0.00000000000E+00 -0.00000000000E+00 -0.14567761269E+03  0.14567761269E+03  0.00000000000E+00 0. -1.
         25    1    1    2    0    0 -0.12372701697E+03 -0.99143657068E+02  0.13792807360E+03  0.24451378888E+03  0.12500000000E+03 0.  0.
         25    1    1    2    0    0  0.49641413698E+02 -0.72683004165E+02  0.86749416427E+02  0.17577699024E+03  0.12500000000E+03 0.  0.
         25    1    1    2    0    0  0.74085603269E+02  0.17182666123E+03  0.21657990933E+03  0.31232184561E+03  0.12500000000E+03 0.  0.
</event>
<event>
 5    0  0.5568866E-005  0.2299258E+03  0.7546771E-02  0.1126692E+00
         21   -1    0    0  502  501  0.00000000000E+00  0.00000000000E+00  0.80544284327E+03  0.80544284327E+03  0.00000000000E+00 0.  1.
         21   -1    0    0  501  502 -0.00000000000E+00 -0.00000000000E+00 -0.65635765188E+02  0.65635765188E+02  0.00000000000E+00 0.  1.
         25    1    1    2    0    0 -0.74866095798E+02  0.53891108324E+02  0.27926895832E+03  0.31957054767E+03  0.12500000000E+03 0.  0.
         25    1    1    2    0    0  0.58369351003E+02 -0.56838339691E+02  0.13061037068E+03  0.19829686565E+03  0.12500000000E+03 0.  0.
         25    1    1    2    0    0  0.16496744795E+02  0.29472313669E+01  0.32992774908E+03  0.35321119514E+03  0.12500000000E+03 0.  0.
</event>
<event>
 5    0  0.5568866E-005  0.2925903E+03  0.7546771E-02  0.1089004E+00
         21   -1    0    0  502  501  0.00000000000E+00  0.00000000000E+00  0.18102584539E+04  0.18102584539E+04  0.00000000000E+00 0. -1.
         21   -1    0    0  501  502 -0.00000000000E+00 -0.00000000000E+00 -0.47291074535E+02  0.47291074535E+02  0.00000000000E+00 0. -1.
         25    1    1    2    0    0 -0.93835221175E+02 -0.67441403278E+02  0.64802426711E+03  0.67001033005E+03  0.12500000000E+03 0.  0.
         25    1    1    2    0    0 -0.36109382922E+02  0.44900553729E+02  0.14195001393E+03  0.19772393308E+03  0.12500000000E+03 0.  0.
         25    1    1    2    0    0  0.12994460410E+03  0.22540849549E+02  0.97299309837E+03  0.98981526534E+03  0.12500000000E+03 0.  0.
</event>
<event>
 5    0  0.6416041E-005  0.5163683E+03  0.7546771E-02  0.1009593E+00
         21   -1    0    0  502  501  0.00000000000E+00  0.00000000000E+00  0.31403894544E+03  0.31403894544E+03  0.00000000000E+00 0. -1.
         21   -1    0    0  501  502 -0.00000000000E+00 -0.00000000000E+00 -0.84905451232E+03  0.84905451232E+03  0.00000000000E+00 0. -1.
         25    1    1    2    0    0  0.73442784916E+02  0.21782626993E+03  0.80052179803E+02  0.27363383932E+03  0.12500000000E+03 0.  0.
         25    1    1    2    0    0  0.23723836639E+03 -0.75996291509E+02 -0.25827511104E+03  0.37998488364E+03  0.12500000000E+03 0.  0.
         25    1    1    2    0    0 -0.31068115131E+03 -0.14182997842E+03 -0.35679263564E+03  0.50947473481E+03  0.12500000000E+03 0.  0.
</event>
<event>
 5    0  0.5568866E-005  0.3022631E+03  0.7546771E-02  0.1084115E+00
         21   -1    0    0  502  501  0.00000000000E+00  0.00000000000E+00  0.61156232096E+02  0.61156232096E+02  0.00000000000E+00 0.  1.
         21   -1    0    0  501  502 -0.00000000000E+00 -0.00000000000E+00 -0.14939273497E+04  0.14939273497E+04  0.00000000000E+00 0.  1.
         25    1    1    2    0    0  0.99507979828E+02  0.42246238578E+02 -0.53993482412E+03  0.56466024920E+03  0.12500000000E+03 0.  0.
         25    1    1    2    0    0 -0.35580376294E+02  0.33672602046E+02 -0.78824518681E+03  0.79959694962E+03  0.12500000000E+03 0.  0.
         25    1    1    2    0    0 -0.63927603534E+02 -0.75918840624E+02 -0.10459110672E+03  0.19082638303E+03  0.12500000000E+03 0.  0.
</event>
<event>
 5    0  0.5568866E-005  0.2705058E+03  0.7546771E-02  0.1100990E+00
         21   -1    0    0  502  501  0.00000000000E+00  0.00000000000E+00  0.67148494149E+03  0.67148494149E+03  0.00000000000E+00 0.  1.
         21   -1    0    0  501  502 -0.00000000000E+00 -0.00000000000E+00 -0.10897249743E+03  0.10897249743E+03  0.00000000000E+00 0.  1.
         25    1    1    2    0    0  0.54781533139E+02  0.13891151534E+02  0.22061507267E+03  0.25978835761E+03  0.12500000000E+03 0.  0.
         25    1    1    2    0    0  0.54486292935E+01  0.39055928308E+02  0.34816907374E+03  0.37202386618E+03  0.12500000000E+03 0.  0.
         25    1    1    2    0    0 -0.60230162433E+02 -0.52947079843E+02 -0.62717023472E+01  0.14864521513E+03  0.12500000000E+03 0.  0.
</event>
<event>
 5    0  0.5965303E-005  0.3103117E+03  0.7546771E-02  0.1080197E+00
         21   -1    0    0  502  501  0.00000000000E+00  0.00000000000E+00  0.51594167664E+03  0.51594167664E+03  0.00000000000E+00 0.  1.
         21   -1    0    0  501  502 -0.00000000000E+00 -0.00000000000E+00 -0.18663613171E+03  0.18663613171E+03  0.00000000000E+00 0.  1.
         25    1    1    2    0    0 -0.81397952007E+02 -0.48018716511E+02 -0.28669072701E+01  0.15673111651E+03  0.12500000000E+03 0.  0.
         25    1    1    2    0    0 -0.77891993448E+01 -0.14009219201E+03  0.17360004688E+03  0.25582898617E+03  0.12500000000E+03 0.  0.
         25    1    1    2    0    0  0.89187151352E+02  0.18811090852E+03  0.15857240532E+03  0.29001770566E+03  0.12500000000E+03 0.  0.
</event>
<event>
 5    0  0.5568866E-005  0.5353705E+03  0.7546771E-02  0.1004938E+00
         21   -1    0    0  502  501  0.00000000000E+00  0.00000000000E+00  0.14810579724E+04  0.14810579724E+04  0.00000000000E+00 0. -1.
         21   -1    0    0  501  502 -0.00000000000E+00 -0.00000000000E+00 -0.19352485771E+03  0.19352485771E+03  0.00000000000E+00 0. -1.
         25    1    1    2    0    0  0.97991749231E+02  0.20406820333E+03  0.28642723784E+03  0.38589088756E+03  0.12500000000E+03 0.  0.
         25    1    1    2    0    0  0.16793408912E+03 -0.72004341310E+02  0.93366857156E+03  0.95955640010E+03  0.12500000000E+03 0.  0.
         25    1    1    2    0    0 -0.26592583835E+03 -0.13206386202E+03  0.67437305271E+02  0.32913554243E+03  0.12500000000E+03 0.  0.
</event>
<event>
 5    0  0.5568866E-005  0.2336169E+03  0.7546771E-02  0.1124120E+00
         21   -1    0    0  502  501  0.00000000000E+00  0.00000000000E+00  0.51650840486E+02  0.51650840486E+02  0.00000000000E+00 0.  1.
         21   -1    0    0  501  502 -0.00000000000E+00 -0.00000000000E+00 -0.10566503418E+04  0.10566503418E+04  0.00000000000E+00 0.  1.
         25    1    1    2    0    0  0.58951955813E+02  0.73396358094E+02 -0.22677290283E+03  0.27552369759E+03  0.12500000000E+03 0.  0.
         25    1    1    2    0    0 -0.91042534176E+02 -0.24959898170E+02 -0.46136270620E+03  0.48722919270E+03  0.12500000000E+03 0.  0.
         25    1    1    2    0    0  0.32090578363E+02 -0.48436459925E+02 -0.31686389231E+03  0.34554829202E+03  0.12500000000E+03 0.  0.
</event>
<event>
 5    0  0.5568866E-005  0.3224324E+03  0.7546771E-02  0.1074535E+00
         21   -1    0    0  502  501  0.00000000000E+00  0.00000000000E+00  0.42066312439E+03  0.42066312439E+03  0.00000000000E+00 0.  1.
         21   -1    0    0  501  502 -0.00000000000E+00 -0.00000000000E+00 -0.24713985128E+03  0.24713985128E+03  0.00000000000E+00 0.  1.
         25    1    1    2    0    0 -0.86159533269E+02  0.44519484109E+01 -0.31883063787E+02  0.15519283094E+03  0.12500000000E+03 0.  0.
         25    1    1    2    0    0  0.15746598642E+03  0.14757676699E+03  0.16600940123E+03  0.29959733031E+03  0.12500000000E+03 0.  0.
         25    1    1    2    0    0 -0.71306453155E+02 -0.15202871540E+03  0.39396935673E+02  0.21301281442E+03  0.12500000000E+03 0.  0.
</event>
<event>
 5    0  0.5568866E-005  0.2593121E+03  0.7546771E-02  0.1107557E+00
         21   -1    0    0  502  501  0.00000000000E+00  0.00000000000E+00  0.90264281049E+02  0.90264281049E+02  0.00000000000E+00 0. -1.
         21   -1    0    0  501  502 -0.00000000000E+00 -0.00000000000E+00 -0.74495425160E+03  0.74495425160E+03  0.00000000000E+00 0. -1.
         25    1    1    2    0    0  0.77716272950E+02 -0.58374548611E+02 -0.12865579927E+03  0.20402137557E+03  0.12500000000E+03 0.  0.
         25    1    1    2    0    0 -0.75078851272E+02 -0.70613055830E+02 -0.31371842439E+03  0.35308255035E+03  0.12500000000E+03 0.  0.
         25    1    1    2    0    0 -0.26374216787E+01  0.12898760444E+03 -0.21231574690E+03  0.27811460672E+03  0.12500000000E+03 0.  0.
</event>
<event>
 5    0  0.5568866E-005  0.3097445E+03  0.7546771E-02  0.1080468E+00
         21   -1    0    0  502  501  0.00000000000E+00  0.00000000000E+00  0.17488140034E+03  0.17488140034E+03  0.00000000000E+00 0. -1.
         21   -1    0    0  501  502 -0.00000000000E+00 -0.00000000000E+00 -0.54860996876E+03  0.54860996876E+03  0.00000000000E+00 0. -1.
         25    1    1    2    0    0 -0.11862832573E+03  0.12766657569E+03 -0.86368597945E+02  0.23120546906E+03  0.12500000000E+03 0.  0.
         25    1    1    2    0    0 -0.43505895710E+02  0.36990145610E+01 -0.18704198261E+03  0.22916402189E+03  0.12500000000E+03 0.  0.
         25    1    1    2    0    0  0.16213422144E+03 -0.13136559025E+03 -0.10031798786E+03  0.26312187813E+03  0.12500000000E+03 0.  0.
</event>
<event>
 5    0  0.5568866E-005  0.3167191E+03  0.7546771E-02  0.1077169E+00
         21   -1    0    0  502  501  0.00000000000E+00  0.00000000000E+00  0.52437342749E+03  0.52437342749E+03  0.00000000000E+00 0.  1.
         21   -1    0    0  501  502 -0.00000000000E+00 -0.00000000000E+00 -0.19129682591E+03  0.19129682591E+03  0.00000000000E+00 0.  1.
         25    1    1    2    0    0 -0.44838828184E+02 -0.12094516330E+03  0.13967063527E+02  0.18016196019E+03  0.12500000000E+03 0.  0.
         25    1    1    2    0    0  0.84800664190E+02  0.21724828980E+03  0.16816542412E+03  0.31351647794E+03  0.12500000000E+03 0.  0.
         25    1    1    2    0    0 -0.39961836006E+02 -0.96303126507E+02  0.15094411394E+03  0.22199181526E+03  0.12500000000E+03 0.  0.
</event>
<event>
 5    0  0.5568866E-005  0.3123229E+03  0.7546771E-02  0.1079238E+00
         21   -1    0    0  502  501  0.00000000000E+00  0.00000000000E+00  0.10563407917E+03  0.10563407917E+03  0.00000000000E+00 0.  1.
         21   -1    0    0  501  502 -0.00000000000E+00 -0.00000000000E+00 -0.92342935317E+03  0.92342935317E+03  0.00000000000E+00 0.  1.
         25    1    1    2    0    0  0.55909325935E+02  0.14616847653E+03 -0.23783421407E+03  0.31093598961E+03  0.12500000000E+03 0.  0.
         25    1    1    2    0    0 -0.51387112541E+02 -0.22816025702E+03 -0.29763796301E+03  0.39863654529E+03  0.12500000000E+03 0.  0.
         25    1    1    2    0    0 -0.45222133945E+01  0.81991780493E+02 -0.28232309694E+03  0.31949089744E+03  0.12500000000E+03 0.  0.
</event>
<event>
 5    0  0.5568866E-005  0.3319608E+03  0.7546771E-02  0.1070273E+00
         21   -1    0    0  502  501  0.00000000000E+00  0.00000000000E+00  0.87133807036E+02  0.87133807036E+02  0.00000000000E+00 0.  1.
         21   -1    0    0  501  502 -0.00000000000E+00 -0.00000000000E+00 -0.12646981377E+04  0.12646981377E+04  0.00000000000E+00 0.  1.
         25    1    1    2    0    0 -0.56829679793E+02 -0.21084981057E+02 -0.77042456887E+03  0.78284941416E+03  0.12500000000E+03 0.  0.
         25    1    1    2    0    0 -0.25986966998E+02  0.10982837941E+03 -0.56845144122E+02  0.17774691499E+03  0.12500000000E+03 0.  0.
         25    1    1    2    0    0  0.82816646792E+02 -0.88743398352E+02 -0.35029461770E+03  0.39123561562E+03  0.12500000000E+03 0.  0.
</event>
<event>
 5    0  0.5568866E-005  0.3194280E+03  0.7546771E-02  0.1075913E+00
         21   -1    0    0  502  501  0.00000000000E+00  0.00000000000E+00  0.19735034838E+03  0.19735034838E+03  0.00000000000E+00 0. -1.
         21   -1    0    0  501  502 -0.00000000000E+00 -0.00000000000E+00 -0.51702084049E+03  0.51702084049E+03  0.00000000000E+00 0. -1.
         25    1    1    2    0    0 -0.18175756965E+03 -0.14836376876E+03 -0.60483333926E+02  0.27263685681E+03  0.12500000000E+03 0.  0.
         25    1    1    2    0    0  0.96133899575E+02  0.27883820605E+02 -0.15035953036E+03  0.21966388521E+03  0.12500000000E+03 0.  0.
         25    1    1    2    0    0  0.85623670076E+02  0.12047994816E+03 -0.10882762783E+03  0.22207044685E+03  0.12500000000E+03 0.  0.
</event>
<event>
 5    0  0.5568866E-005  0.4605521E+03  0.7546771E-02  0.1024621E+00
         21   -1    0    0  502  501  0.00000000000E+00  0.00000000000E+00  0.31762953349E+03  0.31762953349E+03  0.00000000000E+00 0. -1.
         21   -1    0    0  501  502 -0.00000000000E+00 -0.00000000000E+00 -0.66778495381E+03  0.66778495381E+03  0.00000000000E+00 0.  1.
         25    1    1    2    0    0 -0.27844016529E+03  0.10097640783E+03 -0.11109783659E+03  0.34013657534E+03  0.12500000000E+03 0.  0.
         25    1    1    2    0    0  0.37144496746E+03 -0.16610386139E+03 -0.13337814428E+03  0.44606791635E+03  0.12500000000E+03 0.  0.
         25    1    1    2    0    0 -0.93004802169E+02  0.65127453563E+02 -0.10567943944E+03  0.19920999562E+03  0.12500000000E+03 0.  0.
</event>
<event>
 5    0  0.5568866E-005  0.2793016E+03  0.7546771E-02  0.1096071E+00
         21   -1    0    0  502  501  0.00000000000E+00  0.00000000000E+00  0.23941031160E+03  0.23941031160E+03  0.00000000000E+00 0.  1.
         21   -1    0    0  501  502 -0.00000000000E+00 -0.00000000000E+00 -0.32583980432E+03  0.32583980432E+03  0.00000000000E+00 0.  1.
         25    1    1    2    0    0  0.32872194709E+02  0.13773339551E+02  0.79168401238E+02  0.15219369836E+03  0.12500000000E+03 0.  0.
         25    1    1    2    0    0 -0.14087478124E+02 -0.97843220436E+02  0.33339020776E+02  0.16281352257E+03  0.12500000000E+03 0.  0.
         25    1    1    2    0    0 -0.18784716585E+02  0.84069880885E+02 -0.19893691473E+03  0.25024289499E+03  0.12500000000E+03 0.  0.
</event>
<event>
 5    0  0.5568866E-005  0.3162813E+03  0.7546771E-02  0.1077374E+00
         21   -1    0    0  502  501  0.00000000000E+00  0.00000000000E+00  0.18532775413E+03  0.18532775413E+03  0.00000000000E+00 0.  1.
         21   -1    0    0  501  502 -0.00000000000E+00 -0.00000000000E+00 -0.53976721119E+03  0.53976721119E+03  0.00000000000E+00 0.  1.
         25    1    1    2    0    0  0.16970729000E+03  0.15046219137E+03 -0.58970769945E+02  0.26559741531E+03  0.12500000000E+03 0.  0.
         25    1    1    2    0    0 -0.29058031471E+02 -0.69682920969E+02 -0.10526631147E+03  0.18001687420E+03  0.12500000000E+03 0.  0.
         25    1    1    2    0    0 -0.14064925852E+03 -0.80779270405E+02 -0.19020237565E+03  0.27948067581E+03  0.12500000000E+03 0.  0.
</event>
<event>
 5    0  0.5568866E-005  0.5052558E+03  0.7546771E-02  0.1012416E+00
         21   -1    0    0  502  501  0.00000000000E+00  0.00000000000E+00  0.97569204649E+03  0.97569204649E+03  0.00000000000E+00 0.  1.
         21   -1    0    0  501  502 -0.00000000000E+00 -0.00000000000E+00 -0.26164341737E+03  0.26164341737E+03  0.00000000000E+00 0.  1.
         25    1    1    2    0    0 -0.21066378818E+03  0.27560794173E+03  0.60446464965E+03  0.70805471672E+03  0.12500000000E+03 0.  0.
         25    1    1    2    0    0  0.56667880110E+02 -0.28614045893E+03  0.88993569148E+02  0.32959439653E+03  0.12500000000E+03 0.  0.
         25    1    1    2    0    0  0.15399590807E+03  0.10532517200E+02  0.20590410325E+02  0.19968635061E+03  0.12500000000E+03 0.  0.
</event>
<event>
 5    0  0.5568866E-005  0.4248074E+03  0.7546771E-02  0.1035513E+00
         21   -1    0    0  502  501  0.00000000000E+00  0.00000000000E+00  0.89553266898E+03  0.89553266898E+03  0.00000000000E+00 0.  1.
         21   -1    0    0  501  502 -0.00000000000E+00 -0.00000000000E+00 -0.20151278890E+03  0.20151278890E+03  0.00000000000E+00 0.  1.
         25    1    1    2    0    0 -0.20199161083E+03 -0.21199223837E+03  0.27816925571E+03  0.42278180519E+03  0.12500000000E+03 0.  0.
         25    1    1    2    0    0  0.21633733005E+03 -0.17758197236E+02  0.11579107162E+03  0.27595247093E+03  0.12500000000E+03 0.  0.
         25    1    1    2    0    0 -0.14345719223E+02  0.22975043561E+03  0.30005955275E+03  0.39831118177E+03  0.12500000000E+03 0.  0.
</event>
<event>
 5    0  0.5568866E-005  0.3226653E+03  0.7546771E-02  0.1074429E+00
         21   -1    0    0  502  501  0.00000000000E+00  0.00000000000E+00  0.50491058325E+03  0.50491058325E+03  0.00000000000E+00 0.  1.
         21   -1    0    0  501  502 -0.00000000000E+00 -0.00000000000E+00 -0.20620069019E+03  0.20620069019E+03  0.00000000000E+00 0.  1.
         25    1    1    2    0    0 -0.50561324147E+01 -0.24376221779E+03  0.16963938225E+03  0.32225471805E+03  0.12500000000E+03 0.  0.
         25    1    1    2    0    0  0.10177462648E+02  0.17123452719E+03  0.31899016887E+02  0.21463315523E+03  0.12500000000E+03 0.  0.
         25    1    1    2    0    0 -0.51213302331E+01  0.72527690604E+02  0.97171493927E+02  0.17422340015E+03  0.12500000000E+03 0.  0.
</event>
<event>
 5    0  0.5568866E-005  0.3065339E+03  0.7546771E-02  0.1082019E+00
         21   -1    0    0  502  501  0.00000000000E+00  0.00000000000E+00  0.14887686130E+03  0.14887686130E+03  0.00000000000E+00 0.  1.
         21   -1    0    0  501  502 -0.00000000000E+00 -0.00000000000E+00 -0.63114595751E+03  0.63114595751E+03  0.00000000000E+00 0. -1.
         25    1    1    2    0    0  0.36388015414E+02 -0.46695987690E+02 -0.23497554355E+03  0.27265932773E+03  0.12500000000E+03 0.  0.
         25    1    1    2    0    0 -0.46481009399E+02  0.18839580600E+03 -0.21492584995E+03  0.31539116178E+03  0.12500000000E+03 0.  0.
         25    1    1    2    0    0  0.10092993985E+02 -0.14169981831E+03 -0.32367702708E+02  0.19197232930E+03  0.12500000000E+03 0.  0.
</event>
